 Entering Gaussian System, Link 0=g09
 Input=b3lyp_TS_2H2O_claisen_PM6_toluene.com
 Output=b3lyp_TS_2H2O_claisen_PM6_toluene.log
 Initial command:
 /apps/applications/gaussian/G09.D01/2/default/g09/l1.exe "/local/714154.1.40core-192G.q/Gau-113661.inp" -scrdir="/local/714154.1.40core-192G.q/"
 Entering Link 1 = /apps/applications/gaussian/G09.D01/2/default/g09/l1.exe PID=    113662.
  
 Copyright (c) 1988,1990,1992,1993,1995,1998,2003,2009,2013,
            Gaussian, Inc.  All Rights Reserved.
  
 This is part of the Gaussian(R) 09 program.  It is based on
 the Gaussian(R) 03 system (copyright 2003, Gaussian, Inc.),
 the Gaussian(R) 98 system (copyright 1998, Gaussian, Inc.),
 the Gaussian(R) 94 system (copyright 1995, Gaussian, Inc.),
 the Gaussian 92(TM) system (copyright 1992, Gaussian, Inc.),
 the Gaussian 90(TM) system (copyright 1990, Gaussian, Inc.),
 the Gaussian 88(TM) system (copyright 1988, Gaussian, Inc.),
 the Gaussian 86(TM) system (copyright 1986, Carnegie Mellon
 University), and the Gaussian 82(TM) system (copyright 1983,
 Carnegie Mellon University). Gaussian is a federally registered
 trademark of Gaussian, Inc.
  
 This software contains proprietary and confidential information,
 including trade secrets, belonging to Gaussian, Inc.
  
 This software is provided under written license and may be
 used, copied, transmitted, or stored only in accord with that
 written license.
  
 The following legend is applicable only to US Government
 contracts under FAR:
  
                    RESTRICTED RIGHTS LEGEND
  
 Use, reproduction and disclosure by the US Government is
 subject to restrictions as set forth in subparagraphs (a)
 and (c) of the Commercial Computer Software - Restricted
 Rights clause in FAR 52.227-19.
  
 Gaussian, Inc.
 340 Quinnipiac St., Bldg. 40, Wallingford CT 06492
  
  
 ---------------------------------------------------------------
 Warning -- This program may not be used in any manner that
 competes with the business of Gaussian, Inc. or will provide
 assistance to any competitor of Gaussian, Inc.  The licensee
 of this program is prohibited from giving any competitor of
 Gaussian, Inc. access to this program.  By using this program,
 the user acknowledges that Gaussian, Inc. is engaged in the
 business of creating and licensing software in the field of
 computational chemistry and represents and warrants to the
 licensee that it is not a competitor of Gaussian, Inc. and that
 it will not use this program in any manner prohibited above.
 ---------------------------------------------------------------
  

 Cite this work as:
 Gaussian 09, Revision D.01,
 M. J. Frisch, G. W. Trucks, H. B. Schlegel, G. E. Scuseria, 
 M. A. Robb, J. R. Cheeseman, G. Scalmani, V. Barone, B. Mennucci, 
 G. A. Petersson, H. Nakatsuji, M. Caricato, X. Li, H. P. Hratchian, 
 A. F. Izmaylov, J. Bloino, G. Zheng, J. L. Sonnenberg, M. Hada, 
 M. Ehara, K. Toyota, R. Fukuda, J. Hasegawa, M. Ishida, T. Nakajima, 
 Y. Honda, O. Kitao, H. Nakai, T. Vreven, J. A. Montgomery, Jr., 
 J. E. Peralta, F. Ogliaro, M. Bearpark, J. J. Heyd, E. Brothers, 
 K. N. Kudin, V. N. Staroverov, T. Keith, R. Kobayashi, J. Normand, 
 K. Raghavachari, A. Rendell, J. C. Burant, S. S. Iyengar, J. Tomasi, 
 M. Cossi, N. Rega, J. M. Millam, M. Klene, J. E. Knox, J. B. Cross, 
 V. Bakken, C. Adamo, J. Jaramillo, R. Gomperts, R. E. Stratmann, 
 O. Yazyev, A. J. Austin, R. Cammi, C. Pomelli, J. W. Ochterski, 
 R. L. Martin, K. Morokuma, V. G. Zakrzewski, G. A. Voth, 
 P. Salvador, J. J. Dannenberg, S. Dapprich, A. D. Daniels, 
 O. Farkas, J. B. Foresman, J. V. Ortiz, J. Cioslowski, 
 and D. J. Fox, Gaussian, Inc., Wallingford CT, 2013.
 
 ******************************************
 Gaussian 09:  ES64L-G09RevD.01 24-Apr-2013
                27-Aug-2020 
 ******************************************
 %nprocshared=4
 Will use up to    4 processors via shared memory.
 %chk=b3lyp_TS_2H2O_claisen_PM6_toluene.chk
 ----------------------------------------------------------------------
 # opt=(calcfc,ts,noeigentest) b3lyp/6-31+g(d,p) scrf=(cpcm,solvent=tol
 uene) geom=connectivity empiricaldispersion=gd3
 ----------------------------------------------------------------------
 1/5=1,10=4,11=1,14=-1,18=20,26=3,38=1,57=2/1,3;
 2/9=110,12=2,17=6,18=5,40=1/2;
 3/5=1,6=6,7=111,11=2,16=1,25=1,30=1,70=2101,71=2,72=13,74=-5,124=31,140=1/1,2,3;
 4//1;
 5/5=2,38=5,53=13/2;
 8/6=4,10=90,11=11/1;
 11/6=1,8=1,9=11,15=111,16=1/1,2,10;
 10/6=1,13=1/2;
 6/7=2,8=2,9=2,10=2,28=1/1;
 7/10=1,18=20,25=1/1,2,3,16;
 1/5=1,10=4,11=1,14=-1,18=20,26=3/3(2);
 2/9=110/2;
 99//99;
 2/9=110/2;
 3/5=1,6=6,7=111,11=2,16=1,25=1,30=1,70=2105,71=1,72=13,74=-5,124=31/1,2,3;
 4/5=5,16=3,69=1/1;
 5/5=2,38=5,53=13/2;
 7//1,2,3,16;
 1/5=1,11=1,14=-1,18=20,26=3/3(-5);
 2/9=110/2;
 6/7=2,8=2,9=2,10=2,19=2,28=1/1;
 99/9=1/99;
 -------------------
 Title Card Required
 -------------------
 Symbolic Z-matrix:
 Charge =  0 Multiplicity = 1
 C                    -2.44137   2.79889   0.58472 
 C                    -2.91015   1.52307   0.32377 
 C                    -2.00806   0.49082  -0.03689 
 C                    -0.62621   0.78216  -0.11578 
 C                    -0.17055   2.09706   0.1419 
 C                    -1.06266   3.09277   0.49088 
 H                    -3.13697   3.59269   0.86243 
 H                    -3.97894   1.31733   0.394 
 H                     0.90362   2.3059    0.05536 
 H                    -0.71416   4.10566   0.69205 
 C                     0.32268  -0.27344  -0.49013 
 C                    -2.43347  -0.85932  -0.34474 
 C                    -0.1498   -1.58903  -0.74581 
 H                     0.47037  -2.26507  -1.34004 
 C                    -1.56852  -1.83885  -0.71864 
 H                    -1.91537  -2.83974  -0.98526 
 O                     1.58759  -0.03406  -0.45934 
 Cl                   -4.11982  -1.22186  -0.25505 
 C                     2.46468  -0.85135   1.10124 
 C                     1.92305  -2.13811   0.88249 
 H                     2.56239  -2.87373   0.38748 
 C                     3.86785  -0.56957   0.68138 
 H                     3.97874   0.46678   0.29763 
 H                     4.56778  -0.65762   1.5269 
 H                     4.23382  -1.23558  -0.11152 
 C                     1.90206   0.07433   2.13086 
 H                     0.80237   0.09158   2.15697 
 H                     2.23634  -0.22434   3.13829 
 H                     2.22594   1.11667   1.98742 
 C                     0.57487  -2.42571   1.02196 
 H                     0.20284  -3.43      0.82698 
 H                    -0.07845  -1.83938   1.66638 
 O                     3.11204   2.15916  -0.76238 
 H                     2.30867   1.6991   -0.43845 
 H                     3.36802   1.66354  -1.56791 
 O                     2.93054   0.12823  -2.53725 
 H                     2.03551   0.3625   -2.79634 
 H                     2.81669  -0.49351  -1.78798 
 
 Add virtual bond connecting atoms H34        and H9         Dist= 3.04D+00.
 Add virtual bond connecting atoms O36        and H35        Dist= 3.53D+00.
 Add virtual bond connecting atoms H38        and O17        Dist= 3.53D+00.
 Add virtual bond connecting atoms C19        and O17        Dist= 3.72D+00.
 Add virtual bond connecting atoms C30        and C13        Dist= 3.94D+00.

 GradGradGradGradGradGradGradGradGradGradGradGradGradGradGradGradGradGrad
 Berny optimization.
 Initialization pass.
                           ----------------------------
                           !    Initial Parameters    !
                           ! (Angstroms and Degrees)  !
 --------------------------                            --------------------------
 ! Name  Definition              Value          Derivative Info.                !
 --------------------------------------------------------------------------------
 ! R1    R(1,2)                  1.384          calculate D2E/DX2 analytically  !
 ! R2    R(1,6)                  1.4128         calculate D2E/DX2 analytically  !
 ! R3    R(1,7)                  1.0914         calculate D2E/DX2 analytically  !
 ! R4    R(2,3)                  1.4175         calculate D2E/DX2 analytically  !
 ! R5    R(2,8)                  1.0907         calculate D2E/DX2 analytically  !
 ! R6    R(3,4)                  1.4144         calculate D2E/DX2 analytically  !
 ! R7    R(3,12)                 1.4487         calculate D2E/DX2 analytically  !
 ! R8    R(4,5)                  1.4153         calculate D2E/DX2 analytically  !
 ! R9    R(4,11)                 1.4679         calculate D2E/DX2 analytically  !
 ! R10   R(5,6)                  1.3817         calculate D2E/DX2 analytically  !
 ! R11   R(5,9)                  1.0977         calculate D2E/DX2 analytically  !
 ! R12   R(6,10)                 1.0899         calculate D2E/DX2 analytically  !
 ! R13   R(9,34)                 1.6082         calculate D2E/DX2 analytically  !
 ! R14   R(11,13)                1.4211         calculate D2E/DX2 analytically  !
 ! R15   R(11,17)                1.2877         calculate D2E/DX2 analytically  !
 ! R16   R(12,15)                1.3592         calculate D2E/DX2 analytically  !
 ! R17   R(12,18)                1.7272         calculate D2E/DX2 analytically  !
 ! R18   R(13,14)                1.093          calculate D2E/DX2 analytically  !
 ! R19   R(13,15)                1.4408         calculate D2E/DX2 analytically  !
 ! R20   R(13,30)                2.0857         calculate D2E/DX2 analytically  !
 ! R21   R(15,16)                1.0923         calculate D2E/DX2 analytically  !
 ! R22   R(17,19)                1.9679         calculate D2E/DX2 analytically  !
 ! R23   R(17,38)                1.8674         calculate D2E/DX2 analytically  !
 ! R24   R(19,20)                1.4131         calculate D2E/DX2 analytically  !
 ! R25   R(19,22)                1.4915         calculate D2E/DX2 analytically  !
 ! R26   R(19,26)                1.4945         calculate D2E/DX2 analytically  !
 ! R27   R(20,21)                1.0931         calculate D2E/DX2 analytically  !
 ! R28   R(20,30)                1.3856         calculate D2E/DX2 analytically  !
 ! R29   R(22,23)                1.1107         calculate D2E/DX2 analytically  !
 ! R30   R(22,24)                1.1012         calculate D2E/DX2 analytically  !
 ! R31   R(22,25)                1.0983         calculate D2E/DX2 analytically  !
 ! R32   R(26,27)                1.1001         calculate D2E/DX2 analytically  !
 ! R33   R(26,28)                1.1027         calculate D2E/DX2 analytically  !
 ! R34   R(26,29)                1.1009         calculate D2E/DX2 analytically  !
 ! R35   R(30,31)                1.0886         calculate D2E/DX2 analytically  !
 ! R36   R(30,32)                1.089          calculate D2E/DX2 analytically  !
 ! R37   R(33,34)                0.9808         calculate D2E/DX2 analytically  !
 ! R38   R(33,35)                0.9798         calculate D2E/DX2 analytically  !
 ! R39   R(35,36)                1.8677         calculate D2E/DX2 analytically  !
 ! R40   R(36,37)                0.9608         calculate D2E/DX2 analytically  !
 ! R41   R(36,38)                0.9803         calculate D2E/DX2 analytically  !
 ! A1    A(2,1,6)              120.6476         calculate D2E/DX2 analytically  !
 ! A2    A(2,1,7)              120.1703         calculate D2E/DX2 analytically  !
 ! A3    A(6,1,7)              119.1816         calculate D2E/DX2 analytically  !
 ! A4    A(1,2,3)              120.2444         calculate D2E/DX2 analytically  !
 ! A5    A(1,2,8)              119.5808         calculate D2E/DX2 analytically  !
 ! A6    A(3,2,8)              120.1744         calculate D2E/DX2 analytically  !
 ! A7    A(2,3,4)              119.0726         calculate D2E/DX2 analytically  !
 ! A8    A(2,3,12)             123.084          calculate D2E/DX2 analytically  !
 ! A9    A(4,3,12)             117.8407         calculate D2E/DX2 analytically  !
 ! A10   A(3,4,5)              119.7201         calculate D2E/DX2 analytically  !
 ! A11   A(3,4,11)             119.8428         calculate D2E/DX2 analytically  !
 ! A12   A(5,4,11)             120.4259         calculate D2E/DX2 analytically  !
 ! A13   A(4,5,6)              120.507          calculate D2E/DX2 analytically  !
 ! A14   A(4,5,9)              118.5201         calculate D2E/DX2 analytically  !
 ! A15   A(6,5,9)              120.9726         calculate D2E/DX2 analytically  !
 ! A16   A(1,6,5)              119.7987         calculate D2E/DX2 analytically  !
 ! A17   A(1,6,10)             119.544          calculate D2E/DX2 analytically  !
 ! A18   A(5,6,10)             120.657          calculate D2E/DX2 analytically  !
 ! A19   A(5,9,34)             143.8413         calculate D2E/DX2 analytically  !
 ! A20   A(4,11,13)            119.7823         calculate D2E/DX2 analytically  !
 ! A21   A(4,11,17)            119.6818         calculate D2E/DX2 analytically  !
 ! A22   A(13,11,17)           120.1979         calculate D2E/DX2 analytically  !
 ! A23   A(3,12,15)            122.9041         calculate D2E/DX2 analytically  !
 ! A24   A(3,12,18)            118.119          calculate D2E/DX2 analytically  !
 ! A25   A(15,12,18)           118.9687         calculate D2E/DX2 analytically  !
 ! A26   A(11,13,14)           118.8005         calculate D2E/DX2 analytically  !
 ! A27   A(11,13,15)           118.9804         calculate D2E/DX2 analytically  !
 ! A28   A(11,13,30)            95.9327         calculate D2E/DX2 analytically  !
 ! A29   A(14,13,15)           117.497          calculate D2E/DX2 analytically  !
 ! A30   A(14,13,30)            90.8901         calculate D2E/DX2 analytically  !
 ! A31   A(15,13,30)           104.8672         calculate D2E/DX2 analytically  !
 ! A32   A(12,15,13)           120.4546         calculate D2E/DX2 analytically  !
 ! A33   A(12,15,16)           121.6962         calculate D2E/DX2 analytically  !
 ! A34   A(13,15,16)           117.8355         calculate D2E/DX2 analytically  !
 ! A35   A(11,17,19)           112.3066         calculate D2E/DX2 analytically  !
 ! A36   A(11,17,38)           125.7169         calculate D2E/DX2 analytically  !
 ! A37   A(19,17,38)            99.712          calculate D2E/DX2 analytically  !
 ! A38   A(17,19,20)            94.8518         calculate D2E/DX2 analytically  !
 ! A39   A(17,19,22)            96.7538         calculate D2E/DX2 analytically  !
 ! A40   A(17,19,26)            96.9676         calculate D2E/DX2 analytically  !
 ! A41   A(20,19,22)           119.2773         calculate D2E/DX2 analytically  !
 ! A42   A(20,19,26)           121.7595         calculate D2E/DX2 analytically  !
 ! A43   A(22,19,26)           115.5363         calculate D2E/DX2 analytically  !
 ! A44   A(19,20,21)           117.3028         calculate D2E/DX2 analytically  !
 ! A45   A(19,20,30)           123.1182         calculate D2E/DX2 analytically  !
 ! A46   A(21,20,30)           118.3591         calculate D2E/DX2 analytically  !
 ! A47   A(19,22,23)           111.5601         calculate D2E/DX2 analytically  !
 ! A48   A(19,22,24)           111.514          calculate D2E/DX2 analytically  !
 ! A49   A(19,22,25)           113.7132         calculate D2E/DX2 analytically  !
 ! A50   A(23,22,24)           106.0483         calculate D2E/DX2 analytically  !
 ! A51   A(23,22,25)           106.447          calculate D2E/DX2 analytically  !
 ! A52   A(24,22,25)           107.1003         calculate D2E/DX2 analytically  !
 ! A53   A(19,26,27)           113.7265         calculate D2E/DX2 analytically  !
 ! A54   A(19,26,28)           110.3368         calculate D2E/DX2 analytically  !
 ! A55   A(19,26,29)           112.7019         calculate D2E/DX2 analytically  !
 ! A56   A(27,26,28)           106.5947         calculate D2E/DX2 analytically  !
 ! A57   A(27,26,29)           106.3992         calculate D2E/DX2 analytically  !
 ! A58   A(28,26,29)           106.6369         calculate D2E/DX2 analytically  !
 ! A59   A(13,30,20)            99.758          calculate D2E/DX2 analytically  !
 ! A60   A(13,30,31)            95.7122         calculate D2E/DX2 analytically  !
 ! A61   A(13,30,32)            94.4236         calculate D2E/DX2 analytically  !
 ! A62   A(20,30,31)           120.3976         calculate D2E/DX2 analytically  !
 ! A63   A(20,30,32)           122.1106         calculate D2E/DX2 analytically  !
 ! A64   A(31,30,32)           113.4345         calculate D2E/DX2 analytically  !
 ! A65   A(34,33,35)           104.3736         calculate D2E/DX2 analytically  !
 ! A66   A(9,34,33)            129.7961         calculate D2E/DX2 analytically  !
 ! A67   A(33,35,36)           141.3805         calculate D2E/DX2 analytically  !
 ! A68   A(35,36,37)            99.075          calculate D2E/DX2 analytically  !
 ! A69   A(35,36,38)            98.7365         calculate D2E/DX2 analytically  !
 ! A70   A(37,36,38)           104.6302         calculate D2E/DX2 analytically  !
 ! A71   A(17,38,36)           117.6605         calculate D2E/DX2 analytically  !
 ! D1    D(6,1,2,3)              0.2579         calculate D2E/DX2 analytically  !
 ! D2    D(6,1,2,8)           -179.5337         calculate D2E/DX2 analytically  !
 ! D3    D(7,1,2,3)           -179.9914         calculate D2E/DX2 analytically  !
 ! D4    D(7,1,2,8)              0.217          calculate D2E/DX2 analytically  !
 ! D5    D(2,1,6,5)             -0.3263         calculate D2E/DX2 analytically  !
 ! D6    D(2,1,6,10)           179.4832         calculate D2E/DX2 analytically  !
 ! D7    D(7,1,6,5)            179.9206         calculate D2E/DX2 analytically  !
 ! D8    D(7,1,6,10)            -0.2699         calculate D2E/DX2 analytically  !
 ! D9    D(1,2,3,4)              0.4592         calculate D2E/DX2 analytically  !
 ! D10   D(1,2,3,12)          -178.9322         calculate D2E/DX2 analytically  !
 ! D11   D(8,2,3,4)           -179.7505         calculate D2E/DX2 analytically  !
 ! D12   D(8,2,3,12)             0.8581         calculate D2E/DX2 analytically  !
 ! D13   D(2,3,4,5)             -1.1031         calculate D2E/DX2 analytically  !
 ! D14   D(2,3,4,11)          -179.8859         calculate D2E/DX2 analytically  !
 ! D15   D(12,3,4,5)           178.3202         calculate D2E/DX2 analytically  !
 ! D16   D(12,3,4,11)           -0.4626         calculate D2E/DX2 analytically  !
 ! D17   D(2,3,12,15)          178.5126         calculate D2E/DX2 analytically  !
 ! D18   D(2,3,12,18)           -0.4301         calculate D2E/DX2 analytically  !
 ! D19   D(4,3,12,15)           -0.8859         calculate D2E/DX2 analytically  !
 ! D20   D(4,3,12,18)         -179.8285         calculate D2E/DX2 analytically  !
 ! D21   D(3,4,5,6)              1.0497         calculate D2E/DX2 analytically  !
 ! D22   D(3,4,5,9)           -178.7851         calculate D2E/DX2 analytically  !
 ! D23   D(11,4,5,6)           179.8253         calculate D2E/DX2 analytically  !
 ! D24   D(11,4,5,9)            -0.0096         calculate D2E/DX2 analytically  !
 ! D25   D(3,4,11,13)           -1.2269         calculate D2E/DX2 analytically  !
 ! D26   D(3,4,11,17)         -174.5655         calculate D2E/DX2 analytically  !
 ! D27   D(5,4,11,13)          179.999          calculate D2E/DX2 analytically  !
 ! D28   D(5,4,11,17)            6.6604         calculate D2E/DX2 analytically  !
 ! D29   D(4,5,6,1)             -0.3321         calculate D2E/DX2 analytically  !
 ! D30   D(4,5,6,10)           179.8605         calculate D2E/DX2 analytically  !
 ! D31   D(9,5,6,1)            179.4986         calculate D2E/DX2 analytically  !
 ! D32   D(9,5,6,10)            -0.3087         calculate D2E/DX2 analytically  !
 ! D33   D(4,5,9,34)             9.9191         calculate D2E/DX2 analytically  !
 ! D34   D(6,5,9,34)          -169.915          calculate D2E/DX2 analytically  !
 ! D35   D(5,9,34,33)          151.9373         calculate D2E/DX2 analytically  !
 ! D36   D(4,11,13,14)         159.1746         calculate D2E/DX2 analytically  !
 ! D37   D(4,11,13,15)           4.1098         calculate D2E/DX2 analytically  !
 ! D38   D(4,11,13,30)        -106.5269         calculate D2E/DX2 analytically  !
 ! D39   D(17,11,13,14)        -27.5216         calculate D2E/DX2 analytically  !
 ! D40   D(17,11,13,15)        177.4136         calculate D2E/DX2 analytically  !
 ! D41   D(17,11,13,30)         66.7769         calculate D2E/DX2 analytically  !
 ! D42   D(4,11,17,19)         104.1556         calculate D2E/DX2 analytically  !
 ! D43   D(4,11,17,38)        -134.541          calculate D2E/DX2 analytically  !
 ! D44   D(13,11,17,19)        -69.155          calculate D2E/DX2 analytically  !
 ! D45   D(13,11,17,38)         52.1484         calculate D2E/DX2 analytically  !
 ! D46   D(3,12,15,13)           3.8837         calculate D2E/DX2 analytically  !
 ! D47   D(3,12,15,16)        -177.4916         calculate D2E/DX2 analytically  !
 ! D48   D(18,12,15,13)       -177.1822         calculate D2E/DX2 analytically  !
 ! D49   D(18,12,15,16)          1.4425         calculate D2E/DX2 analytically  !
 ! D50   D(11,13,15,12)         -5.46           calculate D2E/DX2 analytically  !
 ! D51   D(11,13,15,16)        175.8633         calculate D2E/DX2 analytically  !
 ! D52   D(14,13,15,12)       -160.8467         calculate D2E/DX2 analytically  !
 ! D53   D(14,13,15,16)         20.4766         calculate D2E/DX2 analytically  !
 ! D54   D(30,13,15,12)        100.1614         calculate D2E/DX2 analytically  !
 ! D55   D(30,13,15,16)        -78.5153         calculate D2E/DX2 analytically  !
 ! D56   D(11,13,30,20)        -58.3005         calculate D2E/DX2 analytically  !
 ! D57   D(11,13,30,31)        179.4782         calculate D2E/DX2 analytically  !
 ! D58   D(11,13,30,32)         65.3602         calculate D2E/DX2 analytically  !
 ! D59   D(14,13,30,20)         60.7793         calculate D2E/DX2 analytically  !
 ! D60   D(14,13,30,31)        -61.442          calculate D2E/DX2 analytically  !
 ! D61   D(14,13,30,32)       -175.5599         calculate D2E/DX2 analytically  !
 ! D62   D(15,13,30,20)        179.5873         calculate D2E/DX2 analytically  !
 ! D63   D(15,13,30,31)         57.3661         calculate D2E/DX2 analytically  !
 ! D64   D(15,13,30,32)        -56.7519         calculate D2E/DX2 analytically  !
 ! D65   D(11,17,19,20)         50.8862         calculate D2E/DX2 analytically  !
 ! D66   D(11,17,19,22)        171.1697         calculate D2E/DX2 analytically  !
 ! D67   D(11,17,19,26)        -71.9713         calculate D2E/DX2 analytically  !
 ! D68   D(38,17,19,20)        -84.3805         calculate D2E/DX2 analytically  !
 ! D69   D(38,17,19,22)         35.9029         calculate D2E/DX2 analytically  !
 ! D70   D(38,17,19,26)        152.7619         calculate D2E/DX2 analytically  !
 ! D71   D(11,17,38,36)         85.4298         calculate D2E/DX2 analytically  !
 ! D72   D(19,17,38,36)       -147.8899         calculate D2E/DX2 analytically  !
 ! D73   D(17,19,20,21)         99.2456         calculate D2E/DX2 analytically  !
 ! D74   D(17,19,20,30)        -67.909          calculate D2E/DX2 analytically  !
 ! D75   D(22,19,20,21)         -1.2931         calculate D2E/DX2 analytically  !
 ! D76   D(22,19,20,30)       -168.4478         calculate D2E/DX2 analytically  !
 ! D77   D(26,19,20,21)       -159.4669         calculate D2E/DX2 analytically  !
 ! D78   D(26,19,20,30)         33.3784         calculate D2E/DX2 analytically  !
 ! D79   D(17,19,22,23)         44.3681         calculate D2E/DX2 analytically  !
 ! D80   D(17,19,22,24)        162.7443         calculate D2E/DX2 analytically  !
 ! D81   D(17,19,22,25)        -76.0334         calculate D2E/DX2 analytically  !
 ! D82   D(20,19,22,23)        143.8095         calculate D2E/DX2 analytically  !
 ! D83   D(20,19,22,24)        -97.8143         calculate D2E/DX2 analytically  !
 ! D84   D(20,19,22,25)         23.408          calculate D2E/DX2 analytically  !
 ! D85   D(26,19,22,23)        -56.699          calculate D2E/DX2 analytically  !
 ! D86   D(26,19,22,24)         61.6772         calculate D2E/DX2 analytically  !
 ! D87   D(26,19,22,25)       -177.1005         calculate D2E/DX2 analytically  !
 ! D88   D(17,19,26,27)         57.9647         calculate D2E/DX2 analytically  !
 ! D89   D(17,19,26,28)        177.6749         calculate D2E/DX2 analytically  !
 ! D90   D(17,19,26,29)        -63.2446         calculate D2E/DX2 analytically  !
 ! D91   D(20,19,26,27)        -42.1645         calculate D2E/DX2 analytically  !
 ! D92   D(20,19,26,28)         77.5457         calculate D2E/DX2 analytically  !
 ! D93   D(20,19,26,29)       -163.3738         calculate D2E/DX2 analytically  !
 ! D94   D(22,19,26,27)        158.8995         calculate D2E/DX2 analytically  !
 ! D95   D(22,19,26,28)        -81.3904         calculate D2E/DX2 analytically  !
 ! D96   D(22,19,26,29)         37.6901         calculate D2E/DX2 analytically  !
 ! D97   D(19,20,30,13)         76.4423         calculate D2E/DX2 analytically  !
 ! D98   D(19,20,30,31)        179.0325         calculate D2E/DX2 analytically  !
 ! D99   D(19,20,30,32)        -25.1133         calculate D2E/DX2 analytically  !
 ! D100  D(21,20,30,13)        -90.5845         calculate D2E/DX2 analytically  !
 ! D101  D(21,20,30,31)         12.0056         calculate D2E/DX2 analytically  !
 ! D102  D(21,20,30,32)        167.8598         calculate D2E/DX2 analytically  !
 ! D103  D(35,33,34,9)        -133.5361         calculate D2E/DX2 analytically  !
 ! D104  D(34,33,35,36)         -7.0814         calculate D2E/DX2 analytically  !
 ! D105  D(33,35,36,37)         64.2004         calculate D2E/DX2 analytically  !
 ! D106  D(33,35,36,38)        -42.2586         calculate D2E/DX2 analytically  !
 ! D107  D(35,36,38,17)         56.1313         calculate D2E/DX2 analytically  !
 ! D108  D(37,36,38,17)        -45.7007         calculate D2E/DX2 analytically  !
 --------------------------------------------------------------------------------
 Trust Radius=3.00D-01 FncErr=1.00D-07 GrdErr=1.00D-06
 Number of steps in this run=    228 maximum allowed number of steps=    228.
 Search for a saddle point of order  1.
 GradGradGradGradGradGradGradGradGradGradGradGradGradGradGradGradGradGrad

                          Input orientation:                          
 ---------------------------------------------------------------------
 Center     Atomic      Atomic             Coordinates (Angstroms)
 Number     Number       Type             X           Y           Z
 ---------------------------------------------------------------------
      1          6           0       -2.441371    2.798886    0.584719
      2          6           0       -2.910152    1.523071    0.323767
      3          6           0       -2.008059    0.490815   -0.036888
      4          6           0       -0.626208    0.782161   -0.115778
      5          6           0       -0.170548    2.097057    0.141899
      6          6           0       -1.062659    3.092768    0.490879
      7          1           0       -3.136966    3.592692    0.862430
      8          1           0       -3.978943    1.317334    0.394002
      9          1           0        0.903617    2.305898    0.055363
     10          1           0       -0.714164    4.105662    0.692049
     11          6           0        0.322677   -0.273439   -0.490133
     12          6           0       -2.433472   -0.859320   -0.344738
     13          6           0       -0.149800   -1.589034   -0.745814
     14          1           0        0.470368   -2.265067   -1.340035
     15          6           0       -1.568519   -1.838845   -0.718639
     16          1           0       -1.915373   -2.839744   -0.985258
     17          8           0        1.587590   -0.034063   -0.459337
     18         17           0       -4.119822   -1.221864   -0.255051
     19          6           0        2.464682   -0.851354    1.101241
     20          6           0        1.923051   -2.138109    0.882486
     21          1           0        2.562394   -2.873732    0.387475
     22          6           0        3.867850   -0.569570    0.681379
     23          1           0        3.978742    0.466783    0.297632
     24          1           0        4.567781   -0.657623    1.526898
     25          1           0        4.233823   -1.235576   -0.111518
     26          6           0        1.902061    0.074332    2.130858
     27          1           0        0.802372    0.091584    2.156968
     28          1           0        2.236343   -0.224338    3.138289
     29          1           0        2.225944    1.116672    1.987424
     30          6           0        0.574867   -2.425710    1.021961
     31          1           0        0.202843   -3.430002    0.826976
     32          1           0       -0.078445   -1.839377    1.666380
     33          8           0        3.112040    2.159163   -0.762376
     34          1           0        2.308668    1.699100   -0.438447
     35          1           0        3.368020    1.663543   -1.567911
     36          8           0        2.930539    0.128230   -2.537251
     37          1           0        2.035510    0.362502   -2.796344
     38          1           0        2.816685   -0.493513   -1.787984
 ---------------------------------------------------------------------
                    Distance matrix (angstroms):
                    1          2          3          4          5
     1  C    0.000000
     2  C    1.384036   0.000000
     3  C    2.429269   1.417532   0.000000
     4  C    2.802266   2.441014   1.414432   0.000000
     5  C    2.417704   2.804989   2.447126   1.415265   0.000000
     6  C    1.412805   2.430042   2.818240   2.428462   1.381698
     7  H    1.091377   2.150566   3.421234   3.893569   3.399371
     8  H    2.143711   1.090676   2.180180   3.433237   3.895561
     9  H    3.422309   3.902524   3.432331   2.165971   1.097695
    10  H    2.168508   3.409952   3.908022   3.421400   2.152366
    11  C    4.270181   3.786960   2.494363   1.467929   2.502396
    12  C    3.774444   2.519903   1.448659   2.452159   3.754704
    13  C    5.125959   4.295200   2.877755   2.499295   3.791534
    14  H    6.150327   5.342859   3.928827   3.462208   4.651347
    15  C    4.895831   3.766838   2.466839   2.849748   4.264525
    16  H    5.876704   4.662326   3.464191   3.941591   5.356015
    17  O    5.034698   4.823650   3.658231   2.384357   2.827403
    18  Cl   4.437211   3.054996   2.727711   4.029994   5.173932
    19  C    6.136807   5.927158   4.806471   3.701771   4.069140
    20  C    6.596269   6.089028   4.817688   4.002903   4.782077
    21  H    7.566714   7.020306   5.691160   4.877089   5.677854
    22  C    7.152769   7.102700   6.013870   4.760167   4.869353
    23  H    6.836591   6.969454   5.996188   4.634214   4.460791
    24  H    7.871681   7.881779   6.856093   5.634615   5.653162
    25  H    7.830699   7.670462   6.476657   5.262241   5.528937
    26  C    5.355291   5.340582   4.490169   3.455509   3.513272
    27  H    4.508139   4.380938   3.587605   2.771843   3.004829
    28  H    6.127121   6.120570   5.348658   4.449291   4.490028
    29  H    5.155701   5.414092   4.734587   3.559512   3.179668
    30  C    6.048576   5.312787   4.037175   3.609358   4.667502
    31  H    6.771233   5.871702   4.583356   4.395273   5.581857
    32  H    5.316662   4.596437   3.471934   3.216923   4.222326
    33  O    5.750155   6.152326   5.433703   4.035929   3.405430
    34  H    4.981894   5.277124   4.500593   3.091665   2.577146
    35  H    6.298559   6.558477   5.711528   4.340436   3.953840
    36  O    6.762878   6.651667   5.547345   4.352196   4.546522
    37  H    6.116373   5.961676   4.897092   3.800828   4.063083
    38  H    6.642045   6.428279   5.226222   4.034492   4.399893
                    6          7          8          9         10
     6  C    0.000000
     7  H    2.165808   0.000000
     8  H    3.415591   2.470952   0.000000
     9  H    2.162193   4.316655   4.993128   0.000000
    10  H    1.089896   2.482365   4.303764   2.502346   0.000000
    11  C    3.769999   5.361485   4.670780   2.699636   4.652861
    12  C    4.265722   4.666109   2.769845   4.616801   5.355557
    13  C    4.927676   6.193536   4.940495   4.113644   5.900468
    14  H    5.865903   7.223368   5.969661   4.798808   6.791073
    15  C    5.102905   5.870383   4.124267   4.887681   6.169046
    16  H    6.172585   6.803122   4.841692   5.958794   7.245338
    17  O    4.207589   6.100971   5.791438   2.491616   4.874534
    18  Cl   5.340291   5.039317   2.624622   6.146251   6.393594
    19  C    5.326422   7.154372   6.835473   3.674102   5.902924
    20  C    6.035718   7.645015   6.856547   4.633851   6.780549
    21  H    6.982179   8.632666   7.768794   5.448890   7.716252
    22  C    6.144829   8.150132   8.075590   4.176947   6.546202
    23  H    5.687606   7.792535   8.003591   3.591299   5.951502
    24  H    6.844021   8.824388   8.844795   4.937000   7.161341
    25  H    6.866598   8.865059   8.615244   4.864171   7.325102
    26  C    4.537626   6.275314   6.256831   3.206939   5.016615
    27  H    3.906571   5.426967   5.241325   3.054534   4.534169
    28  H    5.375443   6.972926   6.966896   4.205079   5.782602
    29  H    4.118193   6.013077   6.409359   2.625960   4.388199
    30  C    5.780756   7.072787   5.928060   4.840506   6.665528
    31  H    6.652893   7.776491   6.341293   5.829839   7.592453
    32  H    5.164933   6.285560   5.176645   4.554462   6.057801
    33  O    4.457620   6.614006   7.233804   2.359525   4.532554
    34  H    3.764546   5.910406   6.353957   1.608173   4.025801
    35  H    5.090404   7.207150   7.612281   3.020086   5.266459
    36  O    5.822687   7.770132   7.599155   3.946175   6.287464
    37  H    5.278147   7.111629   6.874857   3.631832   5.808687
    38  H    5.753602   7.692056   7.363477   3.859334   6.306336
                   11         12         13         14         15
    11  C    0.000000
    12  C    2.821481   0.000000
    13  C    1.421055   2.430741   0.000000
    14  H    2.170421   3.376245   1.093036   0.000000
    15  C    2.465630   1.359196   1.440801   2.173674   0.000000
    16  H    3.440921   2.144941   2.176892   2.479492   1.092333
    17  O    1.287732   4.106473   2.349155   2.645977   3.644928
    18  Cl   4.548689   1.727211   4.017056   4.830663   2.665469
    19  C    2.730319   5.107135   3.285011   3.454808   4.533631
    20  C    2.814653   4.703262   2.692500   2.658196   3.852820
    21  H    3.542323   5.436237   3.207926   2.780528   4.399877
    22  C    3.745449   6.390894   4.383800   4.301594   5.755451
    23  H    3.812521   6.579337   4.728639   4.738528   6.092687
    24  H    4.715604   7.249914   5.318676   5.252806   6.640173
    25  H    4.045506   6.681974   4.443356   4.090562   5.865126
    26  C    3.079771   5.079087   3.905402   4.423758   4.881066
    27  H    2.714865   4.199219   3.486725   4.230019   4.197237
    28  H    4.102435   5.860192   4.758396   5.228635   5.653274
    29  H    3.419521   5.572583   4.520575   5.058675   5.518678
    30  C    2.642404   3.656713   2.085713   2.369758   2.822800
    31  H    3.422430   3.864127   2.446873   2.474789   2.838737
    32  H    2.695108   3.248270   2.426199   3.085602   2.812230
    33  O    3.711093   6.327588   4.968788   5.185165   6.155779
    34  H    2.799597   5.389080   4.117082   4.461707   5.256248
    35  H    3.766646   6.443470   4.861086   4.886951   6.112070
    36  O    3.339607   5.878349   3.955595   3.635057   5.236245
    37  H    2.942249   5.241662   3.576136   3.387421   4.706571
    38  H    2.820093   5.457190   3.329612   2.973931   4.709929
                   16         17         18         19         20
    16  H    0.000000
    17  O    4.518760   0.000000
    18  Cl   2.830253   5.833280   0.000000
    19  C    5.243287   1.967907   6.732941   0.000000
    20  C    4.325998   2.517942   6.216897   1.413137   0.000000
    21  H    4.683583   3.119464   6.913286   2.146863   1.093132
    22  C    6.432499   2.605300   8.068785   1.491498   2.506592
    23  H    6.878918   2.557627   8.291184   2.162325   3.369478
    24  H    7.287240   3.635312   8.886403   2.154470   3.098661
    25  H    6.414779   2.926971   8.354889   2.179053   2.672504
    26  C    5.724930   2.611465   6.605737   1.494506   2.540427
    27  H    5.084526   2.734485   5.636575   2.183338   2.802099
    28  H    6.409425   3.660601   7.273971   2.143561   2.974780
    29  H    6.452951   2.778188   7.125040   2.171507   3.450541
    30  C    3.225159   2.989954   5.011997   2.460952   1.385557
    31  H    2.849462   3.886454   4.973137   3.441012   2.152019
    32  H    3.377310   3.248616   4.517294   2.786228   2.170188
    33  O    7.093210   2.688126   7.999284   3.599355   4.752453
    34  H    6.224358   1.877297   7.063367   2.983252   4.076486
    35  H    6.966586   2.698283   8.131233   3.776917   4.748151
    36  O    5.890706   2.479431   7.532515   3.796740   4.224444
    37  H    5.398508   2.412364   6.845181   4.104729   4.449662
    38  H    5.342428   1.867370   7.141114   2.932504   3.261087
                   21         22         23         24         25
    21  H    0.000000
    22  C    2.664537   0.000000
    23  H    3.629484   1.110669   0.000000
    24  H    3.198594   1.101163   1.767017   0.000000
    25  H    2.392953   1.098265   1.769321   1.769171   0.000000
    26  C    3.488052   2.525851   2.797738   2.829592   3.490161
    27  H    3.875807   3.465782   3.699626   3.890579   4.322295
    28  H    3.833090   2.969412   3.403371   2.867040   3.946362
    29  H    4.312350   2.691658   2.519931   2.973955   3.737674
    30  C    2.133907   3.795390   4.525211   4.395959   4.011129
    31  H    2.463753   4.651403   5.451839   5.218109   4.684557
    32  H    3.111193   4.260972   4.863395   4.796187   4.703313
    33  O    5.191753   3.178311   2.176911   3.910785   3.634043
    34  H    4.653742   2.971855   2.202173   3.810553   3.524972
    35  H    5.005940   3.208727   2.299014   4.050319   3.357914
    36  O    4.207295   3.424187   3.041366   4.451453   3.072897
    37  H    4.570287   4.039899   3.655094   5.113069   3.820304
    38  H    3.234614   2.684862   2.573391   3.752561   2.317213
                   26         27         28         29         30
    26  C    0.000000
    27  H    1.100134   0.000000
    28  H    1.102663   1.766089   0.000000
    29  H    1.100884   1.762415   1.767175   0.000000
    30  C    3.039952   2.770698   3.476404   4.025748   0.000000
    31  H    4.107044   3.811808   4.444499   5.109973   1.088588
    32  H    2.792924   2.178331   3.183255   3.761848   1.088981
    33  O    3.765816   4.258171   4.654365   3.071377   5.535537
    34  H    3.067006   3.404294   4.061759   2.496180   4.706688
    35  H    4.284334   4.788353   5.195489   3.774098   5.588482
    36  O    4.780368   5.154234   5.728697   4.684672   4.973911
    37  H    4.937425   5.111685   5.966958   4.846594   4.948440
    38  H    4.064026   4.467935   4.967637   4.146731   4.081044
                   31         32         33         34         35
    31  H    0.000000
    32  H    1.820387   0.000000
    33  O    6.498325   5.662718   0.000000
    34  H    5.687133   4.759141   0.980813   0.000000
    35  H    6.457401   5.882959   0.979822   1.548929   0.000000
    36  O    5.605298   5.531363   2.703297   2.694315   1.867671
    37  H    5.556096   5.406753   2.919578   2.724112   2.230995
    38  H    4.721563   4.703803   2.859335   2.624287   2.237251
                   36         37         38
    36  O    0.000000
    37  H    0.960775   0.000000
    38  H    0.980269   1.536159   0.000000
 Stoichiometry    C15H19ClO3
 Framework group  C1[X(C15H19ClO3)]
 Deg. of freedom   108
 Full point group                 C1      NOp   1
 Largest Abelian subgroup         C1      NOp   1
 Largest concise Abelian subgroup C1      NOp   1
                         Standard orientation:                         
 ---------------------------------------------------------------------
 Center     Atomic      Atomic             Coordinates (Angstroms)
 Number     Number       Type             X           Y           Z
 ---------------------------------------------------------------------
      1          6           0        2.441371    2.798886   -0.584719
      2          6           0        2.910152    1.523071   -0.323767
      3          6           0        2.008059    0.490815    0.036888
      4          6           0        0.626208    0.782161    0.115778
      5          6           0        0.170548    2.097057   -0.141899
      6          6           0        1.062659    3.092768   -0.490879
      7          1           0        3.136966    3.592692   -0.862430
      8          1           0        3.978943    1.317334   -0.394002
      9          1           0       -0.903617    2.305898   -0.055363
     10          1           0        0.714164    4.105662   -0.692049
     11          6           0       -0.322677   -0.273439    0.490133
     12          6           0        2.433472   -0.859320    0.344738
     13          6           0        0.149800   -1.589034    0.745814
     14          1           0       -0.470368   -2.265067    1.340035
     15          6           0        1.568519   -1.838845    0.718639
     16          1           0        1.915373   -2.839744    0.985258
     17          8           0       -1.587590   -0.034063    0.459337
     18         17           0        4.119822   -1.221864    0.255051
     19          6           0       -2.464682   -0.851354   -1.101241
     20          6           0       -1.923051   -2.138109   -0.882486
     21          1           0       -2.562394   -2.873732   -0.387475
     22          6           0       -3.867850   -0.569570   -0.681379
     23          1           0       -3.978742    0.466783   -0.297632
     24          1           0       -4.567781   -0.657623   -1.526898
     25          1           0       -4.233823   -1.235576    0.111518
     26          6           0       -1.902061    0.074332   -2.130858
     27          1           0       -0.802372    0.091584   -2.156968
     28          1           0       -2.236343   -0.224338   -3.138289
     29          1           0       -2.225944    1.116672   -1.987424
     30          6           0       -0.574867   -2.425710   -1.021961
     31          1           0       -0.202843   -3.430002   -0.826976
     32          1           0        0.078445   -1.839377   -1.666380
     33          8           0       -3.112040    2.159163    0.762376
     34          1           0       -2.308668    1.699100    0.438447
     35          1           0       -3.368020    1.663543    1.567911
     36          8           0       -2.930539    0.128230    2.537251
     37          1           0       -2.035510    0.362502    2.796344
     38          1           0       -2.816685   -0.493513    1.787984
 ---------------------------------------------------------------------
 Rotational constants (GHZ):      0.4996925      0.2494813      0.2044807
 Standard basis: 6-31+G(d,p) (6D, 7F)
 There are   460 symmetry adapted cartesian basis functions of A   symmetry.
 There are   460 symmetry adapted basis functions of A   symmetry.
   460 basis functions,   765 primitive gaussians,   460 cartesian basis functions
    75 alpha electrons       75 beta electrons
       nuclear repulsion energy      1644.8644175003 Hartrees.
 NAtoms=   38 NActive=   38 NUniq=   38 SFac= 1.00D+00 NAtFMM=   60 NAOKFM=F Big=F
 Integral buffers will be    131072 words long.
 Raffenetti 2 integral format.
 Two-electron integral symmetry is turned on.
 Nuclear repulsion after empirical dispersion term =     1644.8137669933 Hartrees.
 Force inversion solution in PCM.
 ------------------------------------------------------------------------------
 Polarizable Continuum Model (PCM)
 =================================
 Model                : C-PCM.
 Atomic radii         : UFF (Universal Force Field).
 Polarization charges : Total charges.
 Charge compensation  : None.
 Solution method      : Matrix inversion.
 Cavity type          : Scaled VdW (van der Waals Surface) (Alpha=1.100).
 Cavity algorithm     : GePol (No added spheres)
                        Default sphere list used, NSphG=   38.
                        Lebedev-Laikov grids with approx.  5.0 points / Ang**2.
                        Smoothing algorithm: Karplus/York (Gamma=1.0000).
                        Polarization charges: spherical gaussians, with
                                              point-specific exponents (IZeta= 3).
                        Self-potential: point-specific (ISelfS= 7).
                        Self-field    : sphere-specific E.n sum rule (ISelfD= 2).
 1st derivatives      : Analytical E(r).r(x)/FMM algorithm (CHGder, D1EAlg=3).
                        Cavity 1st derivative terms included.
 2nd derivatives      : Analytical E(r).r(xy)/FMM algorithm (CHGder, D2EAlg=3).
                        Cavity 2nd derivative terms included.
 Solvent              : Toluene, Eps=   2.374100 Eps(inf)=   2.238315
 ------------------------------------------------------------------------------
 One-electron integrals computed using PRISM.
 NBasis=   460 RedAO= T EigKep=  1.14D-06  NBF=   460
 NBsUse=   457 1.00D-06 EigRej=  7.81D-07 NBFU=   457
 ExpMin= 4.38D-02 ExpMax= 2.52D+04 ExpMxC= 3.78D+03 IAcc=2 IRadAn=         4 AccDes= 0.00D+00
 Harris functional with IExCor=  402 and IRadAn=       4 diagonalized for initial guess.
 HarFok:  IExCor=  402 AccDes= 0.00D+00 IRadAn=         4 IDoV= 1 UseB2=F ITyADJ=14
 ICtDFT=  3500011 ScaDFX=  1.000000  1.000000  1.000000  1.000000
 FoFCou: FMM=F IPFlag=           0 FMFlag=      100000 FMFlg1=           0
         NFxFlg=           0 DoJE=T BraDBF=F KetDBF=T FulRan=T
         wScrn=  0.000000 ICntrl=     500 IOpCl=  0 I1Cent=   200000004 NGrid=           0
         NMat0=    1 NMatS0=      1 NMatT0=    0 NMatD0=    1 NMtDS0=    0 NMtDT0=    0
 Petite list used in FoFCou.
 Requested convergence on RMS density matrix=1.00D-08 within 128 cycles.
 Requested convergence on MAX density matrix=1.00D-06.
 Requested convergence on             energy=1.00D-06.
 No special actions if energy rises.
 Inv3:  Mode=1 IEnd=    19431075.
 Iteration    1 A*A^-1 deviation from unit magnitude is 6.22D-15 for   2510.
 Iteration    1 A*A^-1 deviation from orthogonality  is 2.18D-15 for   1619    715.
 Iteration    1 A^-1*A deviation from unit magnitude is 6.22D-15 for   2510.
 Iteration    1 A^-1*A deviation from orthogonality  is 3.36D-15 for   2527    837.
 Error on total polarization charges =  0.01286
 SCF Done:  E(RB3LYP) =  -1268.95349758     A.U. after   16 cycles
            NFock= 16  Conv=0.50D-08     -V/T= 2.0071
 DoSCS=F DFT=T ScalE2(SS,OS)=  1.000000  1.000000
 Range of M.O.s used for correlation:     1   457
 NBasis=   460 NAE=    75 NBE=    75 NFC=     0 NFV=     0
 NROrb=    457 NOA=    75 NOB=    75 NVA=   382 NVB=   382

 **** Warning!!: The largest alpha MO coefficient is  0.16441446D+03

 PrsmSu:  requested number of processors reduced to:   2 ShMem   1 Linda.
 Symmetrizing basis deriv contribution to polar:
 IMax=3 JMax=2 DiffMx= 0.00D+00
 G2DrvN: will do    13 centers at a time, making    3 passes.
 Calling FoFCou, ICntrl=  3107 FMM=F I1Cent=   0 AccDes= 0.00D+00.
 Calling FoFCou, ICntrl=  3107 FMM=F I1Cent=   0 AccDes= 0.00D+00.
 Calling FoFCou, ICntrl=  3107 FMM=F I1Cent=   0 AccDes= 0.00D+00.
 NEqPCM:  Using equilibrium solvation (IEInf=0, Eps=   2.3741, EpsInf=   2.2383)
 G2PCM: DoFxE=T DoFxN=T DoGrad=T DoDP/DQ/DG/TGxP=FFFF NFrqRd=   0 IEInf=0 SqF1=F DoCFld=F IF1Alg=4.
 CoulSu:  requested number of processors reduced to:   3 ShMem   1 Linda.
 CoulSu:  requested number of processors reduced to:   3 ShMem   1 Linda.
 CoulSu:  requested number of processors reduced to:   3 ShMem   1 Linda.
 CoulSu:  requested number of processors reduced to:   3 ShMem   1 Linda.
 End of G2Drv F.D. properties file   721 does not exist.
 End of G2Drv F.D. properties file   722 does not exist.
 End of G2Drv F.D. properties file   788 does not exist.
          IDoAtm=11111111111111111111111111111111111111
 NEqPCM:  Using equilibrium solvation (IEInf=0, Eps=   2.3741, EpsInf=   2.2383)
          Differentiating once with respect to nuclear coordinates.
          There are   117 degrees of freedom in the 1st order CPHF.  IDoFFX=6 NUNeed=     0.
    114 vectors produced by pass  0 Test12= 2.87D-14 1.00D-09 XBig12= 3.66D-01 1.49D-01.
 AX will form    40 AO Fock derivatives at one time.
    114 vectors produced by pass  1 Test12= 2.87D-14 1.00D-09 XBig12= 4.93D-02 3.62D-02.
    111 vectors produced by pass  2 Test12= 2.87D-14 1.00D-09 XBig12= 4.39D-04 2.99D-03.
    111 vectors produced by pass  3 Test12= 2.87D-14 1.00D-09 XBig12= 1.76D-06 1.46D-04.
    111 vectors produced by pass  4 Test12= 2.87D-14 1.00D-09 XBig12= 3.98D-09 5.97D-06.
    111 vectors produced by pass  5 Test12= 2.87D-14 1.00D-09 XBig12= 2.08D-11 3.33D-07.
    106 vectors produced by pass  6 Test12= 2.87D-14 1.00D-09 XBig12= 1.20D-12 1.10D-07.
     27 vectors produced by pass  7 Test12= 2.87D-14 1.00D-09 XBig12= 3.34D-14 1.64D-08.
     15 vectors produced by pass  8 Test12= 2.87D-14 1.00D-09 XBig12= 9.55D-15 8.06D-09.
     15 vectors produced by pass  9 Test12= 2.87D-14 1.00D-09 XBig12= 5.44D-14 1.72D-08.
     15 vectors produced by pass 10 Test12= 2.87D-14 1.00D-09 XBig12= 4.53D-14 1.33D-08.
     12 vectors produced by pass 11 Test12= 2.87D-14 1.00D-09 XBig12= 1.84D-14 8.92D-09.
     12 vectors produced by pass 12 Test12= 2.87D-14 1.00D-09 XBig12= 2.27D-14 1.19D-08.
     12 vectors produced by pass 13 Test12= 2.87D-14 1.00D-09 XBig12= 3.16D-14 1.27D-08.
     12 vectors produced by pass 14 Test12= 2.87D-14 1.00D-09 XBig12= 1.32D-14 1.24D-08.
     12 vectors produced by pass 15 Test12= 2.87D-14 1.00D-09 XBig12= 1.48D-14 7.96D-09.
     12 vectors produced by pass 16 Test12= 2.87D-14 1.00D-09 XBig12= 2.43D-14 9.43D-09.
     11 vectors produced by pass 17 Test12= 2.87D-14 1.00D-09 XBig12= 1.19D-14 8.08D-09.
     11 vectors produced by pass 18 Test12= 2.87D-14 1.00D-09 XBig12= 1.15D-14 6.65D-09.
     10 vectors produced by pass 19 Test12= 2.87D-14 1.00D-09 XBig12= 4.41D-15 4.49D-09.
     10 vectors produced by pass 20 Test12= 2.87D-14 1.00D-09 XBig12= 2.26D-14 8.69D-09.
      9 vectors produced by pass 21 Test12= 2.87D-14 1.00D-09 XBig12= 8.56D-15 6.62D-09.
      9 vectors produced by pass 22 Test12= 2.87D-14 1.00D-09 XBig12= 9.18D-15 7.93D-09.
      9 vectors produced by pass 23 Test12= 2.87D-14 1.00D-09 XBig12= 1.68D-14 1.00D-08.
      9 vectors produced by pass 24 Test12= 2.87D-14 1.00D-09 XBig12= 4.24D-15 4.34D-09.
      9 vectors produced by pass 25 Test12= 2.87D-14 1.00D-09 XBig12= 1.08D-14 7.36D-09.
      9 vectors produced by pass 26 Test12= 2.87D-14 1.00D-09 XBig12= 1.76D-14 8.02D-09.
      9 vectors produced by pass 27 Test12= 2.87D-14 1.00D-09 XBig12= 1.30D-14 6.74D-09.
      9 vectors produced by pass 28 Test12= 2.87D-14 1.00D-09 XBig12= 5.22D-15 5.31D-09.
      9 vectors produced by pass 29 Test12= 2.87D-14 1.00D-09 XBig12= 4.69D-15 4.31D-09.
      9 vectors produced by pass 30 Test12= 2.87D-14 1.00D-09 XBig12= 4.14D-15 4.10D-09.
      9 vectors produced by pass 31 Test12= 2.87D-14 1.00D-09 XBig12= 5.65D-15 3.96D-09.
      9 vectors produced by pass 32 Test12= 2.87D-14 1.00D-09 XBig12= 8.70D-15 6.40D-09.
      9 vectors produced by pass 33 Test12= 2.87D-14 1.00D-09 XBig12= 3.51D-15 4.21D-09.
      8 vectors produced by pass 34 Test12= 2.87D-14 1.00D-09 XBig12= 6.19D-15 4.92D-09.
      8 vectors produced by pass 35 Test12= 2.87D-14 1.00D-09 XBig12= 9.72D-15 6.46D-09.
      8 vectors produced by pass 36 Test12= 2.87D-14 1.00D-09 XBig12= 5.86D-15 5.14D-09.
      6 vectors produced by pass 37 Test12= 2.87D-14 1.00D-09 XBig12= 3.24D-15 2.95D-09.
      6 vectors produced by pass 38 Test12= 2.87D-14 1.00D-09 XBig12= 5.24D-15 4.35D-09.
      6 vectors produced by pass 39 Test12= 2.87D-14 1.00D-09 XBig12= 6.88D-15 6.16D-09.
      6 vectors produced by pass 40 Test12= 2.87D-14 1.00D-09 XBig12= 5.74D-15 4.09D-09.
      6 vectors produced by pass 41 Test12= 2.87D-14 1.00D-09 XBig12= 4.78D-15 4.12D-09.
      6 vectors produced by pass 42 Test12= 2.87D-14 1.00D-09 XBig12= 4.38D-15 3.64D-09.
      6 vectors produced by pass 43 Test12= 2.87D-14 1.00D-09 XBig12= 8.15D-15 5.32D-09.
      6 vectors produced by pass 44 Test12= 2.87D-14 1.00D-09 XBig12= 4.10D-15 3.97D-09.
      6 vectors produced by pass 45 Test12= 2.87D-14 1.00D-09 XBig12= 2.40D-15 3.40D-09.
      5 vectors produced by pass 46 Test12= 2.87D-14 1.00D-09 XBig12= 2.06D-15 2.43D-09.
      5 vectors produced by pass 47 Test12= 2.87D-14 1.00D-09 XBig12= 6.92D-15 4.95D-09.
      5 vectors produced by pass 48 Test12= 2.87D-14 1.00D-09 XBig12= 3.64D-15 4.29D-09.
      4 vectors produced by pass 49 Test12= 2.87D-14 1.00D-09 XBig12= 3.10D-15 3.55D-09.
      4 vectors produced by pass 50 Test12= 2.87D-14 1.00D-09 XBig12= 4.26D-15 4.30D-09.
      4 vectors produced by pass 51 Test12= 2.87D-14 1.00D-09 XBig12= 2.19D-15 2.83D-09.
      4 vectors produced by pass 52 Test12= 2.87D-14 1.00D-09 XBig12= 3.43D-15 3.63D-09.
      4 vectors produced by pass 53 Test12= 2.87D-14 1.00D-09 XBig12= 2.14D-15 2.82D-09.
      4 vectors produced by pass 54 Test12= 2.87D-14 1.00D-09 XBig12= 4.03D-15 3.38D-09.
      4 vectors produced by pass 55 Test12= 2.87D-14 1.00D-09 XBig12= 2.59D-15 2.84D-09.
      4 vectors produced by pass 56 Test12= 2.87D-14 1.00D-09 XBig12= 3.62D-15 3.02D-09.
      4 vectors produced by pass 57 Test12= 2.87D-14 1.00D-09 XBig12= 2.46D-15 2.90D-09.
      4 vectors produced by pass 58 Test12= 2.87D-14 1.00D-09 XBig12= 2.64D-15 2.62D-09.
      4 vectors produced by pass 59 Test12= 2.87D-14 1.00D-09 XBig12= 5.13D-15 4.03D-09.
      3 vectors produced by pass 60 Test12= 2.87D-14 1.00D-09 XBig12= 2.16D-15 3.23D-09.
      3 vectors produced by pass 61 Test12= 2.87D-14 1.00D-09 XBig12= 1.47D-15 2.07D-09.
      3 vectors produced by pass 62 Test12= 2.87D-14 1.00D-09 XBig12= 6.50D-15 4.29D-09.
      3 vectors produced by pass 63 Test12= 2.87D-14 1.00D-09 XBig12= 1.97D-15 2.44D-09.
      3 vectors produced by pass 64 Test12= 2.87D-14 1.00D-09 XBig12= 2.02D-15 2.29D-09.
      3 vectors produced by pass 65 Test12= 2.87D-14 1.00D-09 XBig12= 2.08D-15 2.84D-09.
      3 vectors produced by pass 66 Test12= 2.87D-14 1.00D-09 XBig12= 4.02D-15 4.04D-09.
      3 vectors produced by pass 67 Test12= 2.87D-14 1.00D-09 XBig12= 2.45D-15 2.68D-09.
      3 vectors produced by pass 68 Test12= 2.87D-14 1.00D-09 XBig12= 3.78D-15 3.83D-09.
      3 vectors produced by pass 69 Test12= 2.87D-14 1.00D-09 XBig12= 2.71D-15 2.69D-09.
      3 vectors produced by pass 70 Test12= 2.87D-14 1.00D-09 XBig12= 2.91D-15 3.23D-09.
      3 vectors produced by pass 71 Test12= 2.87D-14 1.00D-09 XBig12= 2.15D-15 2.39D-09.
      3 vectors produced by pass 72 Test12= 2.87D-14 1.00D-09 XBig12= 1.80D-15 2.16D-09.
      2 vectors produced by pass 73 Test12= 2.87D-14 1.00D-09 XBig12= 8.81D-16 1.45D-09.
 InvSVY:  IOpt=1 It=  1 EMax= 9.99D-16
 Solved reduced A of dimension  1259 with   117 vectors.
 End of Minotr F.D. properties file   721 does not exist.
 End of Minotr F.D. properties file   722 does not exist.
 End of Minotr F.D. properties file   788 does not exist.

 **********************************************************************

            Population analysis using the SCF density.

 **********************************************************************

 Orbital symmetries:
       Occupied  (A) (A) (A) (A) (A) (A) (A) (A) (A) (A) (A) (A)
                 (A) (A) (A) (A) (A) (A) (A) (A) (A) (A) (A) (A)
                 (A) (A) (A) (A) (A) (A) (A) (A) (A) (A) (A) (A)
                 (A) (A) (A) (A) (A) (A) (A) (A) (A) (A) (A) (A)
                 (A) (A) (A) (A) (A) (A) (A) (A) (A) (A) (A) (A)
                 (A) (A) (A) (A) (A) (A) (A) (A) (A) (A) (A) (A)
                 (A) (A) (A)
       Virtual   (A) (A) (A) (A) (A) (A) (A) (A) (A) (A) (A) (A)
                 (A) (A) (A) (A) (A) (A) (A) (A) (A) (A) (A) (A)
                 (A) (A) (A) (A) (A) (A) (A) (A) (A) (A) (A) (A)
                 (A) (A) (A) (A) (A) (A) (A) (A) (A) (A) (A) (A)
                 (A) (A) (A) (A) (A) (A) (A) (A) (A) (A) (A) (A)
                 (A) (A) (A) (A) (A) (A) (A) (A) (A) (A) (A) (A)
                 (A) (A) (A) (A) (A) (A) (A) (A) (A) (A) (A) (A)
                 (A) (A) (A) (A) (A) (A) (A) (A) (A) (A) (A) (A)
                 (A) (A) (A) (A) (A) (A) (A) (A) (A) (A) (A) (A)
                 (A) (A) (A) (A) (A) (A) (A) (A) (A) (A) (A) (A)
                 (A) (A) (A) (A) (A) (A) (A) (A) (A) (A) (A) (A)
                 (A) (A) (A) (A) (A) (A) (A) (A) (A) (A) (A) (A)
                 (A) (A) (A) (A) (A) (A) (A) (A) (A) (A) (A) (A)
                 (A) (A) (A) (A) (A) (A) (A) (A) (A) (A) (A) (A)
                 (A) (A) (A) (A) (A) (A) (A) (A) (A) (A) (A) (A)
                 (A) (A) (A) (A) (A) (A) (A) (A) (A) (A) (A) (A)
                 (A) (A) (A) (A) (A) (A) (A) (A) (A) (A) (A) (A)
                 (A) (A) (A) (A) (A) (A) (A) (A) (A) (A) (A) (A)
                 (A) (A) (A) (A) (A) (A) (A) (A) (A) (A) (A) (A)
                 (A) (A) (A) (A) (A) (A) (A) (A) (A) (A) (A) (A)
                 (A) (A) (A) (A) (A) (A) (A) (A) (A) (A) (A) (A)
                 (A) (A) (A) (A) (A) (A) (A) (A) (A) (A) (A) (A)
                 (A) (A) (A) (A) (A) (A) (A) (A) (A) (A) (A) (A)
                 (A) (A) (A) (A) (A) (A) (A) (A) (A) (A) (A) (A)
                 (A) (A) (A) (A) (A) (A) (A) (A) (A) (A) (A) (A)
                 (A) (A) (A) (A) (A) (A) (A) (A) (A) (A) (A) (A)
                 (A) (A) (A) (A) (A) (A) (A) (A) (A) (A) (A) (A)
                 (A) (A) (A) (A) (A) (A) (A) (A) (A) (A) (A) (A)
                 (A) (A) (A) (A) (A) (A) (A) (A) (A) (A) (A) (A)
                 (A) (A) (A) (A) (A) (A) (A) (A) (A) (A) (A) (A)
                 (A) (A) (A) (A) (A) (A) (A) (A) (A) (A) (A) (A)
                 (A) (A) (A) (A) (A) (A) (A) (A) (A) (A)
 The electronic state is 1-A.
 Alpha  occ. eigenvalues -- -101.56447 -19.16384 -19.15751 -19.12735 -10.26696
 Alpha  occ. eigenvalues --  -10.26466 -10.25459 -10.22829 -10.22792 -10.22371
 Alpha  occ. eigenvalues --  -10.21938 -10.21779 -10.21117 -10.21087 -10.21028
 Alpha  occ. eigenvalues --  -10.20926 -10.19824 -10.19601 -10.18672  -9.47996
 Alpha  occ. eigenvalues --   -7.24384  -7.23441  -7.23404  -1.05142  -1.01356
 Alpha  occ. eigenvalues --   -0.97989  -0.91294  -0.86908  -0.84305  -0.83052
 Alpha  occ. eigenvalues --   -0.77495  -0.77028  -0.75610  -0.71332  -0.70875
 Alpha  occ. eigenvalues --   -0.64674  -0.64016  -0.63549  -0.59295  -0.55030
 Alpha  occ. eigenvalues --   -0.54336  -0.53507  -0.52990  -0.51355  -0.50105
 Alpha  occ. eigenvalues --   -0.49133  -0.48183  -0.47168  -0.46726  -0.45710
 Alpha  occ. eigenvalues --   -0.44605  -0.44336  -0.42986  -0.42351  -0.41189
 Alpha  occ. eigenvalues --   -0.40747  -0.40059  -0.39655  -0.39269  -0.38439
 Alpha  occ. eigenvalues --   -0.37606  -0.37061  -0.36941  -0.36602  -0.36469
 Alpha  occ. eigenvalues --   -0.35704  -0.32664  -0.32402  -0.30724  -0.30210
 Alpha  occ. eigenvalues --   -0.29162  -0.28408  -0.27649  -0.24563  -0.21942
 Alpha virt. eigenvalues --   -0.07204  -0.06087  -0.02564  -0.00586  -0.00110
 Alpha virt. eigenvalues --    0.00536   0.01163   0.01623   0.01722   0.02082
 Alpha virt. eigenvalues --    0.02643   0.03359   0.03658   0.04314   0.04863
 Alpha virt. eigenvalues --    0.05410   0.05749   0.05838   0.06295   0.06910
 Alpha virt. eigenvalues --    0.07460   0.07861   0.08176   0.08550   0.08696
 Alpha virt. eigenvalues --    0.09476   0.09861   0.10233   0.10827   0.11172
 Alpha virt. eigenvalues --    0.11722   0.11787   0.12156   0.13137   0.13445
 Alpha virt. eigenvalues --    0.13663   0.13912   0.14408   0.14837   0.15003
 Alpha virt. eigenvalues --    0.15500   0.15554   0.16072   0.16576   0.16914
 Alpha virt. eigenvalues --    0.17138   0.17539   0.17665   0.18233   0.18577
 Alpha virt. eigenvalues --    0.19071   0.19254   0.19869   0.20090   0.20333
 Alpha virt. eigenvalues --    0.20681   0.21062   0.21297   0.21572   0.21957
 Alpha virt. eigenvalues --    0.22106   0.22397   0.22432   0.23046   0.23339
 Alpha virt. eigenvalues --    0.23885   0.23971   0.24361   0.24918   0.25272
 Alpha virt. eigenvalues --    0.25373   0.25966   0.26225   0.26525   0.26847
 Alpha virt. eigenvalues --    0.26968   0.27297   0.27702   0.27910   0.28257
 Alpha virt. eigenvalues --    0.28387   0.29164   0.29663   0.30170   0.30502
 Alpha virt. eigenvalues --    0.30985   0.31669   0.31825   0.32504   0.33052
 Alpha virt. eigenvalues --    0.33566   0.34059   0.34414   0.35372   0.35913
 Alpha virt. eigenvalues --    0.36193   0.37139   0.37416   0.38581   0.39211
 Alpha virt. eigenvalues --    0.39903   0.40713   0.41412   0.42874   0.43045
 Alpha virt. eigenvalues --    0.44552   0.44890   0.47067   0.47568   0.48884
 Alpha virt. eigenvalues --    0.50108   0.51602   0.52608   0.53588   0.57259
 Alpha virt. eigenvalues --    0.59041   0.61413   0.62827   0.63921   0.65547
 Alpha virt. eigenvalues --    0.66500   0.68037   0.68504   0.68732   0.69854
 Alpha virt. eigenvalues --    0.69982   0.70951   0.72265   0.72577   0.73217
 Alpha virt. eigenvalues --    0.73394   0.73815   0.74931   0.75277   0.75898
 Alpha virt. eigenvalues --    0.76753   0.77413   0.77931   0.78744   0.79831
 Alpha virt. eigenvalues --    0.81450   0.82005   0.82761   0.84281   0.84844
 Alpha virt. eigenvalues --    0.85400   0.85920   0.86699   0.87085   0.88054
 Alpha virt. eigenvalues --    0.88401   0.89574   0.90073   0.91270   0.92853
 Alpha virt. eigenvalues --    0.93117   0.93288   0.95236   0.95857   0.96769
 Alpha virt. eigenvalues --    0.97995   0.98863   1.00111   1.00874   1.01025
 Alpha virt. eigenvalues --    1.01463   1.01953   1.02864   1.03480   1.04418
 Alpha virt. eigenvalues --    1.06130   1.06758   1.09033   1.09220   1.10265
 Alpha virt. eigenvalues --    1.11249   1.12339   1.12907   1.13409   1.15054
 Alpha virt. eigenvalues --    1.15581   1.16368   1.16973   1.18000   1.18655
 Alpha virt. eigenvalues --    1.19972   1.21134   1.22033   1.23250   1.24689
 Alpha virt. eigenvalues --    1.25114   1.26204   1.26575   1.26882   1.28187
 Alpha virt. eigenvalues --    1.28945   1.29204   1.30600   1.32184   1.33992
 Alpha virt. eigenvalues --    1.34111   1.34940   1.36434   1.36894   1.38739
 Alpha virt. eigenvalues --    1.39159   1.39667   1.40657   1.41748   1.43661
 Alpha virt. eigenvalues --    1.44468   1.46343   1.46535   1.46958   1.49421
 Alpha virt. eigenvalues --    1.50198   1.50665   1.51037   1.52961   1.53697
 Alpha virt. eigenvalues --    1.57982   1.59193   1.60955   1.62654   1.63644
 Alpha virt. eigenvalues --    1.65984   1.68173   1.70253   1.72068   1.72593
 Alpha virt. eigenvalues --    1.75101   1.77109   1.77180   1.77875   1.78799
 Alpha virt. eigenvalues --    1.81902   1.82637   1.83681   1.84073   1.85793
 Alpha virt. eigenvalues --    1.87297   1.88668   1.89671   1.89995   1.90916
 Alpha virt. eigenvalues --    1.92576   1.93528   1.93771   1.95672   1.97910
 Alpha virt. eigenvalues --    1.98739   1.99120   2.00240   2.01290   2.03125
 Alpha virt. eigenvalues --    2.03566   2.04065   2.05580   2.06026   2.07180
 Alpha virt. eigenvalues --    2.08479   2.09673   2.10746   2.11275   2.13332
 Alpha virt. eigenvalues --    2.13852   2.15471   2.17624   2.18520   2.19250
 Alpha virt. eigenvalues --    2.20678   2.21873   2.22908   2.24147   2.25643
 Alpha virt. eigenvalues --    2.26931   2.28290   2.29122   2.30481   2.33621
 Alpha virt. eigenvalues --    2.34518   2.35557   2.36272   2.36988   2.37683
 Alpha virt. eigenvalues --    2.38579   2.40464   2.42274   2.42867   2.43407
 Alpha virt. eigenvalues --    2.43860   2.45480   2.46164   2.47387   2.48610
 Alpha virt. eigenvalues --    2.50078   2.50680   2.51835   2.52747   2.54175
 Alpha virt. eigenvalues --    2.55093   2.56071   2.56553   2.58095   2.58587
 Alpha virt. eigenvalues --    2.60119   2.60964   2.61728   2.62685   2.64060
 Alpha virt. eigenvalues --    2.65740   2.67084   2.67213   2.68782   2.69274
 Alpha virt. eigenvalues --    2.70331   2.70786   2.72060   2.72752   2.74301
 Alpha virt. eigenvalues --    2.75565   2.76444   2.78200   2.80141   2.81094
 Alpha virt. eigenvalues --    2.82261   2.83602   2.84413   2.86385   2.87048
 Alpha virt. eigenvalues --    2.89173   2.94033   2.96724   3.02976   3.03519
 Alpha virt. eigenvalues --    3.06657   3.08841   3.10537   3.14699   3.15428
 Alpha virt. eigenvalues --    3.16421   3.21589   3.22747   3.25321   3.26148
 Alpha virt. eigenvalues --    3.27511   3.31911   3.33483   3.36018   3.37117
 Alpha virt. eigenvalues --    3.45148   3.46033   3.47138   3.49370   3.51312
 Alpha virt. eigenvalues --    3.52228   3.54425   3.59082   3.63046   3.65697
 Alpha virt. eigenvalues --    3.68617   3.78227   3.84277   4.25849   4.30826
 Alpha virt. eigenvalues --    4.31357   4.34681   4.38902   4.39731   4.40738
 Alpha virt. eigenvalues --    4.45575   4.45779   4.50188   4.51419   4.55598
 Alpha virt. eigenvalues --    4.59100   4.68010   4.71617   4.75569   4.76778
 Alpha virt. eigenvalues --    4.91416   5.16223
          Condensed to atoms (all electrons):
               1          2          3          4          5          6
     1  C    8.630330  -3.886889   2.105191   1.730723  -1.031456   1.115493
     2  C   -3.886889  21.749009 -12.146209  -4.588028   2.545334  -1.776170
     3  C    2.105191 -12.146209  27.992223   5.603462  -3.506472   0.243134
     4  C    1.730723  -4.588028   5.603462  20.359321  -4.313161  -1.374237
     5  C   -1.031456   2.545334  -3.506472  -4.313161  18.863851  -4.136448
     6  C    1.115493  -1.776170   0.243134  -1.374237  -4.136448  10.375611
     7  H    0.269726  -0.007231   0.036968   0.004059   0.047590  -0.027032
     8  H    0.119160   0.201284  -0.024263   0.031688  -0.009629   0.021327
     9  H    0.002400   0.012022   0.013554  -0.208733   0.222439   0.118597
    10  H    0.011273   0.029814  -0.004675   0.024378  -0.032102   0.304346
    11  C   -0.500508  -2.338560  -3.579277  -1.203415   0.093129   0.576667
    12  C   -0.838994   1.480599  -6.572963  -5.170663  -0.162048   0.487158
    13  C   -1.119379   4.157780   0.286407  -5.541987  -4.856401   0.742798
    14  H    0.001348  -0.003429  -0.026451   0.057791   0.010416  -0.002443
    15  C   -0.152802   0.961293  -5.574227   0.388719   2.876057  -0.415733
    16  H    0.001255  -0.004925   0.073799  -0.005677  -0.004961   0.000707
    17  O    0.005141   0.076027   0.156281  -0.007391  -0.172913   0.052319
    18  Cl   0.012721   0.045448   0.073904  -0.008047  -0.109199  -0.003884
    19  C    0.030769  -0.002093   0.186583  -0.004067   0.172702   0.061000
    20  C   -0.031423   0.049656   0.119577  -0.288267  -0.123555  -0.058558
    21  H    0.000019  -0.000077  -0.004563  -0.003052   0.006472   0.000184
    22  C   -0.011512   0.031590   0.086711   0.219173  -0.305567  -0.083317
    23  H    0.000338  -0.000612  -0.001673   0.007732   0.004544  -0.001235
    24  H   -0.000008  -0.000004  -0.000247  -0.001007   0.000986   0.000314
    25  H   -0.000016   0.000048   0.000525   0.002705  -0.005716  -0.000686
    26  C   -0.017211   0.052166   0.071281  -0.027086  -0.319968   0.141618
    27  H   -0.003667  -0.011959  -0.005460  -0.095585   0.040189   0.019418
    28  H   -0.000176   0.000405   0.000816   0.008439  -0.000652   0.001360
    29  H    0.005044  -0.002309  -0.004577   0.033485  -0.005375  -0.000091
    30  C    0.029513  -0.068792  -0.443242  -0.109850   0.504976   0.011000
    31  H    0.000171   0.001282   0.016414   0.001254  -0.000058   0.000010
    32  H    0.001219  -0.021603  -0.108895   0.011396   0.053119   0.000066
    33  O   -0.007334   0.014573   0.005167  -0.040010   0.001063   0.035700
    34  H    0.001952  -0.000404  -0.003386   0.080087  -0.056396  -0.009015
    35  H    0.000198  -0.000512  -0.001573   0.026195  -0.006270  -0.003619
    36  O   -0.004258   0.002786   0.004290  -0.043827  -0.082519   0.004264
    37  H    0.000464   0.000179   0.003849  -0.023059   0.020298   0.000739
    38  H    0.000828  -0.001280   0.000090   0.025368   0.021352   0.001446
               7          8          9         10         11         12
     1  C    0.269726   0.119160   0.002400   0.011273  -0.500508  -0.838994
     2  C   -0.007231   0.201284   0.012022   0.029814  -2.338560   1.480599
     3  C    0.036968  -0.024263   0.013554  -0.004675  -3.579277  -6.572963
     4  C    0.004059   0.031688  -0.208733   0.024378  -1.203415  -5.170663
     5  C    0.047590  -0.009629   0.222439  -0.032102   0.093129  -0.162048
     6  C   -0.027032   0.021327   0.118597   0.304346   0.576667   0.487158
     7  H    0.550449  -0.004932  -0.000176  -0.004561  -0.000242  -0.009212
     8  H   -0.004932   0.546933   0.000013  -0.000154  -0.002580  -0.037024
     9  H   -0.000176   0.000013   0.609759  -0.005709   0.044063   0.001946
    10  H   -0.004561  -0.000154  -0.005709   0.548974  -0.013875  -0.002386
    11  C   -0.000242  -0.002580   0.044063  -0.013875  25.054333   4.011318
    12  C   -0.009212  -0.037024   0.001946  -0.002386   4.011318  17.439881
    13  C   -0.000342  -0.007871   0.071499  -0.000867 -13.691479  -1.199362
    14  H    0.000000   0.000000  -0.000003   0.000000   0.137340  -0.020148
    15  C    0.000062   0.020023  -0.000859  -0.000942  -0.613482  -2.876998
    16  H    0.000000  -0.000005   0.000000   0.000000   0.034196   0.129886
    17  O   -0.000012   0.000046   0.007066   0.000335  -0.557150  -0.159269
    18  Cl   0.000513  -0.007740   0.000027   0.000109  -0.018979  -0.357392
    19  C    0.000091  -0.000049  -0.021098  -0.000242  -2.001062  -0.217088
    20  C   -0.000008   0.000010  -0.004224   0.000044   0.980849   0.262644
    21  H    0.000000   0.000000   0.000000   0.000000   0.036596  -0.004145
    22  C   -0.000002  -0.000005   0.005261   0.000029  -0.036768  -0.018282
    23  H    0.000000   0.000000   0.000151   0.000000   0.022960   0.000301
    24  H    0.000000   0.000000  -0.000003   0.000000  -0.020853   0.000119
    25  H    0.000000   0.000000   0.000003   0.000000   0.001850   0.000258
    26  C   -0.000159   0.000058   0.020894   0.000333  -1.077675  -0.055999
    27  H    0.000000   0.000000  -0.000314  -0.000003   0.091954   0.014504
    28  H    0.000000   0.000000   0.000011   0.000000  -0.031792  -0.001856
    29  H    0.000000   0.000000   0.000208  -0.000003  -0.007420  -0.000125
    30  C    0.000024   0.000172  -0.002296  -0.000051   1.127054   0.008568
    31  H    0.000000   0.000000   0.000000   0.000000  -0.062155   0.004001
    32  H    0.000000   0.000001   0.000002   0.000000   0.154001  -0.033777
    33  O    0.000003   0.000000  -0.004515   0.000032   0.000654  -0.007314
    34  H    0.000000   0.000000   0.009483   0.000010  -0.028099  -0.001210
    35  H    0.000000   0.000000  -0.000071   0.000000  -0.015728  -0.000332
    36  O    0.000000   0.000000   0.000111  -0.000001   0.185787   0.001361
    37  H    0.000000   0.000000   0.000009   0.000000   0.041528  -0.003626
    38  H    0.000000   0.000000   0.000082   0.000000   0.019555  -0.004534
              13         14         15         16         17         18
     1  C   -1.119379   0.001348  -0.152802   0.001255   0.005141   0.012721
     2  C    4.157780  -0.003429   0.961293  -0.004925   0.076027   0.045448
     3  C    0.286407  -0.026451  -5.574227   0.073799   0.156281   0.073904
     4  C   -5.541987   0.057791   0.388719  -0.005677  -0.007391  -0.008047
     5  C   -4.856401   0.010416   2.876057  -0.004961  -0.172913  -0.109199
     6  C    0.742798  -0.002443  -0.415733   0.000707   0.052319  -0.003884
     7  H   -0.000342   0.000000   0.000062   0.000000  -0.000012   0.000513
     8  H   -0.007871   0.000000   0.020023  -0.000005   0.000046  -0.007740
     9  H    0.071499  -0.000003  -0.000859   0.000000   0.007066   0.000027
    10  H   -0.000867   0.000000  -0.000942   0.000000   0.000335   0.000109
    11  C  -13.691479   0.137340  -0.613482   0.034196  -0.557150  -0.018979
    12  C   -1.199362  -0.020148  -2.876998   0.129886  -0.159269  -0.357392
    13  C   27.942519   0.121688  -1.969718  -0.056828   0.120578   0.183647
    14  H    0.121688   0.546898   0.023669  -0.004539   0.003941   0.000334
    15  C   -1.969718   0.023669  13.570051   0.132921   0.131369  -0.247049
    16  H   -0.056828  -0.004539   0.132921   0.535507  -0.000769   0.007486
    17  O    0.120578   0.003941   0.131369  -0.000769   9.006999   0.002717
    18  Cl   0.183647   0.000334  -0.247049   0.007486   0.002717  17.159420
    19  C    0.872047  -0.024701   0.378920  -0.004123   0.203037   0.002890
    20  C    0.111940  -0.043149  -0.786543   0.016392  -0.106070   0.017624
    21  H   -0.030134   0.000666   0.019634  -0.000005  -0.005905   0.000002
    22  C    0.314681   0.002728  -0.095296   0.000077  -0.177776   0.001118
    23  H   -0.022877   0.000008  -0.000279   0.000000   0.001028   0.000001
    24  H    0.006520  -0.000001   0.000929   0.000000   0.003816   0.000000
    25  H    0.005571  -0.000012   0.000557   0.000000  -0.003886  -0.000001
    26  C    0.885647  -0.013879   0.013879   0.000302   0.037519   0.003056
    27  H   -0.019386  -0.000032  -0.007536  -0.000001  -0.009953   0.000150
    28  H    0.005986  -0.000001   0.000719   0.000000   0.006927   0.000000
    29  H   -0.015094   0.000004  -0.000554   0.000000  -0.004045   0.000021
    30  C   -1.469557   0.053084   0.601175  -0.003665  -0.002437  -0.017573
    31  H    0.001890  -0.004648   0.007484   0.000956   0.005366   0.001185
    32  H   -0.228834   0.002262   0.140882  -0.000296  -0.002883   0.001417
    33  O   -0.006061  -0.000006   0.000720   0.000000   0.002733   0.000064
    34  H    0.006318  -0.000010  -0.002919   0.000000   0.039771   0.000030
    35  H   -0.006744   0.000001  -0.000266   0.000000   0.010216   0.000000
    36  O   -0.020794   0.000542  -0.007589   0.000002  -0.064120   0.000074
    37  H   -0.026915  -0.000124   0.003118   0.000000   0.007132  -0.000018
    38  H   -0.071886  -0.000034   0.011905  -0.000001   0.016948  -0.000003
              19         20         21         22         23         24
     1  C    0.030769  -0.031423   0.000019  -0.011512   0.000338  -0.000008
     2  C   -0.002093   0.049656  -0.000077   0.031590  -0.000612  -0.000004
     3  C    0.186583   0.119577  -0.004563   0.086711  -0.001673  -0.000247
     4  C   -0.004067  -0.288267  -0.003052   0.219173   0.007732  -0.001007
     5  C    0.172702  -0.123555   0.006472  -0.305567   0.004544   0.000986
     6  C    0.061000  -0.058558   0.000184  -0.083317  -0.001235   0.000314
     7  H    0.000091  -0.000008   0.000000  -0.000002   0.000000   0.000000
     8  H   -0.000049   0.000010   0.000000  -0.000005   0.000000   0.000000
     9  H   -0.021098  -0.004224   0.000000   0.005261   0.000151  -0.000003
    10  H   -0.000242   0.000044   0.000000   0.000029   0.000000   0.000000
    11  C   -2.001062   0.980849   0.036596  -0.036768   0.022960  -0.020853
    12  C   -0.217088   0.262644  -0.004145  -0.018282   0.000301   0.000119
    13  C    0.872047   0.111940  -0.030134   0.314681  -0.022877   0.006520
    14  H   -0.024701  -0.043149   0.000666   0.002728   0.000008  -0.000001
    15  C    0.378920  -0.786543   0.019634  -0.095296  -0.000279   0.000929
    16  H   -0.004123   0.016392  -0.000005   0.000077   0.000000   0.000000
    17  O    0.203037  -0.106070  -0.005905  -0.177776   0.001028   0.003816
    18  Cl   0.002890   0.017624   0.000002   0.001118   0.000001   0.000000
    19  C    8.545352  -1.218599  -0.053592  -0.506276  -0.089361  -0.022647
    20  C   -1.218599   7.529901   0.377836   0.027410   0.037208  -0.017075
    21  H   -0.053592   0.377836   0.565168  -0.032485   0.000190   0.000399
    22  C   -0.506276   0.027410  -0.032485   6.552781   0.478509   0.363037
    23  H   -0.089361   0.037208   0.000190   0.478509   0.487095  -0.024369
    24  H   -0.022647  -0.017075   0.000399   0.363037  -0.024369   0.536205
    25  H   -0.065884  -0.050740   0.003051   0.449773  -0.029823  -0.024294
    26  C   -0.327957  -0.654649   0.004946  -0.382649  -0.075172   0.030759
    27  H   -0.078993   0.002576  -0.000079   0.027030  -0.000013   0.000076
    28  H   -0.127164  -0.014779  -0.000036  -0.039132   0.000142   0.000799
    29  H   -0.046244   0.027402  -0.000115  -0.037035   0.002600  -0.000079
    30  C   -0.203154   0.029794  -0.013261  -0.274776  -0.001380  -0.001061
    31  H    0.051701  -0.068365  -0.005144  -0.002978   0.000002   0.000003
    32  H    0.021012  -0.104815   0.004276  -0.006119  -0.000005   0.000010
    33  O    0.070230   0.022534  -0.000016  -0.081140   0.002199   0.001510
    34  H   -0.025622  -0.000246  -0.000003   0.005640  -0.001408   0.000050
    35  H   -0.009978  -0.004003   0.000001   0.003215  -0.000523  -0.000012
    36  O   -0.027934  -0.019242  -0.000631   0.005504  -0.003972   0.000553
    37  H   -0.003647   0.005049   0.000013  -0.005022   0.000174  -0.000002
    38  H    0.016443  -0.011022   0.000420  -0.002206  -0.000709   0.000013
              25         26         27         28         29         30
     1  C   -0.000016  -0.017211  -0.003667  -0.000176   0.005044   0.029513
     2  C    0.000048   0.052166  -0.011959   0.000405  -0.002309  -0.068792
     3  C    0.000525   0.071281  -0.005460   0.000816  -0.004577  -0.443242
     4  C    0.002705  -0.027086  -0.095585   0.008439   0.033485  -0.109850
     5  C   -0.005716  -0.319968   0.040189  -0.000652  -0.005375   0.504976
     6  C   -0.000686   0.141618   0.019418   0.001360  -0.000091   0.011000
     7  H    0.000000  -0.000159   0.000000   0.000000   0.000000   0.000024
     8  H    0.000000   0.000058   0.000000   0.000000   0.000000   0.000172
     9  H    0.000003   0.020894  -0.000314   0.000011   0.000208  -0.002296
    10  H    0.000000   0.000333  -0.000003   0.000000  -0.000003  -0.000051
    11  C    0.001850  -1.077675   0.091954  -0.031792  -0.007420   1.127054
    12  C    0.000258  -0.055999   0.014504  -0.001856  -0.000125   0.008568
    13  C    0.005571   0.885647  -0.019386   0.005986  -0.015094  -1.469557
    14  H   -0.000012  -0.013879  -0.000032  -0.000001   0.000004   0.053084
    15  C    0.000557   0.013879  -0.007536   0.000719  -0.000554   0.601175
    16  H    0.000000   0.000302  -0.000001   0.000000   0.000000  -0.003665
    17  O   -0.003886   0.037519  -0.009953   0.006927  -0.004045  -0.002437
    18  Cl  -0.000001   0.003056   0.000150   0.000000   0.000021  -0.017573
    19  C   -0.065884  -0.327957  -0.078993  -0.127164  -0.046244  -0.203154
    20  C   -0.050740  -0.654649   0.002576  -0.014779   0.027402   0.029794
    21  H    0.003051   0.004946  -0.000079  -0.000036  -0.000115  -0.013261
    22  C    0.449773  -0.382649   0.027030  -0.039132  -0.037035  -0.274776
    23  H   -0.029823  -0.075172  -0.000013   0.000142   0.002600  -0.001380
    24  H   -0.024294   0.030759   0.000076   0.000799  -0.000079  -0.001061
    25  H    0.553022   0.018014  -0.000158  -0.000053   0.000114  -0.006013
    26  C    0.018014   7.211373   0.417824   0.540413   0.408351  -0.417017
    27  H   -0.000158   0.417824   0.546985  -0.024119  -0.030917  -0.029570
    28  H   -0.000053   0.540413  -0.024119   0.533024  -0.027587  -0.003593
    29  H    0.000114   0.408351  -0.030917  -0.027587   0.531054   0.004956
    30  C   -0.006013  -0.417017  -0.029570  -0.003593   0.004956   6.425202
[...]
    23  H    0.000000   0.000000   0.000093   0.000000  -0.008409   0.000141
    24  H    0.000000   0.000000   0.000001   0.000000  -0.000493   0.000062
    25  H    0.000000   0.000000   0.000001   0.000000   0.007704   0.000108
    26  C   -0.000157   0.000061   0.015048   0.000324  -0.207924  -0.033094
    27  H    0.000000   0.000000  -0.000618  -0.000004   0.078518   0.010453
    28  H    0.000000   0.000000   0.000030   0.000000  -0.022556  -0.001459
    29  H    0.000000   0.000000   0.001356  -0.000004  -0.008622  -0.000432
    30  C    0.000015   0.000084   0.000120  -0.000077  -0.200168   0.051171
    31  H    0.000000   0.000000   0.000000   0.000000  -0.047475  -0.013129
    32  H    0.000000   0.000000   0.000003   0.000000   0.048254   0.002049
    33  O    0.000000   0.000000   0.000085  -0.000001  -0.033082  -0.000731
    34  H    0.000000   0.000000   0.001441  -0.000002   0.021610   0.003738
    35  H    0.000000   0.000000   0.000046   0.000000  -0.008523   0.000466
    36  O    0.000000   0.000000   0.000107   0.000000  -0.105019   0.003137
    37  H    0.000000   0.000000  -0.000001   0.000000   0.028363  -0.001710
    38  H    0.000000   0.000000  -0.000069   0.000000   0.048748  -0.003960
              13         14         15         16         17         18
     1  C   -0.490635   0.001205  -0.280497   0.001574  -0.001354   0.053451
     2  C    1.971309  -0.000416   0.952434  -0.000049   0.134808  -0.045210
     3  C    0.745547   0.004951  -2.401258   0.059248   0.087070   0.085433
     4  C   -3.504239   0.036044   0.431595  -0.008709  -0.408375  -0.013540
     5  C   -2.268631   0.002480   2.015333  -0.003188  -0.025881  -0.092106
     6  C   -0.435327  -0.000179   0.312242   0.000696   0.064384  -0.008718
     7  H   -0.001029   0.000000   0.000482   0.000000   0.000000   0.000292
     8  H   -0.005957   0.000000   0.017980  -0.000005   0.000038  -0.005542
     9  H    0.040035  -0.000005  -0.001805   0.000000   0.012738   0.000070
    10  H   -0.001252   0.000000  -0.000851   0.000000   0.000240   0.000078
    11  C   -6.727880   0.016759  -5.228668   0.026499  -0.495778   0.025089
    12  C   -2.361934   0.029215  -1.791673   0.101029  -0.150562  -0.239211
    13  C   20.576790   0.207333  -2.327095  -0.025678   0.242255   0.029912
    14  H    0.207333   0.548267  -0.003042  -0.004515   0.005512   0.000673
    15  C   -2.327095  -0.003042  14.497510   0.160113   0.283074  -0.178180
    16  H   -0.025678  -0.004515   0.160113   0.535863  -0.000843   0.003238
    17  O    0.242255   0.005512   0.283074  -0.000843   8.850591   0.000741
    18  Cl   0.029912   0.000673  -0.178180   0.003238   0.000741  17.133518
    19  C    0.453039  -0.005391   1.098209  -0.003424   0.280171   0.002161
    20  C    0.101161  -0.027832  -1.608261   0.007088  -0.210541   0.009349
    21  H    0.011020   0.000345   0.017138  -0.000001  -0.004696   0.000000
    22  C   -0.071278   0.001706  -0.005974   0.000060  -0.087143   0.000824
    23  H   -0.000649   0.000002   0.001007   0.000000  -0.003151   0.000001
    24  H    0.000694   0.000000  -0.000256   0.000000   0.002725   0.000000
    25  H   -0.004256   0.000000  -0.000070   0.000000  -0.004354   0.000000
    26  C    0.031728  -0.006784   0.068591  -0.000116   0.035660  -0.000683
    27  H   -0.043192  -0.000008  -0.001345  -0.000001  -0.011789   0.000143
    28  H    0.005632   0.000000   0.000695   0.000000   0.005496  -0.000009
    29  H   -0.005548   0.000002  -0.000611   0.000000  -0.008996   0.000016
    30  C   -0.265455   0.035945   0.407142   0.000434   0.005627  -0.008652
    31  H    0.009628  -0.001482   0.022401   0.000132   0.003449   0.000557
    32  H   -0.105428   0.000754   0.075423  -0.000093  -0.000046   0.000909
    33  O    0.030674   0.000046  -0.001024   0.000000   0.005148   0.000012
    34  H    0.029416  -0.000012  -0.003797   0.000000   0.038262   0.000006
    35  H    0.000715   0.000001  -0.001157   0.000000   0.014075   0.000000
    36  O    0.034967  -0.001434   0.034431   0.000009   0.020467   0.000013
    37  H   -0.030781   0.000083   0.009654   0.000000  -0.005729   0.000002
    38  H   -0.075017   0.000556   0.012469  -0.000002   0.031953   0.000006
              19         20         21         22         23         24
     1  C    0.004128  -0.028464  -0.000028   0.001074   0.000181  -0.000034
     2  C    0.141601  -0.104708   0.000073  -0.005517  -0.000153   0.000009
     3  C    0.026102   0.090307  -0.002447   0.014919  -0.000499  -0.000093
     4  C   -0.348603   0.269866  -0.006815   0.067449   0.006046  -0.002555
     5  C    0.275140  -0.514213   0.002268  -0.033889  -0.000099  -0.000136
     6  C    0.088514  -0.223140   0.000282  -0.013002   0.000317  -0.000026
     7  H    0.000067  -0.000003   0.000000   0.000000   0.000000   0.000000
     8  H   -0.000055   0.000028   0.000000  -0.000005   0.000000   0.000000
     9  H   -0.014779  -0.000930   0.000000   0.000686   0.000093   0.000001
    10  H   -0.000081   0.000187   0.000000   0.000026   0.000000   0.000000
    11  C   -1.948122   2.157731  -0.017372   0.082516  -0.008409  -0.000493
    12  C   -0.133199   0.056195   0.001414   0.016135   0.000141   0.000062
    13  C    0.453039   0.101161   0.011020  -0.071278  -0.000649   0.000694
    14  H   -0.005391  -0.027832   0.000345   0.001706   0.000002   0.000000
    15  C    1.098209  -1.608261   0.017138  -0.005974   0.001007  -0.000256
    16  H   -0.003424   0.007088  -0.000001   0.000060   0.000000   0.000000
    17  O    0.280171  -0.210541  -0.004696  -0.087143  -0.003151   0.002725
    18  Cl   0.002161   0.009349   0.000000   0.000824   0.000001   0.000000
    19  C    9.100907  -2.567279   0.025168  -0.597077  -0.075020  -0.043163
    20  C   -2.567279   9.125546   0.296554   0.274656   0.021178  -0.003828
    21  H    0.025168   0.296554   0.553851  -0.028367   0.000214   0.000285
    22  C   -0.597077   0.274656  -0.028367   6.391901   0.474881   0.371884
    23  H   -0.075020   0.021178   0.000214   0.474881   0.493196  -0.025672
    24  H   -0.043163  -0.003828   0.000285   0.371884  -0.025672   0.531897
    25  H   -0.087511  -0.035000   0.003649   0.479755  -0.023960  -0.023898
    26  C   -0.289584  -0.359919   0.000369  -0.592838  -0.058714   0.020221
    27  H   -0.095454   0.005595  -0.000068   0.025684  -0.000021   0.000063
    28  H   -0.105955  -0.005105  -0.000080  -0.043413   0.000155   0.000820
    29  H   -0.065588   0.027115  -0.000122  -0.027619   0.002452  -0.000176
    30  C    0.304911  -0.516685   0.000847  -0.172366  -0.001126  -0.002509
    31  H    0.041337  -0.065708  -0.005014  -0.005464   0.000002   0.000004
    32  H    0.074261  -0.145614   0.004280  -0.005340  -0.000004   0.000005
    33  O   -0.020866  -0.012402   0.000010   0.014272   0.002590   0.000476
    34  H   -0.011616   0.012089  -0.000001  -0.000871   0.000065   0.000039
    35  H   -0.011408   0.004349   0.000001   0.004304   0.000058  -0.000014
    36  O    0.011596  -0.030370   0.000764  -0.009714  -0.000858   0.000426
    37  H    0.000787  -0.009718   0.000018   0.005366   0.000044  -0.000003
    38  H   -0.001169  -0.012870   0.000980   0.013859   0.000293  -0.000043
              25         26         27         28         29         30
     1  C    0.000005   0.018624  -0.002941   0.000240   0.002121   0.006404
     2  C    0.000000  -0.065136  -0.009405   0.000517  -0.001165   0.074625
     3  C    0.000118   0.005146  -0.005704   0.000356  -0.001024  -0.143806
     4  C    0.002585   0.002441  -0.093294  -0.001007   0.066618  -0.139812
     5  C   -0.001714   0.036114   0.063529   0.003650  -0.028529   0.251834
     6  C   -0.000300   0.071307   0.026371   0.004266  -0.023784   0.063365
     7  H    0.000000  -0.000157   0.000000   0.000000   0.000000   0.000015
     8  H    0.000000   0.000061   0.000000   0.000000   0.000000   0.000084
     9  H    0.000001   0.015048  -0.000618   0.000030   0.001356   0.000120
    10  H    0.000000   0.000324  -0.000004   0.000000  -0.000004  -0.000077
    11  C    0.007704  -0.207924   0.078518  -0.022556  -0.008622  -0.200168
    12  C    0.000108  -0.033094   0.010453  -0.001459  -0.000432   0.051171
    13  C   -0.004256   0.031728  -0.043192   0.005632  -0.005548  -0.265455
    14  H    0.000000  -0.006784  -0.000008   0.000000   0.000002   0.035945
    15  C   -0.000070   0.068591  -0.001345   0.000695  -0.000611   0.407142
    16  H    0.000000  -0.000116  -0.000001   0.000000   0.000000   0.000434
    17  O   -0.004354   0.035660  -0.011789   0.005496  -0.008996   0.005627
    18  Cl   0.000000  -0.000683   0.000143  -0.000009   0.000016  -0.008652
    19  C   -0.087511  -0.289584  -0.095454  -0.105955  -0.065588   0.304911
    20  C   -0.035000  -0.359919   0.005595  -0.005105   0.027115  -0.516685
    21  H    0.003649   0.000369  -0.000068  -0.000080  -0.000122   0.000847
    22  C    0.479755  -0.592838   0.025684  -0.043413  -0.027619  -0.172366
    23  H   -0.023960  -0.058714  -0.000021   0.000155   0.002452  -0.001126
    24  H   -0.023898   0.020221   0.000063   0.000820  -0.000176  -0.002509
    25  H    0.508236   0.013288  -0.000149  -0.000046   0.000126  -0.011530
    26  C    0.013288   6.807541   0.441016   0.498756   0.427514  -0.254000
    27  H   -0.000149   0.441016   0.537901  -0.023969  -0.027964  -0.035657
    28  H   -0.000046   0.498756  -0.023969   0.522385  -0.026247   0.005070
    29  H    0.000126   0.427514  -0.027964  -0.026247   0.521518   0.003006
    30  C   -0.011530  -0.254000  -0.035657   0.005070   0.003006   6.073710
    31  H   -0.000009   0.016106   0.000029   0.000001  -0.000003   0.371929
    32  H   -0.000003   0.004705   0.001149   0.000110  -0.000111   0.415954
    33  O    0.000400   0.006029  -0.000054   0.000017  -0.000275  -0.001844
    34  H   -0.000003  -0.003632  -0.000045   0.000005   0.000322   0.000054
    35  H   -0.000057   0.002032  -0.000001   0.000000   0.000028  -0.000103
    36  O   -0.003678   0.006597  -0.000052   0.000036  -0.000064   0.003486
    37  H    0.000091  -0.001689   0.000000   0.000000   0.000000   0.003403
    38  H    0.000794  -0.013264   0.000006  -0.000011   0.000014   0.006772
              31         32         33         34         35         36
     1  C    0.000227  -0.000960   0.000767  -0.001703  -0.000106   0.000303
     2  C    0.002417  -0.016112   0.001697   0.000068  -0.000265  -0.000360
     3  C    0.007930  -0.056325   0.003983  -0.001322  -0.000874   0.005314
     4  C    0.003651   0.004699  -0.127592   0.046439   0.025802   0.008511
     5  C    0.001615   0.025797   0.086632  -0.076511  -0.023210   0.003538
     6  C   -0.000151   0.005679   0.042967  -0.021348  -0.004506  -0.001853
     7  H    0.000000   0.000000   0.000000   0.000000   0.000000   0.000000
     8  H    0.000000   0.000000   0.000000   0.000000   0.000000   0.000000
     9  H    0.000000   0.000003   0.000085   0.001441   0.000046   0.000107
    10  H    0.000000   0.000000  -0.000001  -0.000002   0.000000   0.000000
    11  C   -0.047475   0.048254  -0.033082   0.021610  -0.008523  -0.105019
    12  C   -0.013129   0.002049  -0.000731   0.003738   0.000466   0.003137
    13  C    0.009628  -0.105428   0.030674   0.029416   0.000715   0.034967
    14  H   -0.001482   0.000754   0.000046  -0.000012   0.000001  -0.001434
    15  C    0.022401   0.075423  -0.001024  -0.003797  -0.001157   0.034431
    16  H    0.000132  -0.000093   0.000000   0.000000   0.000000   0.000009
    17  O    0.003449  -0.000046   0.005148   0.038262   0.014075   0.020467
    18  Cl   0.000557   0.000909   0.000012   0.000006   0.000000   0.000013
    19  C    0.041337   0.074261  -0.020866  -0.011616  -0.011408   0.011596
    20  C   -0.065708  -0.145614  -0.012402   0.012089   0.004349  -0.030370
    21  H   -0.005014   0.004280   0.000010  -0.000001   0.000001   0.000764
    22  C   -0.005464  -0.005340   0.014272  -0.000871   0.004304  -0.009714
    23  H    0.000002  -0.000004   0.002590   0.000065   0.000058  -0.000858
    24  H    0.000004   0.000005   0.000476   0.000039  -0.000014   0.000426
    25  H   -0.000009  -0.000003   0.000400  -0.000003  -0.000057  -0.003678
    26  C    0.016106   0.004705   0.006029  -0.003632   0.002032   0.006597
    27  H    0.000029   0.001149  -0.000054  -0.000045  -0.000001  -0.000052
    28  H    0.000001   0.000110   0.000017   0.000005   0.000000   0.000036
    29  H   -0.000003  -0.000111  -0.000275   0.000322   0.000028  -0.000064
    30  C    0.371929   0.415954  -0.001844   0.000054  -0.000103   0.003486
    31  H    0.512064  -0.028787   0.000001   0.000000   0.000000   0.000031
    32  H   -0.028787   0.521696   0.000000  -0.000001   0.000000  -0.000004
    33  O    0.000001   0.000000   8.245356   0.238744   0.273946  -0.003096
    34  H    0.000000  -0.000001   0.238744   0.318832  -0.022195   0.001200
    35  H    0.000000   0.000000   0.273946  -0.022195   0.352187   0.016291
    36  O    0.000031  -0.000004  -0.003096   0.001200   0.016291   8.396572
    37  H    0.000000   0.000000  -0.000393  -0.000036  -0.001302   0.251203
    38  H   -0.000011   0.000014  -0.003051  -0.002096  -0.004786   0.177437
              37         38
     1  C    0.000023   0.000370
     2  C    0.000087  -0.000070
     3  C    0.000132   0.003269
     4  C    0.003288   0.022557
     5  C    0.005786   0.013917
     6  C    0.000099  -0.000227
     7  H    0.000000   0.000000
     8  H    0.000000   0.000000
     9  H   -0.000001  -0.000069
    10  H    0.000000   0.000000
    11  C    0.028363   0.048748
    12  C   -0.001710  -0.003960
    13  C   -0.030781  -0.075017
    14  H    0.000083   0.000556
    15  C    0.009654   0.012469
    16  H    0.000000  -0.000002
    17  O   -0.005729   0.031953
    18  Cl   0.000002   0.000006
    19  C    0.000787  -0.001169
    20  C   -0.009718  -0.012870
    21  H    0.000018   0.000980
    22  C    0.005366   0.013859
    23  H    0.000044   0.000293
    24  H   -0.000003  -0.000043
    25  H    0.000091   0.000794
    26  C   -0.001689  -0.013264
    27  H    0.000000   0.000006
    28  H    0.000000  -0.000011
    29  H    0.000000   0.000014
    30  C    0.003403   0.006772
    31  H    0.000000  -0.000011
    32  H    0.000000   0.000014
    33  O   -0.000393  -0.003051
    34  H   -0.000036  -0.002096
    35  H   -0.001302  -0.004786
    36  O    0.251203   0.177437
    37  H    0.377428  -0.008286
    38  H   -0.008286   0.326404
 Mulliken charges:
               1
     1  C   -0.477521
     2  C   -0.491615
     3  C    0.838872
     4  C    0.386419
     5  C   -0.274660
     6  C   -0.498242
     7  H    0.142099
     8  H    0.150512
     9  H    0.141524
    10  H    0.140422
    11  C   -0.083364
    12  C   -0.120681
    13  C    0.229405
    14  H    0.159223
    15  C   -0.582359
    16  H    0.150641
    17  O   -0.705248
    18  Cl   0.245359
    19  C    0.497247
    20  C    0.023596
    21  H    0.145483
    22  C   -0.542078
    23  H    0.195418
    24  H    0.173288
    25  H    0.179676
    26  C   -0.641683
    27  H    0.161276
    28  H    0.181621
    29  H    0.174679
    30  C   -0.332114
    31  H    0.173722
    32  H    0.173086
    33  O   -0.749442
    34  H    0.432861
    35  H    0.384207
    36  O   -0.819936
    37  H    0.373790
    38  H    0.464514
 Sum of Mulliken charges =   0.00000
 Mulliken charges with hydrogens summed into heavy atoms:
               1
     1  C   -0.335422
     2  C   -0.341103
     3  C    0.838872
     4  C    0.386419
     5  C   -0.133136
     6  C   -0.357820
    11  C   -0.083364
    12  C   -0.120681
    13  C    0.388628
    15  C   -0.431718
    17  O   -0.705248
    18  Cl   0.245359
    19  C    0.497247
    20  C    0.169080
    22  C    0.006305
    26  C   -0.124107
    30  C    0.014695
    33  O    0.067626
    36  O    0.018368
 Electronic spatial extent (au):  <R**2>=           6017.6081
 Charge=              0.0000 electrons
 Dipole moment (field-independent basis, Debye):
    X=              1.1610    Y=             -2.7068    Z=             -4.3827  Tot=              5.2804
 Quadrupole moment (field-independent basis, Debye-Ang):
   XX=           -137.9196   YY=           -117.1600   ZZ=           -120.2691
   XY=             12.5118   XZ=             10.6359   YZ=             -8.6370
 Traceless Quadrupole moment (field-independent basis, Debye-Ang):
   XX=            -12.8034   YY=              7.9563   ZZ=              4.8472
   XY=             12.5118   XZ=             10.6359   YZ=             -8.6370
 Octapole moment (field-independent basis, Debye-Ang**2):
  XXX=             10.9128  YYY=            -20.0565  ZZZ=             20.3660  XYY=             30.0165
  XXY=              1.2230  XXZ=            -47.3741  XZZ=            -23.0567  YZZ=            -24.7097
  YYZ=            -14.6356  XYZ=             17.9825
 Hexadecapole moment (field-independent basis, Debye-Ang**3):
 XXXX=          -5112.6494 YYYY=          -1892.6822 ZZZZ=           -968.8330 XXXY=            111.7721
 XXXZ=             94.6963 YYYX=             81.5908 YYYZ=            -66.5428 ZZZX=            -71.4620
 ZZZY=            -75.4610 XXYY=          -1254.8624 XXZZ=          -1007.3352 YYZZ=           -554.3018
 XXYZ=            -68.4296 YYXZ=             26.9882 ZZXY=             25.8017
 N-N= 1.600564253559D+03 E-N=-6.174897793960D+03  KE= 1.259786919896D+03
 1\1\GINC-D8S2B3\FTS\RB3LYP\6-31+G(d,p)\C15H19Cl1O3\CHMKSH\27-Aug-2020\
 0\\# opt=(calcfc,ts,noeigentest) b3lyp/6-31+g(d,p) scrf=(cpcm,solvent=
 toluene) geom=connectivity empiricaldispersion=gd3\\Title Card Require
 d\\0,1\C,-2.6147466125,2.6963027525,0.9960695683\C,-3.0570312208,1.461
 3882698,0.5580879106\C,-2.1513634833,0.5147321354,0.0139573234\C,-0.76
 36038563,0.8588275081,-0.0593999448\C,-0.3454862806,2.133322376,0.3840
 024161\C,-1.2493900314,3.0404558157,0.9054308078\H,-3.3262402144,3.406
 9816267,1.4058757279\H,-4.1095932418,1.211399053,0.6218850321\H,0.7061
 916232,2.3841913607,0.307726158\H,-0.9105043359,4.0155067392,1.2418698
 884\C,0.2039430582,-0.0783874876,-0.6231518118\C,-2.5537267291,-0.7728
 092275,-0.4827720157\C,-0.2722458331,-1.3417750972,-1.0540221891\H,0.4
 14835919,-2.0016899567,-1.5698081298\C,-1.6544612401,-1.6571505175,-1.
 0194159067\H,-1.9961082779,-2.6127943817,-1.4023386346\O,1.4632597872,
 0.2059653153,-0.6586057534\Cl,-4.2557646523,-1.2398187246,-0.42730529\
 C,2.5211463009,-0.7492236149,1.2125475039\C,1.9855980197,-2.0065338866
 ,0.8787722782\H,2.6120849325,-2.6606577584,0.2769841163\C,3.9331220697
 ,-0.4290088895,0.843728867\H,4.0079586033,0.6010757206,0.48202347\H,4.
 5621268127,-0.5014410761,1.7428503106\H,4.3256587441,-1.1007305749,0.0
 785259933\C,1.8732557743,0.1723953395,2.1991198502\H,0.7841417313,0.12
 38999646,2.1904435786\H,2.2140412943,-0.1084289188,3.2057492566\H,2.17
 93866587,1.2048720488,2.0218133725\C,0.6712785315,-2.3646159971,1.0653
 440365\H,0.3146028516,-3.3369231031,0.7452312907\H,-0.0159161102,-1.78
 13730589,1.6662304155\O,3.3638038735,2.1190606587,-1.4454708533\H,2.55
 87934931,1.6815255369,-1.1119536937\H,3.7933935877,1.4074278616,-1.944
 8504109\O,3.3286121639,-0.8320793874,-2.356310432\H,2.9706085148,-0.88
 52814313,-3.2511223978\H,2.5723037743,-0.5706339932,-1.7801687088\\Ver
 sion=ES64L-G09RevD.01\State=1-A\HF=-1268.9883738\RMSD=6.946e-09\RMSF=3
 .670e-06\Dipole=-0.4648867,-1.4103715,1.4528028\Quadrupole=-9.9128472,
 3.7086096,6.2042376,-10.2109418,6.2849445,6.3694735\PG=C01 [X(C15H19Cl
 1O3)]\\@


 SUCCESS-- IF YOU HAVE TRIED TO DO SOMETHING AND FAILED
           YOU ARE BETTER OFF THAN IF YOU HAD TRIED TO DO
           NOTHING AND SUCCEEDED.

                   -- FROM THE BACK OF A SUGAR PACKET
 Job cpu time:       0 days 22 hours 11 minutes  7.7 seconds.
 File lengths (MBytes):  RWF=   1539 Int=      0 D2E=      0 Chk=     24 Scr=      1
 Normal termination of Gaussian 09 at Thu Aug 27 23:22:27 2020.
