 Entering Gaussian System, Link 0=g09
 Input=b3lyp_sm_2H2O_claisen_PM6_toluene.com
 Output=b3lyp_sm_2H2O_claisen_PM6_toluene.log
 Initial command:
 /apps/applications/gaussian/G09.D01/2/default/g09/l1.exe "/local/714151.1.40core-192G.q/Gau-329593.inp" -scrdir="/local/714151.1.40core-192G.q/"
 Entering Link 1 = /apps/applications/gaussian/G09.D01/2/default/g09/l1.exe PID=    329594.
  
 Copyright (c) 1988,1990,1992,1993,1995,1998,2003,2009,2013,
            Gaussian, Inc.  All Rights Reserved.
  
 This is part of the Gaussian(R) 09 program.  It is based on
 the Gaussian(R) 03 system (copyright 2003, Gaussian, Inc.),
 the Gaussian(R) 98 system (copyright 1998, Gaussian, Inc.),
 the Gaussian(R) 94 system (copyright 1995, Gaussian, Inc.),
 the Gaussian 92(TM) system (copyright 1992, Gaussian, Inc.),
 the Gaussian 90(TM) system (copyright 1990, Gaussian, Inc.),
 the Gaussian 88(TM) system (copyright 1988, Gaussian, Inc.),
 the Gaussian 86(TM) system (copyright 1986, Carnegie Mellon
 University), and the Gaussian 82(TM) system (copyright 1983,
 Carnegie Mellon University). Gaussian is a federally registered
 trademark of Gaussian, Inc.
  
 This software contains proprietary and confidential information,
 including trade secrets, belonging to Gaussian, Inc.
  
 This software is provided under written license and may be
 used, copied, transmitted, or stored only in accord with that
 written license.
  
 The following legend is applicable only to US Government
 contracts under FAR:
  
                    RESTRICTED RIGHTS LEGEND
  
 Use, reproduction and disclosure by the US Government is
 subject to restrictions as set forth in subparagraphs (a)
 and (c) of the Commercial Computer Software - Restricted
 Rights clause in FAR 52.227-19.
  
 Gaussian, Inc.
 340 Quinnipiac St., Bldg. 40, Wallingford CT 06492
  
  
 ---------------------------------------------------------------
 Warning -- This program may not be used in any manner that
 competes with the business of Gaussian, Inc. or will provide
 assistance to any competitor of Gaussian, Inc.  The licensee
 of this program is prohibited from giving any competitor of
 Gaussian, Inc. access to this program.  By using this program,
 the user acknowledges that Gaussian, Inc. is engaged in the
 business of creating and licensing software in the field of
 computational chemistry and represents and warrants to the
 licensee that it is not a competitor of Gaussian, Inc. and that
 it will not use this program in any manner prohibited above.
 ---------------------------------------------------------------
  

 Cite this work as:
 Gaussian 09, Revision D.01,
 M. J. Frisch, G. W. Trucks, H. B. Schlegel, G. E. Scuseria, 
 M. A. Robb, J. R. Cheeseman, G. Scalmani, V. Barone, B. Mennucci, 
 G. A. Petersson, H. Nakatsuji, M. Caricato, X. Li, H. P. Hratchian, 
 A. F. Izmaylov, J. Bloino, G. Zheng, J. L. Sonnenberg, M. Hada, 
 M. Ehara, K. Toyota, R. Fukuda, J. Hasegawa, M. Ishida, T. Nakajima, 
 Y. Honda, O. Kitao, H. Nakai, T. Vreven, J. A. Montgomery, Jr., 
 J. E. Peralta, F. Ogliaro, M. Bearpark, J. J. Heyd, E. Brothers, 
 K. N. Kudin, V. N. Staroverov, T. Keith, R. Kobayashi, J. Normand, 
 K. Raghavachari, A. Rendell, J. C. Burant, S. S. Iyengar, J. Tomasi, 
 M. Cossi, N. Rega, J. M. Millam, M. Klene, J. E. Knox, J. B. Cross, 
 V. Bakken, C. Adamo, J. Jaramillo, R. Gomperts, R. E. Stratmann, 
 O. Yazyev, A. J. Austin, R. Cammi, C. Pomelli, J. W. Ochterski, 
 R. L. Martin, K. Morokuma, V. G. Zakrzewski, G. A. Voth, 
 P. Salvador, J. J. Dannenberg, S. Dapprich, A. D. Daniels, 
 O. Farkas, J. B. Foresman, J. V. Ortiz, J. Cioslowski, 
 and D. J. Fox, Gaussian, Inc., Wallingford CT, 2013.
 
 ******************************************
 Gaussian 09:  ES64L-G09RevD.01 24-Apr-2013
                27-Aug-2020 
 ******************************************
 %nprocshared=4
 Will use up to    4 processors via shared memory.
 %chk=b3lyp_sm_2H2O_claisen_PM6_toluene.chk
 ----------------------------------------------------------------------
 # opt freq b3lyp/6-31+g(d,p) scrf=(cpcm,solvent=toluene) geom=connecti
 vity empiricaldispersion=gd3
 ----------------------------------------------------------------------
 1/14=-1,18=20,19=15,26=3,38=1,57=2/1,3;
 2/9=110,12=2,17=6,18=5,40=1/2;
 3/5=1,6=6,7=111,11=2,16=1,25=1,30=1,70=2101,71=1,72=13,74=-5,124=31/1,2,3;
 4//1;
 5/5=2,38=5,53=13/2;
 6/7=2,8=2,9=2,10=2,28=1/1;
 7//1,2,3,16;
 1/14=-1,18=20,19=15,26=3/3(2);
 2/9=110/2;
 99//99;
 2/9=110/2;
 3/5=1,6=6,7=111,11=2,16=1,25=1,30=1,70=2105,71=1,72=13,74=-5,124=31/1,2,3;
 4/5=5,16=3,69=1/1;
 5/5=2,38=5,53=13/2;
 7//1,2,3,16;
 1/14=-1,18=20,19=15,26=3/3(-5);
 2/9=110/2;
 6/7=2,8=2,9=2,10=2,19=2,28=1/1;
 99/9=1/99;
 -------------------
 Title Card Required
 -------------------
 Symbolic Z-matrix:
 Charge =  0 Multiplicity = 1
 C                     2.75955   2.44057  -0.59041 
 C                     3.01745   1.16424  -0.14901 
 C                     1.94404   0.26474   0.12933 
 C                     0.61109   0.71687  -0.05266 
 C                     0.37102   2.04382  -0.5177 
 C                     1.4222    2.88755  -0.78066 
 H                     3.57858   3.13015  -0.80283 
 H                     4.04719   0.83219  -0.0082 
 H                    -0.6645    2.36261  -0.66459 
 H                     1.24983   3.90369  -1.13588 
 C                    -0.47533  -0.19776   0.22887 
 C                     2.13964  -1.08366   0.57151 
 C                    -0.24327  -1.49052   0.6479 
 H                    -1.05963  -2.1829    0.84913 
 C                     1.09111  -1.93495   0.82268 
 H                     1.26315  -2.96056   1.15838 
 O                    -1.69082   0.38618   0.02251 
 Cl                    3.7486   -1.66104   0.79768 
 C                    -2.98385  -0.35203   0.16336 
 C                    -3.0351   -1.53838  -0.76612 
 H                    -3.71185  -2.32924  -0.43428 
 C                    -3.16009  -0.72409   1.62781 
 H                    -4.20815  -0.9531    1.86126 
 H                    -2.56628  -1.60029   1.91916 
 H                    -2.8599    0.10057   2.29296 
 C                    -3.93693   0.75227  -0.2906 
 H                    -3.57558   1.22975  -1.21319 
 H                    -4.93673   0.35203  -0.50028 
 H                    -4.04884   1.54419   0.46068 
 C                    -2.36364  -1.62728  -1.91039 
 H                    -2.43215  -2.47986  -2.5732 
 H                    -1.67819  -0.86333  -2.27273 
 O                     0.49714  -0.61706  -2.90519 
 H                     0.85024  -1.22098  -2.25208 
 H                     0.81084   0.25524  -2.66373 
 O                    -1.79948   2.36318   2.12427 
 H                    -0.88607   2.2686    2.38219 
 H                    -1.90045   1.86215   1.30043 
 
 Add virtual bond connecting atoms H38        and O17        Dist= 3.71D+00.
 Add virtual bond connecting atoms O33        and H32        Dist= 4.31D+00.

 GradGradGradGradGradGradGradGradGradGradGradGradGradGradGradGradGradGrad
 Berny optimization.
 Initialization pass.
                           ----------------------------
                           !    Initial Parameters    !
                           ! (Angstroms and Degrees)  !
 --------------------------                            --------------------------
 ! Name  Definition              Value          Derivative Info.                !
 --------------------------------------------------------------------------------
 ! R1    R(1,2)                  1.3749         estimate D2E/DX2                !
 ! R2    R(1,6)                  1.4228         estimate D2E/DX2                !
 ! R3    R(1,7)                  1.0915         estimate D2E/DX2                !
 ! R4    R(2,3)                  1.4279         estimate D2E/DX2                !
 ! R5    R(2,8)                  1.0911         estimate D2E/DX2                !
 ! R6    R(3,4)                  1.4193         estimate D2E/DX2                !
 ! R7    R(3,12)                 1.4325         estimate D2E/DX2                !
 ! R8    R(4,5)                  1.4264         estimate D2E/DX2                !
 ! R9    R(4,11)                 1.4478         estimate D2E/DX2                !
 ! R10   R(5,6)                  1.3733         estimate D2E/DX2                !
 ! R11   R(5,9)                  1.0934         estimate D2E/DX2                !
 ! R12   R(6,10)                 1.0902         estimate D2E/DX2                !
 ! R13   R(11,13)                1.3786         estimate D2E/DX2                !
 ! R14   R(11,17)                1.3642         estimate D2E/DX2                !
 ! R15   R(12,15)                1.3738         estimate D2E/DX2                !
 ! R16   R(12,18)                1.7243         estimate D2E/DX2                !
 ! R17   R(13,14)                1.0892         estimate D2E/DX2                !
 ! R18   R(13,15)                1.4173         estimate D2E/DX2                !
 ! R19   R(15,16)                1.0928         estimate D2E/DX2                !
 ! R20   R(17,19)                1.4956         estimate D2E/DX2                !
 ! R21   R(17,38)                1.9635         estimate D2E/DX2                !
 ! R22   R(19,20)                1.508          estimate D2E/DX2                !
 ! R23   R(19,22)                1.5212         estimate D2E/DX2                !
 ! R24   R(19,26)                1.5277         estimate D2E/DX2                !
 ! R25   R(20,21)                1.0925         estimate D2E/DX2                !
 ! R26   R(20,30)                1.3297         estimate D2E/DX2                !
 ! R27   R(22,23)                1.0979         estimate D2E/DX2                !
 ! R28   R(22,24)                1.0978         estimate D2E/DX2                !
 ! R29   R(22,25)                1.1012         estimate D2E/DX2                !
 ! R30   R(26,27)                1.0999         estimate D2E/DX2                !
 ! R31   R(26,28)                1.0972         estimate D2E/DX2                !
 ! R32   R(26,29)                1.0973         estimate D2E/DX2                !
 ! R33   R(30,31)                1.0821         estimate D2E/DX2                !
 ! R34   R(30,32)                1.0885         estimate D2E/DX2                !
 ! R35   R(32,33)                2.2788         estimate D2E/DX2                !
 ! R36   R(33,34)                0.957          estimate D2E/DX2                !
 ! R37   R(33,35)                0.9579         estimate D2E/DX2                !
 ! R38   R(36,37)                0.9538         estimate D2E/DX2                !
 ! R39   R(36,38)                0.9695         estimate D2E/DX2                !
 ! A1    A(2,1,6)              120.7205         estimate D2E/DX2                !
 ! A2    A(2,1,7)              120.5431         estimate D2E/DX2                !
 ! A3    A(6,1,7)              118.7364         estimate D2E/DX2                !
 ! A4    A(1,2,3)              120.4222         estimate D2E/DX2                !
 ! A5    A(1,2,8)              120.0644         estimate D2E/DX2                !
 ! A6    A(3,2,8)              119.5134         estimate D2E/DX2                !
 ! A7    A(2,3,4)              118.7091         estimate D2E/DX2                !
 ! A8    A(2,3,12)             123.402          estimate D2E/DX2                !
 ! A9    A(4,3,12)             117.8853         estimate D2E/DX2                !
 ! A10   A(3,4,5)              119.7504         estimate D2E/DX2                !
 ! A11   A(3,4,11)             118.5921         estimate D2E/DX2                !
 ! A12   A(5,4,11)             121.6541         estimate D2E/DX2                !
 ! A13   A(4,5,6)              120.3399         estimate D2E/DX2                !
 ! A14   A(4,5,9)              118.321          estimate D2E/DX2                !
 ! A15   A(6,5,9)              121.3373         estimate D2E/DX2                !
 ! A16   A(1,6,5)              120.0553         estimate D2E/DX2                !
 ! A17   A(1,6,10)             119.0124         estimate D2E/DX2                !
 ! A18   A(5,6,10)             120.9323         estimate D2E/DX2                !
 ! A19   A(4,11,13)            121.6804         estimate D2E/DX2                !
 ! A20   A(4,11,17)            111.64           estimate D2E/DX2                !
 ! A21   A(13,11,17)           126.6793         estimate D2E/DX2                !
 ! A22   A(3,12,15)            122.3795         estimate D2E/DX2                !
 ! A23   A(3,12,18)            118.888          estimate D2E/DX2                !
 ! A24   A(15,12,18)           118.7325         estimate D2E/DX2                !
 ! A25   A(11,13,14)           121.7404         estimate D2E/DX2                !
 ! A26   A(11,13,15)           119.3411         estimate D2E/DX2                !
 ! A27   A(14,13,15)           118.9185         estimate D2E/DX2                !
 ! A28   A(12,15,13)           120.1164         estimate D2E/DX2                !
 ! A29   A(12,15,16)           121.171          estimate D2E/DX2                !
 ! A30   A(13,15,16)           118.7125         estimate D2E/DX2                !
 ! A31   A(11,17,19)           123.012          estimate D2E/DX2                !
 ! A32   A(11,17,38)           108.568          estimate D2E/DX2                !
 ! A33   A(19,17,38)           102.5585         estimate D2E/DX2                !
 ! A34   A(17,19,20)           111.079          estimate D2E/DX2                !
 ! A35   A(17,19,22)           108.1525         estimate D2E/DX2                !
 ! A36   A(17,19,26)            98.8935         estimate D2E/DX2                !
 ! A37   A(20,19,22)           113.3921         estimate D2E/DX2                !
 ! A38   A(20,19,26)           111.3658         estimate D2E/DX2                !
 ! A39   A(22,19,26)           112.9902         estimate D2E/DX2                !
 ! A40   A(19,20,21)           113.7871         estimate D2E/DX2                !
 ! A41   A(19,20,30)           124.4616         estimate D2E/DX2                !
 ! A42   A(21,20,30)           121.7212         estimate D2E/DX2                !
 ! A43   A(19,22,23)           111.4879         estimate D2E/DX2                !
 ! A44   A(19,22,24)           112.8314         estimate D2E/DX2                !
 ! A45   A(19,22,25)           111.5151         estimate D2E/DX2                !
 ! A46   A(23,22,24)           107.0636         estimate D2E/DX2                !
 ! A47   A(23,22,25)           106.7392         estimate D2E/DX2                !
 ! A48   A(24,22,25)           106.8549         estimate D2E/DX2                !
 ! A49   A(19,26,27)           110.9831         estimate D2E/DX2                !
 ! A50   A(19,26,28)           111.1983         estimate D2E/DX2                !
 ! A51   A(19,26,29)           112.4487         estimate D2E/DX2                !
 ! A52   A(27,26,28)           107.3042         estimate D2E/DX2                !
 ! A53   A(27,26,29)           107.1271         estimate D2E/DX2                !
 ! A54   A(28,26,29)           107.5286         estimate D2E/DX2                !
 ! A55   A(20,30,31)           123.2175         estimate D2E/DX2                !
 ! A56   A(20,30,32)           123.8863         estimate D2E/DX2                !
 ! A57   A(31,30,32)           112.8897         estimate D2E/DX2                !
 ! A58   A(30,32,33)           140.3002         estimate D2E/DX2                !
 ! A59   A(32,33,34)            95.4283         estimate D2E/DX2                !
 ! A60   A(32,33,35)           109.9415         estimate D2E/DX2                !
 ! A61   A(34,33,35)           106.3669         estimate D2E/DX2                !
 ! A62   A(37,36,38)           106.1567         estimate D2E/DX2                !
 ! A63   A(17,38,36)           158.4947         estimate D2E/DX2                !
 ! D1    D(6,1,2,3)             -0.1392         estimate D2E/DX2                !
 ! D2    D(6,1,2,8)            179.9102         estimate D2E/DX2                !
 ! D3    D(7,1,2,3)            179.939          estimate D2E/DX2                !
 ! D4    D(7,1,2,8)             -0.0116         estimate D2E/DX2                !
 ! D5    D(2,1,6,5)              0.2788         estimate D2E/DX2                !
 ! D6    D(2,1,6,10)          -179.7305         estimate D2E/DX2                !
 ! D7    D(7,1,6,5)           -179.798          estimate D2E/DX2                !
 ! D8    D(7,1,6,10)             0.1927         estimate D2E/DX2                !
 ! D9    D(1,2,3,4)             -0.2947         estimate D2E/DX2                !
 ! D10   D(1,2,3,12)           178.9963         estimate D2E/DX2                !
 ! D11   D(8,2,3,4)            179.6561         estimate D2E/DX2                !
 ! D12   D(8,2,3,12)            -1.0529         estimate D2E/DX2                !
 ! D13   D(2,3,4,5)              0.5901         estimate D2E/DX2                !
 ! D14   D(2,3,4,11)           179.9316         estimate D2E/DX2                !
 ! D15   D(12,3,4,5)          -178.7402         estimate D2E/DX2                !
 ! D16   D(12,3,4,11)            0.6012         estimate D2E/DX2                !
 ! D17   D(2,3,12,15)         -179.4459         estimate D2E/DX2                !
 ! D18   D(2,3,12,18)            0.5681         estimate D2E/DX2                !
 ! D19   D(4,3,12,15)           -0.1495         estimate D2E/DX2                !
 ! D20   D(4,3,12,18)          179.8645         estimate D2E/DX2                !
 ! D21   D(3,4,5,6)             -0.461          estimate D2E/DX2                !
 ! D22   D(3,4,5,9)            179.0566         estimate D2E/DX2                !
 ! D23   D(11,4,5,6)          -179.7817         estimate D2E/DX2                !
 ! D24   D(11,4,5,9)            -0.2641         estimate D2E/DX2                !
 ! D25   D(3,4,11,13)           -0.8965         estimate D2E/DX2                !
 ! D26   D(3,4,11,17)          179.2679         estimate D2E/DX2                !
 ! D27   D(5,4,11,13)          178.4318         estimate D2E/DX2                !
 ! D28   D(5,4,11,17)           -1.4038         estimate D2E/DX2                !
 ! D29   D(4,5,6,1)              0.0249         estimate D2E/DX2                !
 ! D30   D(4,5,6,10)          -179.9657         estimate D2E/DX2                !
 ! D31   D(9,5,6,1)           -179.478          estimate D2E/DX2                !
 ! D32   D(9,5,6,10)             0.5315         estimate D2E/DX2                !
 ! D33   D(4,11,13,14)        -179.2955         estimate D2E/DX2                !
 ! D34   D(4,11,13,15)           0.6947         estimate D2E/DX2                !
 ! D35   D(17,11,13,14)          0.5139         estimate D2E/DX2                !
 ! D36   D(17,11,13,15)       -179.4958         estimate D2E/DX2                !
 ! D37   D(4,11,17,19)         176.4966         estimate D2E/DX2                !
 ! D38   D(4,11,17,38)         -64.0455         estimate D2E/DX2                !
 ! D39   D(13,11,17,19)         -3.3289         estimate D2E/DX2                !
 ! D40   D(13,11,17,38)        116.129          estimate D2E/DX2                !
 ! D41   D(3,12,15,13)          -0.0579         estimate D2E/DX2                !
 ! D42   D(3,12,15,16)         179.931          estimate D2E/DX2                !
 ! D43   D(18,12,15,13)        179.9281         estimate D2E/DX2                !
 ! D44   D(18,12,15,16)         -0.083          estimate D2E/DX2                !
 ! D45   D(11,13,15,12)         -0.2135         estimate D2E/DX2                !
 ! D46   D(11,13,15,16)        179.7973         estimate D2E/DX2                !
 ! D47   D(14,13,15,12)        179.777          estimate D2E/DX2                !
 ! D48   D(14,13,15,16)         -0.2122         estimate D2E/DX2                !
 ! D49   D(11,17,19,20)        -58.4696         estimate D2E/DX2                !
 ! D50   D(11,17,19,22)         66.5709         estimate D2E/DX2                !
 ! D51   D(11,17,19,26)       -175.5675         estimate D2E/DX2                !
 ! D52   D(38,17,19,20)        179.2695         estimate D2E/DX2                !
 ! D53   D(38,17,19,22)        -55.6901         estimate D2E/DX2                !
 ! D54   D(38,17,19,26)         62.1715         estimate D2E/DX2                !
 ! D55   D(11,17,38,36)        -31.4707         estimate D2E/DX2                !
 ! D56   D(19,17,38,36)        100.1082         estimate D2E/DX2                !
 ! D57   D(17,19,20,21)        155.4145         estimate D2E/DX2                !
 ! D58   D(17,19,20,30)        -26.5606         estimate D2E/DX2                !
 ! D59   D(22,19,20,21)         33.3735         estimate D2E/DX2                !
 ! D60   D(22,19,20,30)       -148.6015         estimate D2E/DX2                !
 ! D61   D(26,19,20,21)        -95.3955         estimate D2E/DX2                !
 ! D62   D(26,19,20,30)         82.6295         estimate D2E/DX2                !
 ! D63   D(17,19,22,23)        160.6419         estimate D2E/DX2                !
 ! D64   D(17,19,22,24)        -78.8343         estimate D2E/DX2                !
 ! D65   D(17,19,22,25)         41.4391         estimate D2E/DX2                !
 ! D66   D(20,19,22,23)        -75.7015         estimate D2E/DX2                !
 ! D67   D(20,19,22,24)         44.8223         estimate D2E/DX2                !
 ! D68   D(20,19,22,25)        165.0957         estimate D2E/DX2                !
 ! D69   D(26,19,22,23)         52.2305         estimate D2E/DX2                !
 ! D70   D(26,19,22,24)        172.7542         estimate D2E/DX2                !
 ! D71   D(26,19,22,25)        -66.9724         estimate D2E/DX2                !
 ! D72   D(17,19,26,27)         46.6962         estimate D2E/DX2                !
 ! D73   D(17,19,26,28)        166.0656         estimate D2E/DX2                !
 ! D74   D(17,19,26,29)        -73.2858         estimate D2E/DX2                !
 ! D75   D(20,19,26,27)        -70.1831         estimate D2E/DX2                !
 ! D76   D(20,19,26,28)         49.1863         estimate D2E/DX2                !
 ! D77   D(20,19,26,29)        169.8349         estimate D2E/DX2                !
 ! D78   D(22,19,26,27)        160.8343         estimate D2E/DX2                !
 ! D79   D(22,19,26,28)        -79.7962         estimate D2E/DX2                !
 ! D80   D(22,19,26,29)         40.8523         estimate D2E/DX2                !
 ! D81   D(19,20,30,31)       -178.6118         estimate D2E/DX2                !
 ! D82   D(19,20,30,32)          2.3781         estimate D2E/DX2                !
 ! D83   D(21,20,30,31)         -0.7365         estimate D2E/DX2                !
 ! D84   D(21,20,30,32)       -179.7467         estimate D2E/DX2                !
 ! D85   D(20,30,32,33)        122.4712         estimate D2E/DX2                !
 ! D86   D(31,30,32,33)        -56.6299         estimate D2E/DX2                !
 ! D87   D(30,32,33,34)        -36.5996         estimate D2E/DX2                !
 ! D88   D(30,32,33,35)       -146.2079         estimate D2E/DX2                !
 ! D89   D(32,33,34,35)       -112.6421         estimate D2E/DX2                !
 ! D90   D(37,36,38,17)         42.4815         estimate D2E/DX2                !
 --------------------------------------------------------------------------------
 Trust Radius=3.00D-01 FncErr=1.00D-07 GrdErr=1.00D-06
 Number of steps in this run=    202 maximum allowed number of steps=    228.
 GradGradGradGradGradGradGradGradGradGradGradGradGradGradGradGradGradGrad

                          Input orientation:                          
 ---------------------------------------------------------------------
 Center     Atomic      Atomic             Coordinates (Angstroms)
 Number     Number       Type             X           Y           Z
 ---------------------------------------------------------------------
      1          6           0        2.759551    2.440572   -0.590407
      2          6           0        3.017447    1.164241   -0.149006
      3          6           0        1.944037    0.264743    0.129329
      4          6           0        0.611092    0.716874   -0.052658
      5          6           0        0.371024    2.043823   -0.517704
      6          6           0        1.422202    2.887548   -0.780660
      7          1           0        3.578583    3.130148   -0.802828
      8          1           0        4.047190    0.832191   -0.008197
      9          1           0       -0.664501    2.362605   -0.664594
     10          1           0        1.249832    3.903694   -1.135876
     11          6           0       -0.475325   -0.197760    0.228872
     12          6           0        2.139644   -1.083656    0.571512
     13          6           0       -0.243267   -1.490521    0.647902
     14          1           0       -1.059632   -2.182897    0.849126
     15          6           0        1.091109   -1.934946    0.822678
     16          1           0        1.263148   -2.960558    1.158381
     17          8           0       -1.690820    0.386175    0.022510
     18         17           0        3.748604   -1.661036    0.797678
     19          6           0       -2.983853   -0.352030    0.163357
     20          6           0       -3.035099   -1.538381   -0.766116
     21          1           0       -3.711845   -2.329242   -0.434279
     22          6           0       -3.160091   -0.724086    1.627813
     23          1           0       -4.208148   -0.953101    1.861255
     24          1           0       -2.566279   -1.600286    1.919160
     25          1           0       -2.859899    0.100573    2.292959
     26          6           0       -3.936931    0.752265   -0.290599
     27          1           0       -3.575579    1.229751   -1.213188
     28          1           0       -4.936726    0.352026   -0.500278
     29          1           0       -4.048842    1.544193    0.460680
     30          6           0       -2.363636   -1.627281   -1.910388
     31          1           0       -2.432146   -2.479855   -2.573199
     32          1           0       -1.678189   -0.863331   -2.272734
     33          8           0        0.497143   -0.617064   -2.905189
     34          1           0        0.850236   -1.220983   -2.252084
     35          1           0        0.810835    0.255237   -2.663727
     36          8           0       -1.799476    2.363175    2.124270
     37          1           0       -0.886068    2.268600    2.382185
     38          1           0       -1.900445    1.862148    1.300430
 ---------------------------------------------------------------------
                    Distance matrix (angstroms):
                    1          2          3          4          5
     1  C    0.000000
     2  C    1.374906   0.000000
     3  C    2.432553   1.427857   0.000000
     4  C    2.806454   2.449483   1.419255   0.000000
     5  C    2.422345   2.813033   2.461330   1.426427   0.000000
     6  C    1.422844   2.431785   2.824800   2.428932   1.373315
     7  H    1.091536   2.146427   3.428003   3.897775   3.398504
     8  H    2.140998   1.091080   2.182696   3.438320   3.904081
     9  H    3.425743   3.906232   3.440321   2.170261   1.093394
    10  H    2.171984   3.406314   3.914668   3.425956   2.147920
    11  C    4.253991   3.767930   2.465184   1.447797   2.509657
    12  C    3.762250   2.518477   1.432469   2.442942   3.754402
    13  C    5.099394   4.279612   2.852046   2.468462   3.771946
    14  H    6.167242   5.368629   3.940949   3.466007   4.666922
    15  C    4.891387   3.776229   2.459035   2.833510   4.259783
    16  H    5.871089   4.669132   3.453277   3.926232   5.352474
    17  O    4.939840   4.775205   3.638453   2.326760   2.700153
    18  Cl   4.441643   3.068060   2.722458   4.027593   5.183074
    19  C    6.430667   6.197762   4.966454   3.756707   4.178415
    20  C    7.031423   6.657199   5.370742   4.346252   4.949300
    21  H    8.040800   7.587435   6.247833   5.302098   5.983350
    22  C    7.069492   6.699615   5.410671   4.372890   4.973262
    23  H    8.128745   7.793171   6.506312   5.447656   5.967396
    24  H    7.140793   6.564900   5.198536   4.399203   5.276892
    25  H    6.735548   6.452734   5.271247   4.234327   4.702649
    26  C    6.912535   6.968009   5.916063   4.554380   4.503129
    27  H    6.479801   6.678680   5.761923   4.374710   4.089265
    28  H    7.975138   8.003246   6.910060   5.577792   5.570879
    29  H    6.947121   7.102712   6.136887   4.760563   4.554347
    30  C    6.673591   6.312774   5.127987   4.218439   4.784866
    31  H    7.422653   6.989579   5.829876   5.082667   5.704953
    32  H    5.782693   5.538074   4.490321   3.559016   3.966226
    33  O    4.452622   4.137816   3.475541   3.151080   3.577193
    34  H    4.451251   3.848251   3.012459   2.941080   3.727825
    35  H    3.587735   3.466878   3.014200   2.659076   2.828054
    36  O    5.306617   5.459668   4.732557   3.641450   3.434106
    37  H    4.707060   4.781628   4.135251   3.252353   3.168621
    38  H    5.062154   5.174321   4.324722   3.074137   2.915165
                    6          7          8          9         10
     6  C    0.000000
     7  H    2.170098   0.000000
     8  H    3.422244   2.476214   0.000000
     9  H    2.154847   4.314162   4.997305   0.000000
    10  H    1.090157   2.476363   4.304765   2.502345   0.000000
    11  C    3.760171   5.345423   4.644367   2.718370   4.654098
    12  C    4.256002   4.659989   2.765007   4.611714   5.346083
    13  C    4.897149   6.169419   4.922751   4.092269   5.874416
    14  H    5.875808   7.243648   5.992111   4.807189   6.805913
    15  C    5.092815   5.872391   4.133499   4.874740   6.160426
    16  H    6.163240   6.804725   4.847344   5.947700   7.237524
    17  O    4.073433   5.998098   5.755400   2.330605   4.728872
    18  Cl   5.347234   5.054302   2.637190   6.148449   6.399118
    19  C    5.549717   7.491638   7.132137   3.665261   6.141928
    20  C    6.281448   8.095511   7.506855   4.565932   6.936392
    21  H    7.327572   9.115432   8.389209   5.599355   7.997498
    22  C    6.312056   8.134670   7.552710   4.583750   6.964319
    23  H    7.309661   9.187134   8.650591   5.470946   7.896885
    24  H    6.583135   8.218610   7.305451   5.098730   7.361368
    25  H    5.962445   7.759914   7.316998   4.322462   6.565861
    26  C    5.789637   7.899345   7.989514   3.666315   6.127684
    27  H    5.283293   7.413632   7.727656   3.171544   5.517295
    28  H    6.851529   8.962142   9.010186   4.724546   7.161831
    29  H    5.768696   7.892358   8.140794   3.659208   6.015994
    30  C    5.999378   7.692190   7.125028   4.512012   6.651970
    31  H    6.846766   8.410423   7.715613   5.496977   7.508166
    32  H    5.089971   6.763294   6.386148   3.744375   5.708790
    33  O    4.201388   5.287418   4.805802   3.904883   4.912663
    34  H    4.401393   5.336343   4.412603   4.201982   5.260030
    35  H    3.293747   4.403236   4.225957   3.257936   3.979734
    36  O    4.369530   6.170873   6.408965   3.010968   4.722291
    37  H    3.964189   5.551548   5.666942   3.056271   4.428584
    38  H    4.052452   6.004271   6.176381   2.374728   4.475237
                   11         12         13         14         15
    11  C    0.000000
    12  C    2.782135   0.000000
    13  C    1.378647   2.418603   0.000000
    14  H    2.160301   3.394226   1.089187   0.000000
    15  C    2.413325   1.373756   1.417258   2.165148   0.000000
    16  H    3.394014   2.153003   2.165845   2.468948   1.092783
    17  O    1.364182   4.139355   2.451227   2.771610   3.710391
    18  Cl   4.506250   1.724318   3.998317   4.836747   2.671691
    19  C    2.514121   5.191540   3.006951   2.743170   4.421045
    20  C    3.056094   5.364139   3.129866   2.631896   4.439271
    21  H    3.931672   6.066550   3.729022   2.950047   4.980339
    22  C    3.072788   5.415926   3.171042   2.673277   4.493009
    23  H    4.143571   6.478807   4.181068   3.528450   5.488605
    24  H    3.032531   4.922273   2.650383   1.937626   3.832852
    25  H    3.167910   5.418598   3.476285   3.246514   4.681402
    26  C    3.626998   6.406138   4.421994   4.265325   5.808758
    27  H    3.705253   6.418783   4.686986   4.714795   5.994834
    28  H    4.553902   7.299653   5.171253   4.824788   6.581432
    29  H    3.982230   6.724227   4.871031   4.793482   6.217278
    30  C    3.191502   5.170579   3.325585   3.102266   4.415832
    31  H    4.109587   5.721874   4.018142   3.699228   4.923640
    32  H    2.854453   4.765934   3.313983   3.445269   4.289399
    33  O    3.308149   3.873366   3.733040   4.355486   3.998325
    34  H    2.993199   3.107109   3.111000   3.767012   3.165742
    35  H    3.197897   3.745015   3.889176   4.667256   4.126800
    36  O    3.450261   5.459704   4.410490   4.779135   5.340737
    37  H    3.299757   4.865294   4.189501   4.711286   4.900111
    38  H    2.724413   5.052861   3.796369   4.156084   4.857527
                   16         17         18         19         20
    16  H    0.000000
    17  O    4.606165   0.000000
    18  Cl   2.827783   5.863386   0.000000
    19  C    5.082471   1.495566   6.887804   0.000000
    20  C    4.919472   2.476476   6.962695   1.507970   0.000000
    21  H    5.261718   3.415653   7.590950   2.190093   1.092503
    22  C    4.978676   2.443038   7.021187   1.521222   2.531718
    23  H    5.870178   3.392872   8.058677   2.177853   2.936269
    24  H    4.134445   2.882661   6.413982   2.194392   2.726597
    25  H    5.259021   2.569680   7.000817   2.180692   3.474882
    26  C    6.551749   2.297188   8.128703   1.527711   2.507285
    27  H    6.826149   2.406426   8.126739   2.178772   2.855617
    28  H    7.222382   3.287914   9.009554   2.179408   2.694530
    29  H    6.999772   2.663319   8.437252   2.195054   3.469145
    30  C    4.934423   2.871024   6.685375   2.512241   1.329708
    31  H    5.273610   3.937181   7.087662   3.510094   2.124965
    32  H    4.982206   2.613345   6.286004   2.810823   2.137006
    33  O    4.753034   3.790131   5.037172   4.647962   4.230980
    34  H    3.850700   3.770106   4.230276   4.614073   4.171891
    35  H    5.015420   3.673049   4.927871   4.770832   4.648570
    36  O    6.217294   2.887513   6.981068   3.552501   5.010313
    37  H    5.784541   3.123974   6.279561   4.023879   5.387322
    38  H    5.769488   1.963547   6.676626   2.714644   4.137832
                   21         22         23         24         25
    21  H    0.000000
    22  C    2.670802   0.000000
    23  H    2.722050   1.097892   0.000000
    24  H    2.717052   1.097826   1.765768   0.000000
    25  H    3.750685   1.101180   1.764759   1.766029   0.000000
    26  C    3.093056   2.542321   2.759041   3.506596   2.873930
    27  H    3.645778   3.472952   3.823243   4.340438   3.752374
    28  H    2.948540   2.973755   2.794820   3.909504   3.489787
    29  H    3.989739   2.701327   2.867659   3.770001   2.618181
    30  C    2.118800   3.737508   4.252298   3.835001   4.571639
    31  H    2.497057   4.610979   5.014932   4.579620   5.524588
    32  H    3.108789   4.174888   4.847537   4.347848   4.813637
    33  O    5.172285   5.825369   6.706092   5.798760   6.229404
    34  H    5.034405   5.602074   6.525225   5.405157   6.014069
    35  H    5.666093   5.928292   6.864819   5.987547   6.169842
    36  O    5.676452   3.410121   4.107136   4.042163   2.504460
    37  H    6.087498   3.833592   4.656924   4.243322   2.933311
    38  H    4.884479   2.895254   3.683157   3.579750   2.238038
                   26         27         28         29         30
    26  C    0.000000
    27  H    1.099881   0.000000
    28  H    1.097154   1.769566   0.000000
    29  H    1.097312   1.767678   1.770040   0.000000
    30  C    3.280429   3.180806   3.539330   4.303502   0.000000
    31  H    4.233349   4.113180   4.311551   5.292550   1.082079
    32  H    3.411880   3.017237   3.903429   4.346000   1.088463
    33  O    5.326552   4.781282   6.020769   6.055253   3.192839
    34  H    5.536976   5.164614   6.247568   6.245499   3.257423
    35  H    5.331046   4.721691   6.142014   5.919441   3.766784
    36  O    3.604905   3.946874   4.557994   2.915118   5.702673
    37  H    4.330221   4.608621   5.328197   3.770953   5.982247
    38  H    2.812559   3.086142   3.839534   2.328494   4.764453
                   31         32         33         34         35
    31  H    0.000000
    32  H    1.808834   0.000000
    33  O    3.487254   2.278753   0.000000
    34  H    3.530142   2.553679   0.957047   0.000000
    35  H    4.243330   2.756685   0.957923   1.533045   0.000000
    36  O    6.776535   5.455153   6.281062   6.246570   5.846541
    37  H    7.035198   5.666103   6.180344   6.055443   5.691602
    38  H    5.843004   4.499459   5.438948   5.449064   5.064360
                   36         37         38
    36  O    0.000000
    37  H    0.953823   0.000000
    38  H    0.969503   1.537647   0.000000
 Stoichiometry    C15H19ClO3
 Framework group  C1[X(C15H19ClO3)]
 Deg. of freedom   108
 Full point group                 C1      NOp   1
 Largest Abelian subgroup         C1      NOp   1
 Largest concise Abelian subgroup C1      NOp   1
                         Standard orientation:                         
 ---------------------------------------------------------------------
 Center     Atomic      Atomic             Coordinates (Angstroms)
 Number     Number       Type             X           Y           Z
 ---------------------------------------------------------------------
      1          6           0       -2.759551    2.440572    0.590407
      2          6           0       -3.017447    1.164241    0.149006
      3          6           0       -1.944037    0.264743   -0.129329
      4          6           0       -0.611092    0.716874    0.052658
      5          6           0       -0.371024    2.043823    0.517704
      6          6           0       -1.422202    2.887548    0.780660
      7          1           0       -3.578583    3.130148    0.802828
      8          1           0       -4.047190    0.832191    0.008197
      9          1           0        0.664501    2.362605    0.664594
     10          1           0       -1.249832    3.903694    1.135876
     11          6           0        0.475325   -0.197760   -0.228872
     12          6           0       -2.139644   -1.083656   -0.571512
     13          6           0        0.243267   -1.490521   -0.647902
     14          1           0        1.059632   -2.182897   -0.849126
     15          6           0       -1.091109   -1.934946   -0.822678
     16          1           0       -1.263148   -2.960558   -1.158381
     17          8           0        1.690820    0.386175   -0.022510
     18         17           0       -3.748604   -1.661036   -0.797678
     19          6           0        2.983853   -0.352030   -0.163357
     20          6           0        3.035099   -1.538381    0.766116
     21          1           0        3.711845   -2.329242    0.434279
     22          6           0        3.160091   -0.724086   -1.627813
     23          1           0        4.208148   -0.953101   -1.861255
     24          1           0        2.566279   -1.600286   -1.919160
     25          1           0        2.859899    0.100573   -2.292959
     26          6           0        3.936931    0.752265    0.290599
     27          1           0        3.575579    1.229751    1.213188
     28          1           0        4.936726    0.352026    0.500278
     29          1           0        4.048842    1.544193   -0.460680
     30          6           0        2.363636   -1.627281    1.910388
     31          1           0        2.432146   -2.479855    2.573199
     32          1           0        1.678189   -0.863331    2.272734
     33          8           0       -0.497143   -0.617064    2.905189
     34          1           0       -0.850236   -1.220983    2.252084
     35          1           0       -0.810835    0.255237    2.663727
     36          8           0        1.799476    2.363175   -2.124270
     37          1           0        0.886068    2.268600   -2.382185
     38          1           0        1.900445    1.862148   -1.300430
 ---------------------------------------------------------------------
 Rotational constants (GHZ):      0.4716755      0.2433460      0.2146194
 Standard basis: 6-31+G(d,p) (6D, 7F)
 There are   460 symmetry adapted cartesian basis functions of A   symmetry.
 There are   460 symmetry adapted basis functions of A   symmetry.
   460 basis functions,   765 primitive gaussians,   460 cartesian basis functions
    75 alpha electrons       75 beta electrons
       nuclear repulsion energy      1630.9528481976 Hartrees.
 NAtoms=   38 NActive=   38 NUniq=   38 SFac= 1.00D+00 NAtFMM=   60 NAOKFM=F Big=F
 Integral buffers will be    131072 words long.
 Raffenetti 2 integral format.
 Two-electron integral symmetry is turned on.
 Nuclear repulsion after empirical dispersion term =     1630.9045515924 Hartrees.
 ------------------------------------------------------------------------------
 Polarizable Continuum Model (PCM)
 =================================
 Model                : C-PCM.
 Atomic radii         : UFF (Universal Force Field).
 Polarization charges : Total charges.
 Charge compensation  : None.
 Solution method      : On-the-fly selection.
 Cavity type          : Scaled VdW (van der Waals Surface) (Alpha=1.100).
 Cavity algorithm     : GePol (No added spheres)
                        Default sphere list used, NSphG=   38.
                        Lebedev-Laikov grids with approx.  5.0 points / Ang**2.
                        Smoothing algorithm: Karplus/York (Gamma=1.0000).
                        Polarization charges: spherical gaussians, with
                                              point-specific exponents (IZeta= 3).
                        Self-potential: point-specific (ISelfS= 7).
                        Self-field    : sphere-specific E.n sum rule (ISelfD= 2).
 1st derivatives      : Analytical E(r).r(x)/FMM algorithm (CHGder, D1EAlg=3).
                        Cavity 1st derivative terms included.
 Solvent              : Toluene, Eps=   2.374100 Eps(inf)=   2.238315
 ------------------------------------------------------------------------------
 One-electron integrals computed using PRISM.
 NBasis=   460 RedAO= T EigKep=  1.06D-06  NBF=   460
 NBsUse=   457 1.00D-06 EigRej=  5.87D-07 NBFU=   457
 ExpMin= 4.38D-02 ExpMax= 2.52D+04 ExpMxC= 3.78D+03 IAcc=2 IRadAn=         4 AccDes= 0.00D+00
 Harris functional with IExCor=  402 and IRadAn=       4 diagonalized for initial guess.
 HarFok:  IExCor=  402 AccDes= 0.00D+00 IRadAn=         4 IDoV= 1 UseB2=F ITyADJ=14
 ICtDFT=  3500011 ScaDFX=  1.000000  1.000000  1.000000  1.000000
 FoFCou: FMM=F IPFlag=           0 FMFlag=      100000 FMFlg1=           0
         NFxFlg=           0 DoJE=T BraDBF=F KetDBF=T FulRan=T
         wScrn=  0.000000 ICntrl=     500 IOpCl=  0 I1Cent=   200000004 NGrid=           0
         NMat0=    1 NMatS0=      1 NMatT0=    0 NMatD0=    1 NMtDS0=    0 NMtDT0=    0
 Petite list used in FoFCou.
 Requested convergence on RMS density matrix=1.00D-08 within 128 cycles.
 Requested convergence on MAX density matrix=1.00D-06.
 Requested convergence on             energy=1.00D-06.
 No special actions if energy rises.
 Inv3:  Mode=1 IEnd=    21306675.
 Iteration    1 A*A^-1 deviation from unit magnitude is 6.11D-15 for   2641.
 Iteration    1 A*A^-1 deviation from orthogonality  is 2.29D-15 for   2644   2545.
 Iteration    1 A^-1*A deviation from unit magnitude is 5.88D-15 for   2641.
 Iteration    1 A^-1*A deviation from orthogonality  is 2.02D-15 for   2644   2545.
 Error on total polarization charges =  0.01266
 SCF Done:  E(RB3LYP) =  -1268.99792940     A.U. after   15 cycles
            NFock= 15  Conv=0.80D-08     -V/T= 2.0072

 **********************************************************************

            Population analysis using the SCF density.

 **********************************************************************

 Orbital symmetries:
       Occupied  (A) (A) (A) (A) (A) (A) (A) (A) (A) (A) (A) (A)
                 (A) (A) (A) (A) (A) (A) (A) (A) (A) (A) (A) (A)
                 (A) (A) (A) (A) (A) (A) (A) (A) (A) (A) (A) (A)
                 (A) (A) (A) (A) (A) (A) (A) (A) (A) (A) (A) (A)
                 (A) (A) (A) (A) (A) (A) (A) (A) (A) (A) (A) (A)
                 (A) (A) (A) (A) (A) (A) (A) (A) (A) (A) (A) (A)
                 (A) (A) (A)
       Virtual   (A) (A) (A) (A) (A) (A) (A) (A) (A) (A) (A) (A)
                 (A) (A) (A) (A) (A) (A) (A) (A) (A) (A) (A) (A)
                 (A) (A) (A) (A) (A) (A) (A) (A) (A) (A) (A) (A)
                 (A) (A) (A) (A) (A) (A) (A) (A) (A) (A) (A) (A)
                 (A) (A) (A) (A) (A) (A) (A) (A) (A) (A) (A) (A)
                 (A) (A) (A) (A) (A) (A) (A) (A) (A) (A) (A) (A)
                 (A) (A) (A) (A) (A) (A) (A) (A) (A) (A) (A) (A)
                 (A) (A) (A) (A) (A) (A) (A) (A) (A) (A) (A) (A)
                 (A) (A) (A) (A) (A) (A) (A) (A) (A) (A) (A) (A)
                 (A) (A) (A) (A) (A) (A) (A) (A) (A) (A) (A) (A)
                 (A) (A) (A) (A) (A) (A) (A) (A) (A) (A) (A) (A)
                 (A) (A) (A) (A) (A) (A) (A) (A) (A) (A) (A) (A)
                 (A) (A) (A) (A) (A) (A) (A) (A) (A) (A) (A) (A)
                 (A) (A) (A) (A) (A) (A) (A) (A) (A) (A) (A) (A)
                 (A) (A) (A) (A) (A) (A) (A) (A) (A) (A) (A) (A)
                 (A) (A) (A) (A) (A) (A) (A) (A) (A) (A) (A) (A)
                 (A) (A) (A) (A) (A) (A) (A) (A) (A) (A) (A) (A)
                 (A) (A) (A) (A) (A) (A) (A) (A) (A) (A) (A) (A)
                 (A) (A) (A) (A) (A) (A) (A) (A) (A) (A) (A) (A)
                 (A) (A) (A) (A) (A) (A) (A) (A) (A) (A) (A) (A)
                 (A) (A) (A) (A) (A) (A) (A) (A) (A) (A) (A) (A)
                 (A) (A) (A) (A) (A) (A) (A) (A) (A) (A) (A) (A)
                 (A) (A) (A) (A) (A) (A) (A) (A) (A) (A) (A) (A)
                 (A) (A) (A) (A) (A) (A) (A) (A) (A) (A) (A) (A)
                 (A) (A) (A) (A) (A) (A) (A) (A) (A) (A) (A) (A)
                 (A) (A) (A) (A) (A) (A) (A) (A) (A) (A) (A) (A)
                 (A) (A) (A) (A) (A) (A) (A) (A) (A) (A) (A) (A)
                 (A) (A) (A) (A) (A) (A) (A) (A) (A) (A) (A) (A)
                 (A) (A) (A) (A) (A) (A) (A) (A) (A) (A) (A) (A)
                 (A) (A) (A) (A) (A) (A) (A) (A) (A) (A) (A) (A)
                 (A) (A) (A) (A) (A) (A) (A) (A) (A) (A) (A) (A)
                 (A) (A) (A) (A) (A) (A) (A) (A) (A) (A)
 The electronic state is 1-A.
 Alpha  occ. eigenvalues -- -101.56212 -19.19895 -19.16400 -19.15445 -10.27616
 Alpha  occ. eigenvalues --  -10.27191 -10.25908 -10.22747 -10.22254 -10.21864
 Alpha  occ. eigenvalues --  -10.21169 -10.21124 -10.21095 -10.21054 -10.20889
 Alpha  occ. eigenvalues --  -10.20317 -10.19128 -10.19068 -10.18865  -9.47762
 Alpha  occ. eigenvalues --   -7.24149  -7.23203  -7.23174  -1.07853  -1.02203
 Alpha  occ. eigenvalues --   -1.01137  -0.91375  -0.87162  -0.84211  -0.82368
 Alpha  occ. eigenvalues --   -0.77352  -0.76562  -0.75682  -0.72567  -0.70526
 Alpha  occ. eigenvalues --   -0.64903  -0.64294  -0.62581  -0.60799  -0.56766
 Alpha  occ. eigenvalues --   -0.54285  -0.54166  -0.53201  -0.52827  -0.51030
 Alpha  occ. eigenvalues --   -0.49181  -0.48585  -0.47623  -0.45127  -0.45058
 Alpha  occ. eigenvalues --   -0.44506  -0.44258  -0.43471  -0.42850  -0.41289
 Alpha  occ. eigenvalues --   -0.40938  -0.40048  -0.39811  -0.39174  -0.38579
 Alpha  occ. eigenvalues --   -0.38026  -0.37449  -0.36837  -0.36443  -0.35715
 Alpha  occ. eigenvalues --   -0.35351  -0.33627  -0.32305  -0.31747  -0.31473
 Alpha  occ. eigenvalues --   -0.31134  -0.28007  -0.27677  -0.26561  -0.22072
 Alpha virt. eigenvalues --   -0.06193  -0.03724  -0.01623  -0.00552   0.00492
 Alpha virt. eigenvalues --    0.00820   0.01087   0.01511   0.01765   0.02050
 Alpha virt. eigenvalues --    0.02884   0.03460   0.03806   0.04573   0.05379
 Alpha virt. eigenvalues --    0.05548   0.05853   0.06141   0.06503   0.07028
 Alpha virt. eigenvalues --    0.07418   0.07652   0.07868   0.08038   0.08501
 Alpha virt. eigenvalues --    0.09676   0.10077   0.10137   0.10493   0.10773
 Alpha virt. eigenvalues --    0.11489   0.11660   0.12317   0.12550   0.12997
 Alpha virt. eigenvalues --    0.13818   0.13902   0.14245   0.14627   0.14857
 Alpha virt. eigenvalues --    0.15211   0.15431   0.16033   0.16203   0.16826
 Alpha virt. eigenvalues --    0.17148   0.17406   0.17830   0.18123   0.18496
 Alpha virt. eigenvalues --    0.18683   0.18731   0.19271   0.19576   0.19982
 Alpha virt. eigenvalues --    0.20450   0.21048   0.21157   0.21354   0.21598
 Alpha virt. eigenvalues --    0.21946   0.22179   0.22433   0.22697   0.23114
 Alpha virt. eigenvalues --    0.23275   0.23979   0.24286   0.24450   0.25013
 Alpha virt. eigenvalues --    0.25036   0.25249   0.25726   0.25861   0.26415
 Alpha virt. eigenvalues --    0.27197   0.27394   0.27571   0.28068   0.28272
 Alpha virt. eigenvalues --    0.28821   0.28935   0.29850   0.30123   0.30418
 Alpha virt. eigenvalues --    0.30498   0.31568   0.31808   0.32471   0.32583
 Alpha virt. eigenvalues --    0.33295   0.33642   0.33839   0.34314   0.35136
 Alpha virt. eigenvalues --    0.35970   0.36618   0.37187   0.37691   0.38673
 Alpha virt. eigenvalues --    0.39173   0.39661   0.40729   0.41736   0.42470
 Alpha virt. eigenvalues --    0.43047   0.44666   0.46559   0.47655   0.49521
 Alpha virt. eigenvalues --    0.50291   0.51003   0.54993   0.55215   0.56897
 Alpha virt. eigenvalues --    0.58928   0.61691   0.63797   0.65415   0.66736
 Alpha virt. eigenvalues --    0.67179   0.67727   0.68351   0.68650   0.69176
 Alpha virt. eigenvalues --    0.69798   0.70393   0.71849   0.72751   0.72841
 Alpha virt. eigenvalues --    0.73750   0.74003   0.74809   0.75228   0.76148
 Alpha virt. eigenvalues --    0.76653   0.77399   0.78117   0.79165   0.79745
 Alpha virt. eigenvalues --    0.80824   0.81108   0.82327   0.83093   0.83821
 Alpha virt. eigenvalues --    0.84745   0.85282   0.86535   0.87256   0.87475
 Alpha virt. eigenvalues --    0.88428   0.89403   0.90659   0.91222   0.91781
 Alpha virt. eigenvalues --    0.92324   0.94299   0.95455   0.95665   0.96580
 Alpha virt. eigenvalues --    0.96886   0.97729   0.99585   1.00375   1.00823
 Alpha virt. eigenvalues --    1.01594   1.02145   1.03241   1.04253   1.04832
 Alpha virt. eigenvalues --    1.06697   1.08399   1.08828   1.10091   1.11141
 Alpha virt. eigenvalues --    1.11525   1.12176   1.12721   1.13308   1.14382
 Alpha virt. eigenvalues --    1.16078   1.16773   1.17458   1.18148   1.18701
 Alpha virt. eigenvalues --    1.19598   1.20019   1.20875   1.22306   1.23086
 Alpha virt. eigenvalues --    1.23683   1.24532   1.25089   1.25460   1.25762
 Alpha virt. eigenvalues --    1.26990   1.29157   1.30087   1.30885   1.31705
 Alpha virt. eigenvalues --    1.33907   1.34202   1.35098   1.35951   1.36834
 Alpha virt. eigenvalues --    1.37051   1.38717   1.39875   1.40097   1.41239
 Alpha virt. eigenvalues --    1.42287   1.43922   1.44240   1.46021   1.46616
 Alpha virt. eigenvalues --    1.48261   1.51690   1.52399   1.53197   1.53587
 Alpha virt. eigenvalues --    1.56291   1.58543   1.60501   1.61345   1.63301
 Alpha virt. eigenvalues --    1.65269   1.67458   1.68400   1.70770   1.72023
 Alpha virt. eigenvalues --    1.74670   1.76161   1.76642   1.79521   1.80504
 Alpha virt. eigenvalues --    1.80896   1.81959   1.82546   1.84283   1.84706
 Alpha virt. eigenvalues --    1.85892   1.86527   1.88967   1.90175   1.90807
 Alpha virt. eigenvalues --    1.92234   1.92784   1.93696   1.94425   1.96839
 Alpha virt. eigenvalues --    1.97397   1.98282   1.99173   1.99925   2.00122
 Alpha virt. eigenvalues --    2.03129   2.03684   2.04740   2.04920   2.06011
 Alpha virt. eigenvalues --    2.07738   2.08202   2.08829   2.11283   2.12581
 Alpha virt. eigenvalues --    2.13354   2.14583   2.16141   2.16807   2.18295
 Alpha virt. eigenvalues --    2.20447   2.21623   2.23381   2.23667   2.24695
 Alpha virt. eigenvalues --    2.25763   2.26947   2.28030   2.29396   2.30578
 Alpha virt. eigenvalues --    2.31411   2.32675   2.34117   2.34511   2.36125
 Alpha virt. eigenvalues --    2.37040   2.37960   2.38367   2.39350   2.41525
 Alpha virt. eigenvalues --    2.42126   2.43859   2.44665   2.46132   2.46872
 Alpha virt. eigenvalues --    2.48380   2.51317   2.51752   2.53391   2.54689
 Alpha virt. eigenvalues --    2.55759   2.56104   2.57331   2.57590   2.58168
 Alpha virt. eigenvalues --    2.60337   2.60914   2.63781   2.64236   2.64870
 Alpha virt. eigenvalues --    2.64965   2.66693   2.67009   2.67830   2.68625
 Alpha virt. eigenvalues --    2.69567   2.70495   2.71096   2.71560   2.72592
 Alpha virt. eigenvalues --    2.73928   2.76914   2.78424   2.80008   2.81297
 Alpha virt. eigenvalues --    2.82402   2.83794   2.85350   2.86230   2.88014
 Alpha virt. eigenvalues --    2.89600   2.95352   2.97900   3.01266   3.05018
 Alpha virt. eigenvalues --    3.07807   3.08424   3.10130   3.13660   3.16240
 Alpha virt. eigenvalues --    3.18928   3.20108   3.24867   3.25850   3.26831
 Alpha virt. eigenvalues --    3.28046   3.30766   3.33260   3.34344   3.38589
 Alpha virt. eigenvalues --    3.44040   3.45859   3.46973   3.48686   3.49941
 Alpha virt. eigenvalues --    3.50398   3.51603   3.54153   3.65246   3.69516
 Alpha virt. eigenvalues --    3.70537   3.72690   3.84372   4.18466   4.20803
 Alpha virt. eigenvalues --    4.29406   4.35146   4.36362   4.39683   4.42234
 Alpha virt. eigenvalues --    4.43665   4.46242   4.48897   4.52708   4.54764
 Alpha virt. eigenvalues --    4.57664   4.58998   4.64698   4.69979   4.76228
 Alpha virt. eigenvalues --    4.91657   5.07361
          Condensed to atoms (all electrons):
               1          2          3          4          5          6
     1  C    9.735049  -4.051820   2.834808   0.860619  -0.392552   1.244294
     2  C   -4.051820  24.698576 -14.828840  -3.702912   2.861543  -1.354701
     3  C    2.834808 -14.828840  29.281780   4.749441  -3.095570   0.153532
     4  C    0.860619  -3.702912   4.749441  17.092261  -7.494656  -1.427752
     5  C   -0.392552   2.861543  -3.095570  -7.494656  22.640484  -0.399145
     6  C    1.244294  -1.354701   0.153532  -1.427752  -0.399145   8.481098
     7  H    0.310222  -0.041107   0.045734  -0.014895   0.039097  -0.016300
     8  H    0.145631   0.149012   0.040679   0.043295   0.014892  -0.000948
     9  H    0.001848   0.003913   0.004254  -0.101724   0.325067   0.035965
    10  H   -0.011249   0.037453  -0.012289   0.022887   0.020910   0.270713
    11  C   -0.749960  -4.343979  -2.012334   0.161119  -3.693958  -0.838965
    12  C   -1.862510   0.182202  -4.636889  -2.069520  -2.741839   0.067015
    13  C   -1.295202   3.894584  -2.582166  -2.370520  -5.571805  -0.379972
    14  H    0.001566  -0.000776  -0.010145   0.010738  -0.000511  -0.001167
    15  C   -0.536631   3.283166  -4.306758   0.330678   3.032901   0.032498
    16  H    0.003034  -0.013728   0.090097   0.032227   0.002791  -0.000610
    17  O    0.036106   0.004791   0.113072  -0.386583   0.246172   0.182417
    18  Cl   0.033565  -0.029095  -0.169704  -0.069575  -0.071210   0.008110
    19  C    0.198630  -0.477655  -0.538892  -0.203439   1.314293   0.462652
    20  C   -0.076350   0.233912   0.374063   0.076922  -0.828737  -0.189232
    21  H   -0.000023  -0.000241  -0.004424  -0.002262   0.001256   0.000231
    22  C   -0.007174   0.006565   0.115064   0.258306  -0.213327  -0.034622
    23  H   -0.000017  -0.000027  -0.001022  -0.003323   0.001709   0.000330
    24  H    0.000066   0.000422   0.006177   0.013082  -0.009701  -0.002104
    25  H   -0.000289   0.000524  -0.002131  -0.010431  -0.003342   0.001976
    26  C   -0.029226   0.009463  -0.064961  -0.064278  -0.233717  -0.088406
    27  H   -0.000083   0.000239   0.000878   0.015396  -0.016251  -0.000549
    28  H    0.000035  -0.000045  -0.000495  -0.002576   0.004912   0.000772
    29  H    0.000144  -0.000281  -0.000837  -0.012811   0.013228   0.002129
    30  C    0.036181  -0.097193  -0.139119  -0.054812   0.431648   0.115923
    31  H   -0.000077   0.000055  -0.000599  -0.000250  -0.001125   0.000125
    32  H    0.000317  -0.008698  -0.039490  -0.029990   0.034889   0.014962
    33  O    0.015536   0.049363  -0.136472   0.011740  -0.032006  -0.006406
    34  H    0.004830   0.053024   0.046233   0.025391   0.020338  -0.002232
    35  H    0.010349   0.037318   0.007951   0.059899   0.015874  -0.004093
    36  O    0.031393  -0.015323   0.010103   0.119537  -0.161875   0.065059
    37  H   -0.001972  -0.000830   0.002509   0.091864  -0.065643  -0.013324
    38  H    0.002684  -0.006440  -0.009067   0.048181  -0.033706   0.023662
               7          8          9         10         11         12
     1  C    0.310222   0.145631   0.001848  -0.011249  -0.749960  -1.862510
     2  C   -0.041107   0.149012   0.003913   0.037453  -4.343979   0.182202
     3  C    0.045734   0.040679   0.004254  -0.012289  -2.012334  -4.636889
     4  C   -0.014895   0.043295  -0.101724   0.022887   0.161119  -2.069520
     5  C    0.039097   0.014892   0.325067   0.020910  -3.693958  -2.741839
     6  C   -0.016300  -0.000948   0.035965   0.270713  -0.838965   0.067015
     7  H    0.549829  -0.005009  -0.000158  -0.004718  -0.000158  -0.006232
     8  H   -0.005009   0.545801   0.000013  -0.000153  -0.003545  -0.080058
     9  H   -0.000158   0.000013   0.550366  -0.004981  -0.020724  -0.001026
    10  H   -0.004718  -0.000153  -0.004981   0.548886  -0.010588  -0.001821
    11  C   -0.000158  -0.003545  -0.020724  -0.010588  25.392593   6.711616
    12  C   -0.006232  -0.080058  -0.001026  -0.001821   6.711616  17.550031
    13  C   -0.001310  -0.018383   0.021505   0.000114  -6.829350  -2.789039
    14  H    0.000000   0.000000  -0.000009   0.000000   0.088850   0.050461
    15  C    0.000850   0.021261   0.004713  -0.000921  -6.072837  -4.009376
    16  H    0.000000  -0.000005   0.000000   0.000000   0.058974   0.068153
    17  O   -0.000017   0.000045   0.014413   0.000433  -0.724514  -0.148965
    18  Cl   0.000280  -0.007740   0.000015   0.000083   0.090422  -0.073966
    19  C   -0.000027   0.000023   0.006605   0.000303  -1.978258   0.248617
    20  C    0.000005  -0.000051  -0.004881   0.000037   1.439162  -0.137784
    21  H    0.000000   0.000000   0.000000   0.000000  -0.052433   0.000113
    22  C   -0.000004   0.000002   0.000629  -0.000015  -0.007062  -0.046534
    23  H    0.000000   0.000000   0.000000   0.000000  -0.038630   0.000255
    24  H    0.000000   0.000000  -0.000001   0.000000   0.175562  -0.009453
    25  H    0.000000   0.000000  -0.000001   0.000000  -0.077485   0.002614
    26  C    0.000007  -0.000008  -0.000816  -0.000215   1.014737   0.081316
    27  H    0.000000   0.000000   0.000352   0.000000  -0.020089   0.000096
    28  H    0.000000   0.000000   0.000000   0.000000  -0.013628   0.000080
    29  H    0.000000   0.000000   0.000001   0.000000   0.025034  -0.000033
    30  C   -0.000005   0.000038   0.002475  -0.000016  -1.214553   0.050804
    31  H    0.000000   0.000000   0.000000   0.000000  -0.018398  -0.000377
    32  H    0.000000   0.000000  -0.000021   0.000000  -0.103915   0.008799
    33  O   -0.000016   0.000064   0.000528  -0.000035   0.184609   0.029863
    34  H    0.000000   0.000001   0.000003   0.000000  -0.106570  -0.081342
    35  H   -0.000001  -0.000003  -0.000025   0.000014  -0.099991  -0.056446
    36  O   -0.000008   0.000001  -0.000016   0.000069  -0.095939  -0.006113
    37  H    0.000000   0.000000  -0.000396  -0.000003  -0.011334   0.003161
    38  H    0.000000   0.000000  -0.000237  -0.000004  -0.040076   0.005450
              13         14         15         16         17         18
     1  C   -1.295202   0.001566  -0.536631   0.003034   0.036106   0.033565
     2  C    3.894584  -0.000776   3.283166  -0.013728   0.004791  -0.029095
     3  C   -2.582166  -0.010145  -4.306758   0.090097   0.113072  -0.169704
     4  C   -2.370520   0.010738   0.330678   0.032227  -0.386583  -0.069575
     5  C   -5.571805  -0.000511   3.032901   0.002791   0.246172  -0.071210
     6  C   -0.379972  -0.001167   0.032498  -0.000610   0.182417   0.008110
     7  H   -0.001310   0.000000   0.000850   0.000000  -0.000017   0.000280
     8  H   -0.018383   0.000000   0.021261  -0.000005   0.000045  -0.007740
     9  H    0.021505  -0.000009   0.004713   0.000000   0.014413   0.000015
    10  H    0.000114   0.000000  -0.000921   0.000000   0.000433   0.000083
    11  C   -6.829350   0.088850  -6.072837   0.058974  -0.724514   0.090422
    12  C   -2.789039   0.050461  -4.009376   0.068153  -0.148965  -0.073966
    13  C   27.383772   0.223447  -3.111486  -0.115539   0.093293   0.125708
    14  H    0.223447   0.572965  -0.051408  -0.005555  -0.008474   0.001871
    15  C   -3.111486  -0.051408  17.544635   0.206092   0.174910  -0.201243
    16  H   -0.115539  -0.005555   0.206092   0.525726  -0.001301  -0.010503
    17  O    0.093293  -0.008474   0.174910  -0.001301   8.900142   0.000072
    18  Cl   0.125708   0.001871  -0.201243  -0.010503   0.000072  17.109892
    19  C   -1.638692  -0.025318   0.290876   0.005447  -0.117814   0.005179
    20  C    1.342495   0.013946  -0.540644  -0.003055  -0.124632  -0.000445
    21  H    0.029644   0.000050   0.006466   0.000000   0.008655   0.000003
    22  C    0.180508  -0.015623  -0.309924  -0.002596   0.046734  -0.003503
    23  H    0.019637   0.000264   0.003746   0.000000   0.006869  -0.000001
    24  H   -0.096987   0.005571  -0.071278  -0.000013  -0.015647   0.000020
    25  H    0.083160  -0.000229   0.027552   0.000000   0.010772   0.000006
    26  C   -0.227808  -0.003659  -0.169750   0.000314  -0.057367   0.000627
    27  H    0.010257  -0.000004  -0.000182   0.000000  -0.009486   0.000001
    28  H   -0.000105   0.000004   0.000315   0.000000   0.005434   0.000000
    29  H   -0.021579   0.000000  -0.002380   0.000000  -0.003398  -0.000001
    30  C   -0.481335   0.020064   0.649780   0.000910   0.093888   0.001314
    31  H    0.014713  -0.000080  -0.003474   0.000000  -0.002968   0.000010
    32  H    0.011103  -0.000081   0.028514  -0.000001   0.023666   0.000023
    33  O   -0.060356  -0.000016  -0.026411  -0.000082  -0.010085   0.000018
    34  H    0.017890   0.000015   0.048120   0.000014  -0.000124  -0.003642
    35  H    0.017966  -0.000006   0.029237   0.000000   0.001543  -0.000506
    36  O    0.105669  -0.000048  -0.029570  -0.000007   0.019065   0.000001
    37  H    0.011396  -0.000001  -0.009829   0.000000   0.006882   0.000016
    38  H    0.008176   0.000009  -0.006724   0.000000   0.031983  -0.000008
              19         20         21         22         23         24
     1  C    0.198630  -0.076350  -0.000023  -0.007174  -0.000017   0.000066
     2  C   -0.477655   0.233912  -0.000241   0.006565  -0.000027   0.000422
     3  C   -0.538892   0.374063  -0.004424   0.115064  -0.001022   0.006177
     4  C   -0.203439   0.076922  -0.002262   0.258306  -0.003323   0.013082
     5  C    1.314293  -0.828737   0.001256  -0.213327   0.001709  -0.009701
     6  C    0.462652  -0.189232   0.000231  -0.034622   0.000330  -0.002104
     7  H   -0.000027   0.000005   0.000000  -0.000004   0.000000   0.000000
     8  H    0.000023  -0.000051   0.000000   0.000002   0.000000   0.000000
     9  H    0.006605  -0.004881   0.000000   0.000629   0.000000  -0.000001
    10  H    0.000303   0.000037   0.000000  -0.000015   0.000000   0.000000
    11  C   -1.978258   1.439162  -0.052433  -0.007062  -0.038630   0.175562
    12  C    0.248617  -0.137784   0.000113  -0.046534   0.000255  -0.009453
    13  C   -1.638692   1.342495   0.029644   0.180508   0.019637  -0.096987
    14  H   -0.025318   0.013946   0.000050  -0.015623   0.000264   0.005571
    15  C    0.290876  -0.540644   0.006466  -0.309924   0.003746  -0.071278
    16  H    0.005447  -0.003055   0.000000  -0.002596   0.000000  -0.000013
    17  O   -0.117814  -0.124632   0.008655   0.046734   0.006869  -0.015647
    18  Cl   0.005179  -0.000445   0.000003  -0.003503  -0.000001   0.000020
    19  C   13.590270  -4.648799   0.039880  -0.936023  -0.016864  -0.142614
    20  C   -4.648799  10.720159   0.261683   0.255650  -0.029438   0.019706
    21  H    0.039880   0.261683   0.559945  -0.004485   0.000509  -0.000500
    22  C   -0.936023   0.255650  -0.004485   7.107185   0.415311   0.441674
    23  H   -0.016864  -0.029438   0.000509   0.415311   0.530847  -0.027438
    24  H   -0.142614   0.019706  -0.000500   0.441674  -0.027438   0.565240
    25  H   -0.068128   0.032355   0.000188   0.442659  -0.023380  -0.029687
    26  C   -1.152378  -0.336409  -0.005710  -0.829427  -0.013239   0.054088
    27  H   -0.093012  -0.029585   0.000054   0.005492   0.000140  -0.000148
    28  H   -0.033649  -0.025241   0.000314  -0.013486   0.000631  -0.000054
    29  H   -0.065009   0.001935  -0.000052  -0.010012  -0.000070   0.000169
    30  C    1.443619  -1.257989   0.022656  -0.392249   0.007185  -0.021266
    31  H    0.068493  -0.086906  -0.006114  -0.003992   0.000001  -0.000020
    32  H    0.132647  -0.242987   0.004480  -0.001193  -0.000005  -0.000025
    33  O   -0.017043   0.018271  -0.000122   0.005435   0.000001  -0.000009
    34  H   -0.002180   0.001752   0.000000   0.001704   0.000000   0.000000
    35  H    0.001782  -0.003516   0.000000  -0.000301   0.000000   0.000000
    36  O    0.037361   0.010726   0.000016  -0.046338   0.000619   0.000583
    37  H   -0.016240  -0.004090   0.000000   0.012100  -0.000004  -0.000013
    38  H   -0.007459  -0.009332  -0.000007   0.004890   0.000014  -0.000027
              25         26         27         28         29         30
     1  C   -0.000289  -0.029226  -0.000083   0.000035   0.000144   0.036181
     2  C    0.000524   0.009463   0.000239  -0.000045  -0.000281  -0.097193
     3  C   -0.002131  -0.064961   0.000878  -0.000495  -0.000837  -0.139119
     4  C   -0.010431  -0.064278   0.015396  -0.002576  -0.012811  -0.054812
     5  C   -0.003342  -0.233717  -0.016251   0.004912   0.013228   0.431648
     6  C    0.001976  -0.088406  -0.000549   0.000772   0.002129   0.115923
     7  H    0.000000   0.000007   0.000000   0.000000   0.000000  -0.000005
     8  H    0.000000  -0.000008   0.000000   0.000000   0.000000   0.000038
     9  H   -0.000001  -0.000816   0.000352   0.000000   0.000001   0.002475
    10  H    0.000000  -0.000215   0.000000   0.000000   0.000000  -0.000016
    11  C   -0.077485   1.014737  -0.020089  -0.013628   0.025034  -1.214553
    12  C    0.002614   0.081316   0.000096   0.000080  -0.000033   0.050804
    13  C    0.083160  -0.227808   0.010257  -0.000105  -0.021579  -0.481335
    14  H   -0.000229  -0.003659  -0.000004   0.000004   0.000000   0.020064
    15  C    0.027552  -0.169750  -0.000182   0.000315  -0.002380   0.649780
    16  H    0.000000   0.000314   0.000000   0.000000   0.000000   0.000910
    17  O    0.010772  -0.057367  -0.009486   0.005434  -0.003398   0.093888
    18  Cl   0.000006   0.000627   0.000001   0.000000  -0.000001   0.001314
    19  C   -0.068128  -1.152378  -0.093012  -0.033649  -0.065009   1.443619
    20  C    0.032355  -0.336409  -0.029585  -0.025241   0.001935  -1.257989
    21  H    0.000188  -0.005710   0.000054   0.000314  -0.000052   0.022656
    22  C    0.442659  -0.829427   0.005492  -0.013486  -0.010012  -0.392249
    23  H   -0.023380  -0.013239   0.000140   0.000631  -0.000070   0.007185
    24  H   -0.029687   0.054088  -0.000148  -0.000054   0.000169  -0.021266
    25  H    0.512728  -0.077116  -0.000004   0.000212   0.001817  -0.003403
    26  C   -0.077116   7.360714   0.487022   0.421837   0.425699  -0.023057
    27  H   -0.000004   0.487022   0.520212  -0.023181  -0.029601   0.008214
    28  H    0.000212   0.421837  -0.023181   0.533907  -0.026145   0.009670
    29  H    0.001817   0.425699  -0.029601  -0.026145   0.537163   0.000846
    30  C   -0.003403  -0.023057   0.008214   0.009670   0.000846   6.124215
    31  H    0.000002   0.009123  -0.000029  -0.000016   0.000004   0.379932
    32  H    0.000002  -0.010658   0.000088   0.000042  -0.000012   0.535442
    33  O    0.000001   0.009588   0.000041  -0.000002   0.000003  -0.024178
    34  H    0.000000  -0.001476   0.000000   0.000000   0.000000  -0.004289
    35  H    0.000000  -0.001900  -0.000003   0.000000   0.000000   0.004727
    36  O   -0.002519  -0.014199   0.000374   0.000125  -0.003828  -0.000288
    37  H   -0.000022   0.005696   0.000003  -0.000001   0.000086  -0.000408
    38  H    0.000089   0.012791  -0.000031   0.000004   0.003176  -0.001032
              31         32         33         34         35         36
     1  C   -0.000077   0.000317   0.015536   0.004830   0.010349   0.031393
     2  C    0.000055  -0.008698   0.049363   0.053024   0.037318  -0.015323
     3  C   -0.000599  -0.039490  -0.136472   0.046233   0.007951   0.010103
     4  C   -0.000250  -0.029990   0.011740   0.025391   0.059899   0.119537
     5  C   -0.001125   0.034889  -0.032006   0.020338   0.015874  -0.161875
     6  C    0.000125   0.014962  -0.006406  -0.002232  -0.004093   0.065059
     7  H    0.000000   0.000000  -0.000016   0.000000  -0.000001  -0.000008
     8  H    0.000000   0.000000   0.000064   0.000001  -0.000003   0.000001
     9  H    0.000000  -0.000021   0.000528   0.000003  -0.000025  -0.000016
    10  H    0.000000   0.000000  -0.000035   0.000000   0.000014   0.000069
    11  C   -0.018398  -0.103915   0.184609  -0.106570  -0.099991  -0.095939
    12  C   -0.000377   0.008799   0.029863  -0.081342  -0.056446  -0.006113
    13  C    0.014713   0.011103  -0.060356   0.017890   0.017966   0.105669
    14  H   -0.000080  -0.000081  -0.000016   0.000015  -0.000006  -0.000048
    15  C   -0.003474   0.028514  -0.026411   0.048120   0.029237  -0.029570
    16  H    0.000000  -0.000001  -0.000082   0.000014   0.000000  -0.000007
    17  O   -0.002968   0.023666  -0.010085  -0.000124   0.001543   0.019065
    18  Cl   0.000010   0.000023   0.000018  -0.003642  -0.000506   0.000001
    19  C    0.068493   0.132647  -0.017043  -0.002180   0.001782   0.037361
    20  C   -0.086906  -0.242987   0.018271   0.001752  -0.003516   0.010726
    21  H   -0.006114   0.004480  -0.000122   0.000000   0.000000   0.000016
    22  C   -0.003992  -0.001193   0.005435   0.001704  -0.000301  -0.046338
    23  H    0.000001  -0.000005   0.000001   0.000000   0.000000   0.000619
    24  H   -0.000020  -0.000025  -0.000009   0.000000   0.000000   0.000583
    25  H    0.000002   0.000002   0.000001   0.000000   0.000000  -0.002519
    26  C    0.009123  -0.010658   0.009588  -0.001476  -0.001900  -0.014199
    27  H   -0.000029   0.000088   0.000041   0.000000  -0.000003   0.000374
    28  H   -0.000016   0.000042  -0.000002   0.000000   0.000000   0.000125
    29  H    0.000004  -0.000012   0.000003   0.000000   0.000000  -0.003828
    30  C    0.379932   0.535442  -0.024178  -0.004289   0.004727  -0.000288
    31  H    0.548899  -0.035101   0.001702  -0.000029  -0.000007  -0.000001
    32  H   -0.035101   0.506449  -0.014605  -0.000528   0.000370   0.000042
    33  O    0.001702  -0.014605   8.116037   0.276638   0.266406   0.000013
    34  H   -0.000029  -0.000528   0.276638   0.346119  -0.021847   0.000005
    35  H   -0.000007   0.000370   0.266406  -0.021847   0.339537   0.000006
    36  O   -0.000001   0.000042   0.000013   0.000005   0.000006   8.162850
    37  H    0.000000   0.000000  -0.000001   0.000000   0.000000   0.271696
    38  H    0.000000   0.000006  -0.000025   0.000000   0.000002   0.241647
              37         38
     1  C   -0.001972   0.002684
     2  C   -0.000830  -0.006440
     3  C    0.002509  -0.009067
     4  C    0.091864   0.048181
     5  C   -0.065643  -0.033706
     6  C   -0.013324   0.023662
     7  H    0.000000   0.000000
     8  H    0.000000   0.000000
     9  H   -0.000396  -0.000237
    10  H   -0.000003  -0.000004
    11  C   -0.011334  -0.040076
    12  C    0.003161   0.005450
    13  C    0.011396   0.008176
    14  H   -0.000001   0.000009
    15  C   -0.009829  -0.006724
    16  H    0.000000   0.000000
    17  O    0.006882   0.031983
    18  Cl   0.000016  -0.000008
    19  C   -0.016240  -0.007459
    20  C   -0.004090  -0.009332
    21  H    0.000000  -0.000007
    22  C    0.012100   0.004890
    23  H   -0.000004   0.000014
    24  H   -0.000013  -0.000027
    25  H   -0.000022   0.000089
    26  C    0.005696   0.012791
    27  H    0.000003  -0.000031
    28  H   -0.000001   0.000004
    29  H    0.000086   0.003176
    30  C   -0.000408  -0.001032
    31  H    0.000000   0.000000
    32  H    0.000000   0.000006
    33  O   -0.000001  -0.000025
    34  H    0.000000   0.000000
    35  H    0.000000   0.000002
    36  O    0.271696   0.241647
    37  H    0.365586  -0.021482
    38  H   -0.021482   0.330507
 Mulliken charges:
               1
     1  C   -0.491772
     2  C   -0.532435
     3  C    0.715828
     4  C   -0.001275
     5  C    0.038672
     6  C   -0.402934
     7  H    0.143942
     8  H    0.155144
     9  H    0.162352
    10  H    0.145107
    11  C   -0.163404
    12  C   -0.301322
    13  C   -0.003402
    14  H    0.133291
    15  C   -0.255482
    16  H    0.159215
    17  O   -0.409984
    18  Cl   0.263905
    19  C    0.332817
    20  C   -0.222672
    21  H    0.140230
    22  C   -0.422019
    23  H    0.165386
    24  H    0.144622
    25  H    0.181512
    26  C   -0.487241
    27  H    0.173380
    28  H    0.160331
    29  H    0.164617
    30  C   -0.224340
    31  H    0.136503
    32  H    0.185469
    33  O   -0.657989
    34  H    0.382179
    35  H    0.395666
    36  O   -0.700886
    37  H    0.374601
    38  H    0.422387
 Sum of Mulliken charges =   0.00000
 Mulliken charges with hydrogens summed into heavy atoms:
               1
     1  C   -0.347830
     2  C   -0.377291
     3  C    0.715828
     4  C   -0.001275
     5  C    0.201023
     6  C   -0.257827
    11  C   -0.163404
    12  C   -0.301322
    13  C    0.129889
    15  C   -0.096267
    17  O   -0.409984
    18  Cl   0.263905
    19  C    0.332817
    20  C   -0.082442
    22  C    0.069502
    26  C    0.011087
    30  C    0.097632
    33  O    0.119856
    36  O    0.096101
 Electronic spatial extent (au):  <R**2>=           5648.5715
 Charge=              0.0000 electrons
 Dipole moment (field-independent basis, Debye):
    X=              0.7228    Y=             -1.0085    Z=             -0.2763  Tot=              1.2711
 Quadrupole moment (field-independent basis, Debye-Ang):
   XX=           -117.8387   YY=           -118.2213   ZZ=           -136.2909
   XY=            -14.2788   XZ=              0.8980   YZ=             10.8260
 Traceless Quadrupole moment (field-independent basis, Debye-Ang):
   XX=              6.2782   YY=              5.8957   ZZ=            -12.1739
   XY=            -14.2788   XZ=              0.8980   YZ=             10.8260
 Octapole moment (field-independent basis, Debye-Ang**2):
  XXX=             28.7841  YYY=            -15.0615  ZZZ=            -29.4871  XYY=            -19.4270
  XXY=              1.3424  XXZ=             12.4925  XZZ=             -6.9652  YZZ=             -2.8178
  YYZ=             25.2095  XYZ=             14.8164
 Hexadecapole moment (field-independent basis, Debye-Ang**3):
 XXXX=          -4341.3731 YYYY=          -1882.0587 ZZZZ=          -1329.7831 XXXY=            -83.7512
 XXXZ=            -47.2446 YYYX=            -69.5743 YYYZ=             77.3160 ZZZX=             38.8845
 ZZZY=             29.7648 XXYY=          -1072.0796 XXZZ=          -1017.1773 YYZZ=           -531.0074
 XXYZ=             53.1021 YYXZ=             30.7439 ZZXY=            -36.2334
 N-N= 1.630904551592D+03 E-N=-6.235041210677D+03  KE= 1.259957891860D+03
 D1PCM: C-PCM CHGder 1st derivatives, ID1Alg=3 FixD1E=F DoIter=F DoCFld=F I1PDM=0.
 Calling FoFJK, ICntrl=      2127 FMM=F ISym2X=0 I1Cent= 0 IOpClX= 0 NMat=1 NMatS=1 NMatT=0.
 ***** Axes restored to original set *****
 -------------------------------------------------------------------
 Center     Atomic                   Forces (Hartrees/Bohr)
 Number     Number              X              Y              Z
 -------------------------------------------------------------------
      1        6          -0.001671790    0.007319699   -0.002345928
      2        6           0.002470478   -0.003569361    0.001555050
      3        6           0.008288339   -0.002412542    0.001053482
      4        6          -0.010255576   -0.005281346    0.003451184
      5        6          -0.008845371   -0.003835638    0.000803389
      6        6           0.007300970    0.003723988   -0.001374561
      7        1          -0.001863046   -0.003541598    0.001088256
      8        1          -0.005219826    0.001389469   -0.000830335
      9        1           0.007780320   -0.000853191   -0.000028970
     10        1          -0.001003195   -0.003192931    0.000977214
     11        6           0.000914481    0.013168409   -0.002704396
     12        6          -0.007982488    0.005135212   -0.002061847
     13        6           0.000412220   -0.002388875    0.001767683
     14        1           0.006914800    0.004494222   -0.003214710
     15        6          -0.005079436   -0.001716922   -0.000089767
     16        1           0.001160586    0.005842516   -0.001959535
     17        8          -0.004866847   -0.012100820    0.001401935
     18       17           0.018176986   -0.008683369    0.003247520
     19        6           0.015208622    0.014867956   -0.002911857
     20        6          -0.005739696   -0.001680584    0.000912847
     21        1           0.001773136    0.000351650   -0.002109335
     22        6          -0.004243473   -0.003622998    0.016227944
     23        1           0.000765246   -0.000150208   -0.004117497
     24        1          -0.004058393    0.003109230   -0.001802998
     25        1          -0.001869242   -0.002019629   -0.006029481
     26        6          -0.014385606    0.005243015   -0.003604999
     27        1           0.000609642   -0.005921867    0.002541607
     28        1           0.001655892   -0.000668091    0.002043311
     29        1           0.001589396   -0.002721177    0.001544155
     30        6           0.003414833    0.002170095   -0.009358790
     31        1          -0.004056786   -0.005345448    0.001473606
     32        1          -0.001786885    0.000544976    0.005281568
     33        8          -0.005050313   -0.002077438   -0.013700905
     34        1           0.003994419   -0.003879947    0.007741965
     35        1           0.003530077    0.006197675    0.003816092
     36        8          -0.014375075    0.005396190    0.000096810
     37        1           0.011689033   -0.001900583    0.001183135
     38        1           0.004703566   -0.001389740    0.000037157
 -------------------------------------------------------------------
 Cartesian Forces:  Max     0.018176986 RMS     0.005746169

 GradGradGradGradGradGradGradGradGradGradGradGradGradGradGradGradGradGrad
 Berny optimization.
 FormGI is forming the generalized inverse of G from B-inverse, IUseBI=4.
 Internal  Forces:  Max     0.020294395 RMS     0.003847327
 Search for a local minimum.
 Step number   1 out of a maximum of  202
 All quantities printed in internal units (Hartrees-Bohrs-Radians)
 Mixed Optimization -- RFO/linear search
[...]
 0019655,-0.00002218,-0.00008452,0.00000046,0.00000782,0.00000202,0.000
 00993,-0.00000991,0.00000385,0.00002269,0.00000952,-0.00000481,-0.0000
 4937,-0.00006904,-0.00006842,-0.00013431,-0.00000428,0.00002044,0.0000
 0714,-0.00000554,0.00001786,0.00000546,0.00004053,-0.00006649,-0.00000
 528,-0.00000775,-0.00087366,0.00017546,0.00011789,0.00015460,-0.000080
 83,-0.00124103,0.00068644,-0.00039203,-0.02158943,0.05522577,-0.084523
 92,0.02116297,-0.00006799,0.00013134,-0.00015348,-0.00032587,-0.000404
 14,0.00040009,-0.00048881,0.00021357,-0.00005576,0.00032341,-0.0002168
 8,0.00051129,-0.00008579,-0.00065869,0.00023326,0.00024864,0.00003652,
 -0.00001607,0.00001338,0.00002665,-0.00001117,0.00004520,0.00002207,-0
 .00003384,-0.00001075,0.00002964,-0.00002564,0.00001328,0.00003890,-0.
 00000914,0.00076501,0.00023514,-0.00008980,0.00004895,0.00080730,-0.00
 043506,-0.00072565,0.00031956,-0.00002379,-0.00002776,-0.00003447,0.00
 008976,0.00017187,-0.00060413,-0.00048422,0.00002003,-0.00007404,0.000
 24536,-0.00032306,-0.00018738,0.00002331,0.00021370,-0.00015751,0.0000
 7051,0.00030001,0.00015787,-0.00003748,-0.00009793,-0.00009184,0.00006
 038,-0.00003715,-0.00000985,0.00002682,-0.00006461,-0.00003158,-0.0000
 0187,-0.00002170,-0.00000196,0.00001355,0.00001517,0.00001271,-0.00000
 635,0.00000912,0.00000168,-0.00000809,-0.00004757,-0.00003592,-0.00000
 474,0.00001064,0.00000030,0.00000518,-0.00002433,0.00000661,0.00000048
 ,0.00001262,-0.00000464,-0.00000368,0.00010925,0.00005332,-0.00008857,
 -0.00014795,-0.00007134,-0.00001061,0.00036340,0.00015871,0.00004407,0
 .04024523,-0.18709149,0.18255188,-0.05003460,0.21320905,0.00007977,0.0
 0019458,-0.00013075,-0.00014739,0.00003646,0.00016661,0.00003083,-0.00
 120694,-0.00068218,-0.00026387,-0.00064246,-0.00035923,0.00001394,-0.0
 0016819,0.00000136,0.00014622,0.00024583,-0.00006857,0.00002124,0.0000
 5257,-0.00001189,0.00005891,0.00001142,0.00002817,-0.00004794,0.000054
 09,0.00000993,0.00000919,0.00005448,-0.00000708,0.00166222,-0.00136365
 ,-0.00036829,-0.00214142,-0.00013497,-0.00002517,0.00110124,0.00034129
 ,-0.00038556,-0.00008087,-0.00001534,0.00010275,0.00016303,0.00130475,
 -0.00003983,0.00000883,-0.00006768,0.00009187,-0.00140738,0.00043620,-
 0.00010936,0.00069178,-0.00021518,0.00005369,0.00065041,0.00029306,0.0
 0000938,-0.00001186,0.00011285,0.00002245,0.00000493,-0.00003896,-0.00
 005422,-0.00009412,-0.00009986,0.00000656,-0.00004653,-0.00000083,0.00
 002817,0.00002026,0.00004551,-0.00003588,0.00000954,0.00000798,-0.0000
 2454,-0.00009123,-0.00008797,-0.00000919,0.00000632,0.00001034,-0.0000
 0448,-0.00004410,0.00001928,-0.00000337,0.00002287,-0.00001770,-0.0000
 0436,0.00007134,-0.00007189,-0.00013898,-0.00005592,-0.00002142,-0.000
 01641,-0.00020367,0.00011250,0.00025330,-0.08223932,0.24012036,-0.3514
 5832,0.08111037,-0.22314069,0.34622914,-0.00016989,-0.00008749,0.00010
 314,-0.00051780,-0.00011992,0.00012515,0.00031542,0.00007754,-0.000170
 58,0.00031936,-0.00038178,0.00000499,-0.00020731,0.00012890,-0.0005323
 6,0.00038453,0.00001822,-0.00005500,-0.00002658,-0.00000653,-0.0000238
 6,-0.00001937,-0.00000808,-0.00005366,-0.00011758,0.00017250,0.0001654
 7,-0.00001115,0.00001431,0.00001715,0.00035362,-0.00038632,0.00044831,
 0.00008408,0.00041862,-0.00007620,0.00001914,-0.00010645,-0.00013209,-
 0.00000717,0.00000033,0.00004026,0.00001084,-0.00012857,0.00004369,-0.
 00002086,0.00000362,-0.00001437,-0.00054642,0.00023535,-0.00023711,-0.
 00018309,0.00001873,-0.00001480,-0.00004434,0.00002669,0.00010905,0.00
 010530,0.00018087,-0.00001284,0.00006483,-0.00002587,-0.00005471,0.000
 02352,-0.00002113,-0.00000154,0.00000589,0.00000334,-0.00000378,-0.000
 00140,0.00001113,-0.00000324,-0.00000004,-0.00000214,-0.00001641,-0.00
 001524,-0.00003039,0.00000674,-0.00002407,0.00001625,-0.00001469,0.000
 00507,0.00001350,-0.00001069,0.00000658,-0.00001680,-0.00001014,-0.000
 42293,-0.00003034,0.00019528,0.00022162,0.00012677,-0.00007396,-0.0004
 8498,-0.00050539,0.00000650,-0.01168757,-0.06500753,-0.02845266,0.0011
 8367,0.00959286,0.00098112,0.01139407,-0.00025366,-0.00025716,0.000023
 20,0.00030063,0.00026943,-0.00027225,-0.00001956,-0.00006551,-0.000805
 86,-0.00007170,0.00041065,-0.00143051,0.00066365,0.00036884,0.00023094
 ,-0.00062366,-0.00041225,0.00047911,0.00004267,-0.00000965,0.00001285,
 0.00000576,0.00000322,0.00005043,0.00006202,-0.00005215,-0.00010184,0.
 00000213,-0.00001343,-0.00002714,-0.00016805,0.00023999,-0.00005904,0.
 00013673,-0.00021068,0.00009311,-0.00010072,-0.00043363,-0.00004437,0.
 00001720,-0.00001273,0.00000194,-0.00004407,-0.00025477,0.00007871,-0.
 00000957,0.00000547,-0.00000862,-0.00005662,-0.00013620,0.00005470,-0.
 00001547,-0.00002079,0.00000698,0.00001506,0.00003274,0.00007865,0.000
 08210,0.00013815,0.00000604,0.00002294,0.00000511,-0.00006629,0.000005
 07,-0.00002333,-0.00000488,0.00000157,0.00000023,0.00000474,-0.0000001
 5,-0.00000550,0.00001054,0.00000284,0.00000113,-0.00001665,-0.00002085
 ,-0.00000935,-0.00005413,0.00000411,0.00001123,0.00001258,-0.00000241,
 -0.00000235,0.00000617,0.00001519,-0.00002108,-0.00000663,0.00005947,-
 0.00015450,0.00003890,0.00005812,0.00005578,-0.00003557,-0.00044674,-0
 .00001988,0.00002507,-0.04995553,-0.46148904,-0.11312884,-0.00550888,-
 0.02576278,-0.01609835,0.05579246,0.48780477,0.00005451,-0.00013333,-0
 .00021533,-0.00020581,-0.00021419,-0.00009535,-0.00118260,0.00030311,-
 0.00055859,0.00036958,-0.00000995,-0.00026400,0.00026581,-0.00117455,0
 .00029291,-0.00020400,-0.00017511,-0.00012706,0.00007209,0.00008515,0.
 00004136,0.00009648,0.00004322,0.00004898,-0.00006630,0.00003997,0.000
 01305,0.00002428,0.00015321,0.00002533,0.00159063,0.00043363,-0.000401
 44,-0.00059852,0.00062256,-0.00034739,-0.00022457,0.00010524,-0.000066
 50,-0.00000028,-0.00007124,0.00003285,0.00013272,-0.00022145,-0.000190
 45,-0.00000158,-0.00004510,0.00008271,-0.00115906,0.00001185,-0.000083
 52,0.00043540,-0.00024249,0.00009262,0.00061931,0.00024837,0.00001846,
 -0.00008024,0.00006028,0.00002261,-0.00000742,-0.00003973,-0.00001762,
 -0.00013021,-0.00006533,0.00000254,-0.00004166,-0.00001223,0.00002957,
 0.00001849,0.00003100,-0.00002919,0.00001473,0.00000558,-0.00001607,-0
 .00007830,-0.00007615,0.00002858,0.00000893,0.00000718,-0.00000520,-0.
 00004233,0.00001573,-0.00000578,0.00001961,-0.00000492,-0.00000566,0.0
 0000992,-0.00000030,-0.00014686,-0.00003709,-0.00003991,0.00000688,0.0
 0009190,0.00001352,0.00018597,-0.03107412,-0.17093896,-0.08899745,0.00
 355767,0.04039059,0.00698396,0.02771149,0.13095499,0.08372717,-0.00003
 619,0.00021560,-0.00014306,-0.00018598,-0.00009963,-0.00000142,0.00017
 812,-0.00016909,0.00001551,0.00031336,-0.00028910,0.00032101,-0.000644
 01,0.00011009,0.00124556,0.00048582,0.00046138,0.00010912,-0.00004091,
 -0.00000639,-0.00001740,0.00000323,0.00000017,0.00000527,-0.00054941,0
 .00004067,-0.00042800,0.00000162,-0.00002463,-0.00001583,-0.00188894,-
 0.00003690,-0.00032641,0.00026984,-0.00004360,-0.00004921,0.00046306,-
 0.00035472,-0.00006805,-0.00003143,0.00009091,-0.00003715,-0.00018145,
 0.00006659,0.00007858,0.00001279,-0.00000211,-0.00000225,0.00329118,-0
 .00129396,-0.00100882,-0.00001877,0.00004942,-0.00000364,-0.00084171,0
 .00067224,0.00078826,0.00044241,0.00016715,0.00003256,-0.00001790,0.00
 006232,0.00002408,0.00002463,0.00012002,0.00071150,-0.00003765,-0.0002
 3819,-0.00019166,-0.00004447,-0.00042099,-0.00012610,-0.00002164,0.000
 12428,-0.00069267,-0.00072310,0.00097467,0.00069688,-0.00000842,-0.000
 16052,-0.00021781,-0.00003063,-0.00044173,-0.00032796,0.00052066,-0.00
 069770,-0.00042790,0.00002458,-0.00019097,-0.00009693,0.00000459,0.000
 00576,-0.00006331,-0.00003701,0.00000316,-0.00000675,0.00009591,0.0000
 6370,0.00009085,-0.00004502,-0.00004245,-0.00002934,-0.00003530,-0.000
 03603,-0.00010071,0.47294906,0.00023220,-0.00004257,0.00004605,-0.0000
 1477,0.00020510,-0.00005575,-0.00021898,-0.00011738,-0.00005617,0.0001
 7656,-0.00019051,-0.00010683,0.00043433,-0.00013974,0.00043594,-0.0001
 6038,0.00011978,-0.00002014,0.00002608,0.00001751,-0.00001739,0.000028
 62,0.00001573,0.00000500,-0.00026691,-0.00023778,-0.00011040,0.0000720
 1,0.00009056,-0.00010541,-0.00516488,0.00212118,-0.00041988,-0.0000650
 5,0.00023469,-0.00004078,0.00084595,-0.00069905,0.00022631,-0.00002097
 ,0.00011251,0.00001056,-0.00044405,0.00013904,-0.00000435,0.00005371,-
 0.00003173,0.00001277,0.00239111,-0.00613987,-0.00582875,0.00036581,-0
 .00010253,0.00003915,0.00226948,0.00056766,0.00037336,-0.00032894,0.00
 016870,0.00003037,-0.00005038,-0.00013600,-0.00006458,-0.00072862,0.00
 059806,0.00104015,-0.00018285,-0.00047176,-0.00031609,0.00003305,-0.00
 015983,-0.00015282,0.00054513,-0.00043052,-0.00068616,-0.00030863,0.00
 018416,0.00004307,-0.00003876,-0.00009909,-0.00022755,-0.00010846,-0.0
 0006703,-0.00012096,0.00021809,-0.00044984,0.00006128,-0.00001719,-0.0
 0012877,-0.00014914,0.00001103,-0.00007314,-0.00004253,-0.00001650,0.0
 0000475,0.00010910,0.00013181,0.00004211,-0.00016895,-0.00008142,0.000
 01692,0.00008733,-0.00003434,-0.00006878,0.00010047,0.17442787,0.32981
 090,0.00003428,-0.00007537,0.00010986,0.00029741,0.00005668,0.00011081
 ,0.00011151,-0.00009440,-0.00003392,0.00055228,0.00057693,-0.00015872,
 -0.00015101,0.00015562,-0.00190730,-0.00012231,-0.00040417,0.00011237,
 0.00011031,0.00000981,-0.00000479,0.00003134,-0.00001899,-0.00003796,0
 .00050795,-0.00025980,0.00103073,-0.00004558,0.00000614,-0.00005522,-0
 .00389404,0.00130051,-0.00050835,-0.00024004,0.00019222,0.00001981,0.0
 0062398,-0.00078949,0.00035959,-0.00002136,-0.00000267,-0.00009588,-0.
 00019596,-0.00004442,0.00005575,0.00005528,-0.00006137,-0.00001032,0.0
 0101563,-0.00620739,-0.00307909,0.00037954,-0.00016275,0.00005996,0.00
 237084,0.00055174,-0.00104055,-0.00038965,-0.00019057,0.00036628,-0.00
 008979,-0.00017360,-0.00014040,-0.00001509,-0.00041882,-0.00016114,-0.
 00003310,0.00005884,0.00018913,0.00003263,-0.00007830,-0.00001133,-0.0
 0019503,0.00028011,-0.00014281,-0.00039579,0.00034021,0.00052236,0.000
 09022,-0.00000165,0.00008916,-0.00011120,-0.00021401,-0.00013400,0.000
 24736,-0.00013578,-0.00040248,0.00003433,-0.00002737,-0.00001498,-0.00
 003668,-0.00001771,-0.00003421,-0.00002397,0.00003936,0.00009729,0.000
 09084,-0.00007469,-0.00010963,-0.00004325,0.00005918,0.00006479,-0.000
 06253,0.00003056,0.00009467,-0.02214276,0.27604514,0.31402530,-0.00010
 791,-0.00003363,-0.00003068,-0.00002691,-0.00004282,0.00000132,0.00004
 525,0.00009597,-0.00001214,-0.00018738,0.00026621,0.00008123,0.0002655
 5,-0.00003364,0.00004916,-0.00017756,-0.00018038,-0.00007509,-0.000003
 87,0.00000269,0.00000930,-0.00000516,0.00000097,0.00000501,-0.00008579
 ,0.00006982,-0.00003548,0.00002371,0.00001460,0.00003221,0.00091501,-0
 .00040000,0.00000887,-0.00008734,-0.00002536,0.00001134,-0.00018786,0.
 00016225,0.00001173,0.00000276,-0.00001407,0.00000534,0.00011940,-0.00
 002444,-0.00002699,-0.00000736,0.00000391,0.00000458,-0.00049388,0.001
 00493,0.00077856,-0.00002067,-0.00000184,-0.00000739,-0.00028780,-0.00
 018364,-0.00012297,0.00005111,0.00000180,-0.00001546,0.00000561,0.0000
 1189,0.00001321,0.00010467,0.00014274,0.00007174,0.00001922,0.00004305
 ,0.00000819,-0.00000306,0.00000627,-0.00001763,-0.00015390,-0.00013303
 ,0.00003598,-0.00001400,0.00016532,0.00010547,-0.00000966,-0.00004901,
 -0.00004251,0.00001821,-0.00001301,-0.00001824,-0.00007411,-0.00009801
 ,-0.00003175,-0.00001936,0.00001396,0.00000935,0.00000169,0.00000212,0
 .00000284,0.00000777,-0.00000418,-0.00001094,-0.00002983,-0.00001284,-
 0.00001794,0.00001473,0.00000750,0.00000616,0.00001429,0.00001562,0.00
 002595,-0.42614855,-0.21339152,-0.04054481,0.42665311,-0.00014434,0.00
 008964,-0.00010095,-0.00009352,-0.00012811,0.00000916,0.00025159,-0.00
 000823,0.00011330,0.00005085,-0.00005811,0.00020788,-0.00017738,0.0000
 3928,0.00019763,0.00021895,0.00016715,-0.00003241,-0.00003838,-0.00000
 417,0.00000984,-0.00000978,-0.00000644,0.00000621,-0.00009202,0.000137
 68,-0.00015266,-0.00002959,-0.00005475,0.00010090,-0.00034640,-0.00037
 528,-0.00012156,0.00012639,-0.00009066,-0.00004379,0.00003838,-0.00002
 954,-0.00004009,-0.00000665,0.00001597,-0.00002809,0.00001735,-0.00000
 143,0.00006544,0.,0.00000487,-0.00000276,0.00055357,-0.00026151,-0.000
 44222,-0.00009308,0.00004707,-0.00000953,-0.00013433,0.00004926,0.0001
 7848,0.00003691,0.00002643,-0.00002602,0.00000029,0.00001740,0.0000121
 2,-0.00007337,0.00004335,0.00022224,0.00000947,-0.00007813,-0.00005511
 ,-0.00001199,-0.00008858,-0.00002967,-0.00002841,-0.00011043,-0.000198
 47,0.00014198,0.00011047,0.00005716,-0.00000009,0.00001383,0.00002307,
 0.00002380,0.00003205,0.00002362,-0.00015415,-0.00009340,-0.00010530,0
 .00001258,-0.00001778,0.00001090,0.00000479,0.00000795,0.00000042,-0.0
 0000835,0.00000887,-0.00001374,-0.00001195,0.00001639,0.00008915,0.000
 00334,-0.00002425,-0.00003247,0.00001014,0.00000987,-0.00006960,-0.176
 06165,-0.11123286,-0.04105159,0.20688701,0.12416734,0.00012644,0.00005
 839,-0.00005141,-0.00023108,0.00007661,-0.00010301,-0.00010362,-0.0000
 8587,0.00002066,-0.00006042,-0.00048472,0.00023459,0.00004924,-0.00000
 753,0.00080309,0.00018562,0.00040123,0.00009314,-0.00007071,-0.0000078
 9,0.00000878,-0.00001415,0.00002100,0.00002581,-0.00038499,-0.00008548
 ,-0.00086530,0.00002252,0.00000989,-0.00001078,-0.00049229,-0.00012135
 ,-0.00018511,0.00024581,-0.00002369,-0.00005399,0.00024481,0.00000168,
 -0.00004913,0.00000206,0.00002311,-0.00001144,-0.00013722,0.00006133,0
 .00005410,0.00000163,0.00001949,0.00000472,0.00084166,-0.00062881,-0.0
 0055632,-0.00013108,0.00007733,-0.00002914,-0.00006795,0.00023280,0.00
 004517,0.00003666,-0.00001163,0.00003048,0.00000078,0.00000684,0.00000
 556,0.00008855,0.00014311,-0.00004493,0.00002651,0.00003686,0.00002026
 ,-0.00000458,0.00005819,0.00005662,-0.00004011,-0.00022914,0.00005356,
 -0.00018692,0.00010803,0.00011587,-0.00000970,-0.00001474,-0.00003550,
 0.00000522,-0.00007464,-0.00008046,0.00008169,-0.00014504,-0.00016573,
 -0.00000148,-0.00001332,0.00000346,0.00000276,0.00000894,0.00000044,-0
 .00000714,-0.00000193,-0.00000349,-0.00000711,0.00005993,0.00006157,-0
 .00000264,-0.00003651,-0.00002179,0.00001565,-0.00004087,-0.00006673,0
 .00015711,-0.02429488,-0.02720959,0.03337060,0.04110206,0.03063792,0.0
 0016889,-0.00017142,0.00016309,0.00025350,0.00016340,-0.00000618,-0.00
 028955,0.00010054,-0.00025435,-0.00071782,0.00044250,-0.00006162,-0.00
 050057,0.00004314,0.00007879,-0.00029366,-0.00041545,-0.00015416,0.000
 06459,0.00000857,0.00001315,0.00001727,0.00000344,-0.00001662,0.000090
 39,-0.00033188,0.00136509,0.00002272,0.00004862,-0.00003049,0.00114960
 ,0.00247903,0.00174156,-0.00030385,0.00001258,0.00018406,-0.00068139,0
 .00032225,0.00006953,0.00003597,-0.00011873,0.00007654,0.00024770,-0.0
 0009467,-0.00021054,-0.00000644,-0.00000860,-0.00001199,-0.00513936,0.
 00058706,0.00020923,0.00008285,-0.00007777,0.00002075,0.00088248,-0.00
 262776,-0.00188512,-0.00073532,-0.00025172,-0.00000470,0.00000993,-0.0
 0009535,-0.00005534,-0.00025503,-0.00056355,-0.00047567,0.00002988,0.0
 0024017,0.00016060,0.00004141,0.00041994,0.00004615,-0.00017850,-0.000
 84357,0.00094773,0.00042950,-0.00131383,-0.00114287,0.00001317,0.00021
 140,0.00028097,0.00012630,0.00060076,0.00049632,-0.00222219,0.00077807
 ,-0.00022606,-0.00000995,0.00023069,0.00013624,0.00000007,-0.00000933,
 0.00007266,0.00004117,0.00001096,0.00001751,-0.00008760,-0.00006771,-0
 .00011598,0.00004716,0.00004469,0.00003446,0.00003126,0.00002832,0.000
 11532,-0.04751235,0.03938073,0.06216824,-0.00013012,-0.03087197,-0.033
 55213,0.05527793,-0.00007099,-0.00009345,0.00008132,0.00014454,-0.0000
 7451,0.00006423,0.00011660,0.00004757,0.00004240,-0.00059012,0.0001441
 3,-0.00013775,-0.00056621,0.00053759,-0.00123344,-0.00005305,-0.000546
 96,0.00008077,0.00001533,-0.00002904,0.00002764,-0.00004276,-0.0000203
 6,-0.00000706,0.00031005,0.00019210,0.00091683,-0.00005120,-0.00008875
 ,0.00001491,0.01074411,-0.00518641,-0.00072603,-0.00003411,-0.00011054
 ,0.00008648,-0.00144824,0.00135210,-0.00034557,0.00002147,-0.00011407,
 0.00003878,0.00053450,-0.00021373,-0.00002806,-0.00010021,0.00006306,-
 0.00001628,-0.00376178,0.00483698,0.00484890,-0.00054703,0.00014067,-0
 .00006488,-0.00575641,-0.00321321,-0.00124836,0.00078429,0.00003546,-0
 .00015008,0.00010426,0.00030086,0.00018462,0.00056716,-0.00070203,-0.0
 0036699,0.00025473,0.00047715,0.00000936,-0.00004738,0.00012718,0.0000
 9749,-0.00113536,-0.00076677,0.00109381,-0.00027906,0.00044637,-0.0000
 4560,0.00002595,0.00001606,0.00013908,0.00026215,-0.00024850,0.0000168
 3,0.00016922,0.00029692,-0.00020477,0.00001902,0.00016555,0.00018264,0
 .00000505,0.00010145,0.00004323,0.00004502,-0.00003480,-0.00017416,-0.
 00015377,-0.00005520,0.00017491,0.00009367,-0.00001497,-0.00011631,0.0
 0003699,0.00007893,-0.00009112,0.00295439,-0.21343063,-0.22919814,0.00
 572276,-0.01234119,-0.01619877,-0.00829356,0.22792499,-0.00012510,-0.0
 0009230,0.00000436,-0.00012189,-0.00003433,-0.00004920,-0.00006390,0.0
 0014379,0.00008657,-0.00072103,-0.00061896,-0.00021173,0.00126447,-0.0
 0046528,-0.00013878,-0.00031645,0.00017213,-0.00010791,-0.00009517,-0.
 00000961,-0.00000120,-0.00004008,0.00000313,0.00001893,0.00115724,0.00
 086943,-0.00189314,-0.00001515,-0.00005452,0.00007302,0.00725680,-0.00
 242811,0.00074828,0.00009636,-0.00009429,0.00001742,-0.00128698,0.0012
 3564,-0.00040805,0.00001851,0.00001997,0.00014128,0.00026997,0.0000224
 7,-0.00015813,-0.00009952,0.00007242,-0.00000711,-0.00176714,0.0045130
 5,-0.00019692,-0.00045165,0.00016439,-0.00005929,-0.00475314,-0.001671
 12,0.00166954,0.00088738,0.00045162,-0.00056517,0.00014847,0.00033030,
 0.00026235,0.00007374,0.00062978,0.00096330,-0.00000086,-0.00028088,-0
 .00053713,-0.00006893,-0.00013748,-0.00015169,0.00079732,0.00055073,-0
 .00069185,0.00005185,0.00005505,-0.00053035,-0.00015864,-0.00005999,-0
 .00019858,0.00026735,0.00012363,0.00010384,-0.00066125,-0.00006012,0.0
 0029182,-0.00004800,0.00000805,-0.00000795,0.00004276,0.00003457,0.000
 03403,0.00003219,-0.00004630,-0.00012183,-0.00010096,0.00004163,0.0001
 1457,0.00006166,-0.00004917,-0.00009268,0.00005321,0.00000162,-0.00009
 004,0.02224892,-0.24567655,-0.28201517,0.00636184,0.00012648,-0.002731
 94,-0.03019422,0.24220913,0.28643654\\-0.00000145,0.00000101,0.0000010
 2,-0.00000062,-0.00000297,0.00000450,0.00000466,-0.00000428,0.00000058
 ,0.00000618,-0.00000215,-0.00000196,-0.00000108,-0.00000418,-0.0000022
 5,0.00000460,0.00000139,0.00000041,0.00000180,-0.00000296,0.00000351,-
 0.00000063,-0.00000072,0.00000598,0.00000351,0.00000024,-0.00000134,0.
 00000155,-0.00000236,-0.00000122,-0.00003457,0.00002024,0.00000228,0.0
 0000362,0.00000402,0.00000434,0.00000559,-0.00000702,0.00000342,-0.000
 00494,0.00000132,0.00000032,-0.00000895,-0.00000069,0.00000371,-0.0000
 0145,0.00000203,0.00000537,0.00003875,-0.00000369,0.00000014,-0.000000
 11,-0.00000057,0.00000872,-0.00004463,-0.00003500,-0.00000083,0.000017
 46,0.00002347,0.00000366,-0.00000223,0.00000009,-0.00000351,0.00000380
 ,0.00000420,-0.00000390,-0.00000245,0.00000194,-0.00000392,-0.00000009
 ,0.00000501,-0.00000137,-0.00000418,0.00000246,-0.00000485,0.00000277,
 0.00000320,-0.00000810,0.00000103,-0.00000072,-0.00000390,-0.00000058,
 0.00000099,-0.00000561,-0.00000078,0.00000056,-0.00000651,-0.00000111,
 0.00001026,0.00001052,-0.00000169,-0.00000355,-0.00000011,0.00001566,-
 0.00002038,-0.00001112,0.00000122,0.00000658,0.00000891,0.00000215,-0.
 00000400,0.00000399,0.00000240,-0.00000309,0.00000313,-0.00000075,-0.0
 0000342,0.00000114,0.00000085,0.00000267,-0.00000292,-0.00000532,0.000
 01005,-0.00001223\\\@


 Discoveries are often made by not following instructions,
 by going off the main road, by trying the untried.
 -- Frank Tyger
 Job cpu time:       0 days  6 hours 10 minutes 29.9 seconds.
 File lengths (MBytes):  RWF=   1547 Int=      0 D2E=      0 Chk=     26 Scr=      1
 Normal termination of Gaussian 09 at Thu Aug 27 22:56:03 2020.
