 Entering Gaussian System, Link 0=g09
 Input=freq_b3lyp_TS_2H2O_claisen_PM6_toluene.com
 Output=freq_b3lyp_TS_2H2O_claisen_PM6_toluene.log
 Initial command:
 /apps/applications/gaussian/G09.D01/2/default/g09/l1.exe "/local/716085.1.40core-192G.q/Gau-69376.inp" -scrdir="/local/716085.1.40core-192G.q/"
 Entering Link 1 = /apps/applications/gaussian/G09.D01/2/default/g09/l1.exe PID=     69390.
  
 Copyright (c) 1988,1990,1992,1993,1995,1998,2003,2009,2013,
            Gaussian, Inc.  All Rights Reserved.
  
 This is part of the Gaussian(R) 09 program.  It is based on
 the Gaussian(R) 03 system (copyright 2003, Gaussian, Inc.),
 the Gaussian(R) 98 system (copyright 1998, Gaussian, Inc.),
 the Gaussian(R) 94 system (copyright 1995, Gaussian, Inc.),
 the Gaussian 92(TM) system (copyright 1992, Gaussian, Inc.),
 the Gaussian 90(TM) system (copyright 1990, Gaussian, Inc.),
 the Gaussian 88(TM) system (copyright 1988, Gaussian, Inc.),
 the Gaussian 86(TM) system (copyright 1986, Carnegie Mellon
 University), and the Gaussian 82(TM) system (copyright 1983,
 Carnegie Mellon University). Gaussian is a federally registered
 trademark of Gaussian, Inc.
  
 This software contains proprietary and confidential information,
 including trade secrets, belonging to Gaussian, Inc.
  
 This software is provided under written license and may be
 used, copied, transmitted, or stored only in accord with that
 written license.
  
 The following legend is applicable only to US Government
 contracts under FAR:
  
                    RESTRICTED RIGHTS LEGEND
  
 Use, reproduction and disclosure by the US Government is
 subject to restrictions as set forth in subparagraphs (a)
 and (c) of the Commercial Computer Software - Restricted
 Rights clause in FAR 52.227-19.
  
 Gaussian, Inc.
 340 Quinnipiac St., Bldg. 40, Wallingford CT 06492
  
  
 ---------------------------------------------------------------
 Warning -- This program may not be used in any manner that
 competes with the business of Gaussian, Inc. or will provide
 assistance to any competitor of Gaussian, Inc.  The licensee
 of this program is prohibited from giving any competitor of
 Gaussian, Inc. access to this program.  By using this program,
 the user acknowledges that Gaussian, Inc. is engaged in the
 business of creating and licensing software in the field of
 computational chemistry and represents and warrants to the
 licensee that it is not a competitor of Gaussian, Inc. and that
 it will not use this program in any manner prohibited above.
 ---------------------------------------------------------------
  

 Cite this work as:
 Gaussian 09, Revision D.01,
 M. J. Frisch, G. W. Trucks, H. B. Schlegel, G. E. Scuseria, 
 M. A. Robb, J. R. Cheeseman, G. Scalmani, V. Barone, B. Mennucci, 
 G. A. Petersson, H. Nakatsuji, M. Caricato, X. Li, H. P. Hratchian, 
 A. F. Izmaylov, J. Bloino, G. Zheng, J. L. Sonnenberg, M. Hada, 
 M. Ehara, K. Toyota, R. Fukuda, J. Hasegawa, M. Ishida, T. Nakajima, 
 Y. Honda, O. Kitao, H. Nakai, T. Vreven, J. A. Montgomery, Jr., 
 J. E. Peralta, F. Ogliaro, M. Bearpark, J. J. Heyd, E. Brothers, 
 K. N. Kudin, V. N. Staroverov, T. Keith, R. Kobayashi, J. Normand, 
 K. Raghavachari, A. Rendell, J. C. Burant, S. S. Iyengar, J. Tomasi, 
 M. Cossi, N. Rega, J. M. Millam, M. Klene, J. E. Knox, J. B. Cross, 
 V. Bakken, C. Adamo, J. Jaramillo, R. Gomperts, R. E. Stratmann, 
 O. Yazyev, A. J. Austin, R. Cammi, C. Pomelli, J. W. Ochterski, 
 R. L. Martin, K. Morokuma, V. G. Zakrzewski, G. A. Voth, 
 P. Salvador, J. J. Dannenberg, S. Dapprich, A. D. Daniels, 
 O. Farkas, J. B. Foresman, J. V. Ortiz, J. Cioslowski, 
 and D. J. Fox, Gaussian, Inc., Wallingford CT, 2013.
 
 ******************************************
 Gaussian 09:  ES64L-G09RevD.01 24-Apr-2013
                28-Aug-2020 
 ******************************************
 %nprocshared=4
 Will use up to    4 processors via shared memory.
 %chk=freq_b3lyp_TS_2H2O_claisen_PM6_toluene.chk
 ----------------------------------------------------------------------
 # freq b3lyp/6-31+g(d,p) scrf=(cpcm,solvent=toluene) geom=connectivity
  empiricaldispersion=gd3
 ----------------------------------------------------------------------
 1/10=4,30=1,38=1,57=2/1,3;
 2/12=2,17=6,18=5,40=1/2;
 3/5=1,6=6,7=111,11=2,16=1,25=1,30=1,70=2101,71=2,72=13,74=-5,124=31,140=1/1,2,3;
 4//1;
 5/5=2,38=5,53=13,98=1/2;
 8/6=4,10=90,11=11/1;
 11/6=1,8=1,9=11,15=111,16=1/1,2,10;
 10/6=1/2;
 6/7=2,8=2,9=2,10=2,18=1,28=1/1;
 7/8=1,10=1,25=1/1,2,3,16;
 1/10=4,30=1/3;
 99//99;
 -------------------
 Title Card Required
 -------------------
 Symbolic Z-matrix:
 Charge =  0 Multiplicity = 1
 C                     2.70626   2.74806  -0.33004 
 C                     3.09266   1.42947  -0.17361 
 C                     2.13948   0.42197   0.12446 
 C                     0.763     0.7964    0.24598 
 C                     0.40227   2.15377   0.09369 
 C                     1.35167   3.11775  -0.19123 
 H                     3.45343   3.50344  -0.55447 
 H                     4.13729   1.15802  -0.27124 
 H                    -0.6418    2.42323   0.20369 
 H                     1.05663   4.15635  -0.30541 
 C                    -0.25224  -0.20383   0.56406 
 C                     2.4825   -0.95946   0.32543 
 C                     0.16725  -1.54991   0.70782 
 H                    -0.55679  -2.28069   1.04741 
 C                     1.53809  -1.90487   0.63041 
 H                     1.83524  -2.93514   0.7943 
 O                    -1.5014    0.11578   0.63773 
 Cl                    4.16815  -1.47024   0.19983 
 C                    -2.5381   -0.35053  -1.42152 
 C                    -2.05634  -1.67124  -1.36978 
 H                    -2.72209  -2.41818  -0.94391 
 C                    -3.94802  -0.06484  -1.01811 
 H                    -3.99727   0.85962  -0.43464 
 H                    -4.55328   0.09227  -1.9227 
 H                    -4.38534  -0.87511  -0.4324 
 C                    -1.83069   0.74252  -2.1613 
 H                    -0.74461   0.64945  -2.1421 
 H                    -2.15221   0.70933  -3.21193 
 H                    -2.10566   1.72012  -1.76149 
 C                    -0.75048  -2.03086  -1.60619 
 H                    -0.43711  -3.06382  -1.50694 
 H                    -0.02657  -1.35557  -2.04598 
 O                    -3.35591   1.87784   1.79838 
 H                    -2.55743   1.49447   1.39075 
 H                    -3.82405   1.09002   2.11544 
 O                    -3.44936  -1.20152   2.01956 
 H                    -3.11907  -1.46904   2.88618 
 H                    -2.6683   -0.84787   1.53256 
 

 GradGradGradGradGradGradGradGradGradGradGradGradGradGradGradGradGradGrad
 Berny optimization.
 Initialization pass.
 Trust Radius=3.00D-01 FncErr=1.00D-07 GrdErr=1.00D-07
 Number of steps in this run=      2 maximum allowed number of steps=      2.
 GradGradGradGradGradGradGradGradGradGradGradGradGradGradGradGradGradGrad

                          Input orientation:                          
 ---------------------------------------------------------------------
 Center     Atomic      Atomic             Coordinates (Angstroms)
 Number     Number       Type             X           Y           Z
 ---------------------------------------------------------------------
      1          6           0        2.706260    2.748061   -0.330044
      2          6           0        3.092663    1.429471   -0.173612
      3          6           0        2.139478    0.421969    0.124461
      4          6           0        0.762998    0.796398    0.245982
      5          6           0        0.402269    2.153766    0.093692
      6          6           0        1.351670    3.117755   -0.191232
      7          1           0        3.453432    3.503441   -0.554465
      8          1           0        4.137285    1.158020   -0.271243
      9          1           0       -0.641795    2.423231    0.203694
     10          1           0        1.056629    4.156347   -0.305407
     11          6           0       -0.252235   -0.203832    0.564064
     12          6           0        2.482495   -0.959461    0.325428
     13          6           0        0.167251   -1.549908    0.707815
     14          1           0       -0.556789   -2.280693    1.047407
     15          6           0        1.538086   -1.904871    0.630412
     16          1           0        1.835236   -2.935139    0.794299
     17          8           0       -1.501399    0.115784    0.637734
     18         17           0        4.168150   -1.470244    0.199828
     19          6           0       -2.538101   -0.350531   -1.421519
     20          6           0       -2.056337   -1.671241   -1.369779
     21          1           0       -2.722093   -2.418179   -0.943909
     22          6           0       -3.948024   -0.064844   -1.018110
     23          1           0       -3.997269    0.859622   -0.434635
     24          1           0       -4.553283    0.092269   -1.922704
     25          1           0       -4.385337   -0.875108   -0.432396
     26          6           0       -1.830691    0.742522   -2.161299
     27          1           0       -0.744613    0.649454   -2.142102
     28          1           0       -2.152206    0.709326   -3.211931
     29          1           0       -2.105657    1.720124   -1.761488
     30          6           0       -0.750482   -2.030856   -1.606188
     31          1           0       -0.437108   -3.063821   -1.506940
     32          1           0       -0.026570   -1.355573   -2.045981
     33          8           0       -3.355913    1.877841    1.798376
     34          1           0       -2.557427    1.494465    1.390754
     35          1           0       -3.824052    1.090018    2.115438
     36          8           0       -3.449358   -1.201516    2.019563
     37          1           0       -3.119073   -1.469044    2.886181
     38          1           0       -2.668300   -0.847866    1.532557
 ---------------------------------------------------------------------
                    Distance matrix (angstroms):
                    1          2          3          4          5
     1  C    0.000000
     2  C    1.382916   0.000000
     3  C    2.436908   1.418615   0.000000
     4  C    2.813727   2.450343   1.431664   0.000000
     5  C    2.416840   2.798977   2.453154   1.412716   0.000000
     6  C    1.410977   2.425215   2.826228   2.434418   1.382685
     7  H    1.085923   2.139288   3.418024   3.899645   3.398724
     8  H    2.139981   1.083722   2.165545   3.432798   3.882658
     9  H    3.405857   3.882795   3.427362   2.149841   1.083873
    10  H    2.169138   3.405680   3.911896   3.417529   2.144248
    11  C    4.273850   3.794758   2.511010   1.460251   2.491564
    12  C    3.771662   2.515620   1.437497   2.458866   3.751430
    13  C    5.098652   4.267511   2.849260   2.464418   3.761593
    14  H    6.150872   5.345531   3.927603   3.442762   4.636140
    15  C    4.892533   3.765767   2.455981   2.836442   4.248610
    16  H    5.858463   4.644114   3.436775   3.921060   5.333029
    17  O    5.056666   4.846593   3.689605   2.396706   2.841356
    18  Cl   4.495774   3.115201   2.775187   4.090826   5.227482
    19  C    6.188369   6.035825   4.986638   3.872113   4.148873
    20  C    6.579788   6.128412   4.921295   4.080267   4.776732
    21  H    7.518902   7.014924   5.730858   4.888272   5.633909
    22  C    7.257091   7.246891   6.212901   4.953120   5.008331
    23  H    6.965231   7.117584   6.177685   4.809093   4.616262
    24  H    7.892450   7.956628   7.006614   5.784621   5.733508
    25  H    7.964206   7.829338   6.675755   5.455225   5.689641
    26  C    5.287684   5.353710   4.592352   3.539086   3.473140
    27  H    4.426763   4.382701   3.675192   2.827973   2.928663
    28  H    6.005531   6.103986   5.443587   4.523622   4.420282
    29  H    5.124474   5.443194   4.823192   3.621103   3.149513
    30  C    6.034539   5.366181   4.166937   3.703312   4.661490
    31  H    6.711469   5.867429   4.631522   4.406164   5.521756
    32  H    5.220403   4.581686   3.544325   3.241526   4.132501
    33  O    6.483625   6.758247   5.926287   4.532645   4.135942
    34  H    5.677944   5.863018   4.981432   3.580925   3.298007
    35  H    7.167598   7.293554   6.322497   4.962067   4.804249
    36  O    7.681891   7.384453   6.120637   4.988105   5.459114
    37  H    7.877981   7.506623   6.233409   5.212807   5.772573
    38  H    6.729478   6.425416   5.168166   4.016551   4.528633
                    6          7          8          9         10
     6  C    0.000000
     7  H    2.167509   0.000000
     8  H    3.406848   2.459445   0.000000
     9  H    2.147611   4.302620   4.966481   0.000000
    10  H    1.085706   2.496594   4.299020   2.479419   0.000000
    11  C    3.765093   5.359753   4.671217   2.680128   4.634681
    12  C    4.262557   4.651282   2.752830   4.606367   5.348134
    13  C    4.898797   6.158626   4.904345   4.085894   5.863357
    14  H    5.858300   7.218315   5.966399   4.779747   6.772644
    15  C    5.092801   5.858526   4.117052   4.864816   6.151904
    16  H    6.151637   6.774440   4.815471   5.932674   7.218362
    17  O    4.223626   6.119470   5.805795   2.500324   4.874338
    18  Cl   5.397705   5.081075   2.670324   6.188274   6.449446
    19  C    5.354711   7.176583   6.939715   3.732432   5.871945
    20  C    5.994828   7.602606   6.897279   4.608844   6.692102
    21  H    6.914379   8.564716   7.764840   5.392948   7.609916
    22  C    6.236940   8.229774   8.211299   4.314449   6.585814
    23  H    5.811158   7.906775   8.141665   3.756533   6.035477
    24  H    6.857115   8.809975   8.910057   5.025405   7.113613
    25  H    6.993880   8.979582   8.763257   5.029688   7.412601
    26  C    4.432868   6.174670   6.273889   3.135514   4.840987
    27  H    3.780583   5.318779   5.252778   2.942722   4.349278
    28  H    5.215582   6.803850   6.957490   4.109173   5.534118
    29  H    4.046256   5.961593   6.442912   2.549351   4.249165
    30  C    5.738409   7.029044   5.986758   4.808989   6.575649
    31  H    6.568310   7.692362   6.346334   5.751166   7.470325
    32  H    5.034908   6.159955   5.177406   4.440597   5.880832
    33  O    5.259017   7.385500   7.807015   3.194824   5.393331
    34  H    4.518715   6.629501   6.906128   2.437491   4.798331
    35  H    6.018350   8.118791   8.311664   3.944488   6.251713
    36  O    6.825949   8.741324   8.268758   4.931387   7.376727
    37  H    7.106106   8.930928   8.338197   5.336895   7.698555
    38  H    5.904046   7.795200   7.320742   4.070955   6.503488
                   11         12         13         14         15
    11  C    0.000000
    12  C    2.847222   0.000000
    13  C    1.417234   2.419753   0.000000
    14  H    2.154002   3.391778   1.083330   0.000000
    15  C    2.470463   1.370665   1.418160   2.168785   0.000000
    16  H    3.445371   2.131217   2.169912   2.492819   1.084716
    17  O    1.291508   4.138248   2.358778   2.608299   3.649873
    18  Cl   4.612621   1.765816   4.033806   4.868292   2.700285
    19  C    3.031377   5.350608   3.645751   3.707657   4.820964
    20  C    3.024537   4.897076   3.045564   2.909100   4.120100
    21  H    3.643832   5.552190   3.439534   2.944959   4.570678
    22  C    4.022617   6.630008   4.703161   4.547177   6.016704
    23  H    4.019156   6.773042   4.945124   4.888244   6.278288
    24  H    4.977018   7.460724   5.647992   5.515838   6.900127
    25  H    4.304193   6.910031   4.741465   4.338579   6.105482
    26  C    3.288573   5.261571   4.180768   4.588949   5.113805
    27  H    2.879908   4.369386   3.713585   4.335206   4.407054
    28  H    4.324568   6.064504   5.084135   5.443118   5.934297
    29  H    3.541888   5.708462   4.685795   5.127906   5.669095
    30  C    2.880323   3.915504   2.535381   2.672359   3.202467
    31  H    3.535926   4.038562   2.749968   2.674379   3.132544
    32  H    2.861777   3.475038   2.767440   3.272007   3.148485
    33  O    3.935696   6.656340   5.035024   5.068772   6.294782
    34  H    2.980191   5.705917   4.142280   4.286287   5.376507
    35  H    4.103497   6.868554   4.988097   4.814290   6.318796
    36  O    3.651773   6.173780   3.862890   3.236768   5.224849
    37  H    3.900224   6.180186   3.943570   3.256557   5.193031
    38  H    2.681442   5.291531   3.035360   2.597468   4.429990
                   16         17         18         19         20
    16  H    0.000000
    17  O    4.523912   0.000000
    18  Cl   2.818120   5.903476   0.000000
    19  C    5.542213   2.352174   6.989730   0.000000
    20  C    4.628716   2.744362   6.422484   1.406787   0.000000
    21  H    4.904881   3.226865   7.048558   2.130055   1.087434
    22  C    6.705931   2.959801   8.326512   1.494068   2.506524
    23  H    7.066018   2.816494   8.514980   2.137190   3.323700
    24  H    7.573670   3.983766   9.110981   2.123256   3.106515
    25  H    6.666636   3.231740   8.597443   2.160052   2.633772
    26  C    5.974929   2.887182   6.815963   1.497487   2.550230
    27  H    5.303525   2.930020   5.840633   2.176191   2.775379
    28  H    6.725451   3.949147   7.505833   2.116078   3.011613
    29  H    6.613181   2.948780   7.306563   2.142475   3.414268
    30  C    3.642252   3.194859   5.269622   2.460320   1.374943
    31  H    3.236635   3.980230   5.163424   3.432697   2.140092
    32  H    3.745469   3.397402   4.759463   2.776302   2.162602
    33  O    7.149893   2.809120   8.389073   4.000273   4.931743
    34  H    6.266789   1.892880   7.445884   3.363519   4.230051
    35  H    7.069288   2.920181   8.608124   4.029754   4.784987
    36  O    5.695055   2.727503   7.836458   3.660001   3.694427
    37  H    5.574099   3.191248   7.766602   4.488305   4.391297
    38  H    5.018323   1.758120   6.992894   2.998476   3.078311
                   21         22         23         24         25
    21  H    0.000000
    22  C    2.654543   0.000000
    23  H    3.553789   1.094306   0.000000
    24  H    3.257859   1.099688   1.764180   0.000000
    25  H    2.325746   1.091252   1.777608   1.784669   0.000000
    26  C    3.502380   2.538074   2.772930   2.809317   3.483109
    27  H    3.841415   3.469211   3.679590   3.855458   4.301425
    28  H    3.905123   2.938903   3.337697   2.794286   3.901682
    29  H    4.263095   2.670775   2.465603   2.943939   3.701169
    30  C    2.115628   3.799383   4.502113   4.366822   3.990703
    31  H    2.440290   4.643205   5.405367   5.203524   4.640433
    32  H    3.099926   4.254445   4.823896   4.754216   4.672617
    33  O    5.135917   3.472350   2.536621   4.297487   3.689822
    34  H    4.559227   3.188704   2.410024   4.114438   3.504284
    35  H    4.783447   3.341885   2.566312   4.223017   3.266224
    36  O    3.285019   3.281486   3.251397   4.293483   2.644750
    37  H    3.965859   4.231126   4.149908   5.255476   3.601269
    38  H    2.932859   2.959175   2.924298   4.046708   2.609597
                   26         27         28         29         30
    26  C    0.000000
    27  H    1.090227   0.000000
    28  H    1.099228   1.769021   0.000000
    29  H    1.091403   1.773032   1.768520   0.000000
    30  C    3.027644   2.733368   3.471576   3.991299   0.000000
    31  H    4.105911   3.779736   4.481651   5.072966   1.084007
    32  H    2.769504   2.131891   3.184584   3.723366   1.083270
    33  O    4.392525   4.884177   5.283703   3.776327   5.801486
    34  H    3.702789   4.059730   4.686721   3.192436   4.967353
    35  H    4.731249   5.272920   5.596504   4.287245   5.747798
    36  O    4.886612   5.297281   5.718606   4.963654   4.595411
    37  H    5.659329   5.950607   6.547297   5.727009   5.109524
    38  H    4.107979   4.409723   5.020096   4.214484   3.863834
                   31         32         33         34         35
    31  H    0.000000
    32  H    1.837721   0.000000
    33  O    6.623033   6.026489   0.000000
    34  H    5.802616   5.132163   0.975045   0.000000
    35  H    6.468956   6.141595   0.969715   1.514293   0.000000
    36  O    4.997805   5.316753   3.088704   2.908480   2.323944
    37  H    5.388484   5.822600   3.527188   3.366621   2.764026
    38  H    4.373467   4.476878   2.823641   2.349237   2.330431
                   36         37         38
    36  O    0.000000
    37  H    0.965239   0.000000
    38  H    0.986050   1.556071   0.000000
 Stoichiometry    C15H19ClO3
 Framework group  C1[X(C15H19ClO3)]
 Deg. of freedom   108
 Full point group                 C1      NOp   1
 Largest Abelian subgroup         C1      NOp   1
 Largest concise Abelian subgroup C1      NOp   1
                         Standard orientation:                         
 ---------------------------------------------------------------------
 Center     Atomic      Atomic             Coordinates (Angstroms)
 Number     Number       Type             X           Y           Z
 ---------------------------------------------------------------------
      1          6           0       -2.706260    2.748061    0.330044
      2          6           0       -3.092663    1.429471    0.173612
      3          6           0       -2.139478    0.421969   -0.124461
      4          6           0       -0.762998    0.796398   -0.245982
      5          6           0       -0.402269    2.153766   -0.093692
      6          6           0       -1.351670    3.117755    0.191232
      7          1           0       -3.453432    3.503441    0.554465
      8          1           0       -4.137285    1.158020    0.271243
      9          1           0        0.641795    2.423231   -0.203694
     10          1           0       -1.056629    4.156347    0.305407
     11          6           0        0.252235   -0.203832   -0.564064
     12          6           0       -2.482495   -0.959461   -0.325428
     13          6           0       -0.167251   -1.549908   -0.707815
     14          1           0        0.556789   -2.280693   -1.047407
     15          6           0       -1.538086   -1.904871   -0.630412
     16          1           0       -1.835236   -2.935139   -0.794299
     17          8           0        1.501399    0.115784   -0.637734
     18         17           0       -4.168150   -1.470244   -0.199828
     19          6           0        2.538101   -0.350531    1.421519
     20          6           0        2.056337   -1.671241    1.369779
     21          1           0        2.722093   -2.418179    0.943909
     22          6           0        3.948024   -0.064844    1.018110
     23          1           0        3.997269    0.859622    0.434635
     24          1           0        4.553283    0.092269    1.922704
     25          1           0        4.385337   -0.875108    0.432396
     26          6           0        1.830691    0.742522    2.161299
     27          1           0        0.744613    0.649454    2.142102
     28          1           0        2.152206    0.709326    3.211931
     29          1           0        2.105657    1.720124    1.761488
     30          6           0        0.750482   -2.030856    1.606188
     31          1           0        0.437108   -3.063821    1.506940
     32          1           0        0.026570   -1.355573    2.045981
     33          8           0        3.355913    1.877841   -1.798376
     34          1           0        2.557427    1.494465   -1.390754
     35          1           0        3.824052    1.090018   -2.115438
     36          8           0        3.449358   -1.201516   -2.019563
     37          1           0        3.119073   -1.469044   -2.886181
     38          1           0        2.668300   -0.847866   -1.532557
 ---------------------------------------------------------------------
 Rotational constants (GHZ):      0.4830754      0.2244928      0.1929408
 Standard basis: 6-31+G(d,p) (6D, 7F)
 There are   460 symmetry adapted cartesian basis functions of A   symmetry.
 There are   460 symmetry adapted basis functions of A   symmetry.
   460 basis functions,   765 primitive gaussians,   460 cartesian basis functions
    75 alpha electrons       75 beta electrons
       nuclear repulsion energy      1600.6131109486 Hartrees.
 NAtoms=   38 NActive=   38 NUniq=   38 SFac= 1.00D+00 NAtFMM=   60 NAOKFM=F Big=F
 Integral buffers will be    131072 words long.
 Raffenetti 2 integral format.
 Two-electron integral symmetry is turned on.
 Nuclear repulsion after empirical dispersion term =     1600.5642660445 Hartrees.
 Force inversion solution in PCM.
 ------------------------------------------------------------------------------
 Polarizable Continuum Model (PCM)
 =================================
 Model                : C-PCM.
 Atomic radii         : UFF (Universal Force Field).
 Polarization charges : Total charges.
 Charge compensation  : None.
 Solution method      : Matrix inversion.
 Cavity type          : Scaled VdW (van der Waals Surface) (Alpha=1.100).
 Cavity algorithm     : GePol (No added spheres)
                        Default sphere list used, NSphG=   38.
                        Lebedev-Laikov grids with approx.  5.0 points / Ang**2.
                        Smoothing algorithm: Karplus/York (Gamma=1.0000).
                        Polarization charges: spherical gaussians, with
                                              point-specific exponents (IZeta= 3).
                        Self-potential: point-specific (ISelfS= 7).
                        Self-field    : sphere-specific E.n sum rule (ISelfD= 2).
 1st derivatives      : Analytical E(r).r(x)/FMM algorithm (CHGder, D1EAlg=3).
                        Cavity 1st derivative terms included.
 2nd derivatives      : Analytical E(r).r(xy)/FMM algorithm (CHGder, D2EAlg=3).
                        Cavity 2nd derivative terms included.
 Solvent              : Toluene, Eps=   2.374100 Eps(inf)=   2.238315
 ------------------------------------------------------------------------------
 One-electron integrals computed using PRISM.
 NBasis=   460 RedAO= T EigKep=  1.32D-06  NBF=   460
 NBsUse=   457 1.00D-06 EigRej=  9.25D-07 NBFU=   457
 ExpMin= 4.38D-02 ExpMax= 2.52D+04 ExpMxC= 3.78D+03 IAcc=2 IRadAn=         4 AccDes= 0.00D+00
 Harris functional with IExCor=  402 and IRadAn=       4 diagonalized for initial guess.
 HarFok:  IExCor=  402 AccDes= 0.00D+00 IRadAn=         4 IDoV= 1 UseB2=F ITyADJ=14
 ICtDFT=  3500011 ScaDFX=  1.000000  1.000000  1.000000  1.000000
 FoFCou: FMM=F IPFlag=           0 FMFlag=      100000 FMFlg1=           0
         NFxFlg=           0 DoJE=T BraDBF=F KetDBF=T FulRan=T
         wScrn=  0.000000 ICntrl=     500 IOpCl=  0 I1Cent=   200000004 NGrid=           0
         NMat0=    1 NMatS0=      1 NMatT0=    0 NMatD0=    1 NMtDS0=    0 NMtDT0=    0
 Petite list used in FoFCou.
 Requested convergence on RMS density matrix=1.00D-08 within 128 cycles.
 Requested convergence on MAX density matrix=1.00D-06.
 Requested convergence on             energy=1.00D-06.
 No special actions if energy rises.
 Inv3:  Mode=1 IEnd=    21595467.
 Iteration    1 A*A^-1 deviation from unit magnitude is 7.88D-15 for   2681.
 Iteration    1 A*A^-1 deviation from orthogonality  is 2.21D-15 for   2604   2314.
 Iteration    1 A^-1*A deviation from unit magnitude is 8.10D-15 for   2681.
 Iteration    1 A^-1*A deviation from orthogonality  is 4.23D-15 for   2675   1777.
 Error on total polarization charges =  0.01284
 SCF Done:  E(RB3LYP) =  -1268.98837384     A.U. after   16 cycles
            NFock= 16  Conv=0.44D-08     -V/T= 2.0073
 DoSCS=F DFT=T ScalE2(SS,OS)=  1.000000  1.000000
 Range of M.O.s used for correlation:     1   457
 NBasis=   460 NAE=    75 NBE=    75 NFC=     0 NFV=     0
 NROrb=    457 NOA=    75 NOB=    75 NVA=   382 NVB=   382

 **** Warning!!: The largest alpha MO coefficient is  0.18844062D+03

 PrsmSu:  requested number of processors reduced to:   2 ShMem   1 Linda.
 Symmetrizing basis deriv contribution to polar:
 IMax=3 JMax=2 DiffMx= 0.00D+00
 G2DrvN: will do    13 centers at a time, making    3 passes.
 Calling FoFCou, ICntrl=  3107 FMM=F I1Cent=   0 AccDes= 0.00D+00.
 Calling FoFCou, ICntrl=  3107 FMM=F I1Cent=   0 AccDes= 0.00D+00.
 Calling FoFCou, ICntrl=  3107 FMM=F I1Cent=   0 AccDes= 0.00D+00.
 NEqPCM:  Using equilibrium solvation (IEInf=0, Eps=   2.3741, EpsInf=   2.2383)
 G2PCM: DoFxE=T DoFxN=T DoGrad=T DoDP/DQ/DG/TGxP=FFFF NFrqRd=   0 IEInf=0 SqF1=F DoCFld=F IF1Alg=4.
 CoulSu:  requested number of processors reduced to:   3 ShMem   1 Linda.
 CoulSu:  requested number of processors reduced to:   3 ShMem   1 Linda.
 CoulSu:  requested number of processors reduced to:   3 ShMem   1 Linda.
 CoulSu:  requested number of processors reduced to:   3 ShMem   1 Linda.
 End of G2Drv F.D. properties file   721 does not exist.
 End of G2Drv F.D. properties file   722 does not exist.
 End of G2Drv F.D. properties file   788 does not exist.
          IDoAtm=11111111111111111111111111111111111111
 NEqPCM:  Using equilibrium solvation (IEInf=0, Eps=   2.3741, EpsInf=   2.2383)
          Differentiating once with respect to electric field.
                with respect to dipole field.
          Differentiating once with respect to nuclear coordinates.
          There are   117 degrees of freedom in the 1st order CPHF.  IDoFFX=6 NUNeed=     3.
    117 vectors produced by pass  0 Test12= 2.87D-14 1.00D-09 XBig12= 6.20D+02 1.78D+01.
 AX will form    32 AO Fock derivatives at one time.
    117 vectors produced by pass  1 Test12= 2.87D-14 1.00D-09 XBig12= 1.17D+02 1.65D+00.
    114 vectors produced by pass  2 Test12= 2.87D-14 1.00D-09 XBig12= 9.32D-01 1.00D-01.
    114 vectors produced by pass  3 Test12= 2.87D-14 1.00D-09 XBig12= 3.67D-03 4.67D-03.
    114 vectors produced by pass  4 Test12= 2.87D-14 1.00D-09 XBig12= 7.72D-06 2.05D-04.
    114 vectors produced by pass  5 Test12= 2.87D-14 1.00D-09 XBig12= 1.08D-08 8.66D-06.
     84 vectors produced by pass  6 Test12= 2.87D-14 1.00D-09 XBig12= 1.70D-11 3.87D-07.
     59 vectors produced by pass  7 Test12= 2.87D-14 1.00D-09 XBig12= 1.04D-12 6.69D-08.
     32 vectors produced by pass  8 Test12= 2.87D-14 1.00D-09 XBig12= 3.33D-14 1.31D-08.
 InvSVY:  IOpt=1 It=  1 EMax= 3.20D-14
 Solved reduced A of dimension   865 with   117 vectors.
 Isotropic polarizability for W=    0.000000      295.26 Bohr**3.
 End of Minotr F.D. properties file   721 does not exist.
 End of Minotr F.D. properties file   722 does not exist.
 End of Minotr F.D. properties file   788 does not exist.

 **********************************************************************

            Population analysis using the SCF density.

 **********************************************************************

 Orbital symmetries:
       Occupied  (A) (A) (A) (A) (A) (A) (A) (A) (A) (A) (A) (A)
                 (A) (A) (A) (A) (A) (A) (A) (A) (A) (A) (A) (A)
                 (A) (A) (A) (A) (A) (A) (A) (A) (A) (A) (A) (A)
                 (A) (A) (A) (A) (A) (A) (A) (A) (A) (A) (A) (A)
                 (A) (A) (A) (A) (A) (A) (A) (A) (A) (A) (A) (A)
                 (A) (A) (A) (A) (A) (A) (A) (A) (A) (A) (A) (A)
                 (A) (A) (A)
       Virtual   (A) (A) (A) (A) (A) (A) (A) (A) (A) (A) (A) (A)
                 (A) (A) (A) (A) (A) (A) (A) (A) (A) (A) (A) (A)
                 (A) (A) (A) (A) (A) (A) (A) (A) (A) (A) (A) (A)
                 (A) (A) (A) (A) (A) (A) (A) (A) (A) (A) (A) (A)
                 (A) (A) (A) (A) (A) (A) (A) (A) (A) (A) (A) (A)
                 (A) (A) (A) (A) (A) (A) (A) (A) (A) (A) (A) (A)
                 (A) (A) (A) (A) (A) (A) (A) (A) (A) (A) (A) (A)
                 (A) (A) (A) (A) (A) (A) (A) (A) (A) (A) (A) (A)
                 (A) (A) (A) (A) (A) (A) (A) (A) (A) (A) (A) (A)
                 (A) (A) (A) (A) (A) (A) (A) (A) (A) (A) (A) (A)
                 (A) (A) (A) (A) (A) (A) (A) (A) (A) (A) (A) (A)
                 (A) (A) (A) (A) (A) (A) (A) (A) (A) (A) (A) (A)
                 (A) (A) (A) (A) (A) (A) (A) (A) (A) (A) (A) (A)
                 (A) (A) (A) (A) (A) (A) (A) (A) (A) (A) (A) (A)
                 (A) (A) (A) (A) (A) (A) (A) (A) (A) (A) (A) (A)
                 (A) (A) (A) (A) (A) (A) (A) (A) (A) (A) (A) (A)
                 (A) (A) (A) (A) (A) (A) (A) (A) (A) (A) (A) (A)
                 (A) (A) (A) (A) (A) (A) (A) (A) (A) (A) (A) (A)
                 (A) (A) (A) (A) (A) (A) (A) (A) (A) (A) (A) (A)
                 (A) (A) (A) (A) (A) (A) (A) (A) (A) (A) (A) (A)
                 (A) (A) (A) (A) (A) (A) (A) (A) (A) (A) (A) (A)
                 (A) (A) (A) (A) (A) (A) (A) (A) (A) (A) (A) (A)
                 (A) (A) (A) (A) (A) (A) (A) (A) (A) (A) (A) (A)
                 (A) (A) (A) (A) (A) (A) (A) (A) (A) (A) (A) (A)
                 (A) (A) (A) (A) (A) (A) (A) (A) (A) (A) (A) (A)
                 (A) (A) (A) (A) (A) (A) (A) (A) (A) (A) (A) (A)
                 (A) (A) (A) (A) (A) (A) (A) (A) (A) (A) (A) (A)
                 (A) (A) (A) (A) (A) (A) (A) (A) (A) (A) (A) (A)
                 (A) (A) (A) (A) (A) (A) (A) (A) (A) (A) (A) (A)
                 (A) (A) (A) (A) (A) (A) (A) (A) (A) (A) (A) (A)
                 (A) (A) (A) (A) (A) (A) (A) (A) (A) (A) (A) (A)
                 (A) (A) (A) (A) (A) (A) (A) (A) (A) (A)
 The electronic state is 1-A.
 Alpha  occ. eigenvalues -- -101.56280 -19.15051 -19.14878 -19.13674 -10.26636
 Alpha  occ. eigenvalues --  -10.26490 -10.26304 -10.23719 -10.22661 -10.21558
 Alpha  occ. eigenvalues --  -10.21540 -10.21365 -10.21314 -10.20822 -10.20684
 Alpha  occ. eigenvalues --  -10.20583 -10.20517 -10.20256 -10.19432  -9.47751
 Alpha  occ. eigenvalues --   -7.24146  -7.23199  -7.23168  -1.02829  -0.99973
 Alpha  occ. eigenvalues --   -0.98885  -0.90379  -0.86264  -0.85260  -0.82372
 Alpha  occ. eigenvalues --   -0.77231  -0.76872  -0.76012  -0.71792  -0.71179
 Alpha  occ. eigenvalues --   -0.64909  -0.63949  -0.63518  -0.58693  -0.54916
 Alpha  occ. eigenvalues --   -0.53744  -0.52804  -0.52259  -0.50823  -0.49922
 Alpha  occ. eigenvalues --   -0.49802  -0.47789  -0.46984  -0.46747  -0.45047
 Alpha  occ. eigenvalues --   -0.43978  -0.43905  -0.42513  -0.42432  -0.41920
 Alpha  occ. eigenvalues --   -0.40712  -0.40357  -0.39705  -0.38763  -0.38440
 Alpha  occ. eigenvalues --   -0.38322  -0.37236  -0.36795  -0.36698  -0.36422
 Alpha  occ. eigenvalues --   -0.35398  -0.32377  -0.31443  -0.30908  -0.30572
 Alpha  occ. eigenvalues --   -0.29413  -0.27915  -0.27504  -0.25994  -0.21536
 Alpha virt. eigenvalues --   -0.10807  -0.05405  -0.03286  -0.00414  -0.00030
 Alpha virt. eigenvalues --    0.00528   0.01098   0.01408   0.01856   0.02058
 Alpha virt. eigenvalues --    0.02558   0.03232   0.03519   0.04291   0.04822
 Alpha virt. eigenvalues --    0.05098   0.05444   0.05699   0.06246   0.07039
 Alpha virt. eigenvalues --    0.07399   0.07466   0.07978   0.08431   0.08687
 Alpha virt. eigenvalues --    0.09494   0.09683   0.10177   0.10467   0.10985
 Alpha virt. eigenvalues --    0.11586   0.11662   0.12242   0.12789   0.13217
 Alpha virt. eigenvalues --    0.13871   0.14137   0.14223   0.14504   0.14860
 Alpha virt. eigenvalues --    0.15433   0.15644   0.16320   0.16474   0.16794
 Alpha virt. eigenvalues --    0.17260   0.17331   0.17894   0.18095   0.18374
 Alpha virt. eigenvalues --    0.18768   0.19579   0.19733   0.19981   0.20175
 Alpha virt. eigenvalues --    0.20338   0.20511   0.21213   0.21449   0.21796
 Alpha virt. eigenvalues --    0.21938   0.22246   0.22606   0.22910   0.23568
 Alpha virt. eigenvalues --    0.23607   0.23800   0.23913   0.24271   0.24608
 Alpha virt. eigenvalues --    0.25237   0.25818   0.25929   0.26134   0.26555
 Alpha virt. eigenvalues --    0.26957   0.27438   0.27682   0.27991   0.28127
 Alpha virt. eigenvalues --    0.28710   0.28906   0.29555   0.29734   0.30261
 Alpha virt. eigenvalues --    0.30450   0.30900   0.31441   0.32189   0.32533
 Alpha virt. eigenvalues --    0.33142   0.33671   0.33940   0.34376   0.34493
 Alpha virt. eigenvalues --    0.34890   0.35455   0.36876   0.37281   0.37875
 Alpha virt. eigenvalues --    0.39575   0.39723   0.40693   0.41628   0.42213
 Alpha virt. eigenvalues --    0.44254   0.44455   0.45528   0.46331   0.47635
 Alpha virt. eigenvalues --    0.49155   0.51102   0.53157   0.55663   0.57431
 Alpha virt. eigenvalues --    0.58688   0.62282   0.63613   0.64583   0.65730
 Alpha virt. eigenvalues --    0.67093   0.68193   0.68742   0.69184   0.69508
 Alpha virt. eigenvalues --    0.70172   0.70675   0.71197   0.72118   0.72714
 Alpha virt. eigenvalues --    0.73506   0.73948   0.75011   0.75240   0.76138
 Alpha virt. eigenvalues --    0.76729   0.76973   0.77736   0.79013   0.80225
 Alpha virt. eigenvalues --    0.80950   0.82648   0.83351   0.83903   0.84812
 Alpha virt. eigenvalues --    0.85024   0.85983   0.86968   0.87222   0.87917
 Alpha virt. eigenvalues --    0.88851   0.89905   0.90829   0.91439   0.91887
 Alpha virt. eigenvalues --    0.92218   0.92810   0.94259   0.96276   0.96487
 Alpha virt. eigenvalues --    0.97323   0.97922   0.98957   0.99227   1.00184
 Alpha virt. eigenvalues --    1.00473   1.01406   1.02737   1.02934   1.04385
 Alpha virt. eigenvalues --    1.04975   1.05362   1.07367   1.08690   1.09097
 Alpha virt. eigenvalues --    1.09898   1.11805   1.13286   1.14062   1.14408
 Alpha virt. eigenvalues --    1.15233   1.15422   1.16270   1.17540   1.18976
 Alpha virt. eigenvalues --    1.20183   1.20784   1.20914   1.22816   1.22931
 Alpha virt. eigenvalues --    1.23483   1.23979   1.24741   1.26087   1.27199
 Alpha virt. eigenvalues --    1.27791   1.29048   1.29902   1.30797   1.31766
 Alpha virt. eigenvalues --    1.32995   1.33786   1.34990   1.36133   1.36701
 Alpha virt. eigenvalues --    1.37465   1.38015   1.39557   1.40523   1.41026
 Alpha virt. eigenvalues --    1.42000   1.42529   1.43799   1.45666   1.46370
 Alpha virt. eigenvalues --    1.46795   1.48230   1.49218   1.49421   1.52252
 Alpha virt. eigenvalues --    1.55776   1.56315   1.57439   1.58802   1.60320
 Alpha virt. eigenvalues --    1.64012   1.64818   1.66283   1.69694   1.70942
 Alpha virt. eigenvalues --    1.73477   1.74820   1.75490   1.76998   1.79409
 Alpha virt. eigenvalues --    1.79779   1.81093   1.81982   1.82537   1.83618
 Alpha virt. eigenvalues --    1.86309   1.87711   1.88060   1.88944   1.89929
 Alpha virt. eigenvalues --    1.90526   1.91847   1.92835   1.93370   1.95543
 Alpha virt. eigenvalues --    1.96724   1.98024   1.99205   1.99784   2.00145
 Alpha virt. eigenvalues --    2.01721   2.02310   2.02989   2.04622   2.05075
 Alpha virt. eigenvalues --    2.05992   2.07249   2.08434   2.09965   2.11127
 Alpha virt. eigenvalues --    2.11412   2.12812   2.14780   2.15762   2.16121
 Alpha virt. eigenvalues --    2.18240   2.20082   2.20436   2.23332   2.23851
 Alpha virt. eigenvalues --    2.25581   2.27393   2.27813   2.29524   2.30510
 Alpha virt. eigenvalues --    2.32547   2.34021   2.35467   2.35581   2.36885
 Alpha virt. eigenvalues --    2.37645   2.38592   2.39181   2.40999   2.42068
 Alpha virt. eigenvalues --    2.43992   2.44136   2.45262   2.45918   2.46957
 Alpha virt. eigenvalues --    2.48226   2.50003   2.50672   2.52451   2.54270
 Alpha virt. eigenvalues --    2.55326   2.56696   2.57797   2.58293   2.59380
 Alpha virt. eigenvalues --    2.59771   2.60845   2.61405   2.62783   2.63327
 Alpha virt. eigenvalues --    2.65135   2.65725   2.66334   2.66502   2.67189
 Alpha virt. eigenvalues --    2.67866   2.68538   2.70253   2.70987   2.72903
 Alpha virt. eigenvalues --    2.73338   2.74167   2.75666   2.77136   2.80570
 Alpha virt. eigenvalues --    2.81569   2.82227   2.83593   2.86232   2.87500
 Alpha virt. eigenvalues --    2.88656   2.93811   2.95149   3.02089   3.04158
 Alpha virt. eigenvalues --    3.05842   3.06511   3.09289   3.10751   3.15884
 Alpha virt. eigenvalues --    3.16312   3.24129   3.25229   3.27280   3.27753
 Alpha virt. eigenvalues --    3.28707   3.32295   3.34313   3.35529   3.38197
 Alpha virt. eigenvalues --    3.44189   3.45241   3.46928   3.48818   3.50528
 Alpha virt. eigenvalues --    3.51539   3.52795   3.55820   3.66457   3.68376
 Alpha virt. eigenvalues --    3.71541   3.76800   3.85322   4.25317   4.27944
 Alpha virt. eigenvalues --    4.31537   4.34952   4.37577   4.38381   4.39041
 Alpha virt. eigenvalues --    4.41877   4.42319   4.47226   4.50156   4.50629
 Alpha virt. eigenvalues --    4.55523   4.60924   4.67943   4.69724   4.73338
 Alpha virt. eigenvalues --    4.90671   5.07895
          Condensed to atoms (all electrons):
               1          2          3          4          5          6
     1  C    7.629377  -2.020263   1.611611   1.037943  -1.829892   1.556870
     2  C   -2.020263  17.419166  -8.663399  -3.731395   3.400483  -0.819638
     3  C    1.611611  -8.663399  21.311512   3.970602  -3.875598  -0.479625
     4  C    1.037943  -3.731395   3.970602  19.709435  -5.127156  -4.405756
     5  C   -1.829892   3.400483  -3.875598  -5.127156  15.354722  -0.508604
     6  C    1.556870  -0.819638  -0.479625  -4.405756  -0.508604  10.993090
     7  H    0.294728  -0.026039   0.034751  -0.012773   0.024399   0.001639
     8  H    0.094360   0.229146  -0.016780   0.029245  -0.014093   0.019103
     9  H    0.015557  -0.005721   0.022910   0.023279   0.255685  -0.035895
    10  H    0.007146   0.022374   0.000218   0.024686  -0.021827   0.295117
    11  C   -0.537060  -2.171475  -3.797102   0.222818  -0.775818  -0.348915
    12  C   -0.666829  -0.172710  -3.484434  -2.470411  -0.327174   0.282925
    13  C   -0.490635   1.971312   0.745529  -3.504225  -2.268628  -0.435318
    14  H    0.001205  -0.000416   0.004952   0.036044   0.002480  -0.000179
    15  C   -0.280498   0.952436  -2.401252   0.431590   2.015340   0.312239
    16  H    0.001574  -0.000048   0.059248  -0.008709  -0.003188   0.000696
    17  O   -0.001354   0.134808   0.087070  -0.408373  -0.025884   0.064383
    18  Cl   0.053450  -0.045210   0.085434  -0.013540  -0.092107  -0.008718
    19  C    0.004128   0.141602   0.026101  -0.348604   0.275141   0.088514
    20  C   -0.028464  -0.104707   0.090308   0.269868  -0.514215  -0.223141
    21  H   -0.000028   0.000073  -0.002447  -0.006815   0.002268   0.000282
    22  C    0.001074  -0.005517   0.014919   0.067449  -0.033889  -0.013002
    23  H    0.000181  -0.000153  -0.000499   0.006046  -0.000099   0.000317
    24  H   -0.000034   0.000009  -0.000093  -0.002555  -0.000136  -0.000026
    25  H    0.000005   0.000000   0.000118   0.002585  -0.001714  -0.000300
    26  C    0.018624  -0.065136   0.005147   0.002443   0.036113   0.071306
    27  H   -0.002941  -0.009405  -0.005704  -0.093295   0.063530   0.026370
    28  H    0.000240   0.000517   0.000356  -0.001007   0.003649   0.004266
    29  H    0.002121  -0.001165  -0.001024   0.066618  -0.028529  -0.023784
    30  C    0.006403   0.074624  -0.143807  -0.139813   0.251836   0.063365
    31  H    0.000227   0.002417   0.007930   0.003651   0.001615  -0.000151
    32  H   -0.000960  -0.016112  -0.056324   0.004699   0.025797   0.005679
    33  O    0.000767   0.001697   0.003983  -0.127592   0.086632   0.042967
    34  H   -0.001703   0.000068  -0.001322   0.046439  -0.076511  -0.021348
    35  H   -0.000106  -0.000265  -0.000874   0.025802  -0.023210  -0.004506
    36  O    0.000303  -0.000360   0.005314   0.008511   0.003538  -0.001853
    37  H    0.000023   0.000087   0.000132   0.003288   0.005786   0.000099
    38  H    0.000370  -0.000070   0.003269   0.022557   0.013917  -0.000227
               7          8          9         10         11         12
     1  C    0.294728   0.094360   0.015557   0.007146  -0.537060  -0.666829
     2  C   -0.026039   0.229146  -0.005721   0.022374  -2.171475  -0.172710
     3  C    0.034751  -0.016780   0.022910   0.000218  -3.797102  -3.484434
     4  C   -0.012773   0.029245   0.023279   0.024686   0.222818  -2.470411
     5  C    0.024399  -0.014093   0.255685  -0.021827  -0.775818  -0.327174
     6  C    0.001639   0.019103  -0.035895   0.295117  -0.348915   0.282925
     7  H    0.553356  -0.005163  -0.000169  -0.004562  -0.000581  -0.001350
     8  H   -0.005163   0.550495   0.000014  -0.000159  -0.005952  -0.037356
     9  H   -0.000169   0.000014   0.564236  -0.005193  -0.017458  -0.012420
    10  H   -0.004562  -0.000159  -0.005193   0.554566  -0.011170  -0.000203
    11  C   -0.000581  -0.005952  -0.017458  -0.011170  22.464153   3.580206
    12  C   -0.001350  -0.037356  -0.012420  -0.000203   3.580206  13.886238
    13  C   -0.001029  -0.005957   0.040035  -0.001252  -6.727858  -2.361948
    14  H    0.000000   0.000000  -0.000005   0.000000   0.016758   0.029216
    15  C    0.000482   0.017980  -0.001805  -0.000851  -5.228670  -1.791681
    16  H    0.000000  -0.000005   0.000000   0.000000   0.026498   0.101029
    17  O    0.000000   0.000038   0.012738   0.000240  -0.495778  -0.150562
    18  Cl   0.000292  -0.005542   0.000070   0.000078   0.025089  -0.239211
    19  C    0.000067  -0.000055  -0.014779  -0.000081  -1.948119  -0.133199
    20  C   -0.000003   0.000028  -0.000930   0.000187   2.157727   0.056195
    21  H    0.000000   0.000000   0.000000   0.000000  -0.017372   0.001414
    22  C    0.000000  -0.000005   0.000686   0.000026   0.082515   0.016135
    23  H    0.000000   0.000000   0.000093   0.000000  -0.008409   0.000141
    24  H    0.000000   0.000000   0.000001   0.000000  -0.000493   0.000062
    25  H    0.000000   0.000000   0.000001   0.000000   0.007704   0.000108
    26  C   -0.000157   0.000061   0.015048   0.000324  -0.207924  -0.033094
    27  H    0.000000   0.000000  -0.000618  -0.000004   0.078518   0.010453
    28  H    0.000000   0.000000   0.000030   0.000000  -0.022556  -0.001459
    29  H    0.000000   0.000000   0.001356  -0.000004  -0.008622  -0.000432
    30  C    0.000015   0.000084   0.000120  -0.000077  -0.200167   0.051170
    31  H    0.000000   0.000000   0.000000   0.000000  -0.047475  -0.013129
    32  H    0.000000   0.000000   0.000003   0.000000   0.048254   0.002049
    33  O    0.000000   0.000000   0.000085  -0.000001  -0.033082  -0.000731
    34  H    0.000000   0.000000   0.001441  -0.000002   0.021610   0.003738
    35  H    0.000000   0.000000   0.000046   0.000000  -0.008523   0.000466
    36  O    0.000000   0.000000   0.000107   0.000000  -0.105020   0.003137
    37  H    0.000000   0.000000  -0.000001   0.000000   0.028363  -0.001710
    38  H    0.000000   0.000000  -0.000069   0.000000   0.048748  -0.003960
              13         14         15         16         17         18
     1  C   -0.490635   0.001205  -0.280498   0.001574  -0.001354   0.053450
     2  C    1.971312  -0.000416   0.952436  -0.000048   0.134808  -0.045210
     3  C    0.745529   0.004952  -2.401252   0.059248   0.087070   0.085434
     4  C   -3.504225   0.036044   0.431590  -0.008709  -0.408373  -0.013540
     5  C   -2.268628   0.002480   2.015340  -0.003188  -0.025884  -0.092107
     6  C   -0.435318  -0.000179   0.312239   0.000696   0.064383  -0.008718
     7  H   -0.001029   0.000000   0.000482   0.000000   0.000000   0.000292
     8  H   -0.005957   0.000000   0.017980  -0.000005   0.000038  -0.005542
     9  H    0.040035  -0.000005  -0.001805   0.000000   0.012738   0.000070
    10  H   -0.001252   0.000000  -0.000851   0.000000   0.000240   0.000078
    11  C   -6.727858   0.016758  -5.228670   0.026498  -0.495778   0.025089
    12  C   -2.361948   0.029216  -1.791681   0.101029  -0.150562  -0.239211
    13  C   20.576765   0.207334  -2.327090  -0.025677   0.242256   0.029912
    14  H    0.207334   0.548267  -0.003042  -0.004515   0.005512   0.000673
    15  C   -2.327090  -0.003042  14.497508   0.160113   0.283074  -0.178181
    16  H   -0.025677  -0.004515   0.160113   0.535863  -0.000843   0.003238
    17  O    0.242256   0.005512   0.283074  -0.000843   8.850591   0.000741
    18  Cl   0.029912   0.000673  -0.178181   0.003238   0.000741  17.133519
    19  C    0.453039  -0.005391   1.098207  -0.003424   0.280171   0.002161
    20  C    0.101164  -0.027832  -1.608259   0.007088  -0.210542   0.009349
    21  H    0.011020   0.000345   0.017138  -0.000001  -0.004696   0.000000
    22  C   -0.071277   0.001706  -0.005974   0.000060  -0.087143   0.000824
    23  H   -0.000649   0.000002   0.001007   0.000000  -0.003151   0.000001
    24  H    0.000694   0.000000  -0.000256   0.000000   0.002725   0.000000
    25  H   -0.004256   0.000000  -0.000070   0.000000  -0.004354   0.000000
    26  C    0.031728  -0.006784   0.068591  -0.000116   0.035660  -0.000683
    27  H   -0.043191  -0.000008  -0.001345  -0.000001  -0.011789   0.000143
    28  H    0.005632   0.000000   0.000695   0.000000   0.005496  -0.000009
    29  H   -0.005548   0.000002  -0.000611   0.000000  -0.008996   0.000016
    30  C   -0.265456   0.035945   0.407143   0.000434   0.005628  -0.008652
    31  H    0.009628  -0.001482   0.022400   0.000132   0.003449   0.000557
    32  H   -0.105428   0.000754   0.075423  -0.000093  -0.000046   0.000909
    33  O    0.030674   0.000046  -0.001024   0.000000   0.005148   0.000012
    34  H    0.029417  -0.000012  -0.003797   0.000000   0.038262   0.000006
    35  H    0.000715   0.000001  -0.001157   0.000000   0.014075   0.000000
    36  O    0.034968  -0.001434   0.034431   0.000009   0.020467   0.000013
    37  H   -0.030781   0.000083   0.009654   0.000000  -0.005729   0.000002
    38  H   -0.075016   0.000556   0.012469  -0.000002   0.031954   0.000006
              19         20         21         22         23         24
     1  C    0.004128  -0.028464  -0.000028   0.001074   0.000181  -0.000034
     2  C    0.141602  -0.104707   0.000073  -0.005517  -0.000153   0.000009
     3  C    0.026101   0.090308  -0.002447   0.014919  -0.000499  -0.000093
     4  C   -0.348604   0.269868  -0.006815   0.067449   0.006046  -0.002555
     5  C    0.275141  -0.514215   0.002268  -0.033889  -0.000099  -0.000136
     6  C    0.088514  -0.223141   0.000282  -0.013002   0.000317  -0.000026
     7  H    0.000067  -0.000003   0.000000   0.000000   0.000000   0.000000
     8  H   -0.000055   0.000028   0.000000  -0.000005   0.000000   0.000000
     9  H   -0.014779  -0.000930   0.000000   0.000686   0.000093   0.000001
    10  H   -0.000081   0.000187   0.000000   0.000026   0.000000   0.000000
    11  C   -1.948119   2.157727  -0.017372   0.082515  -0.008409  -0.000493
    12  C   -0.133199   0.056195   0.001414   0.016135   0.000141   0.000062
    13  C    0.453039   0.101164   0.011020  -0.071277  -0.000649   0.000694
    14  H   -0.005391  -0.027832   0.000345   0.001706   0.000002   0.000000
    15  C    1.098207  -1.608259   0.017138  -0.005974   0.001007  -0.000256
    16  H   -0.003424   0.007088  -0.000001   0.000060   0.000000   0.000000
    17  O    0.280171  -0.210542  -0.004696  -0.087143  -0.003151   0.002725
    18  Cl   0.002161   0.009349   0.000000   0.000824   0.000001   0.000000
    19  C    9.100902  -2.567270   0.025168  -0.597078  -0.075020  -0.043163
    20  C   -2.567270   9.125532   0.296554   0.274655   0.021178  -0.003828
    21  H    0.025168   0.296554   0.553851  -0.028367   0.000214   0.000285
    22  C   -0.597078   0.274655  -0.028367   6.391904   0.474881   0.371884
    23  H   -0.075020   0.021178   0.000214   0.474881   0.493196  -0.025672
    24  H   -0.043163  -0.003828   0.000285   0.371884  -0.025672   0.531897
    25  H   -0.087511  -0.035000   0.003649   0.479755  -0.023960  -0.023898
    26  C   -0.289587  -0.359917   0.000369  -0.592840  -0.058714   0.020221
    27  H   -0.095454   0.005595  -0.000068   0.025684  -0.000021   0.000063
    28  H   -0.105955  -0.005105  -0.000080  -0.043413   0.000155   0.000820
    29  H   -0.065588   0.027115  -0.000122  -0.027620   0.002452  -0.000176
    30  C    0.304911  -0.516682   0.000847  -0.172365  -0.001126  -0.002509
    31  H    0.041336  -0.065708  -0.005014  -0.005464   0.000002   0.000004
    32  H    0.074261  -0.145614   0.004280  -0.005340  -0.000004   0.000005
    33  O   -0.020867  -0.012402   0.000010   0.014272   0.002590   0.000476
    34  H   -0.011616   0.012089  -0.000001  -0.000871   0.000065   0.000039
    35  H   -0.011408   0.004349   0.000001   0.004304   0.000058  -0.000014
    36  O    0.011596  -0.030370   0.000764  -0.009714  -0.000858   0.000426
    37  H    0.000787  -0.009718   0.000018   0.005366   0.000044  -0.000003
    38  H   -0.001170  -0.012869   0.000980   0.013859   0.000293  -0.000043
              25         26         27         28         29         30
     1  C    0.000005   0.018624  -0.002941   0.000240   0.002121   0.006403
     2  C    0.000000  -0.065136  -0.009405   0.000517  -0.001165   0.074624
     3  C    0.000118   0.005147  -0.005704   0.000356  -0.001024  -0.143807
     4  C    0.002585   0.002443  -0.093295  -0.001007   0.066618  -0.139813
     5  C   -0.001714   0.036113   0.063530   0.003649  -0.028529   0.251836
     6  C   -0.000300   0.071306   0.026370   0.004266  -0.023784   0.063365
     7  H    0.000000  -0.000157   0.000000   0.000000   0.000000   0.000015
     8  H    0.000000   0.000061   0.000000   0.000000   0.000000   0.000084
     9  H    0.000001   0.015048  -0.000618   0.000030   0.001356   0.000120
    10  H    0.000000   0.000324  -0.000004   0.000000  -0.000004  -0.000077
    11  C    0.007704  -0.207924   0.078518  -0.022556  -0.008622  -0.200167
    12  C    0.000108  -0.033094   0.010453  -0.001459  -0.000432   0.051170
    13  C   -0.004256   0.031728  -0.043191   0.005632  -0.005548  -0.265456
    14  H    0.000000  -0.006784  -0.000008   0.000000   0.000002   0.035945
    15  C   -0.000070   0.068591  -0.001345   0.000695  -0.000611   0.407143
    16  H    0.000000  -0.000116  -0.000001   0.000000   0.000000   0.000434
    17  O   -0.004354   0.035660  -0.011789   0.005496  -0.008996   0.005628
    18  Cl   0.000000  -0.000683   0.000143  -0.000009   0.000016  -0.008652
    19  C   -0.087511  -0.289587  -0.095454  -0.105955  -0.065588   0.304911
    20  C   -0.035000  -0.359917   0.005595  -0.005105   0.027115  -0.516682
    21  H    0.003649   0.000369  -0.000068  -0.000080  -0.000122   0.000847
    22  C    0.479755  -0.592840   0.025684  -0.043413  -0.027620  -0.172365
    23  H   -0.023960  -0.058714  -0.000021   0.000155   0.002452  -0.001126
    24  H   -0.023898   0.020221   0.000063   0.000820  -0.000176  -0.002509
    25  H    0.508237   0.013288  -0.000149  -0.000046   0.000126  -0.011530
    26  C    0.013288   6.807543   0.441016   0.498756   0.427514  -0.254000
    27  H   -0.000149   0.441016   0.537901  -0.023969  -0.027964  -0.035657
    28  H   -0.000046   0.498756  -0.023969   0.522385  -0.026247   0.005070
    29  H    0.000126   0.427514  -0.027964  -0.026247   0.521518   0.003006
    30  C   -0.011530  -0.254000  -0.035657   0.005070   0.003006   6.073707
    31  H   -0.000009   0.016106   0.000029   0.000001  -0.000003   0.371929
    32  H   -0.000003   0.004705   0.001149   0.000110  -0.000111   0.415954
    33  O    0.000400   0.006029  -0.000054   0.000017  -0.000275  -0.001844
    34  H   -0.000003  -0.003632  -0.000045   0.000005   0.000322   0.000054
    35  H   -0.000057   0.002032  -0.000001   0.000000   0.000028  -0.000103
    36  O   -0.003678   0.006597  -0.000052   0.000036  -0.000064   0.003486
    37  H    0.000091  -0.001689   0.000000   0.000000   0.000000   0.003403
    38  H    0.000794  -0.013264   0.000006  -0.000011   0.000014   0.006772
              31         32         33         34         35         36
     1  C    0.000227  -0.000960   0.000767  -0.001703  -0.000106   0.000303
     2  C    0.002417  -0.016112   0.001697   0.000068  -0.000265  -0.000360
     3  C    0.007930  -0.056324   0.003983  -0.001322  -0.000874   0.005314
     4  C    0.003651   0.004699  -0.127592   0.046439   0.025802   0.008511
     5  C    0.001615   0.025797   0.086632  -0.076511  -0.023210   0.003538
     6  C   -0.000151   0.005679   0.042967  -0.021348  -0.004506  -0.001853
     7  H    0.000000   0.000000   0.000000   0.000000   0.000000   0.000000
     8  H    0.000000   0.000000   0.000000   0.000000   0.000000   0.000000
     9  H    0.000000   0.000003   0.000085   0.001441   0.000046   0.000107
    10  H    0.000000   0.000000  -0.000001  -0.000002   0.000000   0.000000
    11  C   -0.047475   0.048254  -0.033082   0.021610  -0.008523  -0.105020
    12  C   -0.013129   0.002049  -0.000731   0.003738   0.000466   0.003137
    13  C    0.009628  -0.105428   0.030674   0.029417   0.000715   0.034968
    14  H   -0.001482   0.000754   0.000046  -0.000012   0.000001  -0.001434
    15  C    0.022400   0.075423  -0.001024  -0.003797  -0.001157   0.034431
    16  H    0.000132  -0.000093   0.000000   0.000000   0.000000   0.000009
    17  O    0.003449  -0.000046   0.005148   0.038262   0.014075   0.020467
    18  Cl   0.000557   0.000909   0.000012   0.000006   0.000000   0.000013
    19  C    0.041336   0.074261  -0.020867  -0.011616  -0.011408   0.011596
    20  C   -0.065708  -0.145614  -0.012402   0.012089   0.004349  -0.030370
    21  H   -0.005014   0.004280   0.000010  -0.000001   0.000001   0.000764
    22  C   -0.005464  -0.005340   0.014272  -0.000871   0.004304  -0.009714
    23  H    0.000002  -0.000004   0.002590   0.000065   0.000058  -0.000858
    24  H    0.000004   0.000005   0.000476   0.000039  -0.000014   0.000426
    25  H   -0.000009  -0.000003   0.000400  -0.000003  -0.000057  -0.003678
    26  C    0.016106   0.004705   0.006029  -0.003632   0.002032   0.006597
    27  H    0.000029   0.001149  -0.000054  -0.000045  -0.000001  -0.000052
    28  H    0.000001   0.000110   0.000017   0.000005   0.000000   0.000036
    29  H   -0.000003  -0.000111  -0.000275   0.000322   0.000028  -0.000064
    30  C    0.371929   0.415954  -0.001844   0.000054  -0.000103   0.003486
    31  H    0.512064  -0.028787   0.000001   0.000000   0.000000   0.000031
    32  H   -0.028787   0.521696   0.000000  -0.000001   0.000000  -0.000004
    33  O    0.000001   0.000000   8.245356   0.238744   0.273946  -0.003096
    34  H    0.000000  -0.000001   0.238744   0.318832  -0.022195   0.001200
    35  H    0.000000   0.000000   0.273946  -0.022195   0.352187   0.016291
    36  O    0.000031  -0.000004  -0.003096   0.001200   0.016291   8.396572
    37  H    0.000000   0.000000  -0.000393  -0.000036  -0.001302   0.251203
    38  H   -0.000011   0.000014  -0.003051  -0.002096  -0.004786   0.177437
              37         38
     1  C    0.000023   0.000370
     2  C    0.000087  -0.000070
     3  C    0.000132   0.003269
     4  C    0.003288   0.022557
     5  C    0.005786   0.013917
     6  C    0.000099  -0.000227
     7  H    0.000000   0.000000
     8  H    0.000000   0.000000
     9  H   -0.000001  -0.000069
    10  H    0.000000   0.000000
    11  C    0.028363   0.048748
    12  C   -0.001710  -0.003960
    13  C   -0.030781  -0.075016
    14  H    0.000083   0.000556
    15  C    0.009654   0.012469
    16  H    0.000000  -0.000002
    17  O   -0.005729   0.031954
    18  Cl   0.000002   0.000006
    19  C    0.000787  -0.001170
    20  C   -0.009718  -0.012869
    21  H    0.000018   0.000980
    22  C    0.005366   0.013859
    23  H    0.000044   0.000293
    24  H   -0.000003  -0.000043
    25  H    0.000091   0.000794
    26  C   -0.001689  -0.013264
    27  H    0.000000   0.000006
    28  H    0.000000  -0.000011
    29  H    0.000000   0.000014
    30  C    0.003403   0.006772
    31  H    0.000000  -0.000011
    32  H    0.000000   0.000014
    33  O   -0.000393  -0.003051
    34  H   -0.000036  -0.002096
    35  H   -0.001302  -0.004786
    36  O    0.251203   0.177437
    37  H    0.377428  -0.008286
    38  H   -0.008286   0.326404
 Mulliken charges:
               1
     1  C   -0.477521
     2  C   -0.491616
     3  C    0.838871
     4  C    0.386421
     5  C   -0.274657
     6  C   -0.498243
     7  H    0.142099
     8  H    0.150512
     9  H    0.141524
    10  H    0.140422
    11  C   -0.083362
    12  C   -0.120680
    13  C    0.229399
    14  H    0.159223
    15  C   -0.582358
    16  H    0.150641
    17  O   -0.705249
    18  Cl   0.245359
    19  C    0.497247
    20  C    0.023596
    21  H    0.145483
    22  C   -0.542078
    23  H    0.195418
    24  H    0.173288
    25  H    0.179676
    26  C   -0.641683
    27  H    0.161276
    28  H    0.181621
    29  H    0.174679
    30  C   -0.332114
    31  H    0.173722
    32  H    0.173086
    33  O   -0.749442
    34  H    0.432860
    35  H    0.384207
    36  O   -0.819937
    37  H    0.373790
    38  H    0.464515
 Sum of Mulliken charges =   0.00000
 Mulliken charges with hydrogens summed into heavy atoms:
               1
     1  C   -0.335421
     2  C   -0.341104
     3  C    0.838871
     4  C    0.386421
     5  C   -0.133133
     6  C   -0.357821
    11  C   -0.083362
    12  C   -0.120680
    13  C    0.388622
    15  C   -0.431717
    17  O   -0.705249
    18  Cl   0.245359
    19  C    0.497247
    20  C    0.169079
    22  C    0.006305
    26  C   -0.124107
    30  C    0.014694
    33  O    0.067626
    36  O    0.018369
 APT charges:
               1
     1  C   -0.004528
     2  C   -0.110859
     3  C   -0.022167
     4  C   -0.044155
     5  C   -0.079424
     6  C   -0.007804
     7  H    0.032732
     8  H    0.066550
     9  H    0.068749
    10  H    0.037234
    11  C    0.426868
    12  C    0.443164
    13  C   -0.229728
    14  H    0.050811
    15  C   -0.016164
    16  H    0.055830
    17  O   -0.905886
    18  Cl  -0.469294
    19  C    0.702379
    20  C   -0.498488
    21  H    0.048225
    22  C   -0.176488
    23  H    0.072071
    24  H   -0.016999
    25  H    0.028892
    26  C   -0.116991
    27  H    0.027050
    28  H    0.024912
    29  H    0.048266
    30  C    0.450840
    31  H    0.054167
    32  H    0.008179
    33  O   -0.746521
    34  H    0.439766
    35  H    0.342113
    36  O   -0.788002
    37  H    0.289341
    38  H    0.515361
 Sum of APT charges =   0.00000
 APT charges with hydrogens summed into heavy atoms:
               1
     1  C    0.028204
     2  C   -0.044309
     3  C   -0.022167
     4  C   -0.044155
     5  C   -0.010674
     6  C    0.029429
    11  C    0.426868
    12  C    0.443164
    13  C   -0.178918
    15  C    0.039665
    17  O   -0.905886
    18  Cl  -0.469294
    19  C    0.702379
    20  C   -0.450263
    22  C   -0.092525
    26  C   -0.016763
    30  C    0.513186
    33  O    0.035358
    36  O    0.016700
 Electronic spatial extent (au):  <R**2>=           6017.6080
 Charge=              0.0000 electrons
 Dipole moment (field-independent basis, Debye):
    X=             -1.1610    Y=             -2.7068    Z=              4.3827  Tot=              5.2804
 Quadrupole moment (field-independent basis, Debye-Ang):
   XX=           -137.9197   YY=           -117.1599   ZZ=           -120.2691
   XY=            -12.5118   XZ=             10.6359   YZ=              8.6370
 Traceless Quadrupole moment (field-independent basis, Debye-Ang):
   XX=            -12.8034   YY=              7.9563   ZZ=              4.8472
   XY=            -12.5118   XZ=             10.6359   YZ=              8.6370
 Octapole moment (field-independent basis, Debye-Ang**2):
  XXX=            -10.9128  YYY=            -20.0565  ZZZ=            -20.3660  XYY=            -30.0165
  XXY=              1.2230  XXZ=             47.3740  XZZ=             23.0567  YZZ=            -24.7096
  YYZ=             14.6356  XYZ=             17.9825
 Hexadecapole moment (field-independent basis, Debye-Ang**3):
 XXXX=          -5112.6498 YYYY=          -1892.6819 ZZZZ=           -968.8329 XXXY=           -111.7722
 XXXZ=             94.6962 YYYX=            -81.5908 YYYZ=             66.5428 ZZZX=            -71.4622
 ZZZY=             75.4611 XXYY=          -1254.8624 XXZZ=          -1007.3351 YYZZ=           -554.3017
 XXYZ=             68.4296 YYXZ=             26.9881 ZZXY=            -25.8017
 N-N= 1.600564266045D+03 E-N=-6.174897817874D+03  KE= 1.259786917401D+03
  Exact polarizability: 385.329 -12.980 295.154  39.591   2.776 205.303
 Approx polarizability: 512.787  -5.952 407.775  58.587   4.919 285.524
 D2PCM: C-PCM CHGder 2nd derivatives, FixD1E=F FixD2E=F DoIter=F DoCFld=F I1PDM=0
 Calling FoFJK, ICntrl=    100127 FMM=F ISym2X=0 I1Cent= 0 IOpClX= 0 NMat=1 NMatS=1 NMatT=0.
 Full mass-weighted force constant matrix:
 Low frequencies --- -118.1748  -10.5685   -0.0069   -0.0035   -0.0013    5.5517
 Low frequencies ---    9.9259   34.3186   44.3358
 ******    1 imaginary frequencies (negative Signs) ****** 
 Diagonal vibrational polarizability:
      173.4076853     155.4034992     134.1288552
 Harmonic frequencies (cm**-1), IR intensities (KM/Mole), Raman scattering
 activities (A**4/AMU), depolarization ratios for plane and unpolarized
 incident light, reduced masses (AMU), force constants (mDyne/A),
 and normal coordinates:
                      1                      2                      3
                      A                      A                      A
 Frequencies --   -118.1715                34.2633                44.3105
 Red. masses --      5.8473                 6.6225                 4.3378
 Frc consts  --      0.0481                 0.0046                 0.0050
 IR Inten    --     25.6175                 2.4394                 1.3354
  Atom  AN      X      Y      Z        X      Y      Z        X      Y      Z
     1   6     0.02   0.00  -0.01    -0.05  -0.03   0.16     0.05   0.02   0.00
     2   6     0.02   0.02  -0.02    -0.02  -0.03   0.09     0.03   0.02   0.03
     3   6     0.02   0.00  -0.02    -0.01   0.00   0.03     0.01   0.02   0.00
     4   6     0.03  -0.01   0.02    -0.02   0.03   0.04     0.01   0.01  -0.05
     5   6     0.03  -0.01   0.04    -0.04   0.03   0.11     0.03   0.01  -0.08
     6   6     0.04  -0.01   0.02    -0.05   0.00   0.17     0.04   0.02  -0.06
     7   1     0.03   0.01  -0.01    -0.06  -0.06   0.22     0.06   0.03   0.02
     8   1     0.01   0.02  -0.05    -0.02  -0.05   0.08     0.03   0.03   0.08
     9   1     0.04  -0.01   0.06    -0.04   0.05   0.11     0.02   0.00  -0.12
    10   1     0.04  -0.01   0.02    -0.07   0.00   0.22     0.05   0.02  -0.09
    11   6     0.01  -0.02   0.07     0.00   0.07   0.00     0.00   0.00  -0.06
    12   6     0.00   0.03  -0.06     0.02   0.01  -0.04     0.00   0.02   0.02
    13   6    -0.02   0.04  -0.14     0.03   0.07  -0.05    -0.02   0.01  -0.09
    14   1     0.02   0.00   0.02     0.04   0.09  -0.07    -0.04   0.00  -0.12
    15   6     0.00   0.04  -0.13     0.03   0.04  -0.08    -0.02   0.02  -0.04
    16   1     0.00   0.04  -0.17     0.05   0.04  -0.13    -0.03   0.02  -0.03
    17   8     0.09  -0.06   0.26    -0.01   0.10   0.00     0.00  -0.02  -0.04
    18  17     0.01   0.01  -0.02     0.02  -0.03  -0.10     0.01   0.02   0.14
    19   6    -0.11   0.07  -0.17    -0.01   0.07   0.01    -0.09   0.00  -0.02
    20   6     0.01  -0.05   0.09     0.03   0.06  -0.04     0.02  -0.04  -0.09
    21   1     0.06  -0.03   0.13     0.05   0.09  -0.06     0.09   0.04  -0.13
    22   6    -0.12   0.07  -0.19    -0.01   0.13   0.02    -0.09   0.14   0.06
    23   1    -0.06   0.17   0.00    -0.05   0.12  -0.01    -0.14   0.18   0.12
    24   1    -0.11  -0.17  -0.15    -0.03   0.18   0.02    -0.15   0.13   0.10
    25   1    -0.18   0.14  -0.34     0.03   0.14   0.04    -0.01   0.21   0.03
    26   6    -0.06   0.01  -0.04    -0.04   0.03   0.04    -0.21  -0.10   0.02
    27   1    -0.07   0.02  -0.02    -0.03   0.00   0.04    -0.20  -0.17  -0.07
    28   1    -0.03  -0.13  -0.05    -0.04   0.01   0.04    -0.29  -0.17   0.04
    29   1    -0.06   0.04   0.05    -0.06   0.05   0.07    -0.24  -0.05   0.12
    30   6     0.13  -0.12   0.33     0.04   0.02  -0.06     0.05  -0.16  -0.12
    31   1     0.15  -0.13   0.35     0.06   0.02  -0.09     0.13  -0.17  -0.19
    32   1     0.08  -0.08   0.19     0.01  -0.01  -0.04     0.00  -0.24  -0.09
    33   8    -0.06   0.00  -0.03     0.14  -0.20  -0.29    -0.01   0.02  -0.02
    34   1    -0.01  -0.04   0.04     0.09  -0.02  -0.22    -0.01  -0.02  -0.04
    35   1    -0.06   0.01  -0.07     0.05  -0.32  -0.11     0.06   0.03   0.06
    36   8    -0.04   0.01  -0.03    -0.09  -0.22   0.18     0.15   0.00   0.13
    37   1    -0.09  -0.03   0.00    -0.10  -0.25   0.19     0.24  -0.06   0.11
    38   1    -0.02   0.00   0.02    -0.06  -0.07   0.12     0.08  -0.02   0.04
                      4                      5                      6
                      A                      A                      A
 Frequencies --     59.2478                62.0074                72.4760
 Red. masses --      7.4265                 4.4955                 7.4534
 Frc consts  --      0.0154                 0.0102                 0.0231
 IR Inten    --      1.5927                 0.6033                 9.8519
  Atom  AN      X      Y      Z        X      Y      Z        X      Y      Z
     1   6     0.04   0.02  -0.02     0.08  -0.05   0.19    -0.03   0.00   0.00
     2   6     0.02   0.03  -0.04     0.05  -0.04   0.14    -0.02   0.00   0.00
     3   6     0.00   0.01   0.01     0.02  -0.03   0.01    -0.01   0.01  -0.02
     4   6     0.01  -0.02   0.05     0.02  -0.04  -0.05    -0.02   0.03  -0.03
     5   6     0.04  -0.03   0.06     0.04  -0.05  -0.03    -0.03   0.03  -0.03
     6   6     0.06  -0.01   0.03     0.07  -0.05   0.09    -0.04   0.02  -0.02
     7   1     0.05   0.04  -0.05     0.11  -0.06   0.29    -0.04  -0.01   0.01
     8   1     0.01   0.06  -0.08     0.06  -0.03   0.20    -0.02  -0.01   0.01
     9   1     0.05  -0.06   0.11     0.03  -0.05  -0.09    -0.04   0.05  -0.04
    10   1     0.08  -0.02   0.05     0.09  -0.06   0.12    -0.05   0.02  -0.02
    11   6     0.00  -0.04   0.06     0.00  -0.05  -0.09    -0.02   0.04  -0.05
    12   6    -0.02   0.01   0.01    -0.01  -0.02  -0.03     0.00   0.01  -0.02
    13   6    -0.01  -0.05   0.13    -0.03  -0.04  -0.08    -0.01   0.04  -0.08
    14   1    -0.03  -0.06   0.10    -0.03  -0.06  -0.04     0.00   0.05  -0.07
    15   6    -0.03  -0.02   0.10    -0.03  -0.02  -0.08     0.00   0.02  -0.05
    16   1    -0.04  -0.02   0.10    -0.05  -0.01  -0.09     0.01   0.02  -0.06
    17   8    -0.01  -0.05  -0.01     0.00  -0.07  -0.08    -0.01   0.04  -0.05
    18  17    -0.05   0.08  -0.14    -0.01   0.01  -0.01     0.01  -0.02   0.02
    19   6     0.09  -0.03   0.05    -0.06   0.06  -0.04     0.07   0.03  -0.11
    20   6     0.10  -0.02  -0.02    -0.12   0.07   0.07     0.08   0.02  -0.09
    21   1     0.10   0.00  -0.07    -0.13   0.01   0.16     0.07   0.03  -0.10
    22   6     0.06   0.04   0.00    -0.04  -0.04  -0.03     0.08   0.01  -0.10
    23   1    -0.04  -0.02  -0.11     0.03  -0.06  -0.05     0.13   0.08   0.02
    24   1     0.07   0.21  -0.03    -0.04  -0.05  -0.02     0.09  -0.15  -0.08
    25   1     0.12   0.02   0.08    -0.08  -0.08   0.00     0.02   0.05  -0.21
    26   6     0.07  -0.06   0.07    -0.01   0.15  -0.12     0.09   0.03  -0.10
    27   1     0.07  -0.07   0.05    -0.01   0.17  -0.06     0.09   0.03  -0.06
    28   1     0.05  -0.08   0.07     0.05   0.25  -0.13     0.13   0.04  -0.11
    29   1     0.06  -0.05   0.10     0.00   0.10  -0.23     0.07   0.03  -0.12
    30   6     0.10  -0.05  -0.02    -0.13   0.15   0.06     0.10   0.01  -0.03
    31   1     0.11  -0.05  -0.03    -0.18   0.15   0.13     0.09   0.01  -0.02
    32   1     0.11  -0.08   0.07    -0.13   0.22  -0.05     0.10   0.02  -0.02
    33   8    -0.44   0.11  -0.20    -0.06   0.03   0.01    -0.10   0.14   0.35
    34   1    -0.30  -0.07  -0.10    -0.04  -0.05  -0.03    -0.06  -0.09   0.22
    35   1    -0.24   0.22  -0.17     0.02   0.07   0.02     0.08   0.31   0.21
    36   8     0.11  -0.04   0.14     0.19   0.01   0.07    -0.12  -0.38   0.20
    37   1     0.15  -0.14   0.16     0.28  -0.09   0.07    -0.07  -0.24   0.15
    38   1     0.08  -0.05   0.09     0.11  -0.04  -0.01    -0.08  -0.11   0.08
                      7                      8                      9
                      A                      A                      A
 Frequencies --     81.0426                85.7162               128.9457
 Red. masses --      6.5390                 5.2327                 4.4517
 Frc consts  --      0.0253                 0.0227                 0.0436
 IR Inten    --      4.3076                 4.7584                 0.4647
  Atom  AN      X      Y      Z        X      Y      Z        X      Y      Z
     1   6     0.05   0.00   0.00     0.09  -0.02   0.09    -0.02  -0.01   0.09
     2   6     0.07  -0.01   0.00     0.06  -0.01   0.08     0.02  -0.04   0.25
     3   6     0.08   0.01  -0.02     0.02  -0.02   0.03     0.02  -0.01   0.13
     4   6     0.07   0.03  -0.03     0.02  -0.05  -0.02     0.00   0.04  -0.01
     5   6     0.05   0.04  -0.03     0.06  -0.06  -0.04    -0.05   0.08  -0.22
     6   6     0.04   0.02  -0.02     0.09  -0.04   0.01    -0.07   0.06  -0.21
     7   1     0.04  -0.02   0.02     0.12  -0.01   0.14    -0.02  -0.03   0.18
     8   1     0.07  -0.03   0.02     0.06   0.01   0.13     0.05  -0.09   0.45
     9   1     0.05   0.06  -0.04     0.06  -0.08  -0.10    -0.08   0.12  -0.40
    10   1     0.03   0.03  -0.02     0.12  -0.05   0.00    -0.11   0.09  -0.40
    11   6     0.08   0.05  -0.02     0.00  -0.07  -0.02     0.01   0.04   0.04
    12   6     0.10   0.00  -0.03    -0.01  -0.02   0.02     0.03   0.00   0.09
    13   6     0.10   0.04  -0.06    -0.01  -0.08   0.07     0.03   0.02   0.08
    14   1     0.11   0.06  -0.08    -0.03  -0.10   0.06     0.04   0.03   0.08
    15   6     0.10   0.02  -0.08    -0.02  -0.05   0.07     0.04   0.01   0.07
    16   1     0.12   0.02  -0.10    -0.05  -0.04   0.08     0.04   0.02   0.02
    17   8     0.08   0.04   0.05    -0.01  -0.08  -0.07     0.02   0.03   0.05
    18  17     0.13  -0.05   0.06    -0.04   0.05  -0.10     0.01   0.01  -0.11
    19   6    -0.09  -0.03   0.11    -0.02   0.11   0.06    -0.02  -0.06  -0.03
    20   6    -0.14  -0.01   0.07     0.08   0.09   0.01     0.00  -0.07   0.02
    21   1    -0.14  -0.04   0.12     0.13   0.14   0.00     0.00  -0.07   0.03
    22   6    -0.08  -0.07   0.13    -0.03   0.23   0.09    -0.01  -0.08  -0.02
    23   1    -0.07  -0.11   0.07    -0.09   0.24   0.10     0.02  -0.06   0.02
    24   1    -0.08  -0.01   0.13    -0.06   0.26   0.10     0.00  -0.14  -0.01
    25   1    -0.07  -0.11   0.19     0.04   0.27   0.09    -0.03  -0.07  -0.05
    26   6    -0.08  -0.01   0.09    -0.13   0.06   0.03    -0.03  -0.04  -0.06
    27   1    -0.08   0.01   0.08    -0.12  -0.02  -0.02    -0.03  -0.07  -0.05
    28   1    -0.09   0.00   0.09    -0.18   0.08   0.04    -0.02   0.02  -0.06
    29   1    -0.06  -0.02   0.08    -0.19   0.08   0.04    -0.06  -0.06  -0.12
    30   6    -0.19   0.05  -0.07     0.10  -0.01   0.00     0.00  -0.07   0.03
    31   1    -0.22   0.06  -0.10     0.18  -0.04  -0.01     0.00  -0.07   0.04
    32   1    -0.20   0.07  -0.13     0.05  -0.08   0.03     0.00  -0.07   0.03
    33   8    -0.23   0.11  -0.09     0.01  -0.02   0.13     0.02   0.04  -0.03
    34   1    -0.11  -0.05   0.01     0.00  -0.08   0.06     0.04   0.04   0.01
    35   1    -0.12   0.21  -0.18     0.02   0.03   0.03     0.02   0.04  -0.02
    36   8    -0.18  -0.16  -0.13    -0.13  -0.08  -0.23    -0.02   0.02   0.05
    37   1    -0.35   0.01  -0.12    -0.22   0.06  -0.24    -0.03   0.01   0.05
    38   1    -0.04  -0.02  -0.01    -0.07  -0.07  -0.13    -0.02   0.04   0.04
                     10                     11                     12
                      A                      A                      A
 Frequencies --    151.0550               161.2648               164.7588
 Red. masses --      3.4584                 2.6939                 1.7569
 Frc consts  --      0.0465                 0.0413                 0.0281
 IR Inten    --      8.4324                 4.0141                 1.8934
  Atom  AN      X      Y      Z        X      Y      Z        X      Y      Z
     1   6     0.02   0.00  -0.05    -0.05   0.02  -0.02     0.04  -0.01  -0.01
     2   6     0.01   0.01  -0.06    -0.02   0.00   0.00     0.02   0.00   0.01
     3   6     0.02  -0.01   0.02     0.01   0.02   0.04     0.00  -0.02   0.00
     4   6     0.02  -0.02   0.06     0.01   0.04   0.05     0.00  -0.03   0.00
     5   6     0.03  -0.02   0.09    -0.03   0.05   0.04     0.03  -0.04  -0.02
     6   6     0.04  -0.02   0.05    -0.05   0.04   0.00     0.04  -0.02  -0.03
     7   1     0.01   0.02  -0.11    -0.07   0.01  -0.06     0.05   0.01  -0.01
     8   1     0.00   0.02  -0.13    -0.01  -0.02  -0.02     0.02   0.01   0.02
     9   1     0.04  -0.04   0.13    -0.03   0.08   0.04     0.02  -0.05  -0.05
    10   1     0.04  -0.02   0.09    -0.08   0.04  -0.02     0.05  -0.02  -0.06
    11   6     0.02  -0.01   0.04     0.01   0.04   0.04    -0.01  -0.03   0.00
    12   6     0.02  -0.02   0.07     0.02   0.01   0.03    -0.01  -0.01  -0.02
    13   6     0.03  -0.03   0.14     0.02   0.04   0.02    -0.01  -0.02  -0.05
    14   1     0.02  -0.03   0.10     0.02   0.06  -0.02    -0.02  -0.02  -0.07
    15   6     0.03  -0.04   0.15     0.02   0.02   0.02    -0.02  -0.01  -0.06
    16   1     0.03  -0.05   0.20     0.03   0.03   0.00    -0.03   0.00  -0.09
    17   8     0.01   0.00  -0.02     0.02   0.01   0.03    -0.01  -0.01   0.03
    18  17     0.01   0.00  -0.03     0.03   0.00  -0.01    -0.01   0.01   0.01
    19   6    -0.10   0.00  -0.07    -0.03   0.01  -0.02     0.02   0.01   0.03
    20   6    -0.07   0.00  -0.04    -0.01   0.01  -0.02     0.02   0.01   0.01
    21   1    -0.08   0.00  -0.06     0.01   0.02  -0.02     0.04   0.02   0.02
    22   6    -0.11   0.01  -0.13    -0.02   0.01  -0.01     0.02   0.01   0.03
    23   1    -0.08   0.15   0.10     0.03   0.11   0.16     0.04   0.07   0.14
    24   1    -0.02  -0.27  -0.14     0.01  -0.20   0.01     0.05  -0.13   0.03
    25   1    -0.22   0.12  -0.36    -0.08   0.09  -0.16    -0.03   0.06  -0.08
    26   6    -0.07  -0.01  -0.03    -0.02   0.02  -0.03     0.04   0.03   0.02
    27   1    -0.06  -0.13   0.21     0.00  -0.17   0.33     0.05  -0.19   0.45
    28   1     0.16   0.13  -0.10     0.32   0.30  -0.12     0.46   0.35  -0.09
    29   1    -0.26  -0.02  -0.18    -0.31  -0.01  -0.30    -0.30  -0.01  -0.31
    30   6    -0.09  -0.01  -0.06    -0.01  -0.02  -0.07     0.01  -0.01  -0.05
    31   1    -0.07  -0.01  -0.04     0.01  -0.02  -0.09     0.04  -0.02  -0.08
    32   1    -0.08  -0.03  -0.02    -0.04  -0.05  -0.06    -0.02  -0.03  -0.07
    33   8     0.12   0.18  -0.05    -0.11  -0.18   0.07     0.00   0.00  -0.02
    34   1     0.11   0.15  -0.09    -0.08  -0.22   0.10    -0.01   0.05   0.00
    35   1     0.18   0.19   0.01    -0.07  -0.16   0.07    -0.03  -0.04   0.05
    36   8     0.01  -0.07   0.03     0.14  -0.04  -0.10    -0.11   0.09   0.09
    37   1     0.05  -0.01  -0.01     0.17  -0.03  -0.12    -0.11   0.11   0.08
    38   1     0.01   0.00  -0.03     0.11  -0.11  -0.11    -0.12   0.09   0.09
                     13                     14                     15
                      A                      A                      A
 Frequencies --    173.5828               180.9184               195.7511
 Red. masses --      2.3574                 3.7659                 1.7755
 Frc consts  --      0.0419                 0.0726                 0.0401
 IR Inten    --      2.1658                17.5408                18.0356
  Atom  AN      X      Y      Z        X      Y      Z        X      Y      Z
     1   6     0.01  -0.01  -0.01    -0.07  -0.01   0.03    -0.01   0.00  -0.07
[...]
 0.00031680,0.00051076,-0.00010622,-0.00000373,0.00003100,-0.00034708,-
 0.00012302,-0.00039173,-0.00006919,0.00004888,0.00018289,0.00004770,0.
 00014822,-0.00015385,0.00018661,0.00010917,0.00006984,0.00105172,-0.00
 052206,0.00049706,-0.00002794,0.00001748,-0.00015304,-0.00004890,-0.00
 005725,-0.00009013,-0.32221378,0.11545939,0.16233279,0.34531992,0.0000
 2536,-0.00004334,0.00006123,0.00004773,-0.00005588,-0.00001362,0.00012
 460,-0.00041548,-0.00002056,-0.00102110,-0.00066062,0.00039844,-0.0010
 4965,0.00064495,-0.00008889,0.00009955,-0.00036704,-0.00001262,0.00002
 486,-0.00003489,0.00000034,-0.00003743,-0.00002622,0.00000315,-0.00061
 655,-0.00013768,0.00069026,-0.00005158,-0.00007810,0.00002019,0.008719
 83,0.00023672,0.00080257,0.00013277,0.00009315,-0.00002305,-0.00144176
 ,0.00162057,0.00048135,-0.00001001,-0.00007904,0.00000201,0.00026246,0
 .00011487,-0.00026779,-0.00013159,0.00005521,0.00001002,-0.00796426,-0
 .00162683,0.00112517,-0.00032809,0.00004343,0.00005270,-0.00093025,0.0
 0027420,-0.00172609,0.00004715,-0.00046508,0.00026375,0.00000723,-0.00
 001496,-0.00005428,0.00021617,-0.00042239,0.00019032,-0.00040271,0.000
 42076,-0.00033724,0.00014907,0.00008785,0.00012124,-0.00008674,-0.0001
 1437,-0.00009691,0.00012906,0.00021747,0.00041363,-0.00001517,-0.00004
 634,-0.00006351,-0.00006393,-0.00017276,0.00010894,-0.00001903,-0.0000
 7274,-0.00000203,-0.00054484,0.00053965,-0.00030307,0.00000456,-0.0000
 0067,0.00015651,0.00000992,0.00003837,0.00004197,0.16474463,-0.1155013
 9,-0.08181093,-0.12469243,0.10970168,-0.00005316,-0.00011567,0.0000415
 1,-0.00008789,-0.00003231,-0.00001374,-0.00005117,-0.00002844,0.000059
 52,-0.00060123,-0.00016708,0.00024782,0.00037065,-0.00027057,-0.000195
 09,-0.00030802,0.00008359,-0.00000347,-0.00006247,-0.00001195,0.000017
 97,-0.00003975,-0.00000922,0.00001136,0.00096807,0.00088732,-0.0000900
 7,-0.00000448,-0.00005981,0.00003375,0.00448374,0.00174155,-0.00035758
 ,0.00020688,-0.00011387,-0.00001352,-0.00146596,0.00054356,0.00026181,
 0.00002308,-0.00000457,0.00005255,0.00012288,0.00029715,-0.00012589,-0
 .00013886,0.00006386,0.00000748,-0.00407285,0.00029985,-0.00250264,-0.
 00033880,0.00009958,0.00002951,-0.00000114,-0.00114184,-0.00122891,-0.
 00044577,0.00023489,0.00006686,0.00001673,0.00002268,-0.00001028,0.000
 23156,-0.00052261,-0.00008892,-0.00178300,-0.00031192,-0.00110124,0.00
 007058,0.00028526,0.00022686,0.00002923,0.00022598,0.00015432,0.000180
 48,-0.00013466,0.00005203,-0.00002269,0.00004260,-0.00001697,-0.000032
 99,0.00009951,0.00013144,0.00000836,0.00027120,-0.00039665,0.00011718,
 0.00015952,-0.00008606,-0.00001567,0.00001313,0.00005371,0.00001192,-0
 .00001269,-0.00001925,0.15889568,-0.05521729,-0.09198903,-0.17117504,0
 .06087986,0.10150636,-0.00003271,0.00001885,-0.00001276,0.00000943,-0.
 00001631,-0.00000076,-0.00002166,0.00011088,-0.00000605,0.00027841,0.0
 0015714,0.00002133,0.00012436,-0.00013851,-0.00001756,0.00002935,0.000
 04245,-0.00000779,0.00000444,0.00000769,0.00000205,0.00000936,0.000003
 76,0.00000234,-0.00001130,0.00002229,-0.00004169,0.00000007,0.00000863
 ,0.00000395,-0.00132267,0.00040801,-0.00014704,-0.00006053,-0.00000889
 ,0.00000499,0.00011313,-0.00037128,-0.00015669,0.00000374,0.00003541,0
 .00002276,-0.00002830,0.00000032,0.00003002,0.00001396,-0.00000757,0.0
 0000222,0.00199055,-0.00022386,-0.00091173,0.00007158,-0.00001763,-0.0
 0001173,0.00030235,-0.00008888,0.00036740,-0.00013068,0.00015325,-0.00
 006455,0.00001445,0.00000067,0.00003053,-0.00031809,0.00006361,-0.0001
 7908,0.00035923,0.00006359,-0.00015080,-0.00003016,-0.00003426,-0.0000
 4586,0.00008775,-0.00010113,-0.00002493,-0.00009034,0.00000493,-0.0001
 0079,-0.00000648,-0.00000579,0.00002980,0.00001721,0.00002957,-0.00004
 236,0.00001106,0.00001336,0.00003236,0.00016627,-0.00009708,0.00008190
 ,-0.00000272,0.00000218,-0.00002621,-0.00000614,-0.00001114,-0.0000126
 8,-0.14045257,-0.15308674,0.08525920,-0.02138199,-0.03598571,0.0157898
 5,0.16330240,-0.00002529,0.00001968,0.00000285,0.00000833,-0.00003229,
 0.00001657,-0.00000762,-0.00000325,-0.00001183,-0.00011642,-0.00000412
 ,-0.00007980,-0.00018454,0.00006903,-0.00003583,0.00007071,-0.00005230
 ,-0.00000453,0.00000574,-0.00000394,0.00000070,-0.00000268,-0.00000253
 ,0.00000013,-0.00008268,-0.00008440,0.00010541,-0.00000559,-0.00001068
 ,0.00000570,0.00013145,-0.00033690,0.00004053,-0.00000064,-0.00001470,
 -0.00000127,0.00014404,0.00009964,0.00002082,0.00005599,-0.00007479,-0
 .00002152,0.00003880,-0.00008940,0.00005677,0.00001379,-0.00000137,-0.
 00000474,-0.00028531,-0.00162612,0.00011019,-0.00003930,-0.00000617,0.
 00000518,-0.00009296,0.00000456,-0.00007214,0.00010674,0.00007712,0.00
 002322,-0.00003016,-0.00007838,-0.00005014,0.00022120,0.00009152,-0.00
 017879,0.00005525,0.00032614,0.00018939,-0.00004939,-0.00006045,0.0000
 9325,-0.00016594,-0.00022778,-0.00026293,-0.00006276,0.00004092,0.0000
 2784,-0.00000823,-0.00002045,0.00000506,-0.00000150,-0.00001572,0.0000
 0261,-0.00000963,-0.00003690,0.00004129,0.00002295,-0.00005387,0.00004
 921,0.00000424,-0.00000346,-0.00001483,-0.00001825,-0.00000079,-0.0000
 0155,-0.20222389,-0.34714489,0.13713548,0.01262296,0.00983418,-0.00728
 271,0.18847480,0.33778257,-0.00003263,0.00001585,-0.00000981,-0.000013
 85,-0.00005331,0.00002169,-0.00004129,0.00008237,-0.00004965,-0.000093
 78,0.00004992,0.00000885,-0.00005939,-0.00000766,0.00004821,0.00003397
 ,-0.00001715,-0.00001473,-0.00000812,-0.00000825,0.00000545,-0.0000099
 1,-0.00000112,0.00000468,-0.00001986,0.00001159,0.00000377,0.00000206,
 -0.00001097,0.00000622,0.00033906,0.00001885,0.00004123,0.00007446,-0.
 00009553,0.00002728,-0.00019686,-0.00006824,-0.00013270,0.00000908,0.0
 0001552,0.00005137,0.00008760,-0.00002751,-0.00003554,-0.00002438,0.00
 001927,0.00000658,-0.00106817,0.00012316,0.00009332,-0.00015460,0.0000
 4379,0.00001585,0.00104791,-0.00044606,-0.00012617,-0.00067210,0.00039
 270,0.00002061,0.00002936,-0.00003092,0.00001707,-0.00022719,-0.000426
 18,0.00039092,-0.00011142,0.00043353,-0.00185325,-0.00012322,0.0002344
 1,0.00044653,-0.00010205,-0.00027769,-0.00017643,-0.00013514,0.0000456
 1,0.00002260,-0.00004379,-0.00001902,0.00002828,0.00000600,0.00001640,
 -0.00000872,0.00003483,0.00004323,-0.00000964,0.00034677,0.00004752,0.
 00006998,-0.00002190,0.00001471,0.00001572,-0.00001788,-0.00001280,-0.
 00003228,0.08894913,0.11007475,-0.06320919,0.01198992,0.01906783,-0.00
 553848,-0.10040926,-0.12910119,0.07211690,0.00005403,-0.00017199,-0.00
 001501,-0.00009794,0.00010778,0.00004773,0.00002120,-0.00071557,0.0000
 3536,-0.00197379,-0.00045499,-0.00003907,-0.00019041,0.00043719,-0.000
 03510,-0.00025647,-0.00010123,0.00006219,-0.00003587,-0.00003381,0.000
 00956,-0.00006680,-0.00003563,0.00000824,0.00004935,0.00026716,-0.0000
 0027,-0.00001606,-0.00006939,0.00002833,0.00836262,-0.00476448,0.00108
 717,0.00028660,0.00003965,-0.00014312,0.00013981,0.00217731,0.00043447
 ,0.00009960,-0.00043954,-0.00004208,0.00010074,-0.00008270,0.00009852,
 -0.00007259,0.00005760,0.00000500,-0.01569281,-0.00773254,0.01172332,-
 0.00038207,0.00008799,0.00003267,-0.00185474,0.00060965,-0.00142971,0.
 00043304,-0.00078684,0.00030923,-0.00014495,0.00004081,-0.00010124,0.0
 0009643,-0.00064040,0.00013288,-0.00002203,-0.00006701,0.00005571,0.00
 031624,0.00013740,-0.00023305,0.00012310,0.00039170,0.00000577,0.00036
 413,0.00000696,0.00044386,0.00004116,-0.00001545,-0.00017161,-0.000065
 86,-0.00013755,0.00019654,-0.00010901,-0.00003442,-0.00006174,-0.00065
 900,0.00042532,-0.00042079,0.00001551,-0.00002263,0.00008416,0.0000546
 7,0.00002702,0.00005862,0.00207397,0.00084919,-0.00051910,-0.00127062,
 0.00107647,0.00044878,-0.00179496,-0.00217079,0.00022652,0.40391854,0.
 00011989,-0.00010507,-0.00001506,-0.00010195,0.00014769,0.00000481,0.0
 0001624,-0.00052735,-0.00000963,-0.00152082,-0.00017439,0.00008487,0.0
 0015135,0.00031749,0.00000658,-0.00025793,-0.00003272,0.00006286,-0.00
 002314,-0.00001444,0.00000026,-0.00004149,-0.00002717,0.00000215,0.000
 06853,0.00015120,-0.00010003,0.00000841,-0.00000902,0.00000301,0.00518
 720,-0.00374958,0.00110444,0.00016726,0.00004831,-0.00001552,-0.000750
 72,0.00049603,0.00046794,-0.00029398,0.00028237,0.00006450,0.00011571,
 0.00032284,-0.00026413,-0.00011143,0.00003406,0.00000422,-0.01359699,0
 .00039609,0.00734515,-0.00014878,0.00009807,0.00001974,0.00014767,-0.0
 0051318,-0.00101159,-0.00064259,-0.00039409,0.00025993,0.00022713,0.00
 021154,0.00017276,0.00020123,-0.00018485,0.00075333,-0.00010732,0.0002
 8221,-0.00043784,-0.00007578,0.00000252,0.00026417,-0.00010223,-0.0004
 8285,-0.00001061,-0.00000616,0.00007610,0.00022318,-0.00002479,-0.0000
 4125,-0.00003662,-0.00000790,-0.00003571,0.00008666,0.00000229,0.00007
 440,-0.00008167,-0.00008745,0.00044780,-0.00032573,-0.00006582,0.00001
 129,0.00012758,0.00007229,0.00002647,0.00002472,-0.00000661,-0.0073906
 5,0.00156809,0.00222464,0.00108389,-0.00162916,-0.00324854,0.00370231,
 0.00017345,0.08527892,0.11394215,0.00005978,0.00002954,-0.00002217,0.0
 0013265,0.00005696,-0.00002794,0.00015085,0.00026093,0.00001300,0.0015
 4255,-0.00018779,-0.00013482,0.00018287,-0.00015803,-0.00000488,0.0000
 4639,0.00006228,0.00002425,0.00003712,0.00003090,-0.00001491,0.0000622
 3,0.00003234,-0.00001624,-0.00006917,-0.00021432,-0.00002549,0.0000109
 1,0.00006265,-0.00003125,-0.00457944,0.00381184,-0.00072156,-0.0002714
 0,0.00020783,-0.00004276,0.00032625,-0.00071261,0.00005163,-0.00015858
 ,0.00007199,-0.00020980,-0.00026651,0.00007416,0.00007767,0.00009908,-
 0.00007167,-0.00002382,0.01494148,0.00600486,-0.00466183,0.00048374,-0
 .00013447,-0.00003839,-0.00026288,0.00055096,0.00159155,0.00049145,-0.
 00091552,-0.00017259,0.00017257,0.00049771,0.00004836,-0.00129236,-0.0
 0069333,-0.00119276,0.00013029,-0.00040573,0.00001311,0.00031759,0.000
 41886,-0.00070270,0.00103558,0.00104411,-0.00007841,0.00019685,-0.0000
 5432,-0.00008648,0.00006489,0.00006575,0.00001720,-0.00000627,0.000039
 66,-0.00005722,0.00000536,0.00000338,0.00005422,-0.00056815,0.00002791
 ,-0.00026959,0.00001260,-0.00002316,-0.00006574,0.00011351,0.00002157,
 0.00010231,0.00005213,0.00073085,0.00280931,0.00036198,-0.00110793,-0.
 00132281,-0.00046109,0.00080375,-0.00341561,-0.00113036,-0.21693724,0.
 56272713,0.00001498,0.00000163,0.00001417,-0.00001906,0.00002382,-0.00
 001694,-0.00000455,-0.00006366,0.00000321,-0.00021369,0.00004580,0.000
 04116,0.00002130,0.00003003,0.00001285,-0.00001594,0.00000261,-0.00001
 549,0.00000291,0.00000423,-0.00000001,-0.00000162,-0.00000477,0.000000
 61,0.00000429,0.00000277,-0.00000076,-0.00000136,0.00000478,0.00000040
 ,0.00013039,-0.00051497,0.00011630,-0.00004254,0.00003980,0.00002522,-
 0.00014897,-0.00015043,0.00000519,-0.00004393,0.00019243,0.00015423,-0
 .00000996,0.00007264,-0.00009451,-0.00001572,0.00000412,0.00000935,-0.
 00212120,-0.00068808,0.00025545,0.00004537,-0.00000177,-0.00000222,-0.
 00014934,0.00003587,-0.00025642,-0.00005413,0.00005492,-0.00004497,-0.
 00000405,-0.00001005,0.00002213,-0.00014800,-0.00022169,-0.00014689,-0
 .00002585,-0.00004532,0.00002725,0.00007586,0.00007246,-0.00011200,0.0
 0014036,0.00022902,0.00019066,0.00007423,-0.00000072,0.00000994,0.0000
 1451,0.00001581,-0.00000568,-0.00000201,-0.00000284,-0.00000164,-0.000
 00045,-0.00000121,0.00000376,0.00009283,-0.00000263,0.00003466,0.00000
 597,0.00000393,0.00001320,-0.00001118,-0.00000635,-0.00002132,-0.00006
 392,0.00007861,0.00023253,0.00004206,0.00001434,0.00005674,-0.00001981
 ,-0.00000704,-0.00060446,-0.09864220,0.04911730,-0.17629297,0.08879032
 ,-0.00002113,0.00000665,0.00000689,0.00000325,-0.00001779,-0.00000423,
 -0.00001872,0.00002107,-0.00000733,0.00004704,0.00005338,-0.00001790,-
 0.00004860,-0.00002067,0.00000092,0.00003014,-0.00001301,-0.00001353,0
 .00000269,0.00000030,0.00000168,0.00000172,0.00000108,0.00000052,0.000
 00654,-0.00001213,0.00002576,-0.00000374,-0.00000502,0.00000575,-0.000
 76851,0.00004085,0.00017930,-0.00002244,0.00000370,0.00000823,0.000093
 87,-0.00001188,-0.00004715,0.00007501,0.00001392,-0.00005955,-0.000026
 26,-0.00003668,0.00003497,0.00002590,-0.00000443,-0.00000617,-0.000234
 68,-0.00013990,-0.00049966,0.00001293,-0.00001833,0.00000040,-0.000011
 43,0.00005687,0.00001421,0.00007073,-0.00009969,-0.00011014,-0.0000175
 7,0.00007666,-0.00000413,-0.00003408,-0.00003525,-0.00007461,0.0000239
 6,0.00014027,-0.00001606,0.00000231,0.00007015,0.00001346,0.00014021,-
 0.00009148,0.00015657,0.00002674,-0.00000290,-0.00000305,0.00000690,0.
 00000947,-0.00000271,0.00000145,0.00000597,-0.00000526,0.00000040,-0.0
 0000409,0.00000639,-0.00004081,0.00000582,-0.00000252,0.00001421,-0.00
 000538,-0.00002528,0.00001057,-0.00000485,0.00001553,-0.00037388,-0.00
 028734,-0.00109704,-0.00000725,0.00012023,0.00050355,0.00072356,-0.000
 33505,0.00161918,0.02985826,-0.04443330,0.12644113,-0.03844729,0.04908
 464,-0.00000049,-0.00000761,0.00000408,0.00000212,-0.00001715,0.000007
 39,-0.00000837,0.00001550,-0.00000323,-0.00001681,-0.00010286,-0.00006
 985,-0.00003869,0.00002129,0.00002490,-0.00000893,-0.00002038,-0.00000
 882,-0.00000609,-0.00000456,0.00000417,-0.00000536,0.00000093,0.000002
 17,0.00000925,0.00001865,0.00000098,-0.00000040,-0.00000903,0.00000472
 ,0.00060281,0.00017999,-0.00011516,0.00002933,-0.00002993,-0.00001466,
 0.00009383,0.00033479,0.00000952,0.00015765,-0.00020764,-0.00009617,0.
 00002566,-0.00012741,0.00007588,0.00000181,0.00000953,0.00000626,0.000
 00438,-0.00033819,0.00081348,-0.00008406,0.00001076,0.00000582,-0.0002
 0460,0.00010486,-0.00003278,0.00008294,-0.00009902,0.00000759,-0.00004
 052,0.00002594,-0.00003063,-0.00018868,-0.00028530,0.00008673,-0.00000
 418,0.00002173,-0.00000044,0.00008381,0.00007255,-0.00002616,0.0001239
 3,0.00018429,-0.00016017,0.00005345,-0.00001700,0.00004474,0.00000328,
 0.00000280,-0.00001467,-0.00001224,-0.00001420,0.00001975,-0.00001025,
 -0.00000922,-0.00000631,-0.00009737,0.00003101,-0.00003774,0.00001203,
 -0.00000500,-0.00000616,0.00000448,-0.00000060,0.00001427,-0.00008683,
 -0.00078854,-0.00003623,0.00004981,0.00016654,-0.00006247,-0.00007389,
 0.00076038,0.00024458,-0.12811123,0.13708092,-0.42368944,0.14359853,-0
 .14132792,0.44284434,-0.00009404,0.00025253,-0.00000345,0.00013181,-0.
 00015391,-0.00002310,-0.00002032,0.00095139,-0.00001187,0.00291648,0.0
 0098198,-0.00035767,0.00028846,-0.00057464,0.00003924,0.00041362,0.000
 14230,-0.00005946,0.00005073,0.00004065,-0.00001358,0.00009389,0.00005
 123,-0.00000586,-0.00005473,-0.00037441,-0.00001396,0.00002434,0.00009
 060,-0.00004986,-0.01631842,0.00485936,0.00070376,-0.00025358,-0.00003
 499,0.00010719,0.00018501,-0.00298285,-0.00075018,-0.00034783,0.000797
 62,0.00016684,-0.00028683,-0.00010084,-0.00007443,0.00017554,-0.000091
 10,-0.00000212,0.00987644,0.00426201,-0.00680872,0.00049236,-0.0001281
 4,-0.00003459,0.00324898,-0.00070049,0.00211774,-0.00048648,0.00148781
 ,-0.00047885,0.00000547,-0.00032619,-0.00003169,0.00009532,0.00096139,
 -0.00047204,-0.00009989,0.00024127,-0.00019983,-0.00054196,-0.00025063
 ,0.00062090,-0.00101609,-0.00061038,-0.00077652,-0.00063663,-0.0000973
 4,-0.00082735,-0.00006924,0.00002128,0.00026455,0.00011214,0.00022945,
 -0.00031559,0.00015863,0.00003753,0.00008179,0.00105205,-0.00078347,0.
 00068500,-0.00000519,0.00001964,-0.00018711,-0.00012657,-0.00005325,-0
 .00011837,-0.00144235,-0.00203135,0.00066387,0.00287456,-0.00044296,-0
 .00133143,-0.00119797,0.00361365,0.00101457,-0.29320260,-0.12188373,0.
 16432846,0.01230413,0.00889802,-0.01594011,0.28170077,-0.00018442,0.00
 019091,0.00000740,0.00013054,-0.00021911,0.00001970,-0.00002752,0.0008
 9211,0.00005422,0.00269923,0.00043819,-0.00035255,-0.00001302,-0.00058
 068,0.00006779,0.00040131,0.00013635,-0.00011248,0.00002969,0.00002464
 ,-0.00000420,0.00006498,0.00004250,-0.00000028,-0.00006147,-0.00018906
 ,0.00006341,0.00000754,0.00003864,-0.00002488,-0.00818214,0.00646114,-
 0.00177598,-0.00022220,-0.00015908,0.00000881,0.00154392,-0.00102080,-
 0.00110833,0.00062212,-0.00074281,-0.00001682,-0.00022553,-0.00049447,
 0.00035337,0.00012389,-0.00005093,0.00000749,0.01041414,-0.00886530,-0
 .00205750,0.00023784,-0.00012084,-0.00002636,0.00078848,0.00040908,0.0
 0171419,0.00034594,0.00087337,-0.00046076,-0.00028814,-0.00045428,-0.0
 0020768,0.00012194,0.00064146,-0.00017367,0.00018346,-0.00037927,0.000
 38703,-0.00016311,-0.00024757,-0.00010674,-0.00034706,0.00011137,-0.00
 015768,-0.00021993,-0.00014343,-0.00052426,0.00000412,0.00003754,0.000
 08372,0.00004172,0.00011098,-0.00018766,0.00003734,-0.00004789,0.00008
 954,0.00054006,-0.00077593,0.00056739,0.00003166,-0.00000587,-0.000177
 82,-0.00010137,-0.00004421,-0.00006633,-0.00108042,0.00194696,0.000834
 02,-0.00075532,-0.00479139,0.00031176,0.00309834,-0.00172698,-0.001940
 05,-0.10339943,-0.06403922,0.08026417,-0.00987811,-0.00413184,0.004369
 10,0.10368099,0.07687571,-0.00006097,-0.00007055,0.00003292,-0.0002039
 7,-0.00003319,-0.00001099,-0.00020766,-0.00047914,0.00007387,-0.002411
 66,0.00021529,0.00079502,-0.00025988,0.00023250,-0.00006734,-0.0001218
 3,-0.00007647,0.00000861,-0.00004927,-0.00003875,0.00001531,-0.0000892
 0,-0.00005008,0.00001760,0.00007023,0.00028361,0.00002448,-0.00001522,
 -0.00008494,0.00003590,0.00760914,-0.00536672,0.00066062,0.00032437,-0
 .00023667,0.00006184,-0.00085842,0.00096813,-0.00017420,0.00004864,0.0
 0003835,0.00025078,0.00030901,0.00015652,-0.00013669,-0.00017335,0.000
 09354,0.00001426,-0.00986454,-0.00114932,-0.00279004,-0.00058671,0.000
 16995,0.00004616,-0.00055279,-0.00004888,-0.00358524,-0.00067767,0.000
 34962,-0.00021566,-0.00010027,-0.00038932,-0.00021585,0.00019107,0.000
 18119,-0.00007443,-0.00020614,0.00028537,-0.00002508,0.00011343,-0.000
 13563,0.00026962,-0.00098273,-0.00018788,-0.00043255,0.00010664,0.0001
 0481,0.00029102,-0.00001641,-0.00003154,-0.00009749,-0.00003614,-0.000
 11728,0.00012878,-0.00006062,-0.00001911,-0.00007435,0.00061989,0.0002
 0051,0.00019582,-0.00003964,0.00001562,0.00011174,-0.00007279,-0.00000
 783,-0.00008034,0.00049009,0.00119209,-0.00193945,-0.00126067,0.000870
 51,0.00220818,0.00122461,-0.00237255,0.00090452,0.11691887,0.07096951,
 -0.13050055,0.03278876,0.01428979,-0.01981029,-0.14190621,-0.07972106,
 0.15408348\\-0.00000160,0.00000186,0.00000029,-0.00000168,0.00000255,0
 .00000210,-0.00000010,0.00000230,0.00000220,-0.00000177,0.00000214,-0.
 00000041,-0.00000132,-0.00000188,-0.00000084,-0.00000301,0.00000123,-0
 .00000135,-0.00000201,0.00000288,-0.00000017,-0.00000034,0.00000342,0.
 00000318,-0.00000177,0.00000110,-0.00000244,-0.00000279,0.00000093,-0.
 00000289,-0.00000075,0.00000639,-0.00000024,-0.00000118,0.00000149,0.0
 0000477,-0.00000090,0.00000028,0.00000480,0.00000067,0.00000203,0.0000
 0362,0.00000433,0.00000479,0.00000539,0.00000148,0.00000258,0.00000574
 ,-0.00000099,-0.00000399,-0.00000692,0.00000076,0.00000407,0.00000585,
 0.00000022,-0.00000552,-0.00000286,0.00000032,0.00000074,0.00000599,0.
 00000254,-0.00000264,0.00000040,0.00000137,-0.00000584,-0.00000458,-0.
 00000021,-0.00000266,-0.00000284,0.00000200,-0.00000390,-0.00000423,0.
 00000095,-0.00000316,-0.00000268,0.00000168,-0.00000260,-0.00000056,0.
 00000106,-0.00000268,-0.00000299,0.00000055,-0.00000323,-0.00000182,0.
 00000230,-0.00000325,-0.00000010,0.00000650,-0.00000320,0.00000120,0.0
 0000408,-0.00000119,0.00000232,0.00000160,-0.00000153,0.00000063,0.000
 00431,0.00000204,-0.00000089,-0.00000391,0.00000291,-0.00001039,-0.000
 00814,-0.00000647,-0.00000225,-0.00001338,-0.00000048,-0.00000514,0.00
 000207,0.00000081,-0.00000263,0.00000706,0.00000769,0.00001075\\\@


 LET US PLACE AT THE END OF EVERY CHAPTER.....THE
 TWO LETTERS USED BY THE ROMAN JUDGES WHEN THEY DID
 NOT UNDERSTAND A PLEADING.
 N. L. -NON LIQUET- IT IS NOT CLEAR.
                                              -- VOLTAIRE
 Job cpu time:       0 days  3 hours 55 minutes  7.7 seconds.
 File lengths (MBytes):  RWF=    808 Int=      0 D2E=      0 Chk=     22 Scr=      1
 Normal termination of Gaussian 09 at Fri Aug 28 01:45:24 2020.
