 *******************************************************************************
 ** Site#: 37381        For non-commercial use only           Version 21.125L **
 *******************************************************************************
 ** Cite this program as: MOPAC2016, Version: 21.125L, James J. P. Stewart,   **
 ** Stewart Computational Chemistry, web: HTTP://OpenMOPAC.net. Days left: 192**
 *******************************************************************************
 **                                                                           **
 **                                MOPAC2016                                  **
 **                                                                           **
 *******************************************************************************

                              PM6-D3H4 CALCULATION RESULTS

 *******************************************************************************
 *  CALCULATION DONE:                                Mon Oct 25 21:07:31 2021  *
 *  PM6-D3H4   - CORRECT DISPERSION AND HYDROGEN BOND TERMS USING THE D3H4 METHOD
 *  EPS=2.38   - USE ANDREAS KLAMT'S COSMO IMPLICIT SOLVATION MODEL
 *  RSOLV=  3.480
 *  FORCE      - FORCE CALCULATION SPECIFIED
 *  T=         - A TIME OF 172800.0 SECONDS REQUESTED
 *  DUMP=N     - RESTART FILE WRITTEN EVERY 7200.0 SECONDS REQUESTED
 *  AUX        - OUTPUT AUXILIARY INFORMATION
 *  LARGE      - EXPANDED OUTPUT TO BE PRINTED
 *  THERMO     - THERMODYNAMIC QUANTITIES TO BE CALCULATED
 *******************************************************************************
 AUX LARGE FORCE THERMO PM6-D3H4 EPS=2.38 RSOLV=3.48
 Claisen_SM_2H2O_PM6_D3H4_THERMO

   ATOM   CHEMICAL          X               Y               Z
  NUMBER   SYMBOL      (ANGSTROMS)     (ANGSTROMS)     (ANGSTROMS)
 
     1       C         -2.39395000  *  -2.93717000  *  -1.06031000  *
     2       C         -1.03138000  *  -3.11834000  *  -1.04964000  *
     3       C         -0.16355000  *  -2.04434000  *  -0.68365000  *
     4       C         -0.73412000  *  -0.78873000  *  -0.34409000  *
     5       C         -2.15235000  *  -0.62984000  *  -0.35795000  *
     6       C         -2.96337000  *  -1.68087000  *  -0.70756000  *
     7       H         -3.06132000  *  -3.75484000  *  -1.33967000  *
     8       H         -0.60396000  *  -4.08533000  *  -1.32051000  *
     9       H         -2.56770000  *   0.33980000  *  -0.07661000  *
    10       H         -4.04866000  *  -1.56970000  *  -0.72253000  *
    11       C          0.15189000  *   0.28641000  *   0.01806000  *
    12       C          1.26273000  *  -2.16708000  *  -0.62698000  *
    13       C          1.51875000  *   0.13233000  *   0.06776000  *
    14       H          2.17728000  *   0.94969000  *   0.36025000  *
    15       C          2.08344000  *  -1.12790000  *  -0.26427000  *
    16       H          3.16851000  *  -1.25226000  *  -0.22593000  *
    17       O         -0.45285000  *   1.51799000  *   0.21028000  *
    18      Cl          1.98324000  *  -3.68562000  *  -1.02319000  *
    19       C         -0.36696000  *   2.16378000  *   1.56395000  *
    20       C          0.97983000  *   2.84787000  *   1.62388000  *
    21       H          1.16193000  *   3.51939000  *   0.77682000  *
    22       C         -1.49108000  *   3.19252000  *   1.45265000  *
    23       H         -2.48683000  *   2.69408000  *   1.45629000  *
    24       H         -1.43386000  *   3.89706000  *   2.31405000  *
    25       H         -1.39471000  *   3.77639000  *   0.50593000  *
    26       C         -0.62941000  *   1.10759000  *   2.62673000  *
    27       H          0.19134000  *   0.35430000  *   2.65677000  *
    28       H         -0.71572000  *   1.59040000  *   3.62731000  *
    29       H         -1.58424000  *   0.57359000  *   2.40958000  *
    30       C          1.87975000  *   2.71421000  *   2.59437000  *
    31       H          2.82571000  *   3.25986000  *   2.57363000  *
    32       H          1.74230000  *   2.06633000  *   3.45973000  *
    33       O         -2.13871000  *   2.85347000  *  -1.95402000  *
    34       H         -1.91074000  *   2.19549000  *  -1.27259000  *
    35       H         -1.31092000  *   3.30445000  *  -2.25487000  *
    36       O          0.55742000  *   3.16202000  *  -1.87158000  *
    37       H          1.05435000  *   2.75575000  *  -2.60165000  *
    38       H          0.48944000  *   2.53222000  *  -1.10996000  *
 


          CARTESIAN COORDINATES 

    NO.       ATOM           X           Y           Z

     1         C         -2.3940     -2.9372     -1.0603
     2         C         -1.0314     -3.1183     -1.0496
     3         C         -0.1636     -2.0443     -0.6837
     4         C         -0.7341     -0.7887     -0.3441
     5         C         -2.1524     -0.6298     -0.3580
     6         C         -2.9634     -1.6809     -0.7076
     7         H         -3.0613     -3.7548     -1.3397
     8         H         -0.6040     -4.0853     -1.3205
     9         H         -2.5677      0.3398     -0.0766
    10         H         -4.0487     -1.5697     -0.7225
    11         C          0.1519      0.2864      0.0181
    12         C          1.2627     -2.1671     -0.6270
    13         C          1.5188      0.1323      0.0678
    14         H          2.1773      0.9497      0.3603
    15         C          2.0834     -1.1279     -0.2643
    16         H          3.1685     -1.2523     -0.2259
    17         O         -0.4529      1.5180      0.2103
    18        Cl          1.9832     -3.6856     -1.0232
    19         C         -0.3670      2.1638      1.5640
    20         C          0.9798      2.8479      1.6239
    21         H          1.1619      3.5194      0.7768
    22         C         -1.4911      3.1925      1.4526
    23         H         -2.4868      2.6941      1.4563
    24         H         -1.4339      3.8971      2.3140
    25         H         -1.3947      3.7764      0.5059
    26         C         -0.6294      1.1076      2.6267
    27         H          0.1913      0.3543      2.6568
    28         H         -0.7157      1.5904      3.6273
    29         H         -1.5842      0.5736      2.4096
    30         C          1.8798      2.7142      2.5944
    31         H          2.8257      3.2599      2.5736
    32         H          1.7423      2.0663      3.4597
    33         O         -2.1387      2.8535     -1.9540
    34         H         -1.9107      2.1955     -1.2726
    35         H         -1.3109      3.3045     -2.2549
    36         O          0.5574      3.1620     -1.8716
    37         H          1.0543      2.7557     -2.6017
    38         H          0.4894      2.5322     -1.1100

 General Reference for PM6:
 "Optimization of Parameters for Semiempirical Methods V: Modification of NDDO Approximations
 and Application to 70 Elements", J. J. P. Stewart, J. Mol. Mod., 13, 1173-1213 (2007)
 URL: https://link.springer.com/article/10.1007/s00894-007-0233-4

           Empirical Formula: C15 H19 O3 Cl  =    38 atoms



      MOLECULAR POINT GROUP   :   C1  


      RHF CALCULATION, NO. OF DOUBLY OCCUPIED LEVELS = 52



          HEAT OF FORMATION =    -121.628496 KCALS/MOLE


          CARTESIAN COORDINATE DERIVATIVES

   NUMBER  ATOM         X            Y            Z

     1       C     -0.318015     0.024243     0.214298
     2       C      0.319678    -0.158478    -0.111894
     3       C      0.301500     0.413068    -0.158268
     4       C     -0.020145    -0.484515    -0.073290
     5       C     -0.175027    -0.058375    -0.070860
     6       C      0.068283     0.061747     0.159913
     7       H     -0.043901     0.124131     0.002738
     8       H     -0.080796     0.035590     0.033614
     9       H     -0.265089     0.012392     0.080147
    10       H      0.000408     0.029248    -0.029078
    11       C     -0.160474     0.238415     0.142828
    12       C     -0.055046    -0.197527     0.134566
    13       C     -0.149711     0.249916    -0.007729
    14       H      0.296490    -0.031121    -0.013495
    15       C      0.152891     0.287659    -0.228969
    16       H     -0.007032    -0.332317     0.058061
    17       O     -0.090749     0.030850    -0.161824
    18      Cl      0.300187    -0.019775     0.091232
    19       C      0.161703     0.006510    -0.066803
    20       C      0.219024     0.088420     0.040713
    21       H     -0.069729    -0.033596    -0.084581
    22       C     -0.088251    -0.171075     0.069592
    23       H     -0.317342     0.163709     0.179937
    24       H     -0.034658    -0.124538    -0.088664
    25       H      0.029483    -0.038621     0.184206
    26       C      0.035429     0.062431    -0.214329
    27       H     -0.148164    -0.056964     0.113993
    28       H      0.078367    -0.127401    -0.023247
    29       H     -0.012116     0.095661     0.078738
    30       C      0.011378     0.079381     0.136881
    31       H      0.043243    -0.021284    -0.169664
    32       H     -0.063874    -0.235141     0.020719
    33       O      0.196978     0.122872    -0.153245
    34       H     -0.142257     0.029347    -0.031961
    35       H     -0.070076    -0.093813    -0.148543
    36       O     -0.042928    -0.063261    -0.065993
    37       H      0.183198     0.060629     0.135963
    38       H     -0.042751     0.031644     0.024365
 
 DIPOLE           X         Y         Z       TOTAL
 POINT-CHG.     1.447     0.676     4.008     4.315
 HYBRID         0.620    -0.319     0.149     0.713
 SUM            2.067     0.357     4.157     4.657


          GRADIENT NORM =   1.59641


                              **** WARNING ****

           GRADIENT IS VERY LARGE FOR A THERMO CALCULATION
           RESULTS ARE LIKELY TO BE INACCURATE IF THERE ARE
           ANY LOW-LYING VIBRATIONS (LESS THAN ABOUT 400CM-1)
           GRADIENT NORM SHOULD BE LESS THAN ABOUT 1.2 FOR THERMO
           TO GIVE ACCURATE RESULTS


          TIME FOR SCF CALCULATION =    0.07

          TIME FOR DERIVATIVES     =    0.03

          MOLECULAR WEIGHT =  282.77



          ROTATIONAL CONSTANTS IN CM(-1)

          A =    0.01498650   B =    0.00763572   C =    0.00647193



           PRINCIPAL MOMENTS OF INERTIA IN UNITS OF 10**(-40)*GRAM-CM**2

          A =     1867.8666   B =     3666.0292   C =     4325.2590


          ORIENTATION OF MOLECULE IN FORCE CALCULATION

    NO.       ATOM         X         Y         Z

     1          C      -1.9312   -3.3174    0.0191
     2          C      -0.5566   -3.3174    0.0191
     3          C       0.1649   -2.0845    0.0191
     4          C      -0.5635   -0.8652    0.0074
     5          C      -1.9904   -0.8942    0.0133
     6          C      -2.6585   -2.0934    0.0198
     7          H      -2.4872   -4.2570    0.0187
     8          H      -0.0076   -4.2606    0.0197
     9          H      -2.5277    0.0561    0.0214
    10          H      -3.7491   -2.1267    0.0231
    11          C       0.1758    0.3698    0.0026
    12          C       1.5953   -2.0078    0.0433
    13          C       1.5514    0.4075    0.0319
    14          H       2.0987    1.3496    0.0453
    15          C       2.2747   -0.8147    0.0524
    16          H       3.3669   -0.7871    0.0752
    17          O      -0.5844    1.5191   -0.1416
    18         Cl       2.5066   -3.4744    0.0699
    19          C      -0.5739    2.5378    0.9625
    20          C       0.6714    3.3707    0.7604
    21          H       0.7568    3.7824   -0.2519
    22          C      -1.8246    3.3416    0.6105
    23          H      -2.7460    2.7467    0.8037
    24          H      -1.8541    4.2686    1.2282
    25          H      -1.8134    3.6305   -0.4678
    26          C      -0.6866    1.8144    2.2959
    27          H       0.2265    1.2105    2.5045
    28          H      -0.8280    2.5540    3.1173
    29          H      -1.5644    1.1263    2.2863
    30          C       1.5886    3.6391    1.6858
    31          H       2.4542    4.2675    1.4650
    32          H       1.5444    3.2607    2.7068
    33          O      -2.4484    1.9441   -2.5196
    34          H      -2.1304    1.5476   -1.6884
    35          H      -1.6896    2.3863   -2.9755
    36          O       0.1841    2.5945   -2.6536
    37          H       0.7246    2.0574   -3.2572
    38          H       0.2057    2.2115   -1.7402


    FIRST DERIVATIVES WILL BE USED IN THE CALCULATION OF SECOND DERIVATIVES

          ESTIMATED TIME TO COMPLETE CALCULATION =       23.16 SECONDS

    FOR POINT-GROUP C1   THERE ARE   1 UNIQUE SYMMETRY FUNCTIONS.

 STEP:   1 TIME =     0.09 SECS, INTEGRAL =      0.09 TIME LEFT: 172799.81
 STEP:   2 TIME =     0.08 SECS, INTEGRAL =      0.16 TIME LEFT: 172799.73
 STEP:   3 TIME =     0.08 SECS, INTEGRAL =      0.24 TIME LEFT: 172799.66
 STEP:   4 TIME =     0.09 SECS, INTEGRAL =      0.33 TIME LEFT: 172799.57
 STEP:   5 TIME =     0.09 SECS, INTEGRAL =      0.41 TIME LEFT: 172799.48
 STEP:   6 TIME =     0.08 SECS, INTEGRAL =      0.49 TIME LEFT: 172799.41
 STEP:   7 TIME =     0.09 SECS, INTEGRAL =      0.58 TIME LEFT: 172799.32
 STEP:   8 TIME =     0.09 SECS, INTEGRAL =      0.66 TIME LEFT: 172799.23
 STEP:   9 TIME =     0.09 SECS, INTEGRAL =      0.75 TIME LEFT: 172799.15
 STEP:  10 TIME =     0.09 SECS, INTEGRAL =      0.84 TIME LEFT: 172799.05
 STEP:  11 TIME =     0.09 SECS, INTEGRAL =      0.93 TIME LEFT: 172798.97
 STEP:  12 TIME =     0.09 SECS, INTEGRAL =      1.02 TIME LEFT: 172798.88
 STEP:  13 TIME =     0.09 SECS, INTEGRAL =      1.10 TIME LEFT: 172798.80
 STEP:  14 TIME =     0.09 SECS, INTEGRAL =      1.19 TIME LEFT: 172798.71
 STEP:  15 TIME =     0.08 SECS, INTEGRAL =      1.27 TIME LEFT: 172798.63
 STEP:  16 TIME =     0.09 SECS, INTEGRAL =      1.35 TIME LEFT: 172798.55
 STEP:  17 TIME =     0.09 SECS, INTEGRAL =      1.44 TIME LEFT: 172798.46
 STEP:  18 TIME =     0.08 SECS, INTEGRAL =      1.52 TIME LEFT: 172798.38
 STEP:  19 TIME =     0.08 SECS, INTEGRAL =      1.59 TIME LEFT: 172798.30
 STEP:  20 TIME =     0.09 SECS, INTEGRAL =      1.68 TIME LEFT: 172798.22
 STEP:  21 TIME =     0.08 SECS, INTEGRAL =      1.76 TIME LEFT: 172798.14
 STEP:  22 TIME =     0.07 SECS, INTEGRAL =      1.83 TIME LEFT: 172798.07
 STEP:  23 TIME =     0.08 SECS, INTEGRAL =      1.91 TIME LEFT: 172797.99
 STEP:  24 TIME =     0.08 SECS, INTEGRAL =      1.98 TIME LEFT: 172797.91
 STEP:  25 TIME =     0.08 SECS, INTEGRAL =      2.06 TIME LEFT: 172797.84
 STEP:  26 TIME =     0.07 SECS, INTEGRAL =      2.13 TIME LEFT: 172797.77
 STEP:  27 TIME =     0.08 SECS, INTEGRAL =      2.21 TIME LEFT: 172797.69
 STEP:  28 TIME =     0.08 SECS, INTEGRAL =      2.29 TIME LEFT: 172797.61
 STEP:  29 TIME =     0.07 SECS, INTEGRAL =      2.36 TIME LEFT: 172797.54
 STEP:  30 TIME =     0.07 SECS, INTEGRAL =      2.43 TIME LEFT: 172797.47
 STEP:  31 TIME =     0.09 SECS, INTEGRAL =      2.52 TIME LEFT: 172797.38
 STEP:  32 TIME =     0.09 SECS, INTEGRAL =      2.61 TIME LEFT: 172797.29
 STEP:  33 TIME =     0.08 SECS, INTEGRAL =      2.69 TIME LEFT: 172797.21
 STEP:  34 TIME =     0.08 SECS, INTEGRAL =      2.77 TIME LEFT: 172797.13
 STEP:  35 TIME =     0.09 SECS, INTEGRAL =      2.85 TIME LEFT: 172797.05
 STEP:  36 TIME =     0.09 SECS, INTEGRAL =      2.94 TIME LEFT: 172796.96
 STEP:  37 TIME =     0.09 SECS, INTEGRAL =      3.03 TIME LEFT: 172796.87
 STEP:  38 TIME =     0.09 SECS, INTEGRAL =      3.12 TIME LEFT: 172796.78
 STEP:  39 TIME =     0.09 SECS, INTEGRAL =      3.20 TIME LEFT: 172796.70
 STEP:  40 TIME =     0.08 SECS, INTEGRAL =      3.28 TIME LEFT: 172796.62
 STEP:  41 TIME =     0.08 SECS, INTEGRAL =      3.36 TIME LEFT: 172796.54
 STEP:  42 TIME =     0.08 SECS, INTEGRAL =      3.44 TIME LEFT: 172796.46
 STEP:  43 TIME =     0.09 SECS, INTEGRAL =      3.52 TIME LEFT: 172796.38
 STEP:  44 TIME =     0.09 SECS, INTEGRAL =      3.61 TIME LEFT: 172796.29
 STEP:  45 TIME =     0.09 SECS, INTEGRAL =      3.70 TIME LEFT: 172796.20
 STEP:  46 TIME =     0.08 SECS, INTEGRAL =      3.78 TIME LEFT: 172796.12
 STEP:  47 TIME =     0.08 SECS, INTEGRAL =      3.86 TIME LEFT: 172796.04
 STEP:  48 TIME =     0.08 SECS, INTEGRAL =      3.94 TIME LEFT: 172795.96
 STEP:  49 TIME =     0.09 SECS, INTEGRAL =      4.02 TIME LEFT: 172795.88
 STEP:  50 TIME =     0.09 SECS, INTEGRAL =      4.11 TIME LEFT: 172795.79
 STEP:  51 TIME =     0.09 SECS, INTEGRAL =      4.20 TIME LEFT: 172795.70
 STEP:  52 TIME =     0.08 SECS, INTEGRAL =      4.27 TIME LEFT: 172795.62
 STEP:  53 TIME =     0.08 SECS, INTEGRAL =      4.35 TIME LEFT: 172795.55
 STEP:  54 TIME =     0.07 SECS, INTEGRAL =      4.42 TIME LEFT: 172795.48
 STEP:  55 TIME =     0.09 SECS, INTEGRAL =      4.51 TIME LEFT: 172795.39
 STEP:  56 TIME =     0.09 SECS, INTEGRAL =      4.59 TIME LEFT: 172795.30
 STEP:  57 TIME =     0.08 SECS, INTEGRAL =      4.67 TIME LEFT: 172795.23
 STEP:  58 TIME =     0.09 SECS, INTEGRAL =      4.76 TIME LEFT: 172795.14
 STEP:  59 TIME =     0.08 SECS, INTEGRAL =      4.84 TIME LEFT: 172795.06
 STEP:  60 TIME =     0.08 SECS, INTEGRAL =      4.91 TIME LEFT: 172794.98
 STEP:  61 TIME =     0.07 SECS, INTEGRAL =      4.98 TIME LEFT: 172794.91
 STEP:  62 TIME =     0.08 SECS, INTEGRAL =      5.06 TIME LEFT: 172794.84
 STEP:  63 TIME =     0.08 SECS, INTEGRAL =      5.14 TIME LEFT: 172794.76
 STEP:  64 TIME =     0.08 SECS, INTEGRAL =      5.22 TIME LEFT: 172794.68
 STEP:  65 TIME =     0.08 SECS, INTEGRAL =      5.30 TIME LEFT: 172794.60
 STEP:  66 TIME =     0.08 SECS, INTEGRAL =      5.38 TIME LEFT: 172794.52
 STEP:  67 TIME =     0.08 SECS, INTEGRAL =      5.45 TIME LEFT: 172794.45
 STEP:  68 TIME =     0.08 SECS, INTEGRAL =      5.53 TIME LEFT: 172794.37
 STEP:  69 TIME =     0.07 SECS, INTEGRAL =      5.60 TIME LEFT: 172794.30
 STEP:  70 TIME =     0.08 SECS, INTEGRAL =      5.68 TIME LEFT: 172794.22
 STEP:  71 TIME =     0.08 SECS, INTEGRAL =      5.76 TIME LEFT: 172794.14
 STEP:  72 TIME =     0.07 SECS, INTEGRAL =      5.83 TIME LEFT: 172794.07
 STEP:  73 TIME =     0.07 SECS, INTEGRAL =      5.90 TIME LEFT: 172794.00
 STEP:  74 TIME =     0.08 SECS, INTEGRAL =      5.98 TIME LEFT: 172793.92
 STEP:  75 TIME =     0.07 SECS, INTEGRAL =      6.05 TIME LEFT: 172793.85
 STEP:  76 TIME =     0.08 SECS, INTEGRAL =      6.12 TIME LEFT: 172793.77
 STEP:  77 TIME =     0.08 SECS, INTEGRAL =      6.20 TIME LEFT: 172793.70
 STEP:  78 TIME =     0.09 SECS, INTEGRAL =      6.29 TIME LEFT: 172793.61
 STEP:  79 TIME =     0.08 SECS, INTEGRAL =      6.37 TIME LEFT: 172793.53
 STEP:  80 TIME =     0.07 SECS, INTEGRAL =      6.44 TIME LEFT: 172793.46
 STEP:  81 TIME =     0.08 SECS, INTEGRAL =      6.52 TIME LEFT: 172793.38
 STEP:  82 TIME =     0.07 SECS, INTEGRAL =      6.59 TIME LEFT: 172793.31
 STEP:  83 TIME =     0.08 SECS, INTEGRAL =      6.66 TIME LEFT: 172793.23
 STEP:  84 TIME =     0.07 SECS, INTEGRAL =      6.73 TIME LEFT: 172793.16
 STEP:  85 TIME =     0.08 SECS, INTEGRAL =      6.81 TIME LEFT: 172793.09
 STEP:  86 TIME =     0.07 SECS, INTEGRAL =      6.88 TIME LEFT: 172793.02
 STEP:  87 TIME =     0.07 SECS, INTEGRAL =      6.95 TIME LEFT: 172792.95
 STEP:  88 TIME =     0.08 SECS, INTEGRAL =      7.03 TIME LEFT: 172792.87
 STEP:  89 TIME =     0.08 SECS, INTEGRAL =      7.11 TIME LEFT: 172792.79
 STEP:  90 TIME =     0.08 SECS, INTEGRAL =      7.19 TIME LEFT: 172792.71
 STEP:  91 TIME =     0.08 SECS, INTEGRAL =      7.27 TIME LEFT: 172792.63
 STEP:  92 TIME =     0.08 SECS, INTEGRAL =      7.34 TIME LEFT: 172792.55
 STEP:  93 TIME =     0.08 SECS, INTEGRAL =      7.42 TIME LEFT: 172792.48
 STEP:  94 TIME =     0.08 SECS, INTEGRAL =      7.50 TIME LEFT: 172792.40
 STEP:  95 TIME =     0.07 SECS, INTEGRAL =      7.57 TIME LEFT: 172792.33
 STEP:  96 TIME =     0.08 SECS, INTEGRAL =      7.65 TIME LEFT: 172792.25
 STEP:  97 TIME =     0.08 SECS, INTEGRAL =      7.73 TIME LEFT: 172792.17
 STEP:  98 TIME =     0.08 SECS, INTEGRAL =      7.80 TIME LEFT: 172792.09
 STEP:  99 TIME =     0.08 SECS, INTEGRAL =      7.88 TIME LEFT: 172792.02
 STEP: 100 TIME =     0.08 SECS, INTEGRAL =      7.96 TIME LEFT: 172791.94
 STEP: 101 TIME =     0.07 SECS, INTEGRAL =      8.03 TIME LEFT: 172791.87
 STEP: 102 TIME =     0.08 SECS, INTEGRAL =      8.11 TIME LEFT: 172791.79
 STEP: 103 TIME =     0.08 SECS, INTEGRAL =      8.19 TIME LEFT: 172791.71
 STEP: 104 TIME =     0.08 SECS, INTEGRAL =      8.27 TIME LEFT: 172791.63
 STEP: 105 TIME =     0.08 SECS, INTEGRAL =      8.34 TIME LEFT: 172791.55
 STEP: 106 TIME =     0.08 SECS, INTEGRAL =      8.42 TIME LEFT: 172791.48
 STEP: 107 TIME =     0.08 SECS, INTEGRAL =      8.50 TIME LEFT: 172791.40
 STEP: 108 TIME =     0.08 SECS, INTEGRAL =      8.58 TIME LEFT: 172791.32
 STEP: 109 TIME =     0.07 SECS, INTEGRAL =      8.65 TIME LEFT: 172791.25
 STEP: 110 TIME =     0.08 SECS, INTEGRAL =      8.73 TIME LEFT: 172791.17
 STEP: 111 TIME =     0.08 SECS, INTEGRAL =      8.80 TIME LEFT: 172791.09
 STEP: 112 TIME =     0.08 SECS, INTEGRAL =      8.88 TIME LEFT: 172791.02
 STEP: 113 TIME =     0.08 SECS, INTEGRAL =      8.96 TIME LEFT: 172790.94
 STEP: 114 TIME =     0.09 SECS, INTEGRAL =      9.05 TIME LEFT: 172790.85

(To convert to Hartree/Bohr^2, multiply by (10^(-21) x N x a0^2)/(4.184 x 627.51) =  0.0642)


           FORCE MATRIX IN MILLIDYNES/ANGSTROM


                  C  1       C  2       C  3       C  4       C  5       C  6
 ------------------------------------------------------------------------------
     C    1  14.419479
     C    2   6.589291  14.388528
     C    3   2.000422   4.449818  15.099390
     C    4   1.234802   1.611151   5.096265  15.050455
     C    5   2.140058   1.417742   1.622152   4.512375  14.526546
     C    6   4.749970   2.120017   1.240979   1.982111   6.673238  14.469737
     H    7   3.498609   0.677617   0.118815   0.014455   0.075846   0.647820
     H    8   0.689235   3.476186   0.645309   0.071421   0.011161   0.114885
     H    9   0.116817   0.015630   0.075072   0.659689   3.478075   0.673235
     H   10   0.648200   0.074485   0.006385   0.116033   0.683545   3.505586
     C   11   0.535996   0.532354   1.499933   4.034591   1.455743   0.614814
     C   12   0.603674   1.441380   4.311276   1.474780   0.526279   0.531995
     C   13   0.493701   0.529382   1.141905   1.774546   0.577680   0.509539
     H   14   0.005544   0.012672   0.011338   0.101293   0.008325   0.006547
     C   15   0.512388   0.590306   1.866355   1.125502   0.527415   0.500443
     H   16   0.006466   0.009012   0.104416   0.007053   0.010420   0.004487
     O   17   0.027247   0.032641   0.102523   1.042278   0.055038   0.037304
    Cl   18   0.008135   0.050931   0.871633   0.071207   0.016769   0.009968
     C   19   0.015997   0.015276   0.021056   0.115100   0.023142   0.025012
     C   20   0.001930   0.003239   0.003224   0.015313   0.003426   0.003526
     H   21   0.000423   0.000999   0.001146   0.001682   0.000666   0.000699
     C   22   0.003892   0.005636   0.006511   0.027828   0.007288   0.007093
     H   23   0.001163   0.001715   0.001541   0.004019   0.002848   0.002233
     H   24   0.000494   0.000676   0.000897   0.003495   0.001169   0.000959
     H   25   0.001025   0.001273   0.001237   0.005232   0.002285   0.001818
     C   26   0.006718   0.007671   0.007495   0.024994   0.012725   0.010272
     H   27   0.002035   0.003035   0.003334   0.004013   0.002316   0.002661
     H   28   0.000632   0.001026   0.000949   0.003886   0.001221   0.001328
     H   29   0.002604   0.003240   0.003068   0.004748   0.004340   0.004611
     C   30   0.001814   0.002670   0.003573   0.005813   0.001759   0.001814
     H   31   0.001429   0.001979   0.002874   0.005224   0.001601   0.001557
     H   32   0.000460   0.000873   0.000837   0.002759   0.000856   0.000874
     O   33   0.004774   0.006973   0.006479   0.006048   0.013194   0.007698
     H   34   0.005227   0.006288   0.005949   0.006667   0.012216   0.008973
     H   35   0.002031   0.003514   0.003443   0.003296   0.004720   0.003408
     O   36   0.002886   0.004629   0.004734   0.015224   0.004876   0.005334
     H   37   0.001139   0.001789   0.002173   0.005426   0.001892   0.001915
     H   38   0.003503   0.004562   0.005104   0.024042   0.005410   0.006378


                  H  7       H  8       H  9       H 10       C 11       C 12
 ------------------------------------------------------------------------------
     H    7   4.310262
     H    8   0.040025   4.307644
     H    9   0.010288   0.014367   4.311350
     H   10   0.027333   0.009845   0.036902   4.328181
     C   11   0.018110   0.013617   0.055954   0.012952  14.960674
     C   12   0.013171   0.041622   0.011781   0.016816   1.320903  13.536891
     C   13   0.005768   0.005025   0.012035   0.007363   6.301326   2.029933
     H   14   0.003230   0.002347   0.002798   0.002488   0.700414   0.072743
     C   15   0.005898   0.011086   0.004501   0.006363   2.086914   6.523727
     H   16   0.002267   0.002936   0.001934   0.003019   0.079273   0.690698
     O   17   0.009298   0.009462   0.031271   0.014034   4.178684   0.045060
    Cl   18   0.007154   0.112519   0.004886   0.006706   0.058733   2.774533
     C   19   0.007865   0.008061   0.023272   0.011862   1.153783   0.033209
     C   20   0.001763   0.001574   0.004492   0.002124   0.077705   0.008309
     H   21   0.000567   0.000409   0.000819   0.000624   0.012439   0.002688
     C   22   0.003263   0.003251   0.013497   0.004705   0.121455   0.015428
     H   23   0.000704   0.000781   0.014384   0.001442   0.020694   0.002766
     H   24   0.000486   0.000516   0.001687   0.000572   0.021874   0.002194
     H   25   0.000725   0.000769   0.003862   0.001093   0.025872   0.003240
     C   26   0.003619   0.003838   0.011076   0.005488   0.104281   0.014714
     H   27   0.001172   0.001073   0.002488   0.001353   0.055412   0.005912
     H   28   0.000670   0.000640   0.001677   0.000885   0.013909   0.002893
     H   29   0.001211   0.001442   0.014853   0.002410   0.035958   0.004518
     C   30   0.000782   0.000606   0.001737   0.000782   0.034849   0.005692
     H   31   0.000591   0.000494   0.001307   0.000663   0.031749   0.005101
     H   32   0.000536   0.000513   0.000752   0.000565   0.016147   0.002741
     O   33   0.002336   0.003373   0.016116   0.003686   0.034971   0.008923
     H   34   0.002341   0.003120   0.037937   0.004279   0.054829   0.007986
     H   35   0.000809   0.001310   0.007616   0.001301   0.016146   0.003999
     O   36   0.002565   0.002619   0.006093   0.003063   0.082480   0.012611
     H   37   0.000933   0.001058   0.001826   0.000978   0.028791   0.005297
     H   38   0.002753   0.002581   0.004704   0.003485   0.201804   0.012747


                  C 13       H 14       C 15       H 16       O 17      Cl 18
 ------------------------------------------------------------------------------
     C   13  14.458422
     H   14   3.478388   4.313244
     C   15   4.848244   0.659171  14.571857
     H   16   0.644491   0.028971   3.471804   4.292664
     O   17   1.140227   0.079297   0.166350   0.022617   8.235730
    Cl   18   0.109458   0.016020   1.055964   0.057350   0.049424   4.479804
     C   19   0.130577   0.053778   0.041980   0.014410   2.145920   0.037470
     C   20   0.048311   0.021697   0.002558   0.003111   0.843134   0.007874
     H   21   0.006520   0.017630   0.000585   0.000668   0.022025   0.002247
     C   22   0.032345   0.013132   0.011041   0.004807   0.944301   0.014024
     H   23   0.006171   0.001841   0.001425   0.000784   0.029097   0.002553
     H   24   0.003760   0.001967   0.001519   0.000747   0.055756   0.002051
     H   25   0.007646   0.003464   0.001481   0.001014   0.026397   0.003087
     C   26   0.046148   0.016750   0.010985   0.005546   0.839929   0.015107
     H   27   0.010817   0.008000   0.001574   0.001924   0.039942   0.005035
     H   28   0.004972   0.002114   0.001164   0.000803   0.069037   0.002535
     H   29   0.008356   0.003139   0.002553   0.001432   0.040990   0.004123
     C   30   0.033135   0.028244   0.003958   0.003543   0.074701   0.003051
     H   31   0.022123   0.023511   0.004484   0.003233   0.055589   0.002637
     H   32   0.007237   0.005086   0.000807   0.001020   0.029550   0.002497
     O   33   0.013616   0.005500   0.003201   0.002868   0.100097   0.007327
     H   34   0.018410   0.004818   0.003803   0.002482   0.069666   0.007081
     H   35   0.007570   0.003810   0.001780   0.001415   0.032681   0.003010
     O   36   0.032391   0.015423   0.006232   0.004466   0.216801   0.011413
     H   37   0.012890   0.005717   0.004718   0.002041   0.043948   0.004432
     H   38   0.028878   0.024796   0.006776   0.004786   0.163575   0.012971


                  C 19       C 20       H 21       C 22       H 23       H 24
 ------------------------------------------------------------------------------
     C   19  12.794948
     C   20   3.543893  16.109396
     H   21   0.629086   3.481728   4.366622
     C   22   3.249113   0.704585   0.019009  11.292839
     H   23   0.638939   0.045386   0.001743   3.358281   4.270907
     H   24   0.628351   0.020790   0.008567   3.331699   0.564803   4.250576
     H   25   0.631757   0.033182   0.043486   3.325048   0.569992   0.566760
     C   26   3.390416   0.643383   0.054525   0.706191   0.016458   0.020251
     H   27   0.634903   0.013084   0.005134   0.046105   0.003061   0.002255
     H   28   0.629035   0.013984   0.004634   0.018060   0.011689   0.022269
     H   29   0.651686   0.048561   0.007960   0.014376   0.029263   0.005338
     C   30   0.731091   9.804547   0.744349   0.042843   0.006211   0.006139
     H   31   0.167853   0.731738   0.081399   0.030839   0.004266   0.005715
     H   32   0.082108   0.711365   0.145996   0.017446   0.002519   0.004000
     O   33   0.045388   0.010246   0.006014   0.062463   0.016291   0.006379
     H   34   0.063410   0.012946   0.003513   0.042302   0.023463   0.004955
     H   35   0.020410   0.006634   0.006994   0.023192   0.006477   0.002867
     O   36   0.088401   0.061560   0.100747   0.038615   0.007915   0.005713
     H   37   0.020060   0.009401   0.026130   0.009977   0.002091   0.001618
     H   38   0.140081   0.025744   0.056080   0.034942   0.006638   0.004937


                  H 25       C 26       H 27       H 28       H 29       C 30
 ------------------------------------------------------------------------------
     H   25   4.236783
     C   26   0.046321  11.429029
     H   27   0.008697   3.340638   4.254695
     H   28   0.003166   3.337334   0.564468   4.256588
     H   29   0.002512   3.339031   0.571072   0.568686   4.260188
     C   30   0.006347   0.080413   0.007400   0.006778   0.006419  15.163487
     H   31   0.008152   0.024481   0.004536   0.004903   0.002691   3.513516
     H   32   0.004020   0.018340   0.029816   0.025373   0.001616   3.532824
     O   33   0.033750   0.016159   0.002430   0.002710   0.004203   0.004677
     H   34   0.042354   0.018299   0.002548   0.002483   0.004363   0.004148
     H   35   0.024598   0.007646   0.001082   0.001248   0.001829   0.002962
     O   36   0.034395   0.026878   0.004174   0.004109   0.004469   0.013064
     H   37   0.013624   0.006651   0.001151   0.000992   0.001132   0.002533
     H   38   0.038059   0.032597   0.004549   0.004330   0.005130   0.009110


                  H 31       H 32       O 33       H 34       H 35       O 36
 ------------------------------------------------------------------------------
     H   31   4.318810
     H   32   0.567832   4.308370
     O   33   0.003387   0.002222   5.165282
     H   34   0.003373   0.002043   3.083088   3.738533
     H   35   0.004660   0.001332   2.938208   1.079482   3.565971
     O   36   0.056210   0.007550   0.197846   0.055130   0.152798   5.162052
     H   37   0.024161   0.002049   0.027570   0.014500   0.069973   3.088242
     H   38   0.041679   0.006714   0.055611   0.062074   0.114605   2.870761


                  H 37       H 38
 ------------------------------
     H   37   3.706411
     H   38   1.026471   3.463031


          HEAT OF FORMATION =    -121.628496 KCALS/MOLE


          TRIVIAL VIBRATIONS, SHOULD BE ZERO

   9.8175=TX  20.5632=TY -15.0292=TZ  23.7657=RX   9.4478=RY -48.5649=RZ


      MOLECULAR POINT GROUP   :   C1  


           EIGENVECTORS  


   Root No.       1         2         3         4         5         6         7         8

                 1 A       2 A       3 A       4 A       5 A       6 A       7 A       8 A   

                  -0.0       0.0       0.0       0.0       0.0       0.0       0.0       0.0
  
           1    0.0105   -0.0258   -0.0246   -0.0229    0.0704   -0.0257   -0.0187   -0.0330
           2   -0.0086   -0.0251    0.0039   -0.0264   -0.0525    0.1042    0.0329    0.0466
           3    0.0063   -0.1953    0.1041    0.0811   -0.0086   -0.0213    0.0012   -0.0107
           4    0.0105   -0.0258   -0.0246   -0.0230    0.0703   -0.0256   -0.0187   -0.0327
           5   -0.0193   -0.0329   -0.0150   -0.0313   -0.0271    0.0720    0.0244    0.0053
           6    0.0328   -0.1269    0.0691    0.1202    0.0409    0.0613    0.0292   -0.0621
           7    0.0203   -0.0186   -0.0075   -0.0187    0.0475    0.0041   -0.0104    0.0047
           8   -0.0250   -0.0372   -0.0248   -0.0335   -0.0139    0.0546    0.0195   -0.0164
           9    0.0381   -0.0227    0.0016    0.0712    0.0421    0.0411    0.0160   -0.0248
          10    0.0307   -0.0108    0.0091   -0.0151    0.0260    0.0326   -0.0019    0.0402
          11   -0.0191   -0.0326   -0.0151   -0.0323   -0.0268    0.0703    0.0244    0.0044
          12    0.0128   -0.0014   -0.0219   -0.0092   -0.0044   -0.0507   -0.0174    0.0279
          13    0.0305   -0.0113    0.0087   -0.0155    0.0264    0.0315   -0.0021    0.0398
          14   -0.0083   -0.0244    0.0044   -0.0267   -0.0533    0.1043    0.0327    0.0474
          15   -0.0070   -0.0610    0.0015   -0.0570   -0.0575   -0.1247   -0.0435    0.0846
          16    0.0205   -0.0188   -0.0077   -0.0194    0.0482    0.0024   -0.0106    0.0034
          17   -0.0028   -0.0207    0.0139   -0.0240   -0.0656    0.1210    0.0374    0.0680
          18   -0.0119   -0.1580    0.0660   -0.0121   -0.0598   -0.1178   -0.0378    0.0752
          19    0.0031   -0.0300   -0.0383   -0.0265    0.0883   -0.0469   -0.0246   -0.0624
          20   -0.0041   -0.0223    0.0118   -0.0245   -0.0629    0.1172    0.0364    0.0642
          21   -0.0004   -0.2775    0.1611    0.1211   -0.0096   -0.0123    0.0086   -0.0345
          22    0.0031   -0.0310   -0.0377   -0.0262    0.0879   -0.0481   -0.0251   -0.0615
          23   -0.0236   -0.0359   -0.0228   -0.0331   -0.0169    0.0590    0.0207   -0.0115
          24    0.0489   -0.1503    0.0943    0.1895    0.0800    0.1417    0.0610   -0.1314
          25    0.0364   -0.0052    0.0213   -0.0100    0.0109    0.0503    0.0015    0.0659
          26   -0.0050   -0.0213    0.0116   -0.0228   -0.0620    0.1153    0.0339    0.0614
          27   -0.0155   -0.0211   -0.0352   -0.1318   -0.0976   -0.1830   -0.0693    0.1423
          28    0.0202   -0.0190   -0.0082   -0.0197    0.0489    0.0009   -0.0111    0.0025
          29    0.0066   -0.0145    0.0289   -0.0209   -0.0858    0.1485    0.0456    0.1028
          30   -0.0294   -0.2054    0.0886   -0.0465   -0.0994   -0.1843   -0.0632    0.1329
          31    0.0409   -0.0041    0.0262   -0.0123    0.0030    0.0620    0.0079    0.0750
          32   -0.0244   -0.0356   -0.0257   -0.0347   -0.0127    0.0513    0.0184   -0.0160
          33    0.0071    0.0846   -0.0623   -0.0337    0.0038   -0.0651   -0.0248    0.0293
          34    0.0203   -0.0198   -0.0058   -0.0193    0.0452    0.0048   -0.0101    0.0070
          35   -0.0365   -0.0462   -0.0436   -0.0356    0.0102    0.0246    0.0100   -0.0543
          36    0.0679    0.0671   -0.0417    0.1009    0.0866    0.1069    0.0333   -0.0294
          37    0.0405   -0.0054    0.0272   -0.0125    0.0022    0.0614    0.0078    0.0747
          38   -0.0361   -0.0450   -0.0430   -0.0359    0.0084    0.0249    0.0098   -0.0502
          39    0.0303    0.1726   -0.0951   -0.0121    0.0322   -0.0333   -0.0215    0.0637
          40    0.0478   -0.0001    0.0399   -0.0139   -0.0103    0.0764    0.0126    0.0930
          41   -0.0409   -0.0492   -0.0503   -0.0341    0.0158    0.0171    0.0073   -0.0607
          42    0.0196    0.2413   -0.1196   -0.0349    0.0229   -0.0685   -0.0356    0.0987
          43    0.0298   -0.0144    0.0112   -0.0161    0.0235    0.0331   -0.0010    0.0394
          44   -0.0421   -0.0500   -0.0529   -0.0367    0.0223    0.0093    0.0051   -0.0726
          45    0.0648    0.1684   -0.0920    0.0536    0.0773    0.0573    0.0082    0.0359
          46    0.0295   -0.0158    0.0124   -0.0164    0.0224    0.0329   -0.0010    0.0401
          47   -0.0513   -0.0580   -0.0674   -0.0391    0.0426   -0.0154   -0.0028   -0.1061
          48    0.0893    0.2450   -0.1282    0.0733    0.1081    0.0978    0.0158    0.0561
          49    0.0487   -0.0036    0.0460   -0.0057   -0.0172    0.0969    0.0180    0.1101
          50   -0.0228   -0.0394   -0.0100   -0.0316   -0.0262    0.0758    0.0273   -0.0058
          51   -0.0175    0.0738   -0.0539   -0.0477   -0.0075   -0.0736   -0.0181   -0.0371
          52    0.0078   -0.0292   -0.0254   -0.0238    0.0703   -0.0311   -0.0215   -0.0341
          53   -0.0438   -0.0525   -0.0556   -0.0367    0.0271    0.0050    0.0039   -0.0815
          54    0.1105    0.0513   -0.0311    0.2021    0.1544    0.2586    0.0891   -0.1164
          55    0.0413    0.0505    0.0387   -0.0141    0.0052    0.0272    0.0235   -0.0187
          56   -0.0064    0.0143   -0.0503   -0.0464   -0.0061   -0.0150    0.0086    0.0043
          57   -0.0344    0.0228   -0.0163   -0.0281   -0.0258    0.0118    0.0010   -0.0485
          58    0.0776    0.0264    0.0416   -0.0679    0.0409   -0.0076    0.0111   -0.0647
          59   -0.0485    0.0232   -0.0448    0.0195   -0.0555    0.0535    0.0234    0.0807
          60    0.0111   -0.0834    0.0303   -0.0844   -0.0110    0.0678   -0.0032   -0.0167
          61    0.1302    0.0290    0.2049   -0.1665    0.0643   -0.0511    0.0006   -0.1134
          62   -0.0579   -0.1273   -0.2515    0.0874   -0.0533    0.1553    0.0349    0.1731
          63    0.0130   -0.1454   -0.0385   -0.0701   -0.0068    0.1110   -0.0023    0.0157
          64    0.0839    0.0231    0.0493   -0.0791    0.0447   -0.0116    0.0022   -0.0664
          65    0.0312   -0.0145   -0.0264   -0.1142    0.0442   -0.0502   -0.0094   -0.0997
          66   -0.1003    0.0533    0.0033    0.0509   -0.0483    0.0733    0.0352   -0.1175
          67    0.0552    0.0418    0.0434   -0.0332    0.0203    0.0072    0.0407   -0.0251
          68    0.0643   -0.0279   -0.0332   -0.1751    0.0479   -0.0236   -0.2177   -0.2037
          69   -0.1352    0.1007   -0.0474    0.0822   -0.1518    0.2436   -0.4142   -0.2363
          70    0.0874    0.0309    0.0417   -0.1060    0.0233    0.0620   -0.2647   -0.2208
          71    0.0405   -0.0022   -0.0597   -0.1308   -0.0038    0.0189   -0.2726   -0.1368
          72   -0.1146    0.0350    0.0531    0.0742    0.0235   -0.0265    0.4166   -0.0721
          73    0.1430   -0.0209    0.0756   -0.1497    0.1173   -0.1347    0.2051   -0.0018
          74    0.0147   -0.0357    0.0351   -0.0884    0.1333   -0.1716    0.4356   -0.0460
          75   -0.1043    0.0471    0.0201    0.0571   -0.0235    0.0389    0.1592   -0.1032
          76   -0.0396    0.1315    0.0304    0.0921   -0.0517    0.0675    0.0492   -0.0279
          77    0.0148    0.0694   -0.1029   -0.0681    0.0113   -0.1155   -0.0164    0.0300
          78   -0.0295    0.0596   -0.0453   -0.0302   -0.0203   -0.0394   -0.0097   -0.0358
          79   -0.0700    0.1728    0.0753    0.1307   -0.0866    0.1125    0.0320   -0.0251
          80   -0.0158    0.1319   -0.0264   -0.0289   -0.0344   -0.0571   -0.0634    0.0440
          81    0.0149    0.0595   -0.0189   -0.0850   -0.0009   -0.0649   -0.0669   -0.0097
          82   -0.0475    0.1125   -0.0799    0.1050   -0.0275   -0.0044    0.1254   -0.0453
          83    0.0300    0.0965   -0.1452   -0.0830    0.0241   -0.1818   -0.0326    0.0497
          84   -0.0447    0.0315   -0.0267   -0.0147   -0.0280    0.0079    0.0173   -0.0557
          85   -0.0638    0.1699    0.0905    0.1230   -0.0871    0.1239    0.0158   -0.0212
          86    0.0461    0.0189   -0.1785   -0.1082    0.0564   -0.1873    0.0265    0.0223
          87   -0.0575    0.1126   -0.1140    0.0105   -0.0314   -0.0972    0.0152   -0.0266
          88    0.0485   -0.0043   -0.1539    0.0040    0.0461    0.0066    0.0230   -0.0440
          89   -0.0734    0.2019    0.2043   -0.0062   -0.1037   -0.0104    0.0208    0.0333
          90    0.0473   -0.1050    0.1514   -0.1484   -0.0020    0.0726   -0.0142   -0.0237
          91    0.0787   -0.0258   -0.1489   -0.0400    0.0768   -0.0205    0.0133   -0.0816
          92   -0.1033    0.2041    0.2096    0.0400   -0.1416    0.0431    0.0321    0.0940
          93    0.0812   -0.1832    0.1885   -0.1858    0.0110    0.1190   -0.0234    0.0078
          94   -0.0058   -0.0118   -0.3342    0.1100    0.0219    0.0437    0.0445    0.0093
          95   -0.0677    0.3563    0.4189   -0.0718   -0.1127   -0.1182    0.0088   -0.0652
          96    0.0472   -0.0483    0.2230   -0.1686   -0.0062    0.0348   -0.0181   -0.0580
          97   -0.1242   -0.0810   -0.0070    0.0647   -0.1857   -0.0613   -0.0238    0.0814
          98   -0.2012   -0.0159    0.1347    0.2667    0.4479   -0.1368   -0.1802    0.0263
          99    0.0214    0.0735    0.0031   -0.0924    0.1394    0.0413   -0.0444    0.2859
         100   -0.0227   -0.0627    0.0032    0.0345   -0.1784    0.0483   -0.0219    0.2454
         101   -0.1646   -0.0119    0.0945    0.1434    0.3041   -0.1025    0.0102   -0.1527
         102   -0.0000    0.0674   -0.0199   -0.1406    0.0670    0.0170    0.0456    0.1447
         103   -0.2225   -0.0838   -0.0093    0.0866   -0.1336   -0.1292   -0.0424   -0.0313
         104   -0.0183   -0.0428    0.1392    0.3045    0.3012   -0.0969   -0.1999    0.2288
         105    0.0312    0.0410    0.0046   -0.0197    0.0803   -0.0358   -0.0932    0.3006
         106   -0.3153   -0.1007    0.0226    0.0656   -0.0790   -0.1313   -0.0649    0.0677
         107    0.2627   -0.0787    0.0328    0.2135   -0.1274   -0.0658   -0.0335    0.0427
         108    0.0553    0.0195   -0.0530    0.1034   -0.0766   -0.1789   -0.0300   -0.0229
         109   -0.1526   -0.0594   -0.0330    0.1272   -0.2504   -0.2435    0.0279   -0.1992
         110    0.6160    0.0244    0.0470    0.3630   -0.2472   -0.2344   -0.0536   -0.0500
         111   -0.1068   -0.0323   -0.1163    0.0279   -0.1232   -0.1304    0.0748   -0.1821
         112   -0.1331   -0.0495    0.0269    0.0300   -0.0445   -0.0153   -0.0876    0.2112
         113    0.0438   -0.1413   -0.0456    0.0426   -0.1054    0.1375    0.0915   -0.0000
         114   -0.0420   -0.0106   -0.0864    0.0340   -0.0694   -0.0958    0.0235   -0.0461


   Root No.       9        10        11        12        13        14        15        16

                 9 A      10 A      11 A      12 A      13 A      14 A      15 A      16 A   

                   0.0       0.0       0.0       0.0       0.0       0.1       0.1       0.1
  
           1    0.0021    0.0054    0.0008    0.0092    0.0037    0.0101   -0.0018    0.0039
           2   -0.0386   -0.0031   -0.0381   -0.0409   -0.0043   -0.0263   -0.1156    0.0011
           3   -0.0149   -0.0120   -0.0223    0.0058   -0.1199    0.0970   -0.0078    0.0015
           4    0.0016    0.0055    0.0006    0.0086    0.0034    0.0092   -0.0033    0.0043
           5   -0.0029   -0.0003   -0.0282    0.0022    0.0043   -0.0038   -0.0784   -0.0066
           6    0.0438    0.0037    0.0605    0.0007   -0.1474   -0.0883   -0.0121   -0.0129
           7   -0.0293    0.0024   -0.0075   -0.0300   -0.0044   -0.0110   -0.0356    0.0098
           8    0.0153    0.0013   -0.0233    0.0248    0.0089    0.0084   -0.0587   -0.0102
           9    0.0152    0.0093    0.0279    0.0053    0.0293   -0.1389    0.0095    0.0001
          10   -0.0562   -0.0011   -0.0126   -0.0657   -0.0114   -0.0273   -0.0489    0.0160
          11    0.0004   -0.0010   -0.0255    0.0046    0.0056    0.0007   -0.0604   -0.0068
          12   -0.0410   -0.0011   -0.0115    0.0075    0.0629   -0.1477    0.0169    0.0102
          13   -0.0561   -0.0009   -0.0130   -0.0657   -0.0111   -0.0273   -0.0493    0.0163
          14   -0.0387   -0.0032   -0.0372   -0.0405   -0.0028   -0.0251   -0.1085    0.0016
          15   -0.0846   -0.0034   -0.0774    0.0073    0.1872   -0.0793    0.0163    0.0091
          16   -0.0265    0.0021   -0.0057   -0.0276   -0.0029   -0.0068   -0.0210    0.0106
          17   -0.0559   -0.0049   -0.0420   -0.0624   -0.0075   -0.0362   -0.1278    0.0048
          18   -0.0872   -0.0130   -0.1108    0.0102    0.1276    0.1079    0.0137    0.0157
          19    0.0265    0.0079    0.0081    0.0392    0.0083    0.0239    0.0224   -0.0014
          20   -0.0532   -0.0046   -0.0426   -0.0590   -0.0071   -0.0350   -0.1314    0.0044
          21   -0.0054   -0.0230   -0.0204    0.0065   -0.2993    0.2485   -0.0286   -0.0027
          22    0.0253    0.0078    0.0061    0.0389    0.0105    0.0249    0.0180   -0.0011
          23    0.0109    0.0012   -0.0253    0.0200    0.0083    0.0051   -0.0671   -0.0097
          24    0.1107    0.0096    0.1487   -0.0058   -0.3439   -0.1666   -0.0407   -0.0385
          25   -0.0896   -0.0003   -0.0239   -0.0982   -0.0148   -0.0494   -0.0838    0.0221
          26   -0.0579   -0.0024   -0.0430   -0.0574   -0.0058   -0.0375   -0.1290    0.0068
          27   -0.1173    0.0043   -0.1080    0.0052    0.3296   -0.1386    0.0011   -0.0075
          28   -0.0261    0.0023   -0.0061   -0.0264   -0.0018   -0.0057   -0.0201    0.0108
          29   -0.0835   -0.0079   -0.0500   -0.1001   -0.0155   -0.0559   -0.1612    0.0115
          30   -0.1433   -0.0216   -0.2044    0.0161    0.2591    0.2744    0.0230    0.0290
          31   -0.0760   -0.0055   -0.0135   -0.0947   -0.0146   -0.0352   -0.0463    0.0174
          32    0.0124    0.0011   -0.0245    0.0226    0.0051    0.0055   -0.0549   -0.0059
          33   -0.0633   -0.0106   -0.0245    0.0203   -0.0501   -0.0835    0.0095    0.0156
          34   -0.0310    0.0020   -0.0071   -0.0323   -0.0071   -0.0136   -0.0365    0.0102
          35    0.0403    0.0062   -0.0202    0.0597    0.0157    0.0189   -0.0605   -0.0151
          36    0.0290    0.0220   -0.0013    0.0137    0.1491   -0.0489    0.0089    0.0006
          37   -0.0751   -0.0051   -0.0129   -0.0947   -0.0131   -0.0397   -0.0441    0.0174
          38    0.0348    0.0057   -0.0213    0.0534    0.0127    0.0148   -0.0659   -0.0125
          39   -0.0891   -0.0173   -0.0890    0.0256   -0.1327    0.1434   -0.0219   -0.0002
          40   -0.0896   -0.0080   -0.0126   -0.1175   -0.0150   -0.0515   -0.0496    0.0238
          41    0.0440    0.0077   -0.0206    0.0663    0.0163    0.0199   -0.0626   -0.0179
          42   -0.1309   -0.0316   -0.1440    0.0391   -0.3026    0.3107   -0.0481   -0.0094
          43   -0.0511   -0.0015   -0.0086   -0.0619   -0.0094   -0.0278   -0.0382    0.0130
          44    0.0517    0.0083   -0.0189    0.0760    0.0182    0.0250   -0.0609   -0.0171
          45   -0.0417    0.0025   -0.0881    0.0247    0.0367    0.1745   -0.0235   -0.0056
          46   -0.0517   -0.0016   -0.0072   -0.0636   -0.0110   -0.0330   -0.0384    0.0133
          47    0.0748    0.0124   -0.0156    0.1084    0.0244    0.0374   -0.0615   -0.0228
          48   -0.0548    0.0064   -0.1581    0.0357    0.0977    0.3927   -0.0510   -0.0122
          49   -0.0714   -0.0079   -0.0153   -0.1038   -0.0126   -0.0132    0.0154    0.0082
          50    0.0184   -0.0002   -0.0186    0.0157    0.0091    0.0224   -0.0108   -0.0125
          51   -0.0462    0.0008   -0.0022    0.0468   -0.0677   -0.1157    0.0157    0.0334
          52   -0.0038    0.0060   -0.0038    0.0081   -0.0083    0.0030   -0.0339    0.0042
          53    0.0592    0.0096   -0.0169    0.0849    0.0220    0.0277   -0.0595   -0.0193
          54    0.1379    0.0693    0.0502    0.0148    0.5273   -0.1690    0.0565    0.0135
          55   -0.0249   -0.0086    0.0209   -0.0132    0.0016    0.0138    0.0415   -0.0318
          56    0.0082   -0.0173    0.0129    0.0169   -0.0116   -0.0057    0.0101   -0.0168
          57   -0.0312    0.0145   -0.0249    0.0480   -0.0442   -0.0819   -0.0093    0.0398
          58   -0.0062   -0.0135    0.0308    0.0234    0.0100    0.0190    0.0080   -0.0099
          59   -0.0264   -0.0071   -0.0049   -0.0502   -0.0219   -0.0078    0.0764   -0.0607
          60   -0.0511    0.0182   -0.0360   -0.0005   -0.0340   -0.0627    0.0280    0.0053
          61    0.0120    0.0136    0.0604    0.0462    0.0377    0.0401   -0.0426    0.0140
          62   -0.0619   -0.0501   -0.0329   -0.1125   -0.0380   -0.0007    0.2205   -0.1662
          63   -0.0675    0.0040   -0.0468   -0.0270   -0.0388   -0.0596    0.0844   -0.0324
          64   -0.0025   -0.0132    0.0390    0.0090    0.0101    0.0398    0.0516   -0.0380
          65    0.0646   -0.0171    0.0302    0.0755    0.0146    0.0616    0.0221   -0.0349
          66    0.0249    0.0320   -0.0510    0.1114   -0.0077   -0.0097   -0.0378    0.0243
          67   -0.0247   -0.0149    0.0262   -0.0020    0.0021    0.0127    0.0412   -0.0314
          68    0.1080    0.0035    0.0492    0.0691    0.0284    0.1167    0.0456   -0.0444
          69    0.0514    0.0863   -0.0529    0.0439   -0.0050    0.0234   -0.0270    0.0439
          70    0.0649    0.0222    0.0524    0.0220    0.0384    0.1301    0.0675   -0.0482
          71    0.0564    0.0057    0.0428    0.0146    0.0023    0.0514    0.0403   -0.0218
          72    0.0427   -0.0010   -0.0695    0.2037    0.0130    0.0146   -0.0623    0.0020
          73   -0.0279   -0.0485    0.0474    0.0266   -0.0042    0.0008    0.0705   -0.0658
          74    0.0883   -0.0645    0.0109    0.1674    0.0389    0.0940    0.0082   -0.0618
          75    0.0307    0.0192   -0.0562    0.1392   -0.0013   -0.0015   -0.0419    0.0165
          76   -0.0180    0.0147    0.0095    0.0067    0.0135    0.0249    0.0450   -0.0600
          77   -0.0219   -0.0145    0.0402    0.0116   -0.0535   -0.1020    0.0566    0.0174
          78   -0.0469    0.0188   -0.0141    0.0495   -0.0654   -0.1336    0.0141    0.0546
          79   -0.0206   -0.1878    0.0019    0.0648    0.0291    0.0106    0.0544   -0.0766
          80   -0.0340   -0.4126    0.0326    0.1172   -0.0382   -0.1552    0.0789    0.0110
          81   -0.0705   -0.2378   -0.0034    0.0981   -0.0847   -0.2146    0.0387    0.0973
          82   -0.0055    0.5571    0.0185   -0.1200   -0.0067    0.0739    0.0369   -0.0695
          83   -0.0429    0.0222    0.0581   -0.0022   -0.0854   -0.1763    0.0917    0.0484
          84   -0.0266    0.0795   -0.0280    0.0398   -0.0417   -0.0634   -0.0167    0.0282
          85   -0.0240   -0.2856   -0.0008    0.0861    0.0315    0.0019    0.0543   -0.0740
          86   -0.0147    0.3686    0.0529   -0.0895   -0.0757   -0.0746    0.0469    0.0330
          87   -0.0595    0.2348   -0.0037    0.0059   -0.0886   -0.1791    0.0419    0.0636
          88   -0.0112   -0.0564    0.0059    0.0438   -0.0124   -0.0052   -0.0148    0.0140
          89   -0.0151    0.0513    0.0506   -0.0613   -0.0081    0.0067    0.0708   -0.0265
          90   -0.0498    0.0437   -0.0272   -0.0173   -0.0159   -0.0432    0.0540   -0.0294
          91    0.0064   -0.0662    0.0033    0.0924   -0.0027   -0.0105   -0.1098    0.0690
          92   -0.0449    0.0683    0.0508   -0.1437   -0.0185    0.0206    0.2320   -0.1304
          93   -0.0621    0.0580   -0.0443   -0.0549   -0.0071   -0.0282    0.1407   -0.1213
          94   -0.0338   -0.0850   -0.0133    0.0179   -0.0432   -0.0248    0.0547   -0.0138
          95    0.0216    0.0832    0.1065    0.0030    0.0141    0.0058   -0.0783    0.1034
          96   -0.0375    0.0544   -0.0079    0.0053   -0.0092   -0.0449    0.0027    0.0167
          97    0.0617    0.0619    0.0516    0.2182   -0.0132   -0.0051    0.1958    0.0390
          98   -0.1025   -0.0393   -0.0632   -0.1898    0.0316   -0.0288   -0.0201    0.1441
          99    0.4132   -0.0543    0.0777   -0.1751   -0.0180    0.0423   -0.0517    0.2396
         100    0.1044    0.0997    0.1375    0.3194   -0.0433    0.0281    0.1468    0.5812
         101    0.0298   -0.0758   -0.2786   -0.2175   -0.0334   -0.0169    0.3986    0.1117
         102    0.4708   -0.0855   -0.0571   -0.2247   -0.0374    0.0380    0.1695    0.0336
         103    0.0390    0.0135   -0.0408    0.0502    0.0051   -0.0306    0.2133   -0.2301
         104   -0.1954    0.0906    0.2417    0.2764    0.0438   -0.0071   -0.1883    0.0146
         105    0.2997   -0.0075    0.2230    0.0030    0.0266    0.0255   -0.2032   -0.3084
         106    0.1839    0.0142    0.0094    0.0354    0.0551    0.0225   -0.1315   -0.1640
         107    0.0507    0.0148    0.0937    0.0493    0.0475    0.0904    0.1296   -0.0473
         108   -0.0429   -0.0558    0.2620   -0.0803    0.0061    0.0025   -0.0128   -0.2202
         109    0.2039   -0.0866   -0.1856   -0.2810    0.0449   -0.0179   -0.3353    0.2160
         110    0.1471   -0.0011   -0.2424   -0.0301   -0.0426   -0.0904   -0.0056   -0.0193
         111   -0.1125   -0.1349    0.3866   -0.2997    0.0769    0.1265   -0.0792    0.0981
         112    0.2011    0.0601   -0.1399    0.1320   -0.0416   -0.0536    0.0478   -0.2187
         113   -0.0462   -0.0346    0.2609   -0.0826    0.0981    0.2524    0.2388    0.2727
         114   -0.0922   -0.0810    0.3485   -0.1478    0.0331    0.0772    0.0302   -0.0915


   Root No.      17        18        19        20        21        22        23        24

                17 A      18 A      19 A      20 A      21 A      22 A      23 A      24 A   

                   0.1       0.1       0.1       0.1       0.2       0.2       0.2       0.2
  
           1   -0.0053   -0.0030    0.0051   -0.0097   -0.0152   -0.0015    0.0040    0.0123
           2   -0.0890   -0.0196   -0.0092    0.0123    0.0043    0.0003   -0.0024   -0.0327
           3   -0.0035    0.0162   -0.0776   -0.0256    0.0006    0.0108   -0.0145    0.0247
           4   -0.0070   -0.0036    0.0048   -0.0102   -0.0162   -0.0012    0.0040    0.0097
           5   -0.0453   -0.0050   -0.0095    0.0405    0.0404   -0.0034   -0.0053   -0.0043
           6    0.0180   -0.0259    0.1614    0.0484    0.0016   -0.0104    0.0068   -0.0150
           7   -0.0440   -0.0155    0.0055   -0.0330   -0.0437    0.0020    0.0059   -0.0166
           8   -0.0226    0.0022   -0.0097    0.0535    0.0564   -0.0049   -0.0065    0.0100
           9    0.0116   -0.0396    0.1594    0.0374    0.0039   -0.0346    0.0295    0.0078
          10   -0.0646   -0.0215    0.0081   -0.0615   -0.0743    0.0039    0.0106   -0.0157
          11   -0.0299   -0.0005   -0.0070    0.0367    0.0378   -0.0044   -0.0041    0.0157
          12    0.0113   -0.0490    0.1777    0.0395    0.0028   -0.0213   -0.0132    0.0393
          13   -0.0656   -0.0216    0.0080   -0.0631   -0.0771    0.0043    0.0112   -0.0169
          14   -0.0828   -0.0185   -0.0076    0.0118    0.0039   -0.0004   -0.0018   -0.0232
          15    0.0135   -0.0507    0.2113    0.0671    0.0033   -0.0078   -0.0189    0.0200
          16   -0.0318   -0.0116    0.0065   -0.0375   -0.0473    0.0008    0.0083    0.0037
          17   -0.1050   -0.0251   -0.0080   -0.0032   -0.0141    0.0017    0.0000   -0.0389
          18   -0.0082   -0.0038   -0.0369   -0.0062    0.0046   -0.0192    0.0265   -0.0107
          19    0.0241    0.0066    0.0062    0.0116    0.0111   -0.0042    0.0010    0.0364
          20   -0.1079   -0.0256   -0.0097   -0.0004   -0.0117    0.0018   -0.0007   -0.0478
          21   -0.0141    0.0713   -0.2993   -0.0977   -0.0040    0.0722   -0.0830    0.0936
          22    0.0195    0.0056    0.0037    0.0111    0.0106   -0.0042    0.0021    0.0282
          23   -0.0307    0.0002   -0.0104    0.0540    0.0575   -0.0053   -0.0067    0.0058
          24    0.0423   -0.0431    0.3591    0.1244   -0.0018    0.0068   -0.0151   -0.0819
          25   -0.1069   -0.0354    0.0122   -0.0896   -0.1159    0.0085    0.0144   -0.0514
          26   -0.1067   -0.0278   -0.0068   -0.0028   -0.0176    0.0019    0.0004   -0.0425
          27    0.0379   -0.0766    0.4233    0.1451    0.0065    0.0314   -0.0449    0.0193
          28   -0.0313   -0.0113    0.0061   -0.0377   -0.0476    0.0003    0.0089    0.0038
          29   -0.1450   -0.0375   -0.0083   -0.0317   -0.0508    0.0058    0.0044   -0.0674
          30   -0.0255    0.0203   -0.1920   -0.0421    0.0101   -0.0496    0.1070   -0.0895
          31   -0.0651   -0.0230    0.0085   -0.0630   -0.0678    0.0008    0.0071    0.0018
          32   -0.0232    0.0045   -0.0075    0.0310    0.0311   -0.0016    0.0008    0.0136
          33    0.0054   -0.0258    0.0696   -0.0109    0.0195   -0.0331    0.0509    0.0223
          34   -0.0450   -0.0164    0.0072   -0.0332   -0.0443    0.0018    0.0061   -0.0172
          35   -0.0157    0.0042   -0.0151    0.0798    0.0818   -0.0032   -0.0125   -0.0197
          36   -0.0007   -0.0094    0.0355    0.0041    0.0015   -0.0181    0.0120    0.0036
          37   -0.0638   -0.0227    0.0092   -0.0653   -0.0687    0.0007    0.0061    0.0085
          38   -0.0242    0.0012   -0.0148    0.0676    0.0642   -0.0013   -0.0085   -0.0258
          39    0.0029   -0.0069    0.0903    0.0170    0.0186   -0.0596    0.1577   -0.0278
          40   -0.0817   -0.0250    0.0130   -0.0985   -0.1126    0.0032    0.0075    0.0378
          41   -0.0132    0.0005   -0.0171    0.0875    0.0895   -0.0017   -0.0156   -0.0428
          42    0.0029    0.0044    0.0897   -0.0106    0.0718   -0.1799    0.5689   -0.1264
          43   -0.0514   -0.0193    0.0082   -0.0449   -0.0488   -0.0012    0.0084   -0.0021
          44   -0.0131    0.0049   -0.0159    0.0873    0.0856   -0.0018   -0.0133   -0.0317
          45   -0.0040    0.0084    0.0629    0.0471   -0.0220    0.0403   -0.1403    0.0120
          46   -0.0525   -0.0208    0.0094   -0.0479   -0.0507   -0.0043    0.0177   -0.0024
          47   -0.0053    0.0086   -0.0197    0.1152    0.1139   -0.0015   -0.0187   -0.0571
          48   -0.0146    0.0464    0.0201    0.0916   -0.0723    0.1918   -0.5517    0.0489
          49   -0.0054   -0.0080    0.0272   -0.0374   -0.0104   -0.0154   -0.0016    0.0687
          50    0.0137    0.0080   -0.0025    0.0382    0.0509   -0.0110   -0.0090    0.0554
          51    0.0064    0.0095   -0.0462   -0.0601    0.0726   -0.0086    0.0057   -0.0279
          52   -0.0325   -0.0132    0.0120   -0.0012   -0.0182    0.0036   -0.0038   -0.0452
          53   -0.0093    0.0066   -0.0186    0.0985    0.0996   -0.0032   -0.0134   -0.0389
          54   -0.0212    0.0345   -0.3123   -0.1588    0.0508   -0.0896    0.3098   -0.0342
          55    0.0574    0.0057   -0.0142    0.0040    0.0240    0.0028   -0.0277    0.0089
          56    0.0226    0.0053   -0.0130    0.0561   -0.0016   -0.0181    0.0316    0.0747
          57   -0.0063    0.0108   -0.0367   -0.0728    0.1471   -0.0047   -0.0394   -0.0317
          58    0.0264    0.0418   -0.0143    0.0389    0.0304    0.0050   -0.0238    0.0136
          59    0.0931   -0.0433   -0.0161    0.0246   -0.0131   -0.0196    0.0284    0.0798
          60    0.0536    0.0157   -0.0460   -0.0284    0.1577   -0.0071   -0.0501   -0.0032
          61   -0.0342    0.1521   -0.0091    0.1514   -0.0222   -0.0066   -0.0073    0.0295
          62    0.2711   -0.1251   -0.0402    0.0168   -0.0563   -0.0128    0.0335    0.1138
          63    0.1253   -0.0034   -0.0595   -0.0085    0.1277    0.0002   -0.0413    0.0158
          64    0.0773   -0.0486    0.0027   -0.0395    0.0505    0.0115   -0.0237   -0.0308
          65    0.0530   -0.0976    0.0319   -0.0417   -0.0617    0.0099    0.0464    0.0406
          66   -0.0172   -0.0240    0.0120   -0.0975   -0.0799    0.0329   -0.0035    0.0429
          67    0.0643    0.0142   -0.0196    0.0144    0.0512    0.0056   -0.0353    0.0052
          68    0.0630   -0.1994    0.0734   -0.1322   -0.1046    0.0131    0.0657   -0.0094
          69   -0.0636   -0.0076    0.0253   -0.0978   -0.2175    0.0126   -0.0044    0.0779
          70    0.0811   -0.1625    0.0659   -0.1518   -0.1296    0.0361    0.0051   -0.0431
          71    0.0451   -0.0799    0.0137   -0.0129    0.0235   -0.0206    0.0313    0.0076
          72   -0.0068   -0.0660    0.0484   -0.1581   -0.2421    0.0798    0.0260    0.0956
          73    0.1182   -0.0735   -0.0215   -0.0507    0.2741   -0.0101   -0.0523   -0.1333
          74    0.0604   -0.1518    0.0752   -0.1003   -0.2404    0.0436    0.0837    0.0773
          75   -0.0168   -0.0374    0.0251   -0.1208   -0.1396    0.0395    0.0040    0.0516
          76    0.0838    0.0623   -0.0300    0.1689   -0.0111   -0.0099    0.0309   -0.0114
          77    0.0365    0.1037   -0.0775    0.0188   -0.1258    0.0172    0.0028    0.0377
          78    0.0036    0.0715   -0.0713   -0.0774    0.0691    0.0147   -0.0485   -0.0540
          79    0.1062    0.0944   -0.0413    0.2558   -0.0219   -0.0197    0.0594   -0.0296
          80    0.0657    0.1611   -0.1075    0.0806   -0.1746    0.0237    0.0134    0.0125
          81   -0.0023    0.0989   -0.1044   -0.2306    0.0056    0.0608   -0.1267   -0.0683
          82    0.0806    0.0825   -0.0311    0.2398   -0.0073   -0.0240    0.0556   -0.0251
          83    0.0470    0.1998   -0.1388   -0.0149   -0.2595    0.0603   -0.0394    0.0045
          84   -0.0058   -0.0037   -0.0226   -0.0394    0.1827   -0.0225   -0.0121   -0.0296
          85    0.1043    0.0864   -0.0392    0.2337   -0.0157   -0.0176    0.0509   -0.0326
          86    0.0146    0.0811   -0.0691   -0.0528   -0.1280    0.0275   -0.0210    0.0633
          87    0.0242    0.1968   -0.1316    0.0166   -0.0361    0.0341   -0.0472   -0.1276
          88   -0.0021    0.0149   -0.0081   -0.0288    0.1390   -0.0084   -0.0417    0.0232
          89    0.0614   -0.0746    0.0041   -0.0914    0.0808   -0.0014   -0.0262    0.0289
          90    0.0940    0.0549   -0.0602    0.0777    0.0230    0.0010   -0.0168    0.0041
          91   -0.1159    0.1370   -0.0028    0.1036    0.0992   -0.0385    0.0234    0.1385
          92    0.2642   -0.2436   -0.0155   -0.2306    0.0705    0.0479   -0.1029   -0.1324
          93    0.2235    0.0592   -0.0962    0.2213   -0.2223    0.0240    0.0375   -0.0149
          94    0.0808   -0.1167   -0.0114   -0.2244    0.3330    0.0023   -0.1418   -0.0785
          95   -0.1523    0.0498    0.0403   -0.0925    0.2283   -0.0312   -0.0272    0.1320
          96    0.0203    0.0978   -0.0489    0.0754    0.0800   -0.0090   -0.0192    0.0385
          97   -0.2020   -0.1090   -0.0259    0.0741   -0.0072    0.1596    0.0193   -0.1792
          98    0.0854    0.0070    0.0253    0.0422    0.1136    0.3591    0.1470    0.2437
          99    0.0757   -0.0448   -0.0413    0.0717    0.0438    0.1567    0.0654    0.1039
         100    0.0231   -0.2917   -0.0891    0.1703   -0.0254   -0.0805   -0.0221    0.0604
         101   -0.2689   -0.0467    0.0251    0.0673   -0.0575   -0.3512   -0.1370   -0.1540
         102   -0.1754   -0.0061   -0.0178    0.0514   -0.0340   -0.1137   -0.0611   -0.1689
         103   -0.3010    0.0038    0.0163    0.0383    0.0753    0.5278    0.1443   -0.1081
         104    0.1415   -0.0631   -0.0343   -0.0191   -0.0654   -0.1655   -0.0822   -0.2134
         105   -0.0056    0.0832   -0.0253   -0.0559   -0.0062    0.1751    0.0241   -0.2203
         106    0.0854    0.2079    0.0761   -0.1163   -0.0696   -0.3201   -0.1201   -0.1223
         107   -0.0853    0.2472    0.1468   -0.0952   -0.0359   -0.1023   -0.0367   -0.1571
         108   -0.2044   -0.1880   -0.1313    0.1070   -0.0121   -0.1738   -0.0595    0.1787
         109    0.3783    0.0112   -0.0170   -0.0184   -0.0312    0.0097   -0.0030   -0.1034
         110   -0.0033   -0.0842   -0.0441    0.0270    0.0280    0.0673    0.0237    0.0942
         111   -0.0160   -0.0858   -0.0511    0.0910   -0.0316   -0.0298   -0.0080   -0.0032
         112   -0.0017    0.1475    0.0527   -0.1525    0.1018   -0.2229   -0.0082    0.5746
         113    0.0403    0.4731    0.3174   -0.2258    0.0570    0.0852    0.0781    0.0277
         114   -0.1603   -0.1021   -0.0624    0.0655    0.0167   -0.0921   -0.0125    0.2347


   Root No.      25        26        27        28        29        30        31        32

                25 A      26 A      27 A      28 A      29 A      30 A      31 A      32 A   

                   0.2       0.2       0.3       0.3       0.3       0.4       0.4       0.5
  
           1   -0.0130   -0.0103   -0.0209    0.0148    0.0071   -0.0700   -0.0433   -0.0075
           2    0.0494    0.0239    0.0402   -0.0200   -0.0110   -0.0185   -0.0364   -0.0313
           3    0.0317   -0.1066    0.0025   -0.1008   -0.0234   -0.0024    0.0044   -0.0449
           4   -0.0080   -0.0084   -0.0183    0.0133    0.0062   -0.0555   -0.0314   -0.0026
           5   -0.0095    0.0064    0.0281   -0.0099   -0.0107   -0.1124   -0.1228   -0.0673
           6   -0.0300    0.0747   -0.0400   -0.0900   -0.0168   -0.0032    0.0045   -0.0537
           7    0.0416    0.0081   -0.0022   -0.0009    0.0035    0.0480    0.0527    0.0245
           8   -0.0369   -0.0026    0.0198   -0.0036   -0.0090   -0.1516   -0.1533   -0.0762
           9   -0.0229    0.0031   -0.1083   -0.3665   -0.0579   -0.0053    0.0142   -0.1217
          10    0.0481    0.0033   -0.0275    0.0118    0.0146    0.0463    0.0746    0.0555
          11   -0.0409   -0.0102   -0.0002    0.0065   -0.0018   -0.1449   -0.1291   -0.0522
          12    0.0215   -0.1276   -0.0818   -0.3485   -0.0575   -0.0033    0.0076   -0.0540
          13    0.0516    0.0040   -0.0288    0.0142    0.0157    0.0554    0.0880    0.0662
          14    0.0337    0.0171    0.0280   -0.0114   -0.0068   -0.0500   -0.0559   -0.0333
          15    0.0228   -0.1140    0.0406   -0.0649   -0.0336   -0.0015    0.0027   -0.0386
          16    0.0090   -0.0068   -0.0344    0.0208    0.0148   -0.0284    0.0112    0.0307
          17    0.0644    0.0273    0.0346   -0.0185   -0.0071    0.0094   -0.0025   -0.0107
          18   -0.0350    0.0805   -0.0583   -0.0981   -0.0211   -0.0016    0.0030   -0.0340
          19   -0.0579   -0.0295   -0.0302    0.0265    0.0079   -0.1932   -0.1545   -0.0542
          20    0.0775    0.0354    0.0465   -0.0271   -0.0118    0.0478    0.0230   -0.0069
          21    0.1701   -0.4868    0.1773    0.0726   -0.0021    0.0014   -0.0006    0.0174
          22   -0.0461   -0.0196   -0.0224    0.0178    0.0047   -0.1605   -0.1281   -0.0472
          23   -0.0314    0.0008    0.0279   -0.0079   -0.0127   -0.1809   -0.1890   -0.0995
          24   -0.0983    0.3567    0.0112    0.3752    0.0699   -0.0001   -0.0174    0.1155
          25    0.1300    0.0261   -0.0115    0.0085    0.0157    0.1990    0.2362    0.1411
          26    0.0806    0.0321    0.0382   -0.0187   -0.0076    0.0272    0.0228    0.0045
          27    0.0844   -0.2715    0.3029    0.3996    0.0204    0.0026   -0.0066    0.0149
          28    0.0076   -0.0045   -0.0370    0.0227    0.0156   -0.0333    0.0093    0.0326
          29    0.1216    0.0446    0.0411   -0.0267   -0.0051    0.1209    0.1100    0.0491
          30   -0.1647    0.5101   -0.1825    0.0503    0.0351    0.0006   -0.0079    0.0642
          31    0.0024   -0.0128   -0.0356    0.0154    0.0131   -0.0577   -0.0487   -0.0236
          32   -0.0242   -0.0075   -0.0114    0.0150    0.0057   -0.0935   -0.0539    0.0144
          33    0.0265   -0.0954   -0.0828   -0.2084   -0.0098    0.0090   -0.0036    0.0928
          34    0.0420    0.0086   -0.0019   -0.0036    0.0025    0.0533    0.0546    0.0227
          35    0.0067    0.0255    0.0713   -0.0319   -0.0255   -0.0111   -0.0584   -0.0559
          36   -0.0112    0.0011   -0.0689   -0.2377   -0.0325   -0.0025    0.0109   -0.0879
          37   -0.0022   -0.0175   -0.0446    0.0164    0.0144   -0.0755   -0.0599   -0.0223
          38    0.0244    0.0269    0.0613   -0.0251   -0.0187    0.0159   -0.0131   -0.0145
          39   -0.0101   -0.0426    0.0024   -0.1128   -0.0113   -0.0015    0.0004   -0.0113
          40   -0.0198   -0.0378   -0.1053    0.0507    0.0294   -0.2414   -0.1219    0.0232
          41    0.0343    0.0385    0.0960   -0.0496   -0.0251    0.1085    0.0184   -0.0452
          42   -0.0418   -0.0208    0.1952    0.1263   -0.0018   -0.0164   -0.0002   -0.0853
          43    0.0109   -0.0064   -0.0192    0.0020    0.0054   -0.0323   -0.0347   -0.0283
          44    0.0289    0.0365    0.0862   -0.0405   -0.0286    0.0552    0.0028   -0.0282
          45    0.0035    0.0048   -0.0464   -0.1126   -0.0105   -0.0016    0.0030   -0.0355
          46    0.0101   -0.0087   -0.0222   -0.0027    0.0059   -0.0377   -0.0381   -0.0321
          47    0.0647    0.0648    0.1444   -0.0726   -0.0493    0.2067    0.1118   -0.0083
          48    0.0430    0.0638   -0.0388    0.1579    0.0358    0.0045   -0.0083    0.0707
          49   -0.1265   -0.0536   -0.0578    0.0085   -0.0030   -0.0620   -0.0810   -0.1164
          50   -0.1095   -0.0336   -0.0395    0.0354    0.0026   -0.0967   -0.0555   -0.0268
          51    0.0688   -0.0252   -0.0628   -0.0364    0.0295    0.0561   -0.0320    0.2507
          52    0.0864    0.0419    0.0517   -0.0482   -0.0221    0.2722    0.2313    0.0732
          53    0.0359    0.0457    0.1111   -0.0532   -0.0398    0.1260    0.0504   -0.0242
          54    0.0224   -0.0888    0.1338    0.2144    0.0352    0.0066   -0.0012    0.0545
          55   -0.1253    0.0047    0.1031   -0.0347   -0.0112    0.1118   -0.0961    0.0115
          56   -0.1157   -0.0730   -0.0762   -0.0072    0.0440   -0.0356    0.0257    0.1934
          57    0.0493   -0.0055   -0.0712    0.0170    0.0332   -0.0075   -0.0792    0.1210
          58   -0.1365    0.0086    0.1286   -0.0512   -0.0221    0.0159    0.0131    0.0538
          59   -0.1174   -0.0830   -0.1221    0.0322    0.0551    0.0954   -0.0641    0.0675
          60   -0.0354   -0.0211   -0.0866    0.0713    0.0394   -0.0749    0.1761   -0.1028
          61   -0.2103    0.0062    0.2143   -0.1041   -0.0365   -0.1620    0.2201    0.1167
          62   -0.1471   -0.1091   -0.2088    0.1094    0.1017    0.3663   -0.0504   -0.1321
          63   -0.0510   -0.0301   -0.1149    0.0996    0.0410    0.0178    0.2013   -0.1773
          64    0.0072    0.0280    0.0650   -0.0214   -0.0119    0.1048   -0.1044   -0.0311
          65    0.0417   -0.0310   -0.0983    0.0137    0.0333   -0.0561    0.0508    0.1128
          66   -0.0473    0.0084    0.0154   -0.0007    0.0158    0.0140   -0.0520    0.0463
          67   -0.1511    0.0118    0.1482   -0.0594   -0.0252    0.1504   -0.1219    0.0484
          68    0.2607   -0.0098   -0.2171    0.0706    0.0469   -0.1092    0.0728   -0.0184
          69   -0.1994   -0.0099    0.0829   -0.0198   -0.0162    0.0325   -0.0051    0.0521
          70    0.1336    0.0694    0.0558    0.0074   -0.0356    0.1539   -0.0960   -0.3438
          71    0.0676   -0.0452   -0.1402    0.0212    0.0365   -0.0762    0.0274    0.2043
          72   -0.0748    0.0271    0.0603   -0.0044    0.0150    0.0380   -0.0042   -0.1001
          73    0.2472    0.0496   -0.0509    0.0137    0.0169    0.1254   -0.2832    0.0007
          74    0.0430   -0.0264   -0.0985    0.0235    0.0305   -0.0767    0.1484    0.0231
          75   -0.0578    0.0082    0.0197    0.0011    0.0124    0.0125   -0.0265    0.0208
          76    0.0460    0.0005   -0.0056   -0.0142   -0.0080    0.0427   -0.0493    0.0152
          77   -0.0646   -0.0037   -0.0028    0.0061    0.0107   -0.0109    0.0290    0.1082
          78    0.0922    0.0332   -0.0334    0.0198    0.0145    0.0050   -0.0871    0.0820
          79    0.1600   -0.0064   -0.0910    0.0109    0.0028   -0.0591    0.0616    0.0185
          80    0.0451    0.0158   -0.0501    0.0436    0.0143   -0.1035    0.1321    0.0507
          81   -0.0206    0.1081    0.1526    0.0162   -0.0208    0.1611   -0.2725   -0.0850
          82    0.1251   -0.0034   -0.0705   -0.0030   -0.0060   -0.0195    0.0181   -0.0309
          83   -0.0413    0.0876    0.1130    0.0463   -0.0338   -0.0007    0.0634   -0.2530
          84    0.0869   -0.0421   -0.1447   -0.0066    0.0553   -0.0170   -0.1137    0.3917
          85    0.1381   -0.0018   -0.0607    0.0018   -0.0045   -0.0215    0.0077   -0.0051
          86   -0.1730    0.0011    0.0638   -0.0092    0.0074    0.0619   -0.0317    0.1272
          87    0.3153    0.1080   -0.0739    0.0988   -0.0098   -0.1407    0.0313   -0.2278
          88   -0.1472   -0.0213    0.0381   -0.0070    0.0095    0.0020    0.0498    0.0332
          89   -0.0875   -0.0286   -0.0244    0.0100    0.0203    0.0547   -0.0261    0.0370
          90   -0.0421   -0.0087   -0.0235    0.0346    0.0192   -0.0497    0.1456   -0.0732
          91   -0.2061   -0.1039   -0.1465    0.0635    0.0472    0.1766   -0.0508    0.0212
          92   -0.0208    0.0942    0.2837   -0.1205   -0.0500   -0.1698    0.0692    0.1273
          93   -0.0299    0.0244    0.1277   -0.0754   -0.0267    0.0086   -0.0749    0.1586
          94   -0.1425    0.0205    0.1149   -0.0039    0.0257   -0.2547    0.3952   -0.0761
          95   -0.1452   -0.0937   -0.2317    0.1421    0.0688    0.1800    0.0936   -0.1928
          96   -0.0627   -0.0310   -0.0966    0.0831    0.0362   -0.0132    0.2036   -0.1601
          97   -0.0591   -0.0582   -0.0435    0.0262   -0.0837    0.0069    0.0009    0.0039
          98    0.0821    0.0906    0.0834   -0.0678    0.2463   -0.0110   -0.0032   -0.0093
          99    0.0495    0.0588    0.0588   -0.0500    0.1718   -0.0000    0.0002   -0.0107
         100    0.0455    0.0327    0.0621   -0.0044    0.0841    0.0030    0.0054   -0.0079
         101   -0.0346   -0.0670   -0.0198    0.0609   -0.1756    0.0093   -0.0025    0.0030
         102   -0.0406   -0.0480   -0.0244    0.0246   -0.0875    0.0098    0.0010   -0.0028
         103   -0.0578   -0.0300   -0.0439   -0.0042   -0.0264   -0.0026   -0.0005   -0.0015
         104   -0.0893   -0.0934   -0.0988    0.0798   -0.2992    0.0085    0.0004    0.0130
         105   -0.1000   -0.0702   -0.1047    0.0358   -0.2129    0.0048    0.0021    0.0038
         106    0.0201   -0.0258    0.0607   -0.0919    0.4853   -0.0035   -0.0087   -0.0267
         107    0.0180   -0.0370    0.0470   -0.0942    0.3947    0.0044   -0.0152   -0.0125
         108    0.0416    0.0777    0.0883   -0.0057    0.1427   -0.0202   -0.0039   -0.0291
         109   -0.0539   -0.0498   -0.0742    0.0414   -0.2163    0.0119    0.0004    0.0157
         110    0.0077    0.0260   -0.0003    0.0159   -0.0588   -0.0060    0.0084   -0.0011
         111   -0.0139    0.0077    0.0139    0.0192   -0.0840   -0.0035   -0.0144   -0.0099
         112    0.2008    0.1924    0.0644    0.0464   -0.3353   -0.0090    0.0221    0.0487
         113    0.1007    0.0139   -0.0255   -0.0166   -0.2308    0.0171    0.0026    0.0638
         114    0.0600    0.0895    0.0593    0.0221   -0.0859   -0.0187   -0.0004   -0.0111


   Root No.      33        34        35        36        37        38        39        40

                33 A      34 A      35 A      36 A      37 A      38 A      39 A      40 A   

                   0.7       0.8       0.8       0.8       0.8       0.8       0.9       0.9
  
           1   -0.0923   -0.0013    0.0007    0.0104   -0.0482   -0.0646    0.0224    0.0179
           2   -0.0343    0.0387   -0.0068    0.0133   -0.0356   -0.0417    0.0238    0.0376
           3   -0.0104   -0.0598    0.0342   -0.2946   -0.0132   -0.0416   -0.0022   -0.0218
           4   -0.0842   -0.0015    0.0006    0.0063   -0.0373   -0.0403    0.0152    0.0132
           5   -0.0013    0.0440   -0.0053   -0.0024    0.0006    0.0525   -0.0026    0.0267
           6   -0.0117   -0.0644    0.0310   -0.2055   -0.0099   -0.0335   -0.0117   -0.0110
           7   -0.0333    0.0068   -0.0065    0.0037    0.0415   -0.0016    0.0003   -0.0194
           8   -0.0110    0.0329   -0.0030    0.0038   -0.0130   -0.0022    0.0116    0.0236
           9   -0.0127   -0.0568    0.0170   -0.0030   -0.0017   -0.0056   -0.0220    0.0092
          10   -0.0278   -0.0288    0.0033   -0.0067    0.0477    0.0001   -0.0020   -0.0313
          11    0.0334    0.0019    0.0032   -0.0028    0.0083   -0.0073    0.0046   -0.0073
          12   -0.0034    0.0117    0.0022   -0.1025   -0.0054   -0.0103    0.0271   -0.0032
          13   -0.0541   -0.0405    0.0065   -0.0141    0.0402    0.0313   -0.0139   -0.0354
          14   -0.0301    0.0208   -0.0006    0.0125   -0.0736   -0.0657    0.0273    0.0388
          15   -0.0047   -0.0283    0.0210   -0.2554   -0.0102   -0.0327    0.0175   -0.0191
          16   -0.0659   -0.0348    0.0075   -0.0011   -0.0149   -0.0509    0.0136   -0.0157
          17   -0.0268    0.0175   -0.0011    0.0087   -0.0544   -0.0372    0.0174    0.0303
          18   -0.0084   -0.0491    0.0313   -0.3096   -0.0128   -0.0406    0.0060   -0.0242
          19   -0.2861    0.0140    0.0021   -0.0524   -0.0239    0.4118   -0.1310   -0.0100
          20    0.0672    0.0353   -0.0082    0.0528   -0.0651   -0.3335    0.1206    0.0648
          21    0.0080    0.0445   -0.0279    0.2609    0.0110    0.0351   -0.0023    0.0189
          22    0.0152    0.0129    0.0278    0.0009   -0.4193   -0.0112    0.0303    0.2040
          23    0.0626    0.0607    0.0096   -0.0054   -0.2236    0.0779    0.0067    0.1456
          24    0.0073    0.0592   -0.0223    0.1012    0.0034    0.0183    0.0171    0.0043
          25   -0.3464   -0.1079    0.0198    0.0112   -0.1713   -0.1476    0.0089    0.0758
          26   -0.1954   -0.0123    0.0063    0.0259   -0.2102   -0.1749    0.0448    0.1136
          27    0.0082    0.0023   -0.0134    0.1864    0.0109    0.0241   -0.0201    0.0112
          28   -0.0818   -0.0388    0.0079    0.0046   -0.0198   -0.0826    0.0231   -0.0137
          29   -0.0211   -0.0143    0.0192   -0.1013   -0.0252    0.7113   -0.2121   -0.0732
          30    0.0077    0.0541   -0.0292    0.2579    0.0114    0.0388   -0.0017    0.0195
          31    0.0554    0.0311   -0.0121    0.0074    0.0820   -0.0209    0.0060   -0.0600
          32    0.0182   -0.0443    0.0146   -0.0177    0.0366    0.0018    0.0074    0.0118
          33    0.0046    0.1188   -0.0397    0.1544    0.0012    0.0380    0.0489    0.0252
          34   -0.0269    0.0134   -0.0099   -0.0020    0.0832   -0.0002    0.0035   -0.0182
          35    0.0089    0.0360   -0.0117    0.0112    0.0608   -0.0274    0.0106   -0.0417
          36   -0.0087   -0.0200   -0.0124    0.3392    0.0128    0.0431   -0.0414    0.0365
          37    0.0730    0.0329   -0.0109    0.0066    0.0737   -0.0256    0.0069   -0.0679
          38    0.0102    0.0020   -0.0004   -0.0049    0.0617   -0.0115    0.0150   -0.0176
          39    0.0045    0.0605   -0.0329    0.2634    0.0104    0.0397    0.0021    0.0172
[...]
 REDUCED MASS        0.3813         C 26 -- H 27          +5.2% ( 23.5%)     99.2%
 EFFECTIVE MASS      1.4216
 FORCE CONSTANT      1.5818

 VIBRATION         94   94A           ATOM PAIR      ENERGY CONTRIBUTION    RADIAL
 FREQUENCY          2656.62         C 26 -- H 29         +52.9% ( 75.6%)     99.3%
 TRANSITION DIPOLE   0.5096         C 26 -- H 27         +23.6% ( 50.5%)     93.9%
 TRAVEL (Ang.)       0.2652         C 22 -- H 24          +9.8% ( 32.5%)     99.5%
 REDUCED MASS        0.3610         C 26 -- H 28          +7.4% ( 28.2%)     76.3%
 EFFECTIVE MASS      1.4430
 FORCE CONSTANT      1.5012

 VIBRATION         95   95A           ATOM PAIR      ENERGY CONTRIBUTION    RADIAL
 FREQUENCY          2660.12         C 26 -- H 28         +45.4% ( 70.0%)     98.6%
 TRANSITION DIPOLE   0.7555         C 26 -- H 27         +37.5% ( 63.6%)     97.6%
 TRAVEL (Ang.)       0.2627         C 22 -- H 23          +9.3% ( 31.7%)     99.4%
 REDUCED MASS        0.3673         C 22 -- H 25          +3.0% ( 18.1%)     90.6%
 EFFECTIVE MASS      1.4500
 FORCE CONSTANT      1.5314

 VIBRATION         96   96A           ATOM PAIR      ENERGY CONTRIBUTION    RADIAL
 FREQUENCY          2663.30         C 22 -- H 23         +39.6% ( 65.3%)     98.4%
 TRANSITION DIPOLE   1.1309         C 22 -- H 24         +36.4% ( 62.7%)     97.9%
 TRAVEL (Ang.)       0.2803         C 26 -- H 28         +12.7% ( 37.0%)     98.8%
 REDUCED MASS        0.3223         C 26 -- H 29          +9.0% ( 31.1%)     96.9%
 EFFECTIVE MASS      1.4496
 FORCE CONSTANT      1.3469

 VIBRATION         97   97A           ATOM PAIR      ENERGY CONTRIBUTION    RADIAL
 FREQUENCY          2675.16         O 33 -- H 34         +59.3% ( 70.7%)     94.1%
 TRANSITION DIPOLE   0.8301         O 33 -- H 35         +35.5% ( 54.7%)     92.5%
 TRAVEL (Ang.)       0.2309         C 22 -- H 25          +2.2% ( 13.7%)     99.3%
 REDUCED MASS        0.4729         C 22 -- H 23          +1.0% (  9.4%)     93.6%
 EFFECTIVE MASS      1.0781
 FORCE CONSTANT      1.9939

 VIBRATION         98   98A           ATOM PAIR      ENERGY CONTRIBUTION    RADIAL
 FREQUENCY          2690.27         C 30 -- H 32         +49.6% ( 73.2%)     98.5%
 TRANSITION DIPOLE   0.9248         C 30 -- H 31         +48.5% ( 72.4%)     98.3%
 TRAVEL (Ang.)       0.2235         C 20 -- C 30          +1.0% ( 10.5%)      0.3%
 REDUCED MASS        0.5020         C 13 -- H 14          +0.4% (  6.9%)     99.9%
 EFFECTIVE MASS      1.5114
 FORCE CONSTANT      2.1405

 VIBRATION         99   99A           ATOM PAIR      ENERGY CONTRIBUTION    RADIAL
 FREQUENCY          2731.96         C 20 -- H 21         +92.5% ( 97.3%)    100.0%
 TRANSITION DIPOLE   0.4623         C 30 -- H 32          +1.7% ( 13.2%)     95.9%
 TRAVEL (Ang.)       0.1719         C 30 -- H 31          +1.5% ( 12.6%)     96.0%
 REDUCED MASS        0.8357         C 20 -- C 30          +1.3% ( 11.5%)     47.2%
 EFFECTIVE MASS      1.4103
 FORCE CONSTANT      3.6747

 VIBRATION        100  100A           ATOM PAIR      ENERGY CONTRIBUTION    RADIAL
 FREQUENCY          2733.80         C  2 -- H  8         +59.5% ( 78.1%)    100.0%
 TRANSITION DIPOLE   0.5560         C  1 -- H  7         +20.8% ( 46.1%)     99.9%
 TRAVEL (Ang.)       0.2488         C 15 -- H 16         +10.5% ( 32.8%)    100.0%
 REDUCED MASS        0.3984         C  5 -- H  9          +3.3% ( 18.4%)    100.0%
 EFFECTIVE MASS      1.3841
 FORCE CONSTANT      1.7541

 VIBRATION        101  101A           ATOM PAIR      ENERGY CONTRIBUTION    RADIAL
 FREQUENCY          2734.76         C 15 -- H 16         +67.1% ( 82.9%)    100.0%
 TRANSITION DIPOLE   0.9751         C 13 -- H 14         +16.3% ( 40.9%)     99.9%
 TRAVEL (Ang.)       0.2284         C  2 -- H  8          +8.5% ( 29.5%)    100.0%
 REDUCED MASS        0.4728         C  1 -- H  7          +3.7% ( 19.4%)     99.9%
 EFFECTIVE MASS      1.3861
 FORCE CONSTANT      2.0832

 VIBRATION        102  102A           ATOM PAIR      ENERGY CONTRIBUTION    RADIAL
 FREQUENCY          2740.18         C  5 -- H  9         +59.2% ( 77.8%)    100.0%
 TRANSITION DIPOLE   0.6198         C  6 -- H 10         +32.6% ( 57.7%)     99.9%
 TRAVEL (Ang.)       0.2349         C  2 -- H  8          +5.6% ( 23.9%)    100.0%
 REDUCED MASS        0.4459         C  5 -- C  6          +0.8% (  9.2%)      0.9%
 EFFECTIVE MASS      1.3709
 FORCE CONSTANT      1.9726

 VIBRATION        103  103A           ATOM PAIR      ENERGY CONTRIBUTION    RADIAL
 FREQUENCY          2747.33         C  1 -- H  7         +47.8% ( 69.8%)    100.0%
 TRANSITION DIPOLE   1.2579         C  6 -- H 10         +18.4% ( 43.4%)    100.0%
 TRAVEL (Ang.)       0.2868         C  2 -- H  8         +14.8% ( 38.9%)    100.0%
 REDUCED MASS        0.2984         C  5 -- H  9         +14.7% ( 38.8%)    100.0%
 EFFECTIVE MASS      1.3938
 FORCE CONSTANT      1.3270

 VIBRATION        104  104A           ATOM PAIR      ENERGY CONTRIBUTION    RADIAL
 FREQUENCY          2749.88         C 13 -- H 14         +72.0% ( 85.7%)    100.0%
 TRANSITION DIPOLE   1.7381         C 15 -- H 16         +16.5% ( 41.0%)     99.8%
 TRAVEL (Ang.)       0.2139         C  6 -- H 10          +5.8% ( 24.4%)    100.0%
 REDUCED MASS        0.5359         C  5 -- H  9          +2.5% ( 15.9%)    100.0%
 EFFECTIVE MASS      1.4177
 FORCE CONSTANT      2.3876

 VIBRATION        105  105A           ATOM PAIR      ENERGY CONTRIBUTION    RADIAL
 FREQUENCY          2757.72         C  6 -- H 10         +39.2% ( 63.2%)    100.0%
 TRANSITION DIPOLE   0.8182         C  1 -- H  7         +25.0% ( 50.5%)    100.0%
 TRAVEL (Ang.)       0.3114         C  5 -- H  9         +17.2% ( 41.8%)    100.0%
 REDUCED MASS        0.2522         C  2 -- H  8          +9.2% ( 30.6%)    100.0%
 EFFECTIVE MASS      1.4555
 FORCE CONSTANT      1.1300

 VIBRATION        106  106A           ATOM PAIR      ENERGY CONTRIBUTION    RADIAL
 FREQUENCY          2813.75         C 30 -- H 31         +48.4% ( 67.8%)     96.6%
 TRANSITION DIPOLE   0.7030         C 30 -- H 32         +46.5% ( 66.5%)     96.7%
 TRAVEL (Ang.)       0.2321         C 20 -- H 21          +3.4% ( 18.0%)    100.0%
 REDUCED MASS        0.4448         C 20 -- C 30          +0.8% (  8.9%)     94.6%
 EFFECTIVE MASS      1.2659
 FORCE CONSTANT      2.0748

 VIBRATION        107  107A           ATOM PAIR      ENERGY CONTRIBUTION    RADIAL
 FREQUENCY          2848.43         C 22 -- H 23         +22.3% ( 44.3%)     97.9%
 TRANSITION DIPOLE   0.6857         C 22 -- H 24         +20.9% ( 43.0%)     97.5%
 TRAVEL (Ang.)       0.3663         C 22 -- H 25         +20.5% ( 42.5%)     97.5%
 REDUCED MASS        0.1764         C 26 -- H 29         +12.2% ( 32.7%)     97.9%
 EFFECTIVE MASS      1.1006         C 26 -- H 27         +12.0% ( 32.5%)     97.6%
 FORCE CONSTANT      0.8432         C 26 -- H 28         +11.8% ( 32.2%)     97.7%

 VIBRATION        108  108A           ATOM PAIR      ENERGY CONTRIBUTION    RADIAL
 FREQUENCY          2853.32         C 26 -- H 29         +21.9% ( 43.9%)     97.6%
 TRANSITION DIPOLE   0.4964         C 26 -- H 28         +21.3% ( 43.3%)     97.4%
 TRAVEL (Ang.)       0.3670         C 26 -- H 27         +20.5% ( 42.4%)     97.4%
 REDUCED MASS        0.1754         C 22 -- H 23         +12.6% ( 33.3%)     97.6%
 EFFECTIVE MASS      1.1071         C 22 -- H 24         +11.8% ( 32.2%)     97.3%
 FORCE CONSTANT      0.8416         C 22 -- H 25         +11.1% ( 31.3%)     97.3%

      SYMMETRY NUMBER FOR POINT-GROUP C1  =  1


          SYSTEM IS A GROUND STATE



 Claisen_SM_2H2O_PM6_D3H4_THERMO


          MOLECULE IS NOT LINEAR

          THERE ARE  108 GENUINE VIBRATIONS IN THIS SYSTEM
          THIS THERMODYNAMICS CALCULATION IS LIMITED TO
          MOLECULES WHICH HAVE NO INTERNAL ROTATIONS




                    CALCULATED THERMODYNAMIC PROPERTIES
                                          *
   TEMP. (K)   PARTITION FUNCTION   H.O.F.    ENTHALPY  HEAT CAPACITY ENTROPY
                                   KCAL/MOL   CAL/MOLE    CAL/K/MOL  CAL/K/MOL


 298.00  VIB.     0.5278D+10                 12720.2747    77.6142    87.1729
         ROT.     0.6139D+07                   888.2813     2.9808    34.0413
         INT.     0.3241D+17                 13608.5560    80.5951   121.2141
         TRA.     0.4597D+28                  1480.4688     4.9680    42.8142
         TOT.                     -121.628   15089.0249    85.5631   164.0283

 200.00  VIB.     0.3554D+07                  6143.0326    56.4096    60.6896
         ROT.     0.3375D+07                   596.1620     2.9808    32.8526
         INT.     0.1200D+14                  6739.1945    59.3904    93.5422
         TRA.     0.2527D+28                   993.6033     4.9680    40.8331
         TOT.                     -128.985    7732.7978    64.3585   134.3753

 210.00  VIB.     0.7674D+07                  6718.2549    58.6319    63.4957
         ROT.     0.3632D+07                   625.9700     2.9808    32.9980
         INT.     0.2787D+14                  7344.2250    61.6127    96.4937
         TRA.     0.2719D+28                  1043.2834     4.9680    41.0754
         TOT.                     -128.330    8387.5084    66.5807   137.5692

 220.00  VIB.     0.1647D+08                  7315.6174    60.8381    66.2742
         ROT.     0.3894D+07                   655.7781     2.9808    33.1367
         INT.     0.6414D+14                  7971.3955    63.8189    99.4109
         TRA.     0.2916D+28                  1092.9636     4.9680    41.3066
         TOT.                     -127.653    9064.3591    68.7870   140.7175

 230.00  VIB.     0.3513D+08                  7934.9721    63.0307    69.0270
         ROT.     0.4163D+07                   685.5862     2.9808    33.2692
         INT.     0.1463D+15                  8620.5584    66.0115   102.2962
         TRA.     0.3117D+28                  1142.6437     4.9680    41.5274
         TOT.                     -126.954    9763.2021    70.9795   143.8236

 240.00  VIB.     0.7453D+08                  8576.1904    65.2110    71.7557
         ROT.     0.4437D+07                   715.3943     2.9808    33.3961
         INT.     0.3307D+15                  9291.5847    68.1918   105.1517
         TRA.     0.3322D+28                  1192.3239     4.9680    41.7388
         TOT.                     -126.234   10483.9086    73.1598   146.8906

 250.00  VIB.     0.1572D+09                  9239.1539    67.3798    74.4617
         ROT.     0.4717D+07                   745.2024     2.9808    33.5178
         INT.     0.7418D+15                  9984.3563    70.3606   107.9795
         TRA.     0.3532D+28                  1242.0041     4.9680    41.9416
         TOT.                     -125.491   11226.3604    75.3286   149.9211

 260.00  VIB.     0.3300D+09                  9923.7475    69.5370    77.1465
         ROT.     0.5003D+07                   775.0105     2.9808    33.6347
         INT.     0.1651D+16                 10698.7580    72.5178   110.7811
         TRA.     0.3746D+28                  1291.6842     4.9680    42.1365
         TOT.                     -124.727   11990.4422    77.4858   152.9176

 270.00  VIB.     0.6890D+09                 10629.8529    71.6820    79.8111
         ROT.     0.5295D+07                   804.8186     2.9808    33.7472
         INT.     0.3648D+16                 11434.6716    74.6628   113.5582
         TRA.     0.3964D+28                  1341.3644     4.9680    42.3240
         TOT.                     -123.941   12776.0360    79.6309   155.8822

 280.00  VIB.     0.1432D+10                 11357.3444    73.8140    82.4565
         ROT.     0.5592D+07                   834.6267     2.9808    33.8556
         INT.     0.8006D+16                 12191.9711    76.7948   116.3121
         TRA.     0.4187D+28                  1391.0445     4.9680    42.5047
         TOT.                     -123.135   13583.0157    81.7628   158.8168

 290.00  VIB.     0.2961D+10                 12106.0846    75.9315    85.0838
         ROT.     0.5894D+07                   864.4348     2.9808    33.9602
         INT.     0.1745D+17                 12970.5194    78.9123   119.0439
         TRA.     0.4413D+28                  1440.7247     4.9680    42.6790
         TOT.                     -122.306   14411.2441    83.8804   161.7229

 300.00  VIB.     0.6096D+10                 12875.9223    78.0332    87.6934
         ROT.     0.6201D+07                   894.2429     2.9808    34.0612
         INT.     0.3780D+17                 13770.1652    81.0140   121.7546
         TRA.     0.4643D+28                  1490.4049     4.9680    42.8474
         TOT.                     -121.457   15260.5701    85.9821   164.6021

 310.00  VIB.     0.1250D+11                 13666.6912    80.1175    90.2862
         ROT.     0.6514D+07                   924.0510     2.9808    34.1590
         INT.     0.8140D+17                 14590.7422    83.0983   124.4451
         TRA.     0.4877D+28                  1540.0850     4.9680    43.0103
         TOT.                     -120.587   16130.8273    88.0663   167.4554

 320.00  VIB.     0.2551D+11                 14478.2089    82.1827    92.8624
         ROT.     0.6832D+07                   953.8591     2.9808    34.2536
         INT.     0.1743D+18                 15432.0680    85.1635   127.1160
         TRA.     0.5115D+28                  1589.7652     4.9680    43.1681
         TOT.                     -119.696   17021.8332    90.1315   170.2841

 330.00  VIB.     0.5186D+11                 15310.2769    84.2273    95.4227
         ROT.     0.7154D+07                   983.6672     2.9808    34.3453
         INT.     0.3710D+18                 16293.9441    87.2081   129.7680
         TRA.     0.5357D+28                  1639.4454     4.9680    43.3209
         TOT.                     -118.784   17933.3895    92.1761   173.0889

 340.00  VIB.     0.1050D+12                 16162.6813    86.2498    97.9672
         ROT.     0.7482D+07                  1013.4753     2.9808    34.4343
         INT.     0.7857D+18                 17176.1567    89.2306   132.4015
         TRA.     0.5602D+28                  1689.1255     4.9680    43.4692
         TOT.                     -117.852   18865.2822    94.1986   175.8708

 350.00  VIB.     0.2118D+12                 17035.1938    88.2487   100.4963
         ROT.     0.7814D+07                  1043.2834     2.9808    34.5207
         INT.     0.1655D+19                 18078.4772    91.2295   135.0170
         TRA.     0.5851D+28                  1738.8057     4.9680    43.6132
         TOT.                     -116.900   19817.2829    96.1975   178.6302

 360.00  VIB.     0.4257D+12                 17927.5724    90.2228   103.0101
         ROT.     0.8152D+07                  1073.0915     2.9808    34.6047
         INT.     0.3470D+19                 19000.6639    93.2036   137.6147
         TRA.     0.6104D+28                  1788.4859     4.9680    43.7532
         TOT.                     -115.928   20789.1498    98.1716   181.3679

 370.00  VIB.     0.8523D+12                 18839.5635    92.1710   105.5087
         ROT.     0.8494D+07                  1102.8996     2.9808    34.6864
         INT.     0.7239D+19                 19942.4631    95.1518   140.1951
         TRA.     0.6360D+28                  1838.1660     4.9680    43.8893
         TOT.                     -114.937   21780.6291   100.1198   184.0844

 380.00  VIB.     0.1701D+13                 19770.9026    94.0923   107.9923
         ROT.     0.8840D+07                  1132.7077     2.9808    34.7658
         INT.     0.1503D+20                 20903.6104    97.0731   142.7582
         TRA.     0.6619D+28                  1887.8462     4.9680    44.0218
         TOT.                     -113.926   22791.4565   102.0411   186.7800

 390.00  VIB.     0.3381D+13                 20721.3168    95.9859   110.4609
         ROT.     0.9192D+07                  1162.5158     2.9808    34.8433
         INT.     0.3108D+20                 21883.8326    98.9667   145.3042
         TRA.     0.6882D+28                  1937.5263     4.9680    44.1509
         TOT.                     -112.896   23821.3590   103.9347   189.4551

 400.00  VIB.     0.6700D+13                 21690.5254    97.8511   112.9147
         ROT.     0.9547D+07                  1192.3239     2.9808    34.9187
         INT.     0.6396D+20                 22882.8493   100.8319   147.8334
         TRA.     0.7149D+28                  1987.2065     4.9680    44.2766
         TOT.                     -111.847   24870.0558   105.7999   192.1100

   *: NOTE: HEATS OF FORMATION ARE RELATIVE TO THE
            ELEMENTS IN THEIR STANDARD STATE AT 298K
              (=  Standard Enthalpy of Formation).

            Hvib:  Zero-point energy is not included.
                   frequencies of less than zero cm-1 are not included.
            Hrot = (3/2)RT
            Htra = (3/2)RT + pV = (5/2)RT

            Heat capacity is Cp, not Cv

          For more information, see: HTTP://OpenMOPAC.net/Manual/thermochemistry.html


           FORCE CONSTANT IN CARTESIAN COORDINATES (Millidynes/A)

    ATOM   CHEMICAL       X               Y               Z
   NUMBER   SYMBOL  FORCE CONSTANT  FORCE CONSTANT  FORCE CONSTANT

      1       C       11.051068        8.977640        2.212117
      2       C       11.134882        8.872703        2.174552
      3       C       10.592060       10.484171        2.333887
      4       C       10.643674       10.380607        2.257291
      5       C        9.482006       10.699323        2.184117
      6       C        9.478412       10.623115        2.178686
      7       H        1.740093        3.331173        0.364809
      8       H        1.793900        3.333462        0.345429
      9       H        1.673069        3.390471        0.384039
     10       H        4.216595        0.853522        0.375261
     11       C       11.485548        9.255394        2.512603
     12       C        9.185760        9.510712        1.748139
     13       C       10.950093        9.208987        2.032482
     14       H        1.693389        3.370619        0.364304
     15       C        9.451718       10.828009        2.120291
     16       H        4.181483        0.870916        0.371512
     17       O        3.077482        5.891754        3.174033
     18      Cl        1.697284        3.413352        0.149039
     19       C        7.953258        6.766329        7.166167
     20       C        9.506202        4.394554        9.960085
     21       H        0.820096        1.047505        3.629407
     22       C        6.729070        6.486798        6.310951
     23       H        3.102722        1.667614        0.735467
     24       H        0.686356        3.072108        1.687566
     25       H        0.705493        0.878886        3.889591
     26       C        6.346784        6.526695        6.873807
     27       H        2.992060        1.680157        0.833419
     28       H        0.669138        2.188687        2.610593
     29       H        2.806979        1.985090        0.703659
     30       C        8.610344        3.877678        9.623714
     31       H        2.855131        1.621506        0.846412
     32       H        0.678347        0.906248        3.785191
     33       O        2.716412        1.292402        3.218702
     34       H        0.749318        0.919134        2.808483
     35       H        1.748629        0.947732        1.635047
     36       O        1.297911        1.823186        4.144781
     37       H        1.081825        0.997014        2.202543
     38       H        0.381817        0.720031        3.226482

 **********************
 *                    *
 * JOB ENDED NORMALLY *
 *                    *
 **********************



 TOTAL JOB TIME:             9.29 SECONDS

 == MOPAC DONE ==
