 *******************************************************************************
 ** Site#: 37381        For non-commercial use only           Version 21.125L **
 *******************************************************************************
 ** Cite this program as: MOPAC2016, Version: 21.125L, James J. P. Stewart,   **
 ** Stewart Computational Chemistry, web: HTTP://OpenMOPAC.net. Days left: 192**
 *******************************************************************************
 **                                                                           **
 **                                MOPAC2016                                  **
 **                                                                           **
 *******************************************************************************

                              PM6-D3H4 CALCULATION RESULTS

 *******************************************************************************
 *  CALCULATION DONE:                                Mon Oct 25 20:19:59 2021  *
 *  PM6-D3H4   - CORRECT DISPERSION AND HYDROGEN BOND TERMS USING THE D3H4 METHOD
 *  EPS=2.38   - USE ANDREAS KLAMT'S COSMO IMPLICIT SOLVATION MODEL
 *  RSOLV=  3.480
 *  FORCE      - FORCE CALCULATION SPECIFIED
 *  T=         - A TIME OF 172800.0 SECONDS REQUESTED
 *  DUMP=N     - RESTART FILE WRITTEN EVERY 7200.0 SECONDS REQUESTED
 *  AUX        - OUTPUT AUXILIARY INFORMATION
 *  LARGE      - EXPANDED OUTPUT TO BE PRINTED
 *  THERMO     - THERMODYNAMIC QUANTITIES TO BE CALCULATED
 *******************************************************************************
 AUX LARGE FORCE THERMO PM6-D3H4 EPS=2.38 RSOLV=3.48
 Claisen_TS_2H2O_PM6_D3H4_THERMO

   ATOM   CHEMICAL          X               Y               Z
  NUMBER   SYMBOL      (ANGSTROMS)     (ANGSTROMS)     (ANGSTROMS)
 
     1       C          2.70092000  *   2.76214000  *  -0.20209000  *
     2       C          3.06270000  *   1.43107000  *  -0.08863000  *
     3       C          2.07304000  *   0.43785000  *   0.11716000  *
     4       C          0.71458000  *   0.82488000  *   0.19804000  *
     5       C          0.36773000  *   2.19306000  *   0.09052000  *
     6       C          1.34567000  *   3.14938000  *  -0.11033000  *
     7       H          3.46419000  *   3.52678000  *  -0.36130000  *
     8       H          4.11470000  *   1.14911000  *  -0.15522000  *
     9       H         -0.68559000  *   2.47331000  *   0.16718000  *
    10       H          1.08103000  *   4.20370000  *  -0.19617000  *
    11       C         -0.32222000  *  -0.19168000  *   0.41353000  *
    12       C          2.38530000  *  -0.96921000  *   0.25890000  *
    13       C          0.04282000  *  -1.56323000  *   0.50062000  *
    14       H         -0.64625000  *  -2.26693000  *   0.97389000  *
    15       C          1.43777000  *  -1.91878000  *   0.47644000  *
    16       H          1.70290000  *  -2.96996000  *   0.61569000  *
    17       O         -1.56454000  *   0.14435000  *   0.38303000  *
    18      Cl          4.04344000  *  -1.44904000  *   0.17148000  *
    19       C         -2.43333000  *  -0.35659000  *  -1.33188000  *
    20       C         -1.99774000  *  -1.69997000  *  -1.27398000  *
    21       H         -2.71925000  *  -2.44170000  *  -0.91533000  *
    22       C         -3.83520000  *  -0.02773000  *  -0.93388000  *
    23       H         -3.87470000  *   0.97055000  *  -0.42178000  *
    24       H         -4.48285000  *   0.02002000  *  -1.84365000  *
    25       H         -4.26600000  *  -0.78008000  *  -0.22817000  *
    26       C         -1.75505000  *   0.66117000  *  -2.19380000  *
    27       H         -0.64333000  *   0.62993000  *  -2.09890000  *
    28       H         -2.02264000  *   0.45800000  *  -3.26168000  *
    29       H         -2.08678000  *   1.69561000  *  -1.93344000  *
    30       C         -0.67371000  *  -2.08943000  *  -1.40050000  *
    31       H         -0.41541000  *  -3.15247000  *  -1.31764000  *
    32       H          0.05982000  *  -1.47031000  *  -1.92820000  *
    33       O         -3.35251000  *   1.73442000  *   1.80579000  *
    34       H         -2.50159000  *   1.54040000  *   1.35191000  *
    35       H         -3.74435000  *   0.87904000  *   2.11361000  *
    36       O         -3.29206000  *  -1.02489000  *   2.10623000  *
    37       H         -2.86055000  *  -1.22892000  *   2.94901000  *
    38       H         -2.59973000  *  -0.88842000  *   1.38995000  *
 


          CARTESIAN COORDINATES 

    NO.       ATOM           X           Y           Z

     1         C          2.7009      2.7621     -0.2021
     2         C          3.0627      1.4311     -0.0886
     3         C          2.0730      0.4379      0.1172
     4         C          0.7146      0.8249      0.1980
     5         C          0.3677      2.1931      0.0905
     6         C          1.3457      3.1494     -0.1103
     7         H          3.4642      3.5268     -0.3613
     8         H          4.1147      1.1491     -0.1552
     9         H         -0.6856      2.4733      0.1672
    10         H          1.0810      4.2037     -0.1962
    11         C         -0.3222     -0.1917      0.4135
    12         C          2.3853     -0.9692      0.2589
    13         C          0.0428     -1.5632      0.5006
    14         H         -0.6463     -2.2669      0.9739
    15         C          1.4378     -1.9188      0.4764
    16         H          1.7029     -2.9700      0.6157
    17         O         -1.5645      0.1444      0.3830
    18        Cl          4.0434     -1.4490      0.1715
    19         C         -2.4333     -0.3566     -1.3319
    20         C         -1.9977     -1.7000     -1.2740
    21         H         -2.7193     -2.4417     -0.9153
    22         C         -3.8352     -0.0277     -0.9339
    23         H         -3.8747      0.9705     -0.4218
    24         H         -4.4829      0.0200     -1.8437
    25         H         -4.2660     -0.7801     -0.2282
    26         C         -1.7551      0.6612     -2.1938
    27         H         -0.6433      0.6299     -2.0989
    28         H         -2.0226      0.4580     -3.2617
    29         H         -2.0868      1.6956     -1.9334
    30         C         -0.6737     -2.0894     -1.4005
    31         H         -0.4154     -3.1525     -1.3176
    32         H          0.0598     -1.4703     -1.9282
    33         O         -3.3525      1.7344      1.8058
    34         H         -2.5016      1.5404      1.3519
    35         H         -3.7443      0.8790      2.1136
    36         O         -3.2921     -1.0249      2.1062
    37         H         -2.8605     -1.2289      2.9490
    38         H         -2.5997     -0.8884      1.3900

 General Reference for PM6:
 "Optimization of Parameters for Semiempirical Methods V: Modification of NDDO Approximations
 and Application to 70 Elements", J. J. P. Stewart, J. Mol. Mod., 13, 1173-1213 (2007)
 URL: https://link.springer.com/article/10.1007/s00894-007-0233-4

           Empirical Formula: C15 H19 O3 Cl  =    38 atoms



      MOLECULAR POINT GROUP   :   C1  


      RHF CALCULATION, NO. OF DOUBLY OCCUPIED LEVELS = 52



          HEAT OF FORMATION =     -97.146370 KCALS/MOLE


          CARTESIAN COORDINATE DERIVATIVES

   NUMBER  ATOM         X            Y            Z

     1       C      0.000398    -0.041700     0.008419
     2       C      0.020954     0.031543     0.005953
     3       C     -0.020390    -0.057698    -0.004716
     4       C      0.004322     0.018095    -0.005063
     5       C      0.042960     0.029218    -0.005453
     6       C     -0.019396    -0.020338     0.022655
     7       H     -0.010278    -0.011000     0.029733
     8       H     -0.003396    -0.006357     0.016544
     9       H      0.014283     0.010296    -0.003133
    10       H      0.012430     0.005277     0.017581
    11       C     -0.043296    -0.055057     0.000414
    12       C      0.034210     0.040947    -0.000720
    13       C     -0.007203     0.004412    -0.002323
    14       H      0.004165    -0.002847     0.001240
    15       C     -0.023863    -0.026620    -0.004869
    16       H      0.024981     0.028897    -0.012405
    17       O      0.002294    -0.002202     0.005256
    18      Cl      0.016928     0.015845    -0.008024
    19       C     -0.023452    -0.033995    -0.058229
    20       C     -0.005045    -0.018376    -0.034546
    21       H      0.003328    -0.010998     0.009785
    22       C     -0.011405     0.029565     0.003667
    23       H     -0.020103     0.008397    -0.007958
    24       H      0.014631    -0.020174    -0.010016
    25       H      0.011837    -0.002658     0.009721
    26       C     -0.004838    -0.019781     0.042965
    27       H      0.006846    -0.002632     0.006233
    28       H     -0.019580     0.007373    -0.018556
    29       H     -0.001508    -0.002958    -0.024713
    30       C      0.004560     0.016932    -0.025108
    31       H      0.011052     0.009038     0.006614
    32       H     -0.005820    -0.008448     0.003874
    33       O      0.000538    -0.000790    -0.024836
    34       H     -0.007878     0.022428     0.013427
    35       H      0.004813     0.014155     0.021665
    36       O     -0.028083    -0.009590     0.008916
    37       H      0.052642     0.126583     0.048047
    38       H     -0.032520    -0.064706    -0.031977
 
 DIPOLE           X         Y         Z       TOTAL
 POINT-CHG.     1.580    -0.945     4.998     5.326
 HYBRID         0.471    -0.533    -0.483     0.860
 SUM            2.051    -1.478     4.515     5.175


          GRADIENT NORM =   0.26450


          TIME FOR SCF CALCULATION =    0.07

          TIME FOR DERIVATIVES     =    0.03

          MOLECULAR WEIGHT =  282.77



          ROTATIONAL CONSTANTS IN CM(-1)

          A =    0.01653515   B =    0.00787968   C =    0.00666814



           PRINCIPAL MOMENTS OF INERTIA IN UNITS OF 10**(-40)*GRAM-CM**2

          A =     1692.9252   B =     3552.5248   C =     4197.9858


          ORIENTATION OF MOLECULE IN FORCE CALCULATION

    NO.       ATOM         X         Y         Z

     1          C      -2.0045   -3.2276   -0.3406
     2          C      -0.6205   -3.2276   -0.3406
     3          C       0.0929   -2.0031   -0.3406
     4          C      -0.6278   -0.7856   -0.3340
     5          C      -2.0431   -0.8086   -0.3454
     6          C      -2.7237   -2.0119   -0.3451
     7          H      -2.5534   -4.1717   -0.3399
     8          H      -0.0798   -4.1754   -0.3437
     9          H      -2.5817    0.1421   -0.3519
    10          H      -3.8139   -2.0325   -0.3512
    11          C       0.0965    0.4911   -0.3365
    12          C       1.5394   -1.9331   -0.3555
    13          C       1.5182    0.4950   -0.3063
    14          H       2.0536    1.3903   -0.6314
    15          C       2.2228   -0.7586   -0.3759
    16          H       3.3145   -0.7329   -0.4231
    17          O      -0.5539    1.5965   -0.2252
    18         Cl       2.4271   -3.4160   -0.3739
    19          C      -0.4398    2.3503    1.6093
    20          C       0.9708    2.2758    1.6586
    21          H       1.5250    3.1980    1.4541
    22          C      -1.0899    3.6623    1.3127
    23          H      -2.0183    3.5114    0.6998
    24          H      -1.3797    4.1629    2.2691
    25          H      -0.4211    4.3496    0.7384
    26          C      -1.3120    1.3398    2.2854
    27          H      -0.9835    0.2913    2.0891
    28          H      -1.2741    1.5194    3.3897
    29          H      -2.3722    1.4304    1.9453
    30          C       1.6811    1.0865    1.7007
    31          H       2.7778    1.1150    1.7113
    32          H       1.2341    0.1632    2.0848
    33          O      -2.4339    3.0862   -1.6379
    34          H      -2.0620    2.2630   -1.2484
    35          H      -1.6884    3.7142   -1.8109
    36          O       0.2603    3.7564   -1.6369
    37          H       0.6384    3.4945   -2.4892
    38          H       0.2513    2.9710   -1.0091


    FIRST DERIVATIVES WILL BE USED IN THE CALCULATION OF SECOND DERIVATIVES

          ESTIMATED TIME TO COMPLETE CALCULATION =       23.16 SECONDS

    FOR POINT-GROUP C1   THERE ARE   1 UNIQUE SYMMETRY FUNCTIONS.

 STEP:   1 TIME =     0.09 SECS, INTEGRAL =      0.09 TIME LEFT: 172799.80
 STEP:   2 TIME =     0.09 SECS, INTEGRAL =      0.18 TIME LEFT: 172799.72
 STEP:   3 TIME =     0.09 SECS, INTEGRAL =      0.27 TIME LEFT: 172799.63
 STEP:   4 TIME =     0.09 SECS, INTEGRAL =      0.36 TIME LEFT: 172799.54
 STEP:   5 TIME =     0.09 SECS, INTEGRAL =      0.45 TIME LEFT: 172799.45
 STEP:   6 TIME =     0.09 SECS, INTEGRAL =      0.54 TIME LEFT: 172799.36
 STEP:   7 TIME =     0.09 SECS, INTEGRAL =      0.63 TIME LEFT: 172799.27
 STEP:   8 TIME =     0.09 SECS, INTEGRAL =      0.73 TIME LEFT: 172799.17
 STEP:   9 TIME =     0.09 SECS, INTEGRAL =      0.81 TIME LEFT: 172799.09
 STEP:  10 TIME =     0.09 SECS, INTEGRAL =      0.91 TIME LEFT: 172798.99
 STEP:  11 TIME =     0.09 SECS, INTEGRAL =      1.00 TIME LEFT: 172798.90
 STEP:  12 TIME =     0.09 SECS, INTEGRAL =      1.09 TIME LEFT: 172798.80
 STEP:  13 TIME =     0.09 SECS, INTEGRAL =      1.19 TIME LEFT: 172798.71
 STEP:  14 TIME =     0.09 SECS, INTEGRAL =      1.27 TIME LEFT: 172798.62
 STEP:  15 TIME =     0.09 SECS, INTEGRAL =      1.36 TIME LEFT: 172798.54
 STEP:  16 TIME =     0.09 SECS, INTEGRAL =      1.45 TIME LEFT: 172798.45
 STEP:  17 TIME =     0.09 SECS, INTEGRAL =      1.53 TIME LEFT: 172798.37
 STEP:  18 TIME =     0.09 SECS, INTEGRAL =      1.62 TIME LEFT: 172798.28
 STEP:  19 TIME =     0.09 SECS, INTEGRAL =      1.70 TIME LEFT: 172798.20
 STEP:  20 TIME =     0.08 SECS, INTEGRAL =      1.78 TIME LEFT: 172798.12
 STEP:  21 TIME =     0.09 SECS, INTEGRAL =      1.87 TIME LEFT: 172798.03
 STEP:  22 TIME =     0.08 SECS, INTEGRAL =      1.95 TIME LEFT: 172797.95
 STEP:  23 TIME =     0.09 SECS, INTEGRAL =      2.03 TIME LEFT: 172797.87
 STEP:  24 TIME =     0.08 SECS, INTEGRAL =      2.11 TIME LEFT: 172797.79
 STEP:  25 TIME =     0.08 SECS, INTEGRAL =      2.19 TIME LEFT: 172797.71
 STEP:  26 TIME =     0.09 SECS, INTEGRAL =      2.27 TIME LEFT: 172797.62
 STEP:  27 TIME =     0.09 SECS, INTEGRAL =      2.36 TIME LEFT: 172797.54
 STEP:  28 TIME =     0.09 SECS, INTEGRAL =      2.45 TIME LEFT: 172797.45
 STEP:  29 TIME =     0.08 SECS, INTEGRAL =      2.52 TIME LEFT: 172797.38
 STEP:  30 TIME =     0.08 SECS, INTEGRAL =      2.60 TIME LEFT: 172797.30
 STEP:  31 TIME =     0.09 SECS, INTEGRAL =      2.70 TIME LEFT: 172797.20
 STEP:  32 TIME =     0.09 SECS, INTEGRAL =      2.79 TIME LEFT: 172797.11
 STEP:  33 TIME =     0.09 SECS, INTEGRAL =      2.88 TIME LEFT: 172797.02
 STEP:  34 TIME =     0.09 SECS, INTEGRAL =      2.97 TIME LEFT: 172796.93
 STEP:  35 TIME =     0.09 SECS, INTEGRAL =      3.06 TIME LEFT: 172796.84
 STEP:  36 TIME =     0.09 SECS, INTEGRAL =      3.15 TIME LEFT: 172796.75
 STEP:  37 TIME =     0.09 SECS, INTEGRAL =      3.24 TIME LEFT: 172796.66
 STEP:  38 TIME =     0.09 SECS, INTEGRAL =      3.33 TIME LEFT: 172796.57
 STEP:  39 TIME =     0.09 SECS, INTEGRAL =      3.42 TIME LEFT: 172796.48
 STEP:  40 TIME =     0.09 SECS, INTEGRAL =      3.51 TIME LEFT: 172796.39
 STEP:  41 TIME =     0.08 SECS, INTEGRAL =      3.59 TIME LEFT: 172796.31
 STEP:  42 TIME =     0.09 SECS, INTEGRAL =      3.67 TIME LEFT: 172796.23
 STEP:  43 TIME =     0.09 SECS, INTEGRAL =      3.76 TIME LEFT: 172796.14
 STEP:  44 TIME =     0.09 SECS, INTEGRAL =      3.85 TIME LEFT: 172796.05
 STEP:  45 TIME =     0.09 SECS, INTEGRAL =      3.94 TIME LEFT: 172795.96
 STEP:  46 TIME =     0.09 SECS, INTEGRAL =      4.02 TIME LEFT: 172795.88
 STEP:  47 TIME =     0.09 SECS, INTEGRAL =      4.11 TIME LEFT: 172795.79
 STEP:  48 TIME =     0.08 SECS, INTEGRAL =      4.19 TIME LEFT: 172795.71
 STEP:  49 TIME =     0.09 SECS, INTEGRAL =      4.27 TIME LEFT: 172795.62
 STEP:  50 TIME =     0.09 SECS, INTEGRAL =      4.37 TIME LEFT: 172795.53
 STEP:  51 TIME =     0.09 SECS, INTEGRAL =      4.46 TIME LEFT: 172795.44
 STEP:  52 TIME =     0.09 SECS, INTEGRAL =      4.55 TIME LEFT: 172795.35
 STEP:  53 TIME =     0.09 SECS, INTEGRAL =      4.63 TIME LEFT: 172795.27
 STEP:  54 TIME =     0.09 SECS, INTEGRAL =      4.72 TIME LEFT: 172795.18
 STEP:  55 TIME =     0.09 SECS, INTEGRAL =      4.81 TIME LEFT: 172795.09
 STEP:  56 TIME =     0.09 SECS, INTEGRAL =      4.90 TIME LEFT: 172795.00
 STEP:  57 TIME =     0.09 SECS, INTEGRAL =      4.99 TIME LEFT: 172794.91
 STEP:  58 TIME =     0.09 SECS, INTEGRAL =      5.09 TIME LEFT: 172794.81
 STEP:  59 TIME =     0.09 SECS, INTEGRAL =      5.17 TIME LEFT: 172794.73
 STEP:  60 TIME =     0.09 SECS, INTEGRAL =      5.26 TIME LEFT: 172794.64
 STEP:  61 TIME =     0.09 SECS, INTEGRAL =      5.34 TIME LEFT: 172794.55
 STEP:  62 TIME =     0.08 SECS, INTEGRAL =      5.42 TIME LEFT: 172794.48
 STEP:  63 TIME =     0.08 SECS, INTEGRAL =      5.50 TIME LEFT: 172794.40
 STEP:  64 TIME =     0.09 SECS, INTEGRAL =      5.59 TIME LEFT: 172794.31
 STEP:  65 TIME =     0.09 SECS, INTEGRAL =      5.67 TIME LEFT: 172794.23
 STEP:  66 TIME =     0.09 SECS, INTEGRAL =      5.76 TIME LEFT: 172794.14
 STEP:  67 TIME =     0.08 SECS, INTEGRAL =      5.84 TIME LEFT: 172794.06
 STEP:  68 TIME =     0.09 SECS, INTEGRAL =      5.92 TIME LEFT: 172793.98
 STEP:  69 TIME =     0.08 SECS, INTEGRAL =      6.00 TIME LEFT: 172793.90
 STEP:  70 TIME =     0.08 SECS, INTEGRAL =      6.08 TIME LEFT: 172793.82
 STEP:  71 TIME =     0.08 SECS, INTEGRAL =      6.16 TIME LEFT: 172793.74
 STEP:  72 TIME =     0.09 SECS, INTEGRAL =      6.24 TIME LEFT: 172793.66
 STEP:  73 TIME =     0.09 SECS, INTEGRAL =      6.33 TIME LEFT: 172793.57
 STEP:  74 TIME =     0.08 SECS, INTEGRAL =      6.41 TIME LEFT: 172793.49
 STEP:  75 TIME =     0.08 SECS, INTEGRAL =      6.48 TIME LEFT: 172793.41
 STEP:  76 TIME =     0.09 SECS, INTEGRAL =      6.57 TIME LEFT: 172793.33
 STEP:  77 TIME =     0.09 SECS, INTEGRAL =      6.66 TIME LEFT: 172793.24
 STEP:  78 TIME =     0.09 SECS, INTEGRAL =      6.74 TIME LEFT: 172793.16
 STEP:  79 TIME =     0.09 SECS, INTEGRAL =      6.83 TIME LEFT: 172793.07
 STEP:  80 TIME =     0.08 SECS, INTEGRAL =      6.91 TIME LEFT: 172792.99
 STEP:  81 TIME =     0.08 SECS, INTEGRAL =      6.98 TIME LEFT: 172792.91
 STEP:  82 TIME =     0.08 SECS, INTEGRAL =      7.06 TIME LEFT: 172792.84
 STEP:  83 TIME =     0.08 SECS, INTEGRAL =      7.14 TIME LEFT: 172792.76
 STEP:  84 TIME =     0.08 SECS, INTEGRAL =      7.22 TIME LEFT: 172792.68
 STEP:  85 TIME =     0.08 SECS, INTEGRAL =      7.30 TIME LEFT: 172792.60
 STEP:  86 TIME =     0.08 SECS, INTEGRAL =      7.38 TIME LEFT: 172792.52
 STEP:  87 TIME =     0.08 SECS, INTEGRAL =      7.45 TIME LEFT: 172792.45
 STEP:  88 TIME =     0.08 SECS, INTEGRAL =      7.53 TIME LEFT: 172792.37
 STEP:  89 TIME =     0.09 SECS, INTEGRAL =      7.62 TIME LEFT: 172792.28
 STEP:  90 TIME =     0.09 SECS, INTEGRAL =      7.71 TIME LEFT: 172792.19
 STEP:  91 TIME =     0.09 SECS, INTEGRAL =      7.80 TIME LEFT: 172792.10
 STEP:  92 TIME =     0.08 SECS, INTEGRAL =      7.88 TIME LEFT: 172792.02
 STEP:  93 TIME =     0.08 SECS, INTEGRAL =      7.95 TIME LEFT: 172791.95
 STEP:  94 TIME =     0.09 SECS, INTEGRAL =      8.04 TIME LEFT: 172791.86
 STEP:  95 TIME =     0.09 SECS, INTEGRAL =      8.12 TIME LEFT: 172791.77
 STEP:  96 TIME =     0.09 SECS, INTEGRAL =      8.21 TIME LEFT: 172791.69
 STEP:  97 TIME =     0.08 SECS, INTEGRAL =      8.29 TIME LEFT: 172791.61
 STEP:  98 TIME =     0.09 SECS, INTEGRAL =      8.38 TIME LEFT: 172791.52
 STEP:  99 TIME =     0.09 SECS, INTEGRAL =      8.46 TIME LEFT: 172791.44
 STEP: 100 TIME =     0.08 SECS, INTEGRAL =      8.54 TIME LEFT: 172791.36
 STEP: 101 TIME =     0.09 SECS, INTEGRAL =      8.62 TIME LEFT: 172791.27
 STEP: 102 TIME =     0.08 SECS, INTEGRAL =      8.70 TIME LEFT: 172791.20
 STEP: 103 TIME =     0.09 SECS, INTEGRAL =      8.79 TIME LEFT: 172791.11
 STEP: 104 TIME =     0.09 SECS, INTEGRAL =      8.88 TIME LEFT: 172791.02
 STEP: 105 TIME =     0.09 SECS, INTEGRAL =      8.96 TIME LEFT: 172790.94
 STEP: 106 TIME =     0.08 SECS, INTEGRAL =      9.04 TIME LEFT: 172790.86
 STEP: 107 TIME =     0.08 SECS, INTEGRAL =      9.12 TIME LEFT: 172790.78
 STEP: 108 TIME =     0.09 SECS, INTEGRAL =      9.20 TIME LEFT: 172790.70
 STEP: 109 TIME =     0.08 SECS, INTEGRAL =      9.28 TIME LEFT: 172790.62
 STEP: 110 TIME =     0.09 SECS, INTEGRAL =      9.37 TIME LEFT: 172790.53
 STEP: 111 TIME =     0.08 SECS, INTEGRAL =      9.45 TIME LEFT: 172790.45
 STEP: 112 TIME =     0.09 SECS, INTEGRAL =      9.53 TIME LEFT: 172790.37
 STEP: 113 TIME =     0.09 SECS, INTEGRAL =      9.62 TIME LEFT: 172790.28
 STEP: 114 TIME =     0.08 SECS, INTEGRAL =      9.70 TIME LEFT: 172790.20

(To convert to Hartree/Bohr^2, multiply by (10^(-21) x N x a0^2)/(4.184 x 627.51) =  0.0642)


           FORCE MATRIX IN MILLIDYNES/ANGSTROM


                  C  1       C  2       C  3       C  4       C  5       C  6
 ------------------------------------------------------------------------------
     C    1  14.224112
     C    2   6.075015  14.168385
     C    3   2.239120   4.717575  15.204090
     C    4   1.483867   1.935377   5.117455  14.981776
     C    5   2.379071   1.665576   1.994789   4.791334  14.295410
     C    6   5.019540   2.349175   1.525138   2.175599   6.135325  14.225887
     H    7   3.495695   0.667157   0.113159   0.019451   0.085647   0.645997
     H    8   0.688604   3.478259   0.651547   0.078867   0.009180   0.105799
     H    9   0.110213   0.020487   0.084746   0.666306   3.472366   0.658895
     H   10   0.658343   0.084387   0.006239   0.105408   0.678809   3.489061
     C   11   0.280688   0.257053   0.974281   3.637755   1.147340   0.362579
     C   12   0.412073   1.239161   4.251292   1.054405   0.325514   0.342356
     C   13   0.281351   0.327163   0.596356   1.002265   0.318538   0.281291
     H   14   0.016914   0.022211   0.036457   0.080883   0.015246   0.015432
     C   15   0.336643   0.416741   1.470078   0.597530   0.321786   0.319884
     H   16   0.007985   0.010815   0.115810   0.010009   0.010241   0.005647
     O   17   0.142862   0.139677   0.299364   1.468641   0.213427   0.153611
    Cl   18   0.006777   0.059881   0.846015   0.070481   0.015807   0.010168
     C   19   0.123142   0.139456   0.216224   0.255963   0.136165   0.123310
     C   20   0.149498   0.180007   0.288113   0.261638   0.152838   0.142339
     H   21   0.003637   0.005946   0.007998   0.002621   0.002446   0.002331
     C   22   0.011416   0.018897   0.027867   0.019651   0.009252   0.011660
     H   23   0.003190   0.004883   0.007101   0.006630   0.003058   0.003862
     H   24   0.001164   0.002536   0.003728   0.001539   0.000892   0.001228
     H   25   0.001862   0.003121   0.004774   0.005180   0.001875   0.001865
     C   26   0.021164   0.025826   0.037439   0.055581   0.023011   0.025815
     H   27   0.007800   0.007930   0.012768   0.013569   0.015725   0.011111
     H   28   0.001875   0.003150   0.004555   0.004537   0.002425   0.002210
     H   29   0.004120   0.005486   0.006242   0.006592   0.006172   0.006559
     C   30   0.160192   0.199734   0.327219   0.247526   0.155481   0.147105
     H   31   0.005273   0.006345   0.010763   0.009889   0.005084   0.005073
     H   32   0.010345   0.012454   0.023541   0.018372   0.010558   0.010265
     O   33   0.008111   0.008712   0.010033   0.015821   0.008507   0.012059
     H   34   0.009436   0.007979   0.010440   0.025453   0.011754   0.015237
     H   35   0.003201   0.004059   0.004502   0.007620   0.003417   0.004659
     O   36   0.005064   0.007370   0.008880   0.042096   0.009958   0.009138
     H   37   0.001759   0.002746   0.003187   0.011766   0.002877   0.002796
     H   38   0.008139   0.008299   0.016486   0.071974   0.017132   0.013771


                  H  7       H  8       H  9       H 10       C 11       C 12
 ------------------------------------------------------------------------------
     H    7   4.309031
     H    8   0.036332   4.316853
     H    9   0.010876   0.014060   4.294596
     H   10   0.028390   0.009410   0.037320   4.310988
     C   11   0.023266   0.013172   0.074831   0.011401  14.781574
     C   12   0.013193   0.041680   0.012695   0.020428   0.574129  14.107143
     C   13   0.012816   0.011752   0.020552   0.013747   4.934483   1.489030
     H   14   0.001970   0.001703   0.002220   0.001789   0.682279   0.071035
     C   15   0.006635   0.016101   0.009369   0.014393   1.150694   7.462757
     H   16   0.001878   0.003444   0.001687   0.003057   0.067368   0.699574
     O   17   0.007213   0.007691   0.039828   0.011050   6.220563   0.225454
    Cl   18   0.006313   0.117436   0.004451   0.006870   0.041607   2.751119
     C   19   0.008347   0.006690   0.023324   0.010922   1.753951   0.238299
     C   20   0.010285   0.008166   0.020071   0.011147   1.475077   0.340212
     H   21   0.001447   0.001285   0.001147   0.001413   0.027598   0.012139
     C   22   0.003830   0.003454   0.009023   0.005252   0.086536   0.038870
     H   23   0.000878   0.000739   0.004325   0.001351   0.032704   0.008925
     H   24   0.000770   0.000708   0.001202   0.000966   0.010947   0.005822
     H   25   0.000810   0.000757   0.001109   0.000928   0.021706   0.006928
     C   26   0.004552   0.004709   0.011523   0.006701   0.175339   0.043677
     H   27   0.001893   0.002039   0.013131   0.002389   0.066615   0.012997
     H   28   0.001057   0.001051   0.001573   0.001286   0.019249   0.007106
     H   29   0.001295   0.001390   0.016150   0.002245   0.028560   0.007034
     C   30   0.011499   0.010534   0.016790   0.012946   1.613169   0.417497
     H   31   0.000899   0.001036   0.000652   0.000881   0.078689   0.014287
     H   32   0.000527   0.000860   0.001203   0.000694   0.104778   0.032697
     O   33   0.002407   0.002829   0.016572   0.003169   0.085204   0.011897
     H   34   0.002717   0.002864   0.035446   0.003617   0.164428   0.011512
     H   35   0.000827   0.001074   0.007770   0.001295   0.032210   0.005178
     O   36   0.003317   0.003028   0.005753   0.003633   0.172611   0.015470
     H   37   0.001016   0.000988   0.001576   0.001079   0.050665   0.005337
     H   38   0.003936   0.003530   0.005308   0.004428   0.388629   0.017972


                  C 13       H 14       C 15       H 16       O 17      Cl 18
 ------------------------------------------------------------------------------
     C   13  13.260064
     H   14   3.449958   4.287439
     C   15   4.551685   0.648505  15.085120
     H   16   0.631590   0.027145   3.472715   4.293186
     O   17   2.038491   0.150691   0.179253   0.019463   8.411462
    Cl   18   0.126232   0.015563   1.067834   0.058742   0.029276   4.463385
     C   19   1.144686   0.124878   0.257613   0.011515   1.841852   0.036002
     C   20   1.771388   0.146671   0.420752   0.014787   1.731019   0.044036
     H   21   0.044960   0.019092   0.012547   0.002336   0.033935   0.005762
     C   22   0.137453   0.020353   0.057016   0.004751   0.323199   0.016450
     H   23   0.034081   0.004518   0.012639   0.000937   0.037111   0.003543
     H   24   0.020199   0.002916   0.007973   0.000826   0.022430   0.003002
     H   25   0.026404   0.004905   0.009271   0.001175   0.022296   0.003514
     C   26   0.154947   0.017932   0.058684   0.004575   0.435800   0.015982
     H   27   0.032282   0.003835   0.015612   0.001627   0.026511   0.005188
     H   28   0.025559   0.003636   0.008519   0.001143   0.034603   0.003815
     H   29   0.023033   0.003462   0.009339   0.001118   0.024119   0.003822
     C   30   2.064970   0.386916   0.745983   0.024694   1.365474   0.051246
     H   31   0.289885   0.030203   0.023368   0.011577   0.065852   0.005329
     H   32   0.341629   0.008478   0.053270   0.002337   0.086965   0.002362
     O   33   0.043935   0.007640   0.014411   0.002583   0.167990   0.007606
     H   34   0.053540   0.007256   0.011582   0.002625   0.146795   0.008303
     H   35   0.021948   0.005227   0.012429   0.001218   0.050627   0.003003
     O   36   0.072392   0.028673   0.051920   0.004774   0.372130   0.013264
     H   37   0.054446   0.020651   0.041956   0.002115   0.069778   0.004355
     H   38   0.087286   0.044513   0.036876   0.005402   0.314933   0.015183


                  C 19       C 20       H 21       C 22       H 23       H 24
 ------------------------------------------------------------------------------
     C   19  13.949560
     C   20   5.175409  13.942240
     H   21   0.703077   3.449502   4.336580
     C   22   3.823135   0.948084   0.037524  11.398185
     H   23   0.697404   0.054968   0.005006   3.243485   4.163453
     H   24   0.679717   0.042405   0.008452   3.270999   0.560477   4.206251
     H   25   0.657482   0.039533   0.043802   3.314295   0.562283   0.555620
     C   26   3.777193   0.836778   0.062317   0.754870   0.020839   0.027823
     H   27   0.651562   0.048518   0.004801   0.045307   0.002837   0.003128
     H   28   0.681601   0.053101   0.008572   0.032540   0.005618   0.021963
     H   29   0.682553   0.053560   0.008089   0.025827   0.035473   0.015509
     C   30   1.962281   6.181665   0.750361   0.180062   0.043907   0.021173
     H   31   0.101083   0.651435   0.042047   0.020252   0.003280   0.003301
     H   32   0.136018   0.660307   0.088906   0.019071   0.003950   0.002845
     O   33   0.070510   0.046501   0.006063   0.110000   0.070770   0.010131
     H   34   0.076868   0.039582   0.005199   0.050395   0.067193   0.005161
     H   35   0.031178   0.021926   0.004390   0.042479   0.050816   0.004115
     O   36   0.080268   0.066295   0.022169   0.092513   0.027227   0.008904
     H   37   0.023108   0.018693   0.006176   0.016661   0.005683   0.002437
     H   38   0.133168   0.073667   0.030800   0.056571   0.027485   0.006123


                  H 25       C 26       H 27       H 28       H 29       C 30
 ------------------------------------------------------------------------------
     H   25   4.221744
     C   26   0.046480  11.416865
     H   27   0.007788   3.298915   4.231324
     H   28   0.002684   3.261135   0.563708   4.196485
     H   29   0.003252   3.327168   0.570701   0.557066   4.255470
     C   30   0.033269   0.186611   0.047186   0.036387   0.023247  12.323993
     H   31   0.003228   0.011790   0.003962   0.002935   0.002277   3.474365
     H   32   0.003626   0.023446   0.042129   0.007017   0.002874   3.462701
     O   33   0.019872   0.022839   0.004514   0.003709   0.009430   0.035427
     H   34   0.011408   0.026070   0.005229   0.003373   0.008961   0.040054
     H   35   0.021083   0.010196   0.001611   0.001485   0.003682   0.014530
     O   36   0.034647   0.026568   0.004416   0.004897   0.006081   0.031756
     H   37   0.010388   0.007687   0.001169   0.001413   0.001562   0.009261
     H   38   0.057054   0.032552   0.006278   0.005290   0.007033   0.053769


                  H 31       H 32       O 33       H 34       H 35       O 36
 ------------------------------------------------------------------------------
     H   31   4.239635
     H   32   0.542693   4.228424
     O   33   0.003818   0.003701   5.123876
     H   34   0.004566   0.004235   3.000896   3.646077
     H   35   0.001686   0.001652   2.956785   1.063072   3.575418
     O   36   0.007834   0.006428   0.195363   0.061736   0.164849   5.110708
     H   37   0.002487   0.002050   0.031108   0.018119   0.076225   3.090948
     H   38   0.008950   0.007455   0.068022   0.073371   0.133420   2.708390


                  H 37       H 38
 ------------------------------
     H   37   3.719757
     H   38   1.003182   3.254792


          HEAT OF FORMATION =     -97.146370 KCALS/MOLE


          TRIVIAL VIBRATIONS, SHOULD BE ZERO

 -28.7137=TX -47.5673=TY  -9.7886=TZ  34.6369=RX   3.7830=RY  47.6494=RZ


      MOLECULAR POINT GROUP   :   C1  


           EIGENVECTORS  


   Root No.       1         2         3         4         5         6         7         8

                 1 A       2 A       3 A       4 A       5 A       6 A       7 A       8 A   

                  -2.7      -0.0       0.0       0.0       0.0       0.0       0.0       0.0
  
           1   -0.0178   -0.0157   -0.0524   -0.0301    0.0508   -0.0324   -0.0339   -0.0179
           2    0.0107   -0.0178    0.0356    0.0330   -0.0476   -0.0180    0.0837    0.1164
           3   -0.0010    0.1276   -0.0893    0.0753    0.1029   -0.1186    0.0649    0.0930
           4    0.0212   -0.0156   -0.0522   -0.0304    0.0508   -0.0318   -0.0338   -0.0169
           5    0.0096   -0.0103    0.0198    0.0052   -0.0142   -0.0176    0.0572    0.0858
           6   -0.0003    0.0846   -0.0593    0.1571    0.0308   -0.1059    0.0370    0.0159
           7   -0.0231   -0.0218   -0.0390   -0.0056    0.0202   -0.0323   -0.0100    0.0095
           8   -0.0179   -0.0063    0.0119   -0.0086    0.0033   -0.0180    0.0433    0.0693
           9    0.0044    0.0130    0.0069    0.0832   -0.0210   -0.0114   -0.0035   -0.0356
          10   -0.0237   -0.0291   -0.0270    0.0177   -0.0102   -0.0318    0.0127    0.0328
          11   -0.0419   -0.0108    0.0177    0.0053   -0.0146   -0.0180    0.0562    0.0812
          12   -0.0162   -0.0050    0.0295   -0.0454    0.0038    0.0498   -0.0119   -0.0205
          13    0.0164   -0.0294   -0.0275    0.0177   -0.0099   -0.0313    0.0125    0.0324
          14    0.0002   -0.0184    0.0360    0.0329   -0.0482   -0.0178    0.0833    0.1151
          15   -0.0084    0.0355    0.0155   -0.1374    0.0561    0.0547    0.0025    0.0238
          16   -0.0035   -0.0229   -0.0401   -0.0063    0.0203   -0.0319   -0.0111    0.0064
          17   -0.0263   -0.0220    0.0435    0.0470   -0.0654   -0.0180    0.0969    0.1303
          18   -0.0002    0.1008   -0.0452   -0.0825    0.1116   -0.0282    0.0442    0.0936
          19    0.0019   -0.0110   -0.0628   -0.0496    0.0748   -0.0321   -0.0529   -0.0393
          20   -0.0032   -0.0206    0.0417    0.0447   -0.0617   -0.0183    0.0947    0.1288
          21    0.0003    0.1824   -0.1473    0.1320    0.1531   -0.2012    0.1039    0.1570
          22   -0.0004   -0.0111   -0.0624   -0.0486    0.0748   -0.0328   -0.0520   -0.0379
          23   -0.0028   -0.0077    0.0141   -0.0055   -0.0004   -0.0180    0.0470    0.0742
          24    0.0011    0.1063   -0.0912    0.2806    0.0175   -0.1762    0.0496    0.0049
          25    0.0005   -0.0340   -0.0137    0.0390   -0.0278   -0.0313    0.0285    0.0529
          26   -0.0026   -0.0208    0.0449    0.0439   -0.0578   -0.0179    0.0917    0.1270
          27   -0.0003    0.0141    0.0533   -0.2519    0.0496    0.1183   -0.0160    0.0123
          28   -0.0041   -0.0231   -0.0399   -0.0059    0.0202   -0.0321   -0.0110    0.0062
          29   -0.0000   -0.0282    0.0547    0.0676   -0.0928   -0.0170    0.1184    0.1551
          30    0.0020    0.1317   -0.0615   -0.1577    0.1633   -0.0291    0.0630    0.1537
          31   -0.0763   -0.0371   -0.0170    0.0397   -0.0434   -0.0306    0.0369    0.0559
          32    0.0587   -0.0060    0.0105   -0.0066    0.0030   -0.0203    0.0421    0.0662
          33   -0.0251   -0.0539    0.0458   -0.0702   -0.0115    0.0679   -0.0156   -0.0024
          34    0.0381   -0.0226   -0.0380   -0.0046    0.0177   -0.0311   -0.0088    0.0122
          35    0.0258    0.0035    0.0030   -0.0356    0.0381   -0.0157    0.0183    0.0474
          36    0.0006   -0.0420    0.0468    0.1255   -0.0913    0.0129   -0.0292   -0.0717
          37    0.1023   -0.0364   -0.0165    0.0389   -0.0432   -0.0285    0.0359    0.0563
          38    0.1310    0.0028    0.0080   -0.0315    0.0355   -0.0124    0.0190    0.0497
          39    0.5379   -0.0939    0.0348   -0.0551   -0.0329    0.0439   -0.0125    0.0617
          40    0.0047   -0.0474   -0.0148    0.0571   -0.0646   -0.0384    0.0502    0.0800
          41   -0.0027    0.0037   -0.0111   -0.0533    0.0570   -0.0263    0.0167    0.0518
          42   -0.0558   -0.1029   -0.0182   -0.0828   -0.0102   -0.0154    0.0055    0.0988
          43    0.0186   -0.0298   -0.0288    0.0163   -0.0132   -0.0301    0.0121    0.0337
          44   -0.0197    0.0076   -0.0026   -0.0482    0.0558   -0.0170    0.0062    0.0347
          45    0.0847   -0.0983    0.0626    0.0380   -0.0873    0.0424   -0.0300   -0.0006
          46    0.0126   -0.0320   -0.0271    0.0175   -0.0158   -0.0294    0.0119    0.0344
          47   -0.0014    0.0124   -0.0124   -0.0727    0.0868   -0.0176   -0.0131    0.0189
          48    0.0012   -0.1395    0.0903    0.0527   -0.1334    0.0597   -0.0457    0.0011
          49   -0.0003   -0.0393   -0.0199    0.0527   -0.0653   -0.0315    0.0538    0.0641
          50   -0.1726   -0.0099    0.0097    0.0026   -0.0100   -0.0179    0.0507    0.0709
          51   -0.3486   -0.0454    0.0519   -0.0876    0.0020    0.0681   -0.0040    0.0055
          52   -0.0037   -0.0152   -0.0494   -0.0299    0.0545   -0.0325   -0.0363   -0.0175
          53    0.0036    0.0077   -0.0044   -0.0528    0.0619   -0.0169    0.0025    0.0322
          54   -0.0178   -0.0346    0.0751    0.2909   -0.1893    0.0021   -0.0609   -0.2094
          55    0.1081   -0.0299   -0.0030   -0.0034   -0.0565    0.0138    0.0273   -0.0393
          56    0.1473   -0.0225   -0.0034   -0.0651   -0.0232    0.0133   -0.0298   -0.0747
          57    0.3218   -0.0166    0.0354   -0.0451    0.0077   -0.0038    0.0355    0.0241
          58   -0.1305   -0.0280    0.0055    0.0013   -0.0571    0.0181    0.0265   -0.0405
          59    0.0519   -0.0011    0.0932    0.0020   -0.0303    0.0612   -0.0248   -0.0453
          60   -0.0347   -0.0610   -0.0362   -0.0628    0.0170   -0.0319    0.0430    0.0878
          61   -0.0034   -0.0479   -0.0616   -0.0464   -0.0536   -0.0215    0.0247   -0.0524
          62   -0.0228    0.0096    0.1171    0.0284   -0.0246    0.0759   -0.0152   -0.0250
          63   -0.0121   -0.0691   -0.1046   -0.0733    0.0484   -0.0728    0.0811    0.1569
          64   -0.0054   -0.0693   -0.1283   -0.0660   -0.0384   -0.0288    0.0079   -0.0582
          65    0.0369   -0.0414   -0.0668   -0.0805   -0.0089   -0.0029   -0.0330   -0.0743
          66    0.0533   -0.0085    0.0328    0.0286    0.0282   -0.0056    0.0669    0.0497
          67    0.0268   -0.0362   -0.0559   -0.1415   -0.0413   -0.1496    0.2006   -0.2113
          68   -0.0267   -0.0695   -0.1657   -0.0884    0.0189   -0.0383   -0.0305   -0.0823
          69    0.0202   -0.0523   -0.0554    0.1470    0.0258    0.1952   -0.2347    0.2977
          70   -0.0247   -0.1324   -0.2825    0.0521   -0.0336    0.1855   -0.3441    0.2297
          71    0.0464   -0.0742   -0.1375   -0.0853   -0.0210    0.0953   -0.2129    0.0323
          72    0.0143   -0.0110    0.0229    0.0677    0.0366    0.0077    0.0531    0.0821
          73   -0.0029   -0.0767   -0.1637   -0.1468   -0.0262   -0.1244    0.1089   -0.1579
          74   -0.0032    0.0028    0.0354   -0.0711   -0.0087   -0.0729    0.1217   -0.1722
          75    0.0086    0.0330    0.1185   -0.0554    0.0452   -0.2045    0.3774   -0.1862
          76    0.0064    0.0060    0.1216    0.0492   -0.0751    0.0498    0.0134   -0.0340
          77    0.0042   -0.0449   -0.0582   -0.1384   -0.0236    0.0160   -0.0654   -0.1184
          78    0.0114   -0.0067    0.1183   -0.0877   -0.0181    0.0502   -0.0362   -0.0277
          79    0.0098    0.0185    0.0876    0.1423   -0.0155    0.2899    0.1911   -0.0372
          80    0.0176   -0.0377   -0.0423   -0.1127   -0.0204    0.0291   -0.0466   -0.1066
          81   -0.0076   -0.0254   -0.0320   -0.0707    0.0690    0.3997    0.1703   -0.1007
          82   -0.0181    0.0316    0.3384   -0.0212   -0.1870   -0.2512   -0.2671   -0.0101
          83   -0.0172   -0.0563   -0.1535   -0.1359    0.0388    0.3173    0.0780   -0.1942
          84    0.0158   -0.0053    0.1264   -0.0859   -0.0244    0.0117   -0.0500   -0.0166
          85    0.0196   -0.0049    0.0569    0.0582   -0.0474    0.1134    0.0787   -0.0407
          86    0.0153   -0.0600   -0.0375   -0.2264   -0.0814   -0.2626   -0.2377   -0.0979
          87   -0.0117    0.0227    0.3303   -0.1401   -0.1216   -0.2248   -0.2909    0.0040
          88   -0.0280   -0.0068    0.0735    0.0576   -0.0549    0.0632    0.0402   -0.0224
          89   -0.2201    0.0108    0.1330    0.0380   -0.0296    0.0855   -0.0186   -0.0424
          90   -0.5295   -0.0827   -0.0227   -0.0593   -0.0121   -0.0280    0.0025    0.0438
          91   -0.0187   -0.0072    0.0728    0.0565   -0.0548    0.0635    0.0405   -0.0231
          92   -0.0028    0.0276    0.1969    0.0907   -0.0271    0.1354   -0.0030   -0.0207
          93   -0.0297   -0.1134   -0.0845   -0.0871   -0.0070   -0.0740   -0.0038    0.1003
          94    0.0009    0.0171    0.1466    0.1103   -0.0533    0.1262    0.0595   -0.0187
          95   -0.0072    0.0006    0.1301    0.0205   -0.0434    0.0858   -0.0382   -0.0594
          96    0.0277   -0.0794    0.0546   -0.0411   -0.0436    0.0441   -0.0234    0.0097
          97   -0.0019    0.1026    0.1014   -0.0179    0.1329    0.0265   -0.0110    0.0578
          98   -0.0006   -0.0403    0.0348    0.2208    0.3958   -0.0601   -0.1464   -0.1905
          99   -0.0094   -0.2127   -0.1593    0.1491   -0.0063   -0.0772   -0.0179   -0.2765
         100   -0.0100    0.0582    0.0617   -0.0044    0.0029   -0.0089    0.0635    0.0735
         101    0.0053   -0.0343    0.0319    0.1704    0.3063   -0.0241   -0.1322   -0.0716
         102   -0.0001   -0.1582   -0.1322    0.0282   -0.0795    0.0300   -0.0561   -0.0423
         103    0.0002    0.1175    0.1221   -0.0165    0.2329    0.0346   -0.0560    0.0144
         104    0.0024   -0.0359    0.0245    0.2319    0.2866   -0.0572   -0.1064   -0.1234
         105    0.0047   -0.1228   -0.1117    0.1833    0.0185   -0.0206   -0.0741   -0.2042
         106   -0.0001    0.1087    0.1038   -0.0371    0.2288    0.0523   -0.0729    0.0116
         107    0.0034    0.1675   -0.1209    0.0768   -0.1649   -0.0273    0.0132    0.0062
         108   -0.0020    0.2771   -0.0778    0.0221   -0.0594    0.0630   -0.0980   -0.1363
         109    0.0008    0.4395    0.0088   -0.1508    0.0512    0.1007   -0.1094   -0.0301
         110   -0.0029    0.3785   -0.3073    0.1310   -0.3768    0.0014   -0.0788   -0.0329
         111   -0.0037    0.3660   -0.0641   -0.0466   -0.0720    0.0744   -0.0849   -0.1456
         112    0.0076    0.0130    0.0228    0.0387    0.0554    0.0188   -0.0271    0.0411
         113    0.0242    0.0616   -0.0242    0.0259   -0.0911   -0.0480    0.0922    0.0382
         114    0.0040    0.1459    0.0407   -0.0356    0.0337    0.0337   -0.0008   -0.1012


   Root No.       9        10        11        12        13        14        15        16

                 9 A      10 A      11 A      12 A      13 A      14 A      15 A      16 A   

                   0.0       0.0       0.0       0.0       0.1       0.1       0.1       0.1
  
           1   -0.0044   -0.0215    0.0036    0.0142   -0.0112    0.0112    0.0029   -0.0201
           2    0.0214    0.0231    0.0199   -0.0121    0.0183    0.1113    0.0406   -0.0100
           3    0.0101    0.0150   -0.0228   -0.0477    0.0326   -0.0139   -0.0987   -0.0165
           4   -0.0051   -0.0214    0.0039    0.0127   -0.0107    0.0132    0.0041   -0.0204
           5    0.0374   -0.0087    0.0087    0.0108   -0.0230    0.0768   -0.0040    0.0350
           6    0.0610   -0.1126   -0.0738   -0.0908   -0.0231   -0.0234    0.1583    0.0602
           7   -0.0179    0.0078    0.0145   -0.0049    0.0249    0.0415    0.0411   -0.0570
           8    0.0455   -0.0253    0.0025    0.0220   -0.0430    0.0585   -0.0254    0.0550
           9    0.0032   -0.0720   -0.0102    0.0153   -0.0508   -0.0098    0.1827    0.0651
          10   -0.0310    0.0366    0.0233   -0.0210    0.0571    0.0510    0.0684   -0.0889
          11    0.0391   -0.0096    0.0067    0.0141   -0.0259    0.0596   -0.0128    0.0362
          12   -0.0536   -0.0030    0.0112    0.0187   -0.0384   -0.0394    0.1961    0.0788
          13   -0.0309    0.0352    0.0229   -0.0228    0.0569    0.0523    0.0693   -0.0911
          14    0.0207    0.0234    0.0192   -0.0109    0.0168    0.1049    0.0375   -0.0093
          15   -0.1104    0.1185    0.0713    0.1051   -0.0413   -0.0084    0.2279    0.0806
          16   -0.0175    0.0066    0.0126   -0.0036    0.0219    0.0279    0.0344   -0.0554
          17    0.0135    0.0401    0.0255   -0.0212    0.0382    0.1217    0.0601   -0.0314
          18   -0.0935    0.1594    0.0819    0.1091    0.0110    0.0154   -0.0377   -0.0050
          19    0.0060   -0.0449   -0.0045    0.0298   -0.0416   -0.0111   -0.0289    0.0119
          20    0.0156    0.0365    0.0245   -0.0213    0.0359    0.1253    0.0597   -0.0292
          21    0.0501    0.0072   -0.0642   -0.1396    0.0964   -0.0283   -0.3698   -0.0871
          22    0.0065   -0.0447   -0.0047    0.0282   -0.0394   -0.0062   -0.0249    0.0099
          23    0.0438   -0.0216    0.0041    0.0199   -0.0395    0.0668   -0.0215    0.0524
          24    0.1485   -0.2438   -0.1705   -0.2291   -0.0354   -0.0490    0.3270    0.1232
          25   -0.0493    0.0551    0.0336   -0.0426    0.0917    0.0879    0.1115   -0.1359
          26    0.0085    0.0351    0.0254   -0.0213    0.0360    0.1263    0.0643   -0.0340
          27   -0.1694    0.1900    0.1141    0.1715   -0.0819    0.0064    0.4437    0.1546
          28   -0.0172    0.0058    0.0122   -0.0042    0.0219    0.0285    0.0358   -0.0564
          29    0.0012    0.0676    0.0363   -0.0391    0.0731    0.1504    0.0992   -0.0702
          30   -0.1577    0.3027    0.1694    0.2273    0.0385    0.0587   -0.2099   -0.0621
          31   -0.0376    0.0650    0.0267   -0.0323    0.0761    0.0459    0.0749   -0.0929
          32    0.0413   -0.0243    0.0057    0.0203   -0.0370    0.0519   -0.0194    0.0385
          33   -0.0543   -0.0314   -0.0108   -0.0574   -0.0075   -0.0729    0.0538    0.0814
          34   -0.0194    0.0095    0.0158   -0.0059    0.0255    0.0436    0.0416   -0.0559
          35    0.0557   -0.0533   -0.0051    0.0302   -0.0663    0.0592   -0.0413    0.0837
          36   -0.0143   -0.0535    0.0540    0.1234   -0.0552    0.0317    0.0396    0.0359
          37   -0.0392    0.0626    0.0277   -0.0332    0.0712    0.0459    0.0749   -0.0879
          38    0.0525   -0.0503   -0.0025    0.0269   -0.0568    0.0636   -0.0306    0.0773
          39   -0.0822    0.0265    0.0053   -0.1199    0.0360   -0.0900   -0.0334    0.1196
          40   -0.0475    0.0975    0.0359   -0.0508    0.1077    0.0468    0.0736   -0.1296
          41    0.0596   -0.0686   -0.0109    0.0223   -0.0742    0.0677   -0.0462    0.0896
          42   -0.0730    0.0319   -0.0007   -0.1566    0.0492   -0.0782   -0.0789    0.0695
          43   -0.0294    0.0365    0.0232   -0.0162    0.0451    0.0440    0.0495   -0.0681
          44    0.0615   -0.0671   -0.0094    0.0348   -0.0748    0.0582   -0.0470    0.0883
          45   -0.0737    0.0463    0.0547   -0.0025    0.0450   -0.0721   -0.1046    0.0830
          46   -0.0314    0.0406    0.0262   -0.0149    0.0494    0.0433    0.0408   -0.0696
          47    0.0713   -0.0931   -0.0181    0.0436   -0.1009    0.0602   -0.0654    0.1171
          48   -0.1124    0.1202    0.1168    0.0355    0.1068   -0.1058   -0.3348    0.0943
          49   -0.0318    0.0835    0.0212   -0.0231    0.0433    0.0047    0.0663   -0.0859
          50    0.0433   -0.0089    0.0027    0.0288   -0.0487    0.0206   -0.0207    0.0475
          51   -0.0328   -0.1024   -0.0234   -0.0529   -0.0304   -0.0347   -0.0060    0.0564
          52   -0.0057   -0.0243    0.0076    0.0144   -0.0060    0.0419    0.0149   -0.0301
          53    0.0644   -0.0734   -0.0121    0.0374   -0.0832    0.0568   -0.0554    0.1025
          54    0.0243   -0.1277    0.1930    0.5412   -0.2133    0.2950   -0.0857   -0.1181
          55   -0.0255   -0.0616    0.0009    0.0011    0.0171   -0.0003   -0.0416    0.0618
          56    0.0406    0.0185   -0.0360   -0.0006    0.0464   -0.0473   -0.0066   -0.0437
          57    0.0141   -0.0795   -0.0176   -0.0190   -0.0467    0.0109    0.0089   -0.0434
          58   -0.0255   -0.0613    0.0008    0.0010    0.0176   -0.0045   -0.0429    0.0624
          59    0.0412    0.0558   -0.0211   -0.0192    0.0674   -0.0877   -0.0090   -0.0009
          60   -0.0263   -0.0560    0.0021   -0.0347   -0.0412    0.0190   -0.0071    0.0854
          61   -0.0337   -0.0856   -0.0069    0.0098    0.0031    0.0320   -0.0646    0.0561
          62    0.0494    0.0644   -0.0152   -0.0141    0.0734   -0.0980    0.0067    0.0353
          63   -0.0220   -0.0859    0.0119    0.0038   -0.0691    0.0839   -0.0016    0.2394
          64   -0.0219   -0.1079   -0.0026    0.0512    0.0228   -0.0179   -0.0390    0.0996
          65    0.0537   -0.0144   -0.0326    0.0537    0.0609   -0.0941    0.0004   -0.0371
          66    0.0724   -0.1096    0.0072    0.1058   -0.0049   -0.1404    0.0214   -0.1134
          67   -0.0594   -0.0876    0.0086    0.0151   -0.0082   -0.0093   -0.0489    0.1349
          68    0.0913   -0.0636   -0.0092    0.1662    0.1073   -0.2240    0.0107   -0.0549
          69    0.1180   -0.1385   -0.0179    0.1431    0.0356   -0.1343    0.0318   -0.1570
          70    0.0404   -0.1685   -0.0270    0.1391    0.0815   -0.0497   -0.0252    0.0784
          71    0.0334   -0.0181   -0.0658   -0.0176    0.0384    0.0422   -0.0064    0.0281
          72    0.1042   -0.1273    0.0171    0.1745    0.0285   -0.2288    0.0299   -0.1629
          73   -0.0411   -0.1257    0.0059    0.0641    0.0063   -0.0334   -0.0480    0.1622
          74    0.0588    0.0100   -0.0148    0.0727    0.0821   -0.1616    0.0016   -0.1009
          75    0.0569   -0.1000    0.0409    0.1425   -0.0036   -0.2423    0.0148   -0.1252
          76   -0.0225   -0.0476    0.0041   -0.0381   -0.0027    0.0076   -0.0923    0.0594
          77    0.0085   -0.0074   -0.0624   -0.0304    0.0182    0.0002    0.0068   -0.1019
          78   -0.0371   -0.1010   -0.0498   -0.1194   -0.1214    0.0917   -0.0375   -0.1224
          79   -0.0206   -0.0467    0.0158   -0.0604   -0.0128    0.0081   -0.1409    0.0918
          80    0.0179   -0.0002   -0.0547   -0.0243    0.0276   -0.0152   -0.0023   -0.0797
          81   -0.0877   -0.1400   -0.0766   -0.1979   -0.1966    0.1835   -0.0653   -0.2168
          82   -0.0302   -0.0308   -0.0053   -0.0740   -0.0291    0.0360   -0.1179    0.0410
          83   -0.0474   -0.0463   -0.0984   -0.1319   -0.0666    0.1064   -0.0368   -0.2216
          84   -0.0276   -0.0955   -0.0447   -0.1040   -0.1099    0.0779   -0.0307   -0.1103
          85   -0.0220   -0.0548    0.0061   -0.0250    0.0067   -0.0022   -0.0851    0.0723
          86    0.0215    0.0016   -0.0621    0.0276    0.0566   -0.0342    0.0765   -0.0952
          87   -0.0388   -0.0773   -0.0548   -0.1512   -0.1473    0.1195   -0.0527   -0.1524
          88   -0.0142   -0.0286    0.0125   -0.0012    0.0495   -0.0514    0.0005    0.0977
          89    0.0501    0.0766   -0.0148   -0.0164    0.0911   -0.1238    0.0107    0.0125
          90   -0.0496    0.0115   -0.0002   -0.0763    0.0279   -0.0550   -0.0440    0.0134
          91   -0.0140   -0.0303    0.0122   -0.0009    0.0498   -0.0518   -0.0004    0.1018
          92    0.0594    0.1102   -0.0018   -0.0204    0.1301   -0.1828    0.0606    0.0766
          93   -0.0839    0.0374    0.0141   -0.1081    0.0205    0.0041   -0.0623   -0.0005
          94   -0.0001   -0.0144    0.0207    0.0009    0.0762   -0.1116    0.0413    0.1707
          95    0.0372    0.0821   -0.0196   -0.0328    0.0990   -0.1394   -0.0061   -0.0061
          96   -0.0661    0.0388   -0.0014   -0.1127    0.0718   -0.1527   -0.0387    0.0516
          97   -0.0017    0.0660   -0.2415    0.0955   -0.1420   -0.1215    0.0049   -0.1414
          98   -0.2148   -0.0214    0.1788   -0.0826    0.0348    0.0144    0.0137    0.0130
          99    0.2859    0.3300    0.1843   -0.1829   -0.0749    0.0800    0.0334   -0.0634
         100   -0.0307    0.1098   -0.2228    0.0476   -0.1550   -0.0975    0.0441   -0.2333
         101   -0.2186   -0.1254    0.2066   -0.0628    0.0395   -0.0754    0.0005   -0.0781
         102    0.3267    0.0872    0.2201   -0.0959   -0.0688   -0.1380   -0.0366   -0.1802
         103    0.0320    0.0551   -0.2038    0.0988   -0.1200   -0.1201   -0.0084   -0.0944
         104   -0.3228   -0.0036   -0.0087   -0.0316    0.0081    0.0246    0.0216    0.0247
         105    0.1038    0.3593   -0.3064    0.0110   -0.1000    0.1338   -0.0150    0.2080
         106    0.3166    0.1630   -0.0299    0.0222   -0.1393    0.0466   -0.0760    0.1694
         107   -0.1171    0.0595   -0.0302    0.0174   -0.1202   -0.0854   -0.0512    0.0127
         108   -0.0229    0.0524   -0.2357    0.0675    0.2348    0.1322   -0.0206    0.0448
         109    0.2775   -0.0460    0.5184   -0.1962   -0.0700   -0.0073    0.0347    0.0449
         110   -0.3127    0.0979    0.0224   -0.0776   -0.3201   -0.2252   -0.0065   -0.0110
         111    0.0284   -0.0541   -0.0019    0.0004    0.3335    0.1606    0.0180   -0.0059
         112    0.0994    0.2179   -0.1679    0.0256   -0.2355   -0.0645   -0.0446    0.0881
         113   -0.0261    0.0023    0.0164    0.0398   -0.0192   -0.0336   -0.0568   -0.0109
         114    0.0817   -0.0232   -0.1859    0.1027    0.3938    0.2131   -0.0158   -0.0028


   Root No.      17        18        19        20        21        22        23        24

                17 A      18 A      19 A      20 A      21 A      22 A      23 A      24 A   

                   0.1       0.1       0.1       0.1       0.2       0.2       0.2       0.2
  
           1   -0.0007    0.0016   -0.0208    0.0036    0.0189   -0.0019   -0.0027   -0.0006
           2    0.0247   -0.0464   -0.0005   -0.0169    0.0490   -0.0474   -0.0009   -0.0068
           3   -0.0046   -0.0192    0.0186    0.0207   -0.0032   -0.0068    0.0076   -0.1110
           4    0.0006    0.0001   -0.0194    0.0040    0.0194   -0.0033   -0.0025   -0.0019
           5    0.0161   -0.0118    0.0023   -0.0318    0.0553   -0.0421   -0.0005   -0.0081
           6    0.0070    0.0348   -0.0381   -0.0259    0.0248    0.0000   -0.0069    0.0626
           7    0.0078   -0.0295   -0.0217    0.0151    0.0111   -0.0075   -0.0018    0.0007
           8    0.0106    0.0047    0.0030   -0.0379    0.0562   -0.0379   -0.0007   -0.0071
           9    0.0132    0.0347   -0.0196   -0.0157   -0.0347   -0.0413    0.0558   -0.0170
          10    0.0101   -0.0431   -0.0276    0.0320   -0.0089    0.0128   -0.0006    0.0043
          11    0.0104    0.0011   -0.0018   -0.0273    0.0429   -0.0225   -0.0003   -0.0046
          12    0.0161    0.0329   -0.0138   -0.0073   -0.0136   -0.0401    0.0361   -0.1394
          13    0.0109   -0.0446   -0.0279    0.0338   -0.0099    0.0129    0.0003    0.0040
          14    0.0219   -0.0399   -0.0015   -0.0155    0.0454   -0.0401   -0.0016   -0.0057
          15    0.0154    0.0508   -0.0440   -0.0387    0.0327    0.0014   -0.0233   -0.0968
          16    0.0036   -0.0176   -0.0253    0.0198    0.0030    0.0103   -0.0017    0.0015
          17    0.0266   -0.0586   -0.0039   -0.0081    0.0402   -0.0417   -0.0007   -0.0038
          18    0.0026    0.0014    0.0074   -0.0040   -0.0206   -0.0163    0.0164    0.0741
          19   -0.0064    0.0274   -0.0195   -0.0077    0.0286   -0.0007   -0.0032   -0.0025
          20    0.0282   -0.0622   -0.0018   -0.0105    0.0448   -0.0494   -0.0006   -0.0060
          21   -0.0218   -0.0816    0.0709    0.0785    0.0116    0.0119   -0.0106   -0.4741
          22   -0.0052    0.0221   -0.0199   -0.0088    0.0325   -0.0066   -0.0035   -0.0003
          23    0.0129   -0.0001    0.0028   -0.0397    0.0635   -0.0459   -0.0007   -0.0084
          24    0.0098    0.0802   -0.1053   -0.0773    0.1340    0.0585   -0.1039    0.3612
          25    0.0203   -0.0833   -0.0339    0.0497   -0.0128    0.0027    0.0001    0.0076
          26    0.0258   -0.0610   -0.0036   -0.0085    0.0467   -0.0482   -0.0038   -0.0053
          27    0.0213    0.1005   -0.1144   -0.0960    0.1366    0.0658   -0.1192   -0.2246
          28    0.0034   -0.0182   -0.0261    0.0203    0.0029    0.0104   -0.0019    0.0001
          29    0.0367   -0.0904   -0.0084    0.0068    0.0318   -0.0423    0.0016   -0.0003
          30   -0.0030   -0.0198    0.0355   -0.0013   -0.0631   -0.0291    0.0431    0.4801
          31    0.0078   -0.0320   -0.0226    0.0321   -0.0218    0.0251   -0.0004    0.0016
          32    0.0076   -0.0001   -0.0065   -0.0231    0.0315   -0.0127    0.0030    0.0027
          33    0.0139    0.0074    0.0263    0.0220   -0.0077   -0.0623    0.0577   -0.1298
          34    0.0097   -0.0291   -0.0203    0.0155    0.0149   -0.0092   -0.0020   -0.0028
          35    0.0132   -0.0006    0.0203   -0.0528    0.0648   -0.0641    0.0003   -0.0098
          36    0.0076    0.0174   -0.0037   -0.0057   -0.0069   -0.0281    0.0377   -0.0105
          37    0.0111   -0.0303   -0.0215    0.0346   -0.0234    0.0258    0.0019   -0.0040
          38    0.0181   -0.0071    0.0234   -0.0421    0.0612   -0.0503   -0.0045   -0.0121
          39    0.0145    0.0253   -0.0046   -0.0097    0.0203   -0.0839    0.1056   -0.0878
          40    0.0084   -0.0408   -0.0581    0.0410   -0.0426    0.0570   -0.0029    0.0259
          41    0.0083   -0.0071    0.0306   -0.0657    0.0349   -0.0850    0.0297   -0.0038
          42   -0.0255    0.0045   -0.0427   -0.0654   -0.1076   -0.1126    0.1930    0.0014
          43    0.0097   -0.0265   -0.0231    0.0211    0.0125    0.0048   -0.0070   -0.0037
          44    0.0115   -0.0054    0.0224   -0.0573    0.0623   -0.0718    0.0019   -0.0046
          45   -0.0005    0.0189   -0.0247   -0.0084    0.1572    0.0154   -0.0594    0.0037
          46    0.0094   -0.0276   -0.0249    0.0222    0.0270    0.0123   -0.0202    0.0005
          47    0.0137   -0.0031    0.0259   -0.0757    0.0947   -0.1142    0.0073   -0.0127
          48   -0.0146    0.0086   -0.0507   -0.0092    0.4987    0.1511   -0.3488    0.1005
          49   -0.0006    0.0240   -0.0192    0.0360   -0.0517    0.0436   -0.0040   -0.0081
          50    0.0038    0.0360   -0.0174   -0.0216    0.0364   -0.0032   -0.0023   -0.0130
          51    0.0297   -0.0012    0.0703    0.0496    0.0604   -0.0668    0.0089   -0.1263
          52    0.0074   -0.0299   -0.0127   -0.0018    0.0330   -0.0404   -0.0021    0.0021
          53    0.0127   -0.0004    0.0237   -0.0653    0.0817   -0.0851   -0.0012   -0.0065
          54    0.0067   -0.0336    0.0688    0.0234   -0.1705   -0.0460    0.1055   -0.0918
          55   -0.0091    0.0232   -0.0143   -0.0530   -0.0380    0.0062    0.0021   -0.0853
          56   -0.0358   -0.0075   -0.0188   -0.0926   -0.1623    0.0491   -0.0463    0.0020
          57   -0.0351   -0.0621    0.1117    0.0295   -0.1865   -0.0242    0.0315    0.0892
          58   -0.0083    0.0244   -0.0180   -0.0506   -0.0229    0.0058   -0.0016   -0.0864
          59   -0.0205   -0.0091   -0.0032   -0.0673   -0.1286    0.0480   -0.0446   -0.0021
          60    0.0055   -0.0162    0.1255    0.0495   -0.1471    0.0855   -0.0237    0.0190
          61   -0.0176    0.0550   -0.0685   -0.1277   -0.0610    0.0325   -0.0241   -0.1225
          62   -0.0036   -0.0226    0.0663   -0.0002   -0.1392    0.1225   -0.0910    0.0089
          63    0.0629    0.0236    0.2831    0.1181   -0.2817    0.5156   -0.3139   -0.0515
          64   -0.0062   -0.0049    0.0429    0.0178    0.0270   -0.0344    0.0294    0.0357
          65   -0.0408   -0.0258   -0.0249   -0.0464   -0.0820    0.0331   -0.0428    0.0351
          66   -0.0845   -0.0896   -0.0398    0.0182   -0.0448    0.0052   -0.0200    0.0199
          67    0.0373   -0.0231    0.0748    0.0308   -0.0044   -0.0737    0.0233    0.0615
          68   -0.0379   -0.0679   -0.0750    0.0130    0.0787    0.0095   -0.0591    0.1488
          69   -0.1471   -0.0587   -0.0898   -0.0012   -0.0279    0.0593   -0.0107   -0.0417
          70   -0.0835    0.0056    0.0119    0.0283    0.1253   -0.0062    0.0565    0.0598
          71   -0.0274    0.0019    0.1276   -0.0459   -0.2125    0.0139    0.0139    0.1484
          72   -0.1197   -0.1034   -0.1386    0.0217    0.0509    0.0297   -0.0444   -0.0321
          73    0.0315   -0.0429    0.0997    0.0835    0.0672   -0.1054    0.0445    0.1794
          74   -0.0512   -0.0191   -0.1392   -0.0816   -0.0607    0.0827   -0.0815   -0.0828
          75   -0.0588   -0.1235   -0.1185    0.0563    0.0347   -0.0105   -0.0460    0.0247
          76   -0.0131    0.0446   -0.0786   -0.1573   -0.0739    0.0308   -0.0369   -0.0147
          77   -0.0237   -0.0197   -0.0139    0.0339   -0.0368    0.0490   -0.0241   -0.0442
          78   -0.0149   -0.0445    0.0227    0.0819   -0.0174   -0.0004    0.0154    0.0812
          79   -0.0185    0.0667   -0.1176   -0.3005   -0.1943    0.0505   -0.0768    0.0894
          80   -0.0279   -0.0146   -0.0151   -0.0183   -0.0941    0.0517   -0.0357   -0.0174
          81   -0.0032   -0.0414   -0.0422    0.1552    0.1187    0.0366    0.0028    0.0713
          82    0.0051    0.0652   -0.1327   -0.1390    0.0259    0.0934   -0.0817   -0.0042
          83   -0.0105   -0.0119   -0.1055    0.1156    0.1390    0.1152   -0.0559   -0.0743
          84   -0.0181   -0.0484    0.0384    0.0736   -0.0489   -0.0075    0.0200    0.0943
          85   -0.0165    0.0416   -0.0637   -0.1604   -0.0940    0.0162   -0.0258   -0.0370
          86   -0.0219   -0.0488    0.0649    0.1655    0.0241    0.0205    0.0214   -0.1590
          87    0.0012   -0.0344   -0.0174    0.1078    0.0560    0.0510   -0.0196    0.1312
          88    0.0154   -0.0199    0.0990    0.1052    0.0264   -0.0114    0.0473   -0.0422
          89   -0.0141   -0.0399    0.0585    0.0241   -0.0973    0.0359   -0.0148    0.0432
          90   -0.0444   -0.0116   -0.0380   -0.0611   -0.1396   -0.0594    0.1094    0.0589
          91    0.0160   -0.0197    0.1029    0.1090    0.0293   -0.0135    0.0508   -0.0459
          92    0.0221   -0.0947    0.2282    0.2435   -0.0340    0.0378    0.0414    0.1112
          93   -0.0354    0.0270   -0.1631   -0.1852   -0.1451   -0.0052    0.0655    0.0218
          94    0.0470   -0.0683    0.2699    0.3149    0.0969   -0.0463    0.1277    0.0019
          95   -0.0269   -0.0184   -0.0212   -0.0607   -0.0978   -0.0386    0.0271   -0.0025
          96   -0.0375   -0.0094   -0.0461   -0.0392   -0.0503   -0.2847    0.3006   -0.0110
          97    0.0791    0.0519    0.2062   -0.1815    0.0987    0.0482    0.0794   -0.0075
          98    0.0821   -0.0331   -0.0191   -0.0229   -0.0033    0.1060    0.0879    0.0230
          99   -0.1298    0.1423    0.2181   -0.1315    0.0663    0.0683    0.0656    0.0402
         100   -0.3705    0.3711    0.4035   -0.1199    0.0479   -0.2386   -0.2143   -0.0086
         101    0.2019    0.1347   -0.0024    0.0491   -0.0505   -0.1085   -0.1046   -0.0215
         102    0.5201    0.2420    0.0818   -0.0277    0.0012   -0.1572   -0.1056   -0.0444
         103    0.3788   -0.1701    0.1069   -0.2612    0.1356    0.2848    0.3001    0.0133
         104   -0.2648    0.0615    0.0384    0.0582   -0.0233   -0.1307   -0.1284   -0.0304
         105   -0.2142   -0.3337   -0.0637   -0.0470    0.0942    0.1030    0.1250   -0.0545
         106   -0.0536    0.1441   -0.3264    0.3351   -0.1223   -0.1089   -0.0489    0.0301
         107   -0.0147    0.2630   -0.1299    0.1517    0.0080    0.1429    0.2061    0.0224
         108    0.1677    0.0112   -0.0387    0.0264   -0.0508   -0.1743   -0.1539    0.0142
         109   -0.2849   -0.1499    0.0518   -0.0576    0.0562    0.0683    0.0437   -0.0348
         110    0.1130   -0.1634    0.0045   -0.0092   -0.0436   -0.0526   -0.0727    0.0045
         111    0.0229    0.0102    0.0906   -0.1006    0.0411   -0.0427   -0.0410   -0.0068
         112    0.1646   -0.0175   -0.2048    0.2219   -0.1585   -0.1461   -0.2405   -0.0067
         113   -0.1000    0.4879   -0.1290    0.1836    0.0728    0.3164    0.3777    0.0027
         114    0.0749    0.2584   -0.0120    0.0252    0.0284    0.0412    0.0476    0.0016


   Root No.      25        26        27        28        29        30        31        32

                25 A      26 A      27 A      28 A      29 A      30 A      31 A      32 A   

                   0.2       0.3       0.3       0.3       0.4       0.4       0.4       0.5
  
           1   -0.0002   -0.0102   -0.0005   -0.0019   -0.0761   -0.0101   -0.0469   -0.0076
           2    0.0016    0.0104    0.0021   -0.0204   -0.0066   -0.0007   -0.0266   -0.0044
           3    0.0383    0.0355    0.0010   -0.0790   -0.0381    0.0558   -0.0128   -0.0239
           4   -0.0010   -0.0042   -0.0014   -0.0055   -0.0574   -0.0122   -0.0370   -0.0067
           5   -0.0160   -0.0208    0.0298    0.0320   -0.1366    0.0199   -0.0703    0.0078
           6   -0.0508    0.0163   -0.0033   -0.0919   -0.0410    0.0657   -0.0167   -0.0287
           7    0.0150    0.0181   -0.0239   -0.0474    0.0659   -0.0201    0.0108   -0.0154
           8   -0.0213   -0.0370    0.0392    0.0518   -0.1894    0.0264   -0.0877    0.0106
           9   -0.1109    0.1304    0.0112   -0.2913   -0.1203    0.1628   -0.0419   -0.0522
          10    0.0239    0.0267   -0.0373   -0.0488    0.0802   -0.0265    0.0189   -0.0118
          11   -0.0177   -0.0336    0.0304    0.0506   -0.1797    0.0188   -0.0765    0.0088
          12   -0.0406    0.1253   -0.0014   -0.2922   -0.1042    0.1211   -0.0259   -0.0525
          13    0.0242    0.0314   -0.0400   -0.0565    0.0929   -0.0322    0.0249   -0.0139
          14   -0.0013    0.0038    0.0057   -0.0067   -0.0451   -0.0005   -0.0402   -0.0019
          15    0.0641    0.0146   -0.0076   -0.0681   -0.0403    0.0586   -0.0103   -0.0268
          16    0.0105    0.0076   -0.0189   -0.0218   -0.0151   -0.0225   -0.0196   -0.0097
          17    0.0096    0.0184   -0.0104   -0.0360    0.0324   -0.0076   -0.0114   -0.0086
          18   -0.0778    0.0266   -0.0037   -0.0839   -0.0345    0.0493   -0.0105   -0.0239
          19   -0.0163   -0.0362    0.0258    0.0458   -0.2253    0.0035   -0.1163    0.0031
          20    0.0117    0.0249   -0.0130   -0.0492    0.0746   -0.0092    0.0086   -0.0116
          21    0.2983    0.0153    0.0121    0.0871    0.0206   -0.0353    0.0103    0.0244
          22   -0.0125   -0.0333    0.0201    0.0281   -0.1823   -0.0034   -0.0927   -0.0064
          23   -0.0224   -0.0384    0.0438    0.0523   -0.2160    0.0280   -0.1070    0.0086
          24   -0.0747   -0.1683   -0.0264    0.2455    0.1166   -0.1500    0.0390    0.0392
          25    0.0484    0.0723   -0.0797   -0.1459    0.2878   -0.0704    0.0922   -0.0439
          26    0.0144    0.0268   -0.0146   -0.0538    0.0642   -0.0229   -0.0042   -0.0183
          27    0.3340   -0.1318   -0.0025    0.3134    0.0834   -0.0822    0.0200    0.0426
          28    0.0130    0.0072   -0.0200   -0.0244   -0.0167   -0.0234   -0.0216   -0.0113
          29    0.0254    0.0522   -0.0420   -0.0922    0.1798   -0.0333    0.0467   -0.0216
          30   -0.3279   -0.0197   -0.0042    0.0333    0.0444   -0.0740    0.0158    0.0232
          31    0.0083    0.0048   -0.0102    0.0219   -0.0661    0.0076   -0.0433    0.0174
          32   -0.0035   -0.0313    0.0160    0.0245   -0.1087    0.0049   -0.0346   -0.0019
          33   -0.0932    0.1208    0.0088   -0.1505   -0.0097   -0.0493    0.0115   -0.0021
          34    0.0107    0.0254   -0.0216   -0.0453    0.0722   -0.0215    0.0147   -0.0122
          35   -0.0184   -0.0130    0.0334    0.0185   -0.0225    0.0306   -0.0069    0.0156
          36   -0.0816    0.0928    0.0141   -0.1801   -0.0753    0.1034   -0.0290   -0.0181
          37    0.0009    0.0139   -0.0007    0.0359   -0.0853    0.0198   -0.0390    0.0310
          38   -0.0194    0.0142    0.0211    0.0052    0.0232    0.0230    0.0206    0.0265
          39   -0.1289    0.1824    0.0777    0.0684    0.0307   -0.0512   -0.0146    0.0465
          40    0.0155   -0.0037    0.0168    0.1418   -0.2330   -0.0089   -0.1104    0.0317
          41   -0.0110   -0.0025    0.0271    0.0521    0.1373    0.0083    0.0277   -0.0118
          42   -0.0579    0.0757    0.1184    0.3616    0.1073   -0.1367   -0.0810   -0.0751
          43    0.0048    0.0090   -0.0068   -0.0007   -0.0379    0.0026   -0.0383    0.0062
          44   -0.0077   -0.0107    0.0204   -0.0104    0.0606    0.0205    0.0295    0.0027
          45   -0.0354    0.0192    0.0014   -0.0932   -0.0234    0.0308   -0.0125    0.0022
          46    0.0118   -0.0028   -0.0121   -0.0009   -0.0402    0.0017   -0.0410    0.0046
          47   -0.0122    0.0095    0.0202   -0.0685    0.2208   -0.0033    0.1194   -0.0289
          48    0.1141   -0.2584   -0.0959   -0.1178    0.0259    0.0099    0.0021   -0.0693
          49   -0.0059   -0.0404    0.0184    0.0405   -0.1877   -0.0062   -0.0255    0.0036
          50   -0.0250   -0.0346    0.0318    0.0260   -0.1848   -0.0052   -0.0426   -0.0220
          51   -0.1258    0.0813   -0.0479   -0.1454   -0.0067   -0.1864    0.0399    0.0159
          52    0.0241    0.0280   -0.0351   -0.1094    0.2983   -0.0490    0.1579   -0.0487
          53   -0.0137   -0.0092    0.0251   -0.0264    0.1128    0.0158    0.0786   -0.0079
          54    0.0541    0.0127    0.0276    0.2347    0.0769   -0.0980    0.0149    0.0306
          55   -0.1203   -0.1335   -0.0109   -0.0014    0.0386    0.0224    0.0112    0.0753
          56    0.0252   -0.0816   -0.0393   -0.0197    0.0010    0.0107    0.0013   -0.1181
          57    0.1573   -0.2658   -0.0995   -0.0807   -0.0405    0.0238    0.0326    0.0149
          58   -0.1214   -0.1257   -0.0110   -0.0201    0.0299    0.0027    0.0068    0.0823
          59    0.0085   -0.0059   -0.0289   -0.0420    0.0084   -0.0500    0.0026    0.2073
          60    0.0219   -0.0711   -0.0336   -0.0143    0.0040   -0.0233   -0.0373   -0.0613
          61   -0.1627   -0.1683   -0.0214   -0.0166    0.0490    0.0191    0.0034   -0.1180
          62    0.0040    0.0575   -0.0150   -0.0315    0.0207   -0.0748   -0.0173    0.3457
          63   -0.1373    0.1674    0.0195    0.0329    0.1023   -0.1354   -0.1490   -0.0104
          64    0.0424   -0.0101   -0.0021   -0.0089    0.0085    0.0105    0.0171    0.0763
          65    0.0616    0.0356   -0.0124   -0.0111   -0.0113   -0.0081   -0.0002   -0.1357
          66    0.0298   -0.1148    0.0108   -0.0348   -0.0062    0.0210    0.0058    0.0141
          67    0.0862   -0.0377   -0.0358   -0.0268   -0.0111    0.0111    0.0281    0.1224
          68    0.1899    0.3997    0.0709    0.0410   -0.0234   -0.0646   -0.0499   -0.1442
          69   -0.0640   -0.1326    0.0196   -0.0134    0.0222    0.0292    0.0052   -0.0258
          70    0.0606    0.1317    0.1054    0.0076    0.0308   -0.0123    0.0011    0.1570
          71    0.2652   -0.1109   -0.1202   -0.0977   -0.0939   -0.0093    0.0457   -0.1942
          72   -0.0733    0.0041    0.0970    0.0183    0.0471    0.0171   -0.0231    0.0566
          73    0.2437    0.1449   -0.0488   -0.0248   -0.0496   -0.0163    0.0111    0.1854
          74   -0.1220    0.0215    0.0167    0.0362    0.0495    0.0085   -0.0049   -0.2285
          75    0.0126    0.0334   -0.0011    0.0053    0.0052    0.0101   -0.0021    0.0303
          76   -0.0200   -0.0007   -0.0012   -0.0000    0.0259    0.0103    0.0025    0.0307
          77   -0.0781   -0.0815   -0.0093    0.0163    0.0214    0.0226    0.0036   -0.0874
          78    0.0955   -0.0656   -0.0320   -0.0362   -0.0315    0.0009    0.0232    0.0219
          79    0.1619    0.0940   -0.0405   -0.0146   -0.0064    0.0020    0.0043   -0.2448
          80   -0.0221   -0.0782   -0.0304    0.0028    0.0126    0.0211    0.0088   -0.2004
          81    0.0248    0.0496    0.0400    0.0386   -0.0189    0.0045   -0.0092    0.1713
          82   -0.0592    0.2621    0.0899    0.0945    0.0462    0.0031   -0.0617   -0.0308
          83   -0.2104    0.1111    0.1076    0.1502    0.0646    0.0262   -0.0683   -0.0369
          84    0.1256   -0.1046   -0.0531   -0.0556   -0.0415    0.0040    0.0354    0.0181
          85   -0.0400   -0.0691   -0.0175   -0.0201    0.0347    0.0143    0.0161    0.0713
          86   -0.2445   -0.2794   -0.0041    0.0131    0.0628    0.0573    0.0340    0.1040
          87    0.1281    0.1428    0.0244    0.0361   -0.0492   -0.0048   -0.0192   -0.0856
          88   -0.0861   -0.0836    0.0186    0.0470    0.0267    0.0729    0.0331    0.0425
          89    0.0513   -0.0052   -0.0183   -0.0151    0.0059   -0.0011    0.0196    0.1886
          90    0.0741   -0.1325   -0.0158    0.0270    0.0271    0.0666    0.0089   -0.0818
          91   -0.0933   -0.0895    0.0201    0.0526    0.0307    0.0727    0.0300    0.0280
          92    0.0962    0.1044    0.0481    0.1621    0.0146    0.2359    0.1283   -0.0173
          93    0.0098    0.0780    0.0712    0.1896    0.0363    0.5808    0.3449    0.1896
          94   -0.0622   -0.0567    0.0644    0.1722    0.0402    0.1465    0.0251   -0.3653
          95    0.0163   -0.0048   -0.0241   -0.0782    0.0075   -0.2094   -0.0685    0.3766
          96    0.0080   -0.0902    0.0237    0.0074    0.0438   -0.3612   -0.2214   -0.1158
          97   -0.0115    0.0311   -0.1012    0.0252    0.0271    0.0229   -0.0239    0.0065
          98    0.0554   -0.0732    0.2075   -0.0634    0.0355    0.0142   -0.0553    0.0058
          99    0.0851   -0.0713    0.4397   -0.1228    0.1151    0.0486   -0.1394    0.0180
         100   -0.0219    0.0742   -0.0047    0.0383    0.0365    0.0187   -0.0054    0.0010
         101   -0.0327    0.0180   -0.1288    0.0536   -0.0401   -0.0176    0.0575   -0.0020
         102   -0.0837    0.0835   -0.3808    0.1283   -0.0475   -0.0053    0.0840    0.0006
         103    0.0318   -0.0464    0.0494   -0.0359    0.0281    0.0189   -0.0448    0.0074
         104   -0.0539    0.0669   -0.1832    0.0669   -0.0543   -0.0300    0.0738   -0.0066
         105   -0.1083    0.1157   -0.3989    0.0937   -0.1217   -0.0692    0.1445   -0.0161
         106    0.0642   -0.0222   -0.1395   -0.0233    0.2115    0.1988   -0.3798    0.0362
         107    0.0608   -0.0092   -0.1194   -0.0353    0.0948    0.0660   -0.1237    0.0156
         108    0.0134   -0.0108    0.0497    0.0128    0.0856    0.1064   -0.2006    0.0225
         109   -0.0620    0.0486   -0.0910    0.0269   -0.1020   -0.0903    0.1725   -0.0177
         110    0.0097   -0.0248    0.0845   -0.0279    0.0479    0.0193   -0.0495   -0.0010
         111   -0.0243    0.0189    0.0237    0.0328   -0.0445   -0.0046    0.0184    0.0022
         112   -0.0055   -0.0569    0.4047   -0.0770   -0.1697   -0.2567    0.4654   -0.0561
         113    0.0465    0.0109   -0.0680   -0.0696   -0.0407   -0.1306    0.2394   -0.0131
         114    0.0070   -0.0050    0.1161   -0.0156   -0.0992   -0.1036    0.2002   -0.0155


   Root No.      33        34        35        36        37        38        39        40

                33 A      34 A      35 A      36 A      37 A      38 A      39 A      40 A   

                   0.5       0.6       0.7       0.7       0.8       0.8       0.9       0.9
  
           1   -0.0064   -0.0445   -0.0883   -0.0015   -0.0000   -0.0411   -0.0551   -0.0474
           2    0.0140   -0.0378   -0.0243   -0.0061   -0.0005   -0.0271   -0.0453   -0.0315
           3    0.0125    0.1276   -0.0288   -0.0172    0.0076    0.0120   -0.0573    0.1032
           4   -0.0045   -0.0424   -0.0761   -0.0013   -0.0001   -0.0313   -0.0343   -0.0266
           5    0.0131   -0.0399    0.0048   -0.0064   -0.0007    0.0043    0.0360    0.0192
           6    0.0159    0.1494   -0.0294   -0.0228    0.0057    0.0043   -0.0148    0.0297
           7    0.0030   -0.0111   -0.0313    0.0001    0.0006    0.0446   -0.0140    0.0247
           8    0.0080   -0.0393   -0.0091   -0.0057   -0.0007   -0.0115   -0.0108   -0.0086
           9    0.0309    0.2033   -0.0195   -0.0257    0.0000   -0.0109    0.0529   -0.0883
          10   -0.0172    0.0012   -0.0323    0.0051    0.0003    0.0435   -0.0013    0.0216
          11   -0.0030   -0.0198    0.0272    0.0013   -0.0007    0.0052   -0.0014   -0.0029
          12   -0.0254    0.0760   -0.0044    0.0167    0.0011    0.0124   -0.0547    0.0995
          13   -0.0173   -0.0042   -0.0521    0.0062    0.0010    0.0358    0.0339    0.0323
          14    0.0052   -0.0391   -0.0232   -0.0033   -0.0010   -0.0659   -0.0529   -0.0536
          15    0.0073    0.1074   -0.0205    0.0001    0.0055    0.0160   -0.0718    0.1379
          16   -0.0189   -0.0255   -0.0656    0.0053   -0.0000   -0.0169   -0.0365   -0.0181
          17    0.0062   -0.0254   -0.0211   -0.0017   -0.0007   -0.0464   -0.0311   -0.0361
          18    0.0084    0.1176   -0.0270   -0.0115    0.0078    0.0151   -0.0739    0.1367
          19   -0.0067   -0.1093   -0.2747   -0.0141    0.0015   -0.0054    0.4252    0.1233
          20    0.0153   -0.0077    0.0736    0.0003   -0.0014   -0.0601   -0.3344   -0.1413
          21    0.0017   -0.1009    0.0247    0.0113   -0.0074   -0.0138    0.0583   -0.0998
          22   -0.0004   -0.0728    0.0326    0.0071   -0.0052   -0.4075    0.0348   -0.1717
          23    0.0178   -0.0585    0.0730   -0.0030   -0.0036   -0.2120    0.0805   -0.0620
          24   -0.0450   -0.1861    0.0224    0.0257   -0.0036    0.0057   -0.0152    0.0228
          25   -0.0205   -0.0273   -0.3341    0.0010    0.0069   -0.1514   -0.0280   -0.2626
          26    0.0051   -0.0580   -0.1827   -0.0073    0.0016   -0.1881   -0.0922   -0.2356
          27    0.0300   -0.0489    0.0075   -0.0022   -0.0072   -0.0169    0.0697   -0.1264
          28   -0.0198   -0.0273   -0.0814    0.0054    0.0004   -0.0215   -0.0517   -0.0280
          29    0.0019   -0.0170   -0.0025    0.0131   -0.0027   -0.0271    0.6587    0.3740
          30   -0.0312   -0.1438    0.0259    0.0146   -0.0072   -0.0113    0.0492   -0.0991
          31   -0.0093    0.0076    0.0512   -0.0037   -0.0011    0.0725   -0.0732    0.0924
          32   -0.0090   -0.0018    0.0182    0.0068    0.0006    0.0342    0.0325   -0.0455
          33   -0.1762   -0.2486    0.0454    0.0641   -0.0135    0.0108   -0.0463    0.0676
          34    0.0068   -0.0168   -0.0180   -0.0008    0.0004    0.0855   -0.0227    0.0330
          35    0.0143    0.0147    0.0093   -0.0110   -0.0001    0.0608   -0.0726    0.0700
          36    0.0384    0.0988    0.0124   -0.0264   -0.0100   -0.0329    0.1514   -0.2684
          37   -0.0105   -0.0147    0.0700   -0.0044   -0.0017    0.0693   -0.0903    0.1157
          38   -0.0080    0.0071    0.0122   -0.0058   -0.0028    0.0609   -0.0346    0.0393
          39   -0.1054   -0.1777    0.0321    0.0191   -0.0140   -0.0075   -0.0026   -0.0042
          40   -0.1404    0.1279    0.3637    0.0018   -0.0092    0.3750    0.1149   -0.2656
          41   -0.0672    0.1579   -0.2059   -0.0204    0.0078   -0.1224   -0.1658    0.2860
          42   -0.4693    0.4864   -0.1149   -0.0085    0.0070   -0.0816    0.0251   -0.0119
          43    0.0066   -0.0300   -0.0053   -0.0078    0.0004    0.0920   -0.1067    0.1287
[...]
 FREQUENCY          2625.01         C 22 -- H 23         +62.2% ( 81.5%)     99.4%
 TRANSITION DIPOLE   0.6486         C 22 -- H 25         +22.3% ( 48.8%)     92.7%
 TRAVEL (Ang.)       0.2411         C 22 -- H 24          +7.7% ( 28.6%)     75.7%
 REDUCED MASS        0.4420         O 33 -- H 34          +2.8% ( 17.2%)     93.1%
 EFFECTIVE MASS      1.4111
 FORCE CONSTANT      1.7946

 VIBRATION         94   94A           ATOM PAIR      ENERGY CONTRIBUTION    RADIAL
 FREQUENCY          2643.53         C 26 -- H 27         +37.8% ( 63.9%)     98.5%
 TRANSITION DIPOLE   0.5796         C 26 -- H 28         +33.2% ( 59.9%)     97.7%
 TRAVEL (Ang.)       0.2941         C 22 -- H 24         +15.3% ( 40.7%)     98.9%
 REDUCED MASS        0.2949         C 22 -- H 25         +10.7% ( 34.0%)     97.1%
 EFFECTIVE MASS      1.4328
 FORCE CONSTANT      1.2140

 VIBRATION         95   95A           ATOM PAIR      ENERGY CONTRIBUTION    RADIAL
 FREQUENCY          2647.21         C 22 -- H 24         +40.8% ( 66.3%)     98.8%
 TRANSITION DIPOLE   1.1611         C 22 -- H 25         +29.2% ( 56.1%)     97.1%
 TRAVEL (Ang.)       0.2939         C 26 -- H 27         +15.7% ( 41.1%)     99.0%
 REDUCED MASS        0.2948         C 26 -- H 28         +10.3% ( 33.3%)     96.4%
 EFFECTIVE MASS      1.4476
 FORCE CONSTANT      1.2173

 VIBRATION         96   96A           ATOM PAIR      ENERGY CONTRIBUTION    RADIAL
 FREQUENCY          2651.10         C 26 -- H 29         +60.9% ( 81.1%)     99.4%
 TRANSITION DIPOLE   0.8168         C 26 -- H 28         +24.8% ( 51.7%)     93.0%
 TRAVEL (Ang.)       0.2361         C 26 -- H 27         +11.7% ( 35.5%)     82.2%
 REDUCED MASS        0.4564         C 19 -- C 26          +0.9% (  9.6%)      0.0%
 EFFECTIVE MASS      1.4382
 FORCE CONSTANT      1.8899

 VIBRATION         97   97A           ATOM PAIR      ENERGY CONTRIBUTION    RADIAL
 FREQUENCY          2663.78         O 33 -- H 34         +46.9% ( 63.1%)     94.0%
 TRANSITION DIPOLE   1.1269         O 33 -- H 35         +41.1% ( 59.1%)     94.0%
 TRAVEL (Ang.)       0.2499         C 22 -- H 23          +5.3% ( 21.2%)     99.4%
 REDUCED MASS        0.4054         C 22 -- H 25          +2.8% ( 15.4%)     93.7%
 EFFECTIVE MASS      1.0969
 FORCE CONSTANT      1.6948

 VIBRATION         98   98A           ATOM PAIR      ENERGY CONTRIBUTION    RADIAL
 FREQUENCY          2666.60         C 30 -- H 32         +49.5% ( 73.5%)     98.3%
 TRANSITION DIPOLE   0.3784         C 30 -- H 31         +44.9% ( 70.1%)     98.2%
 TRAVEL (Ang.)       0.2297         C 20 -- H 21          +2.5% ( 16.4%)     99.7%
 REDUCED MASS        0.4791         C 20 -- C 30          +1.1% ( 10.9%)      1.0%
 EFFECTIVE MASS      1.5152
 FORCE CONSTANT      2.0072

 VIBRATION         99   99A           ATOM PAIR      ENERGY CONTRIBUTION    RADIAL
 FREQUENCY          2728.10         C 13 -- H 14         +72.8% ( 86.5%)    100.0%
 TRANSITION DIPOLE   0.5741         C 15 -- H 16         +23.4% ( 49.0%)    100.0%
 TRAVEL (Ang.)       0.2074         C 20 -- H 21          +0.9% (  9.7%)     99.9%
 REDUCED MASS        0.5744         C 13 -- C 15          +0.9% (  9.6%)      1.7%
 EFFECTIVE MASS      1.3780
 FORCE CONSTANT      2.5187

 VIBRATION        100  100A           ATOM PAIR      ENERGY CONTRIBUTION    RADIAL
 FREQUENCY          2733.84         C  1 -- H  7         +35.3% ( 60.1%)    100.0%
 TRANSITION DIPOLE   0.5225         C  2 -- H  8         +27.6% ( 53.2%)     99.9%
 TRAVEL (Ang.)       0.3096         C  5 -- H  9         +21.6% ( 47.1%)    100.0%
 REDUCED MASS        0.2574         C  6 -- H 10         +13.3% ( 36.9%)    100.0%
 EFFECTIVE MASS      1.3847
 FORCE CONSTANT      1.1335

 VIBRATION        101  101A           ATOM PAIR      ENERGY CONTRIBUTION    RADIAL
 FREQUENCY          2737.91         C  5 -- H  9         +58.2% ( 77.0%)    100.0%
 TRANSITION DIPOLE   0.6098         C  1 -- H  7         +19.4% ( 44.5%)     99.9%
 TRAVEL (Ang.)       0.2530         C  2 -- H  8         +12.7% ( 35.9%)    100.0%
 REDUCED MASS        0.3847         C  6 -- H 10          +6.9% ( 26.6%)     99.7%
 EFFECTIVE MASS      1.3734
 FORCE CONSTANT      1.6992

 VIBRATION        102  102A           ATOM PAIR      ENERGY CONTRIBUTION    RADIAL
 FREQUENCY          2740.06         C 15 -- H 16         +69.9% ( 84.5%)     99.9%
 TRANSITION DIPOLE   1.2885         C 13 -- H 14         +19.3% ( 44.4%)     99.9%
 TRAVEL (Ang.)       0.2182         C 20 -- H 21          +5.5% ( 23.6%)    100.0%
 REDUCED MASS        0.5171         C  1 -- H  7          +1.9% ( 14.0%)    100.0%
 EFFECTIVE MASS      1.4084
 FORCE CONSTANT      2.2872

 VIBRATION        103  103A           ATOM PAIR      ENERGY CONTRIBUTION    RADIAL
 FREQUENCY          2744.09         C  2 -- H  8         +48.4% ( 70.3%)    100.0%
 TRANSITION DIPOLE   1.3834         C  1 -- H  7         +23.5% ( 48.9%)     99.9%
 TRAVEL (Ang.)       0.2756         C  6 -- H 10         +20.2% ( 45.4%)    100.0%
 REDUCED MASS        0.3234         C  5 -- H  9          +3.5% ( 19.0%)     99.9%
 EFFECTIVE MASS      1.3939
 FORCE CONSTANT      1.4348

 VIBRATION        104  104A           ATOM PAIR      ENERGY CONTRIBUTION    RADIAL
 FREQUENCY          2747.86         C 20 -- H 21         +85.8% ( 93.4%)    100.0%
 TRANSITION DIPOLE   1.6009         C 13 -- H 14          +3.8% ( 19.7%)     99.9%
 TRAVEL (Ang.)       0.1851         C 15 -- H 16          +2.6% ( 16.4%)     99.8%
 REDUCED MASS        0.7159         C  6 -- H 10          +2.1% ( 14.6%)    100.0%
 EFFECTIVE MASS      1.3825
 FORCE CONSTANT      3.1851

 VIBRATION        105  105A           ATOM PAIR      ENERGY CONTRIBUTION    RADIAL
 FREQUENCY          2757.25         C  6 -- H 10         +55.2% ( 75.0%)    100.0%
 TRANSITION DIPOLE   1.0871         C  1 -- H  7         +17.6% ( 42.3%)    100.0%
 TRAVEL (Ang.)       0.2628         C  5 -- H  9         +13.6% ( 37.2%)    100.0%
 REDUCED MASS        0.3541         C  2 -- H  8          +8.6% ( 29.6%)    100.0%
 EFFECTIVE MASS      1.4486
 FORCE CONSTANT      1.5861

 VIBRATION        106  106A           ATOM PAIR      ENERGY CONTRIBUTION    RADIAL
 FREQUENCY          2776.57         C 30 -- H 31         +50.5% ( 69.5%)     97.1%
 TRANSITION DIPOLE   0.6845         C 30 -- H 32         +46.9% ( 67.0%)     96.9%
 TRAVEL (Ang.)       0.2265         C 13 -- C 30          +0.7% (  8.4%)      0.8%
 REDUCED MASS        0.4733         C 20 -- C 30          +0.7% (  8.0%)     89.8%
 EFFECTIVE MASS      1.2382
 FORCE CONSTANT      2.1497

 VIBRATION        107  107A           ATOM PAIR      ENERGY CONTRIBUTION    RADIAL
 FREQUENCY          2835.83         C 22 -- H 25         +32.3% ( 53.3%)     97.9%
 TRANSITION DIPOLE   0.9226         C 22 -- H 24         +31.0% ( 52.2%)     97.5%
 TRAVEL (Ang.)       0.2950         C 22 -- H 23         +27.1% ( 48.8%)     97.2%
 REDUCED MASS        0.2732         C 26 -- H 27          +3.3% ( 16.9%)     98.2%
 EFFECTIVE MASS      1.1065
 FORCE CONSTANT      1.2943

 VIBRATION        108  108A           ATOM PAIR      ENERGY CONTRIBUTION    RADIAL
 FREQUENCY          2844.91         C 26 -- H 29         +32.9% ( 53.7%)     97.8%
 TRANSITION DIPOLE   0.6657         C 26 -- H 27         +30.4% ( 51.6%)     97.8%
 TRAVEL (Ang.)       0.2940         C 26 -- H 28         +27.4% ( 49.1%)     96.9%
 REDUCED MASS        0.2742         C 22 -- H 24          +3.1% ( 16.6%)     96.8%
 EFFECTIVE MASS      1.1112
 FORCE CONSTANT      1.3073

      SYMMETRY NUMBER FOR POINT-GROUP C1  =  1


          SYSTEM IS A GROUND STATE



 Claisen_TS_2H2O_PM6_D3H4_THERMO


          MOLECULE IS NOT LINEAR

          THERE ARE  108 GENUINE VIBRATIONS IN THIS SYSTEM
          THIS THERMODYNAMICS CALCULATION IS LIMITED TO
          MOLECULES WHICH HAVE NO INTERNAL ROTATIONS




                    CALCULATED THERMODYNAMIC PROPERTIES
                                          *
   TEMP. (K)   PARTITION FUNCTION   H.O.F.    ENTHALPY  HEAT CAPACITY ENTROPY
                                   KCAL/MOL   CAL/MOLE    CAL/K/MOL  CAL/K/MOL


 298.00  VIB.     0.1466D+09                 12025.5309    75.9816    77.7206
         ROT.     0.5668D+07                   888.2813     2.9808    33.8826
         INT.     0.8312D+15                 12913.8123    78.9624   111.6033
         TRA.     0.4597D+28                  1480.4688     4.9680    42.8142
         TOT.                      -97.146   14394.2811    83.9304   154.4174

 200.00  VIB.     0.1611D+06                  5639.4193    54.1285    52.0238
         ROT.     0.3117D+07                   596.1620     2.9808    32.6940
         INT.     0.5022D+12                  6235.5812    57.1093    84.7177
         TRA.     0.2527D+28                   993.6033     4.9680    40.8331
         TOT.                     -104.311    7229.1845    62.0774   125.5508

 210.00  VIB.     0.3271D+06                  6192.1637    56.4178    54.7201
         ROT.     0.3353D+07                   625.9700     2.9808    32.8394
         INT.     0.1097D+13                  6818.1337    59.3986    87.5595
         TRA.     0.2719D+28                  1043.2834     4.9680    41.0754
         TOT.                     -103.679    7861.4171    64.3666   128.6350

 220.00  VIB.     0.6621D+06                  6767.7263    58.6925    57.3973
         ROT.     0.3595D+07                   655.7781     2.9808    32.9781
         INT.     0.2381D+13                  7423.5045    61.6733    90.3753
         TRA.     0.2916D+28                  1092.9636     4.9680    41.3066
         TOT.                     -103.024    8516.4680    66.6413   131.6819

 230.00  VIB.     0.1336D+07                  7365.9695    60.9541    60.0562
         ROT.     0.3843D+07                   685.5862     2.9808    33.1106
         INT.     0.5136D+13                  8051.5558    63.9349    93.1668
         TRA.     0.3117D+28                  1142.6437     4.9680    41.5274
         TOT.                     -102.346    9194.1995    68.9029   134.6941

 240.00  VIB.     0.2689D+07                  7986.7662    63.2032    62.6979
         ROT.     0.4097D+07                   715.3943     2.9808    33.2374
         INT.     0.1101D+14                  8702.1606    66.1841    95.9354
         TRA.     0.3322D+28                  1192.3239     4.9680    41.7388
         TOT.                     -101.646    9894.4845    71.1521   137.6742

 250.00  VIB.     0.5394D+07                  8629.9935    65.4401    65.3234
         ROT.     0.4355D+07                   745.2024     2.9808    33.3591
         INT.     0.2349D+14                  9375.1959    68.4209    98.6825
         TRA.     0.3532D+28                  1242.0041     4.9680    41.9416
         TOT.                     -100.923   10617.2000    73.3890   140.6242

 260.00  VIB.     0.1079D+08                  9295.5264    67.6643    67.9334
         ROT.     0.4619D+07                   775.0105     2.9808    33.4760
         INT.     0.4985D+14                 10070.5370    70.6451   101.4094
         TRA.     0.3746D+28                  1291.6842     4.9680    42.1365
         TOT.                     -100.178   11362.2212    75.6131   143.5459

 270.00  VIB.     0.2153D+08                  9983.2340    69.8749    70.5285
         ROT.     0.4888D+07                   804.8186     2.9808    33.5885
         INT.     0.1052D+15                 10788.0526    72.8557   104.1171
         TRA.     0.3964D+28                  1341.3644     4.9680    42.3240
         TOT.                      -99.411   12129.4170    77.8237   146.4411

 280.00  VIB.     0.4282D+08                 10692.9749    72.0707    73.1095
         ROT.     0.5163D+07                   834.6267     2.9808    33.6969
         INT.     0.2211D+15                 11527.6016    75.0515   106.8064
         TRA.     0.4187D+28                  1391.0445     4.9680    42.5047
         TOT.                      -98.622   12918.6462    80.0196   149.3111

 290.00  VIB.     0.8494D+08                 11424.5949    74.2505    75.6766
         ROT.     0.5442D+07                   864.4348     2.9808    33.8015
         INT.     0.4622D+15                 12289.0297    77.2313   109.4781
         TRA.     0.4413D+28                  1440.7247     4.9680    42.6790
         TOT.                      -97.811   13729.7544    82.1993   152.1571

 300.00  VIB.     0.1680D+09                 12177.9252    76.4125    78.2303
         ROT.     0.5725D+07                   894.2429     2.9808    33.9026
         INT.     0.9621D+15                 13072.1681    79.3933   112.1329
         TRA.     0.4643D+28                  1490.4049     4.9680    42.8474
         TOT.                      -96.978   14562.5730    84.3613   154.9803

 310.00  VIB.     0.3316D+09                 12952.7811    78.5553    80.7708
         ROT.     0.6014D+07                   924.0510     2.9808    34.0003
         INT.     0.1994D+16                 13876.8321    81.5361   114.7712
         TRA.     0.4877D+28                  1540.0850     4.9680    43.0103
         TOT.                      -96.124   15416.9172    86.5041   157.7815

 320.00  VIB.     0.6525D+09                 13748.9620    80.6772    83.2984
         ROT.     0.6307D+07                   953.8591     2.9808    34.0950
         INT.     0.4115D+16                 14702.8211    83.6581   117.3934
         TRA.     0.5115D+28                  1589.7652     4.9680    43.1681
         TOT.                      -95.248   16292.5863    88.6261   160.5614

 330.00  VIB.     0.1281D+10                 14566.2512    82.7767    85.8132
         ROT.     0.6605D+07                   983.6672     2.9808    34.1867
         INT.     0.8459D+16                 15549.9184    85.7576   119.9999
         TRA.     0.5357D+28                  1639.4454     4.9680    43.3209
         TOT.                      -94.351   17189.3638    90.7256   163.3208

 340.00  VIB.     0.2507D+10                 15404.4172    84.8523    88.3152
         ROT.     0.6908D+07                  1013.4753     2.9808    34.2757
         INT.     0.1732D+17                 16417.8925    87.8332   122.5909
         TRA.     0.5602D+28                  1689.1255     4.9680    43.4692
         TOT.                      -93.434   18107.0180    92.8012   166.0601

 350.00  VIB.     0.4897D+10                 16263.2140    86.9027    90.8045
         ROT.     0.7215D+07                  1043.2834     2.9808    34.3621
         INT.     0.3533D+17                 17306.4974    89.8835   125.1666
         TRA.     0.5851D+28                  1738.8057     4.9680    43.6132
         TOT.                      -92.495   19045.3031    94.8515   168.7798

 360.00  VIB.     0.9539D+10                 17142.3831    88.9266    93.2811
         ROT.     0.7526D+07                  1073.0915     2.9808    34.4460
         INT.     0.7179D+17                 18215.4746    91.9074   127.7271
         TRA.     0.6104D+28                  1788.4859     4.9680    43.7532
         TOT.                      -91.537   20003.9604    96.8754   171.4803

 370.00  VIB.     0.1854D+11                 18041.6541    90.9229    95.7449
         ROT.     0.7842D+07                  1102.8996     2.9808    34.5277
         INT.     0.1454D+18                 19144.5538    93.9038   130.2726
         TRA.     0.6360D+28                  1838.1660     4.9680    43.8893
         TOT.                      -90.558   20982.7198    98.8718   174.1619

 380.00  VIB.     0.3594D+11                 18960.7472    92.8908    98.1958
         ROT.     0.8162D+07                  1132.7077     2.9808    34.6072
         INT.     0.2933D+18                 20093.4549    95.8717   132.8030
         TRA.     0.6619D+28                  1887.8462     4.9680    44.0218
         TOT.                      -89.559   21981.3011   100.8397   176.8248

 390.00  VIB.     0.6950D+11                 19899.3737    94.8295   100.6338
         ROT.     0.8486D+07                  1162.5158     2.9808    34.6846
         INT.     0.5898D+18                 21061.8895    97.8103   135.3185
         TRA.     0.6882D+28                  1937.5263     4.9680    44.1509
         TOT.                      -88.541   22999.4159   102.7784   179.4693

 400.00  VIB.     0.1341D+12                 20857.2384    96.7384   103.0588
         ROT.     0.8815D+07                  1192.3239     2.9808    34.7601
         INT.     0.1182D+19                 22049.5623    99.7192   137.8189
         TRA.     0.7149D+28                  1987.2065     4.9680    44.2766
         TOT.                      -87.504   24036.7688   104.6872   182.0956

   *: NOTE: HEATS OF FORMATION ARE RELATIVE TO THE
            ELEMENTS IN THEIR STANDARD STATE AT 298K
              (=  Standard Enthalpy of Formation).

            Hvib:  Zero-point energy is not included.
                   frequencies of less than zero cm-1 are not included.
            Hrot = (3/2)RT
            Htra = (3/2)RT + pV = (5/2)RT

            Heat capacity is Cp, not Cv

          For more information, see: HTTP://OpenMOPAC.net/Manual/thermochemistry.html


           FORCE CONSTANT IN CARTESIAN COORDINATES (Millidynes/A)

    ATOM   CHEMICAL       X               Y               Z
   NUMBER   SYMBOL  FORCE CONSTANT  FORCE CONSTANT  FORCE CONSTANT

      1       C       10.575227        9.250575        2.249436
      2       C       10.601562        9.145560        2.186960
      3       C       10.760446       10.477185        2.356088
      4       C       10.530213       10.418070        2.236488
      5       C        9.606679       10.296677        2.234267
      6       C        9.502856       10.320436        2.173915
      7       H        1.703499        3.338155        0.367863
      8       H        1.770215        3.370379        0.345574
      9       H        1.679115        3.370134        0.382247
     10       H        4.225478        0.856403        0.365111
     11       C       10.043791       10.294567        3.028471
     12       C        9.286060        9.985435        1.675313
     13       C        9.703196        8.609288        1.210496
     14       H        1.617073        3.057225        0.824783
     15       C        9.301378       11.512847        2.206277
     16       H        4.175673        0.879464        0.375162
     17       O        3.579044        6.172605        0.853473
     18      Cl        1.640474        3.472941        0.148812
     19       C       10.411019        7.963603        3.068881
     20       C        9.654319        9.514851        2.653188
     21       H        1.744238        3.294435        0.472492
     22       C        6.410760        7.100329        6.146571
     23       H        2.989455        0.761832        1.632897
     24       H        0.800768        1.399682        3.143401
     25       H        1.924707        2.027454        1.524376
     26       C        6.695183        6.851515        6.156920
     27       H        1.000499        3.725178        0.747333
     28       H        0.607779        0.704279        4.026889
     29       H        3.817786        0.736273        0.948846
     30       C        7.744974        8.548443        1.492015
     31       H        4.140713        0.756112        0.512751
     32       H        1.301222        3.161576        0.959247
     33       O        2.766517        3.675350        0.757031
     34       H        0.859461        2.970015        0.634105
     35       H        1.757008        2.247623        0.390657
     36       O        0.793302        2.584406        3.923181
     37       H        0.568457        0.712837        3.103202
     38       H        0.316938        1.786358        1.984486

 **********************
 *                    *
 * JOB ENDED NORMALLY *
 *                    *
 **********************



 TOTAL JOB TIME:             9.93 SECONDS

 == MOPAC DONE ==
