 Entering Gaussian System, Link 0=g09
 Input=sm_claisen_water_ma_freq.com
 Output=sm_claisen_water_ma_freq.log
 Initial command:
 /apps/applications/gaussian/G09.D01/2/default/g09/l1.exe "/nobackup/pmmass/Temp/Gau-134058.inp" -scrdir="/nobackup/pmmass/Temp/"
 Entering Link 1 = /apps/applications/gaussian/G09.D01/2/default/g09/l1.exe PID=    134059.
  
 Copyright (c) 1988,1990,1992,1993,1995,1998,2003,2009,2013,
            Gaussian, Inc.  All Rights Reserved.
  
 This is part of the Gaussian(R) 09 program.  It is based on
 the Gaussian(R) 03 system (copyright 2003, Gaussian, Inc.),
 the Gaussian(R) 98 system (copyright 1998, Gaussian, Inc.),
 the Gaussian(R) 94 system (copyright 1995, Gaussian, Inc.),
 the Gaussian 92(TM) system (copyright 1992, Gaussian, Inc.),
 the Gaussian 90(TM) system (copyright 1990, Gaussian, Inc.),
 the Gaussian 88(TM) system (copyright 1988, Gaussian, Inc.),
 the Gaussian 86(TM) system (copyright 1986, Carnegie Mellon
 University), and the Gaussian 82(TM) system (copyright 1983,
 Carnegie Mellon University). Gaussian is a federally registered
 trademark of Gaussian, Inc.
  
 This software contains proprietary and confidential information,
 including trade secrets, belonging to Gaussian, Inc.
  
 This software is provided under written license and may be
 used, copied, transmitted, or stored only in accord with that
 written license.
  
 The following legend is applicable only to US Government
 contracts under FAR:
  
                    RESTRICTED RIGHTS LEGEND
  
 Use, reproduction and disclosure by the US Government is
 subject to restrictions as set forth in subparagraphs (a)
 and (c) of the Commercial Computer Software - Restricted
 Rights clause in FAR 52.227-19.
  
 Gaussian, Inc.
 340 Quinnipiac St., Bldg. 40, Wallingford CT 06492
  
  
 ---------------------------------------------------------------
 Warning -- This program may not be used in any manner that
 competes with the business of Gaussian, Inc. or will provide
 assistance to any competitor of Gaussian, Inc.  The licensee
 of this program is prohibited from giving any competitor of
 Gaussian, Inc. access to this program.  By using this program,
 the user acknowledges that Gaussian, Inc. is engaged in the
 business of creating and licensing software in the field of
 computational chemistry and represents and warrants to the
 licensee that it is not a competitor of Gaussian, Inc. and that
 it will not use this program in any manner prohibited above.
 ---------------------------------------------------------------
  

 Cite this work as:
 Gaussian 09, Revision D.01,
 M. J. Frisch, G. W. Trucks, H. B. Schlegel, G. E. Scuseria, 
 M. A. Robb, J. R. Cheeseman, G. Scalmani, V. Barone, B. Mennucci, 
 G. A. Petersson, H. Nakatsuji, M. Caricato, X. Li, H. P. Hratchian, 
 A. F. Izmaylov, J. Bloino, G. Zheng, J. L. Sonnenberg, M. Hada, 
 M. Ehara, K. Toyota, R. Fukuda, J. Hasegawa, M. Ishida, T. Nakajima, 
 Y. Honda, O. Kitao, H. Nakai, T. Vreven, J. A. Montgomery, Jr., 
 J. E. Peralta, F. Ogliaro, M. Bearpark, J. J. Heyd, E. Brothers, 
 K. N. Kudin, V. N. Staroverov, T. Keith, R. Kobayashi, J. Normand, 
 K. Raghavachari, A. Rendell, J. C. Burant, S. S. Iyengar, J. Tomasi, 
 M. Cossi, N. Rega, J. M. Millam, M. Klene, J. E. Knox, J. B. Cross, 
 V. Bakken, C. Adamo, J. Jaramillo, R. Gomperts, R. E. Stratmann, 
 O. Yazyev, A. J. Austin, R. Cammi, C. Pomelli, J. W. Ochterski, 
 R. L. Martin, K. Morokuma, V. G. Zakrzewski, G. A. Voth, 
 P. Salvador, J. J. Dannenberg, S. Dapprich, A. D. Daniels, 
 O. Farkas, J. B. Foresman, J. V. Ortiz, J. Cioslowski, 
 and D. J. Fox, Gaussian, Inc., Wallingford CT, 2013.
 
 ******************************************
 Gaussian 09:  ES64L-G09RevD.01 24-Apr-2013
                 4-Feb-2022 
 ******************************************
 %nprocshared=8
 Will use up to    8 processors via shared memory.
 %mem=4GB
 %NoSave
 %chk="sm_claisen_water_ma_freq.chk"
 --------------------------------------------
 #n wB97XD/Gen scrf(smd,solvent=toluene) freq
 --------------------------------------------
 1/10=4,30=1,38=1/1,3;
 2/12=2,17=6,18=5,40=1/2;
 3/5=7,11=2,16=1,25=1,30=1,70=32201,71=2,72=13,74=-58,140=1/1,2,3;
 4//1;
 5/5=2,38=5,53=13,98=1/2;
 8/6=4,10=90,11=11/1;
 11/6=1,8=1,9=11,15=111,16=1/1,2,10;
 10/6=1/2;
 6/7=2,8=2,9=2,10=2,18=1,28=1/1;
 7/8=1,10=1,25=1/1,2,3,16;
 1/10=4,30=1/3;
 99//99;
 ----------------------------------------
 starting material claisen toluene - freq
 ----------------------------------------
 Symbolic Z-matrix:
 Charge =  0 Multiplicity = 1
 C                    -2.69237   2.41954   0.78713 
 C                    -2.95876   1.20975   0.21192 
 C                    -1.91375   0.32288  -0.13498 
 C                    -0.57279   0.71867   0.1139 
 C                    -0.33259   1.97222   0.72314 
 C                    -1.36592   2.80347   1.05137 
 H                    -3.50702   3.08269   1.0491 
 H                    -3.98147   0.91566   0.02197 
 H                     0.68564   2.25962   0.94365 
 H                    -1.16436   3.75636   1.52382 
 C                     0.50404  -0.16348  -0.21844 
 C                    -2.1358   -0.96361  -0.69525 
 C                     0.23291  -1.40532  -0.72421 
 H                     1.01934  -2.11088  -0.93344 
 C                    -1.09717  -1.79875  -0.96643 
 H                    -1.28576  -2.78095  -1.37824 
 O                     1.72893   0.35281   0.02974 
 Cl                   -3.75782  -1.50007  -1.03236 
 C                     2.98269  -0.34128  -0.17771 
 C                     3.07927  -1.60207   0.64921 
 H                     3.81542  -2.31501   0.28898 
 C                     3.22351  -0.59904  -1.66355 
 H                     4.2431   -0.96157  -1.80183 
 H                     2.54805  -1.33856  -2.08782 
 H                     3.11415   0.32917  -2.22553 
 C                     4.01656   0.65756   0.33933 
 H                     3.80257   0.91196   1.37746 
 H                     5.01356   0.2186    0.29093 
 H                     4.01213   1.56764  -0.26382 
 C                     2.40639  -1.85284   1.75909 
 H                     2.57042  -2.76956   2.31202 
 H                     1.66386  -1.16949   2.15589 
 O                    -0.98404  -1.2834    2.80636 
 H                    -0.89132  -1.6741    1.93304 
 H                    -1.29529  -0.39093   2.63574 
 O                     1.82413   2.75431  -1.78979 
 H                     0.92255   3.0786   -1.84236 
 H                     1.78788   2.03593  -1.14704 
 

 GradGradGradGradGradGradGradGradGradGradGradGradGradGradGradGradGradGrad
 Berny optimization.
 Initialization pass.
 Trust Radius=3.00D-01 FncErr=1.00D-07 GrdErr=1.00D-07
 Number of steps in this run=      2 maximum allowed number of steps=      2.
 GradGradGradGradGradGradGradGradGradGradGradGradGradGradGradGradGradGrad

                          Input orientation:                          
 ---------------------------------------------------------------------
 Center     Atomic      Atomic             Coordinates (Angstroms)
 Number     Number       Type             X           Y           Z
 ---------------------------------------------------------------------
      1          6           0       -2.692370    2.419540    0.787130
      2          6           0       -2.958760    1.209750    0.211920
      3          6           0       -1.913750    0.322880   -0.134980
      4          6           0       -0.572790    0.718670    0.113900
      5          6           0       -0.332590    1.972220    0.723140
      6          6           0       -1.365920    2.803470    1.051370
      7          1           0       -3.507020    3.082690    1.049100
      8          1           0       -3.981470    0.915660    0.021970
      9          1           0        0.685640    2.259620    0.943650
     10          1           0       -1.164360    3.756360    1.523820
     11          6           0        0.504040   -0.163480   -0.218440
     12          6           0       -2.135800   -0.963610   -0.695250
     13          6           0        0.232910   -1.405320   -0.724210
     14          1           0        1.019340   -2.110880   -0.933440
     15          6           0       -1.097170   -1.798750   -0.966430
     16          1           0       -1.285760   -2.780950   -1.378240
     17          8           0        1.728930    0.352810    0.029740
     18         17           0       -3.757820   -1.500070   -1.032360
     19          6           0        2.982690   -0.341280   -0.177710
     20          6           0        3.079270   -1.602070    0.649210
     21          1           0        3.815420   -2.315010    0.288980
     22          6           0        3.223510   -0.599040   -1.663550
     23          1           0        4.243100   -0.961570   -1.801830
     24          1           0        2.548050   -1.338560   -2.087820
     25          1           0        3.114150    0.329170   -2.225530
     26          6           0        4.016560    0.657560    0.339330
     27          1           0        3.802570    0.911960    1.377460
     28          1           0        5.013560    0.218600    0.290930
     29          1           0        4.012130    1.567640   -0.263820
     30          6           0        2.406390   -1.852840    1.759090
     31          1           0        2.570420   -2.769560    2.312020
     32          1           0        1.663860   -1.169490    2.155890
     33          8           0       -0.984040   -1.283400    2.806360
     34          1           0       -0.891320   -1.674100    1.933040
     35          1           0       -1.295290   -0.390930    2.635740
     36          8           0        1.824130    2.754310   -1.789790
     37          1           0        0.922550    3.078600   -1.842360
     38          1           0        1.787880    2.035930   -1.147040
 ---------------------------------------------------------------------
                    Distance matrix (angstroms):
                    1          2          3          4          5
     1  C    0.000000
     2  C    1.365805   0.000000
     3  C    2.419198   1.413833   0.000000
     4  C    2.799789   2.437954   1.420128   0.000000
     5  C    2.402655   2.781991   2.440647   1.414304   0.000000
     6  C    1.405950   2.404529   2.803724   2.419565   1.366193
     7  H    1.082613   2.123526   3.399574   3.882383   3.378816
     8  H    2.123418   1.080974   2.156731   3.415605   3.862937
     9  H    3.385413   3.862552   3.416319   2.155611   1.080748
    10  H    2.159772   3.380263   3.886128   3.400793   2.125108
    11  C    4.230863   3.749927   2.467635   1.431154   2.479463
    12  C    3.735361   2.494737   1.420657   2.434705   3.725922
    13  C    5.046877   4.231039   2.818158   2.421346   3.717847
    14  H    6.104249   5.306949   3.894065   3.411474   4.609086
    15  C    4.838761   3.728954   2.420625   2.789174   4.202314
    16  H    5.806244   4.610122   3.402033   3.870678   5.283650
    17  O    4.938918   4.768855   3.646525   2.332135   2.711671
    18  Cl   4.450738   3.087046   2.743908   4.047362   5.183703
    19  C    6.384305   6.152913   4.941463   3.721555   4.141847
    20  C    7.035922   6.674980   5.408386   4.360038   4.941842
    21  H    8.063216   7.636713   6.321518   5.337626   5.981206
    22  C    7.079216   6.708917   5.438557   4.394039   4.995349
    23  H    8.138511   7.786951   6.506535   5.448488   5.993291
    24  H    7.060500   6.489040   5.146030   4.338134   5.211607
    25  H    6.867419   6.602789   5.445201   4.383853   4.824343
    26  C    6.950888   6.998302   5.958654   4.595290   4.559687
    27  H    6.693693   6.867514   5.942289   4.558258   4.318777
    28  H    8.029428   8.034084   6.941174   5.611481   5.642988
    29  H    6.839631   6.996265   6.056573   4.678131   4.473742
    30  C    6.722744   6.368518   5.194696   4.265540   4.817291
    31  H    7.546457   7.128616   5.971497   5.184520   5.782429
    32  H    5.807872   5.550533   4.502727   3.568960   3.988600
    33  O    4.550543   4.104441   3.477927   3.380348   3.919599
    34  H    4.616793   3.943749   3.051229   3.022595   3.882227
    35  H    3.642517   3.347269   2.927270   2.848314   3.188935
    36  O    5.210697   5.410041   4.756258   3.676016   3.402635
    37  H    4.518432   4.772550   4.307405   3.410611   3.062882
    38  H    4.894978   5.005990   4.202484   2.982936   2.828078
                    6          7          8          9         10
     6  C    0.000000
     7  H    2.159231   0.000000
     8  H    3.385940   2.444610   0.000000
     9  H    2.125153   4.273987   4.943444   0.000000
    10  H    1.082513   2.483394   4.273317   2.449353   0.000000
    11  C    3.729874   5.313462   4.619755   2.693482   4.602627
    12  C    4.223066   4.614710   2.729937   4.586472   5.305288
    13  C    4.839716   6.105239   4.868751   4.051976   5.800771
    14  H    5.812037   7.168791   5.922909   4.768238   6.725413
    15  C    5.032313   5.805015   4.082174   4.826716   6.088112
    16  H    6.090581   6.723708   4.784597   5.889392   7.153538
    17  O    4.077690   5.992204   5.738077   2.357883   4.710367
    18  Cl   5.346361   5.039550   2.645257   6.146887   6.394540
    19  C    5.505497   7.439420   7.079498   3.646720   6.073210
    20  C    6.271382   8.092348   7.522396   4.552890   6.891017
    21  H    7.323002   9.128586   8.443934   5.581340   7.948872
    22  C    6.325404   8.137176   7.552948   4.627117   6.955734
    23  H    7.333306   9.195010   8.630979   5.528946   7.909452
    24  H    6.506158   8.127213   7.222697   5.060166   7.265270
    25  H    6.077110   7.883208   7.466127   4.434862   6.641453
    26  C    5.838067   7.936579   8.008484   3.745241   6.152033
    27  H    5.513387   7.632168   7.901180   3.423395   5.725594
    28  H    6.925142   9.020982   9.026007   4.829358   7.225127
    29  H    5.672779   7.781822   8.025235   3.605878   5.897644
    30  C    6.034270   7.735112   7.175440   4.531915   6.653475
    31  H    6.938492   8.531065   7.858272   5.542336   7.560256
    32  H    5.117025   6.785574   6.385234   3.766329   5.715097
    33  O    4.464116   5.340050   4.644704   4.337109   5.203519
    34  H    4.588161   5.500026   4.461846   4.351994   5.452697
    35  H    3.566428   4.413073   3.969198   3.716540   4.295756
    36  O    4.272122   6.048826   6.353589   3.002095   4.573313
    37  H    3.699522   5.289768   5.674808   2.913538   4.018174
    38  H    3.920278   5.827066   5.992244   2.374017   4.336945
                   11         12         13         14         15
    11  C    0.000000
    12  C    2.799341   0.000000
    13  C    1.368021   2.409716   0.000000
    14  H    2.137551   3.365690   1.077063   0.000000
    15  C    2.407794   1.360055   1.408038   2.139656   0.000000
    16  H    3.376340   2.119379   2.150923   2.441378   1.081606
    17  O    1.352222   4.146650   2.428485   2.738796   3.688957
    18  Cl   4.540087   1.741373   4.003731   4.817067   2.678174
    19  C    2.485353   5.182092   2.998689   2.749064   4.403584
    20  C    3.074763   5.423298   3.166506   2.647070   4.482368
    21  H    3.981431   6.181586   3.832554   3.058438   5.096677
    22  C    3.110237   5.458271   3.236686   2.770756   4.538012
    23  H    4.138193   6.474171   4.176099   3.530955   5.469666
    24  H    3.008882   4.900846   2.687706   2.065436   3.841474
    25  H    3.329232   5.619165   3.682928   3.465771   4.883502
    26  C    3.650070   6.445935   4.438761   4.274053   5.821400
    27  H    3.818870   6.563393   4.746501   4.714254   6.070356
    28  H    4.554252   7.313243   5.149975   4.783237   6.556804
    29  H    3.912228   6.662612   4.830420   4.789227   6.158830
    30  C    3.222344   5.238893   3.330326   3.039771   4.439180
    31  H    4.179092   5.869722   4.067407   3.656873   5.014172
    32  H    2.827487   4.754871   3.224626   3.293263   4.215227
    33  O    3.552185   3.700012   3.736410   4.322541   3.809505
    34  H    2.976217   2.993566   2.897777   3.472478   2.909439
    35  H    3.381666   3.482803   3.828008   4.588549   3.872575
    36  O    3.567251   5.540938   4.579297   5.005107   5.471953
    37  H    3.650116   5.197002   4.672409   5.269365   5.351174
    38  H    2.710710   4.959498   3.799858   4.222832   4.802177
                   16         17         18         19         20
    16  H    0.000000
    17  O    4.570691   0.000000
    18  Cl   2.805596   5.887754   0.000000
    19  C    5.060922   1.448002   6.892583   0.000000
    20  C    4.955179   2.455345   7.041582   1.510866   0.000000
    21  H    5.386906   3.396750   7.730720   2.192453   1.086262
    22  C    5.017534   2.450922   7.067477   1.527139   2.525021
    23  H    5.835912   3.376876   8.055854   2.147361   2.787891
    24  H    4.157174   2.831210   6.395630   2.198181   2.800529
    25  H    5.454352   2.646816   7.210669   2.158785   3.463385
    26  C    6.548893   2.328512   8.184002   1.527710   2.465860
    27  H    6.864588   2.535543   8.293649   2.159020   2.715485
    28  H    7.173901   3.297731   9.035598   2.158129   2.680426
    29  H    6.944048   2.602881   8.388899   2.170515   3.427960
    30  C    4.933173   2.883487   6.775996   2.523515   1.321925
    31  H    5.337441   3.958043   7.269326   3.502180   2.094492
    32  H    4.877206   2.615749   6.298320   2.805518   2.112012
    33  O    4.454724   4.212720   4.740946   5.052446   4.611435
    34  H    3.513584   3.820553   4.128039   4.608647   4.173607
    35  H    4.671651   4.060824   4.555129   5.120457   4.954789
    36  O    6.362381   3.014458   7.059151   3.677464   5.148023
    37  H    6.279042   3.403665   6.597438   4.325600   5.724337
    38  H    5.718658   2.054551   6.578088   2.831660   4.257845
                   21         22         23         24         25
    21  H    0.000000
    22  C    2.665949   0.000000
    23  H    2.527092   1.090923   0.000000
    24  H    2.865111   1.087723   1.759860   0.000000
    25  H    3.715673   1.090576   1.766369   1.766566   0.000000
    26  C    2.979793   2.493893   2.693969   3.468728   2.738739
    27  H    3.405626   3.444731   3.716459   4.318197   3.714176
    28  H    2.802628   2.773591   2.523104   3.763235   3.154767
    29  H    3.926736   2.697345   2.969129   3.730483   2.487666
    30  C    2.088107   3.735527   4.104634   3.883718   4.597748
    31  H    2.418539   4.576335   4.794836   4.626754   5.521515
    32  H    3.070306   4.164858   4.728558   4.338139   4.852439
    33  O    5.516905   6.176724   6.975814   6.035868   6.686962
    34  H    5.026639   5.569833   6.388992   5.301808   6.111513
    35  H    5.943797   6.240734   7.119791   6.162896   6.602549
    36  O    5.829625   3.635816   4.433884   4.167069   2.781245
    37  H    6.480921   4.341823   5.229787   4.713152   3.536848
    38  H    5.010364   3.044812   3.929613   3.584705   2.415608
                   26         27         28         29         30
    26  C    0.000000
    27  H    1.090057   0.000000
    28  H    1.090430   1.768557   0.000000
    29  H    1.091813   1.779784   1.769327   0.000000
    30  C    3.303101   3.120750   3.639188   4.286053   0.000000
    31  H    4.210461   3.993142   4.356930   5.246407   1.083057
    32  H    3.489011   3.084229   4.077421   4.342954   1.084328
    33  O    5.904199   5.456464   6.674923   6.520441   3.593891
    34  H    5.662494   5.387855   6.414550   6.275260   3.307128
    35  H    5.881206   5.410080   6.758051   6.357055   4.075307
    36  O    3.706246   4.164127   4.575116   2.919609   5.844605
    37  H    4.493785   4.832813   5.428341   3.784216   6.284212
    38  H    3.012676   3.419852   3.971833   2.438578   4.893943
                   31         32         33         34         35
    31  H    0.000000
    32  H    1.845658   0.000000
    33  O    3.884228   2.729004   0.000000
    34  H    3.650658   2.614046   0.961213   0.000000
    35  H    4.550427   3.097254   0.960464   1.517730   0.000000
    36  O    6.920617   5.566892   6.731531   6.390927   6.261680
    37  H    7.360389   5.880630   6.653775   6.334976   6.083571
    38  H    5.972453   4.604285   5.859255   5.516278   5.450230
                   36         37         38
    36  O    0.000000
    37  H    0.959570   0.000000
    38  H    0.964630   1.522966   0.000000
 Stoichiometry    C15H19ClO3
 Framework group  C1[X(C15H19ClO3)]
 Deg. of freedom   108
 Full point group                 C1      NOp   1
 Largest Abelian subgroup         C1      NOp   1
 Largest concise Abelian subgroup C1      NOp   1
                         Standard orientation:                         
 ---------------------------------------------------------------------
 Center     Atomic      Atomic             Coordinates (Angstroms)
 Number     Number       Type             X           Y           Z
 ---------------------------------------------------------------------
      1          6           0       -2.692370    2.419540    0.787130
      2          6           0       -2.958760    1.209750    0.211920
      3          6           0       -1.913750    0.322880   -0.134980
      4          6           0       -0.572790    0.718670    0.113900
      5          6           0       -0.332590    1.972220    0.723140
      6          6           0       -1.365920    2.803470    1.051370
      7          1           0       -3.507021    3.082690    1.049100
      8          1           0       -3.981470    0.915660    0.021970
      9          1           0        0.685640    2.259620    0.943650
     10          1           0       -1.164361    3.756360    1.523820
     11          6           0        0.504040   -0.163480   -0.218440
     12          6           0       -2.135800   -0.963610   -0.695250
     13          6           0        0.232910   -1.405320   -0.724210
     14          1           0        1.019340   -2.110879   -0.933440
     15          6           0       -1.097170   -1.798750   -0.966430
     16          1           0       -1.285759   -2.780950   -1.378240
     17          8           0        1.728930    0.352811    0.029740
     18         17           0       -3.757820   -1.500070   -1.032360
     19          6           0        2.982690   -0.341279   -0.177710
     20          6           0        3.079270   -1.602069    0.649210
     21          1           0        3.815421   -2.315009    0.288980
     22          6           0        3.223510   -0.599039   -1.663550
     23          1           0        4.243100   -0.961569   -1.801830
     24          1           0        2.548050   -1.338559   -2.087820
     25          1           0        3.114150    0.329171   -2.225530
     26          6           0        4.016560    0.657561    0.339330
     27          1           0        3.802570    0.911961    1.377460
     28          1           0        5.013560    0.218601    0.290930
     29          1           0        4.012130    1.567641   -0.263820
     30          6           0        2.406390   -1.852839    1.759090
     31          1           0        2.570421   -2.769559    2.312020
     32          1           0        1.663860   -1.169489    2.155890
     33          8           0       -0.984040   -1.283400    2.806360
     34          1           0       -0.891320   -1.674100    1.933040
     35          1           0       -1.295290   -0.390930    2.635740
     36          8           0        1.824130    2.754311   -1.789790
     37          1           0        0.922549    3.078601   -1.842360
     38          1           0        1.787880    2.035931   -1.147040
 ---------------------------------------------------------------------
 Rotational constants (GHZ):      0.4632816      0.2408377      0.2098652
 General basis read from cards:  (5D, 7F)
 There are   880 symmetry adapted cartesian basis functions of A   symmetry.
 There are   785 symmetry adapted basis functions of A   symmetry.
   785 basis functions,  1215 primitive gaussians,   880 cartesian basis functions
    75 alpha electrons       75 beta electrons
       nuclear repulsion energy      1624.1261145337 Hartrees.
 NAtoms=   38 NActive=   38 NUniq=   38 SFac= 1.00D+00 NAtFMM=   60 NAOKFM=F Big=F
 Integral buffers will be    131072 words long.
 Raffenetti 2 integral format.
 Two-electron integral symmetry is turned on.
 Nuclear repulsion after empirical dispersion term =     1624.0926152012 Hartrees.
 Force inversion solution in PCM.
 ------------------------------------------------------------------------------
 Polarizable Continuum Model (PCM)
 =================================
 Model                : PCM (using non-symmetric T matrix).
 Atomic radii         : SMD-Coulomb.
 Polarization charges : Total charges.
 Charge compensation  : None.
 Solution method      : Matrix inversion.
 Cavity type          : VdW (van der Waals Surface) (Alpha=1.000).
 Cavity algorithm     : GePol (No added spheres)
                        Default sphere list used, NSphG=   38.
                        Lebedev-Laikov grids with approx.  5.0 points / Ang**2.
                        Smoothing algorithm: Karplus/York (Gamma=1.0000).
                        Polarization charges: spherical gaussians, with
                                              point-specific exponents (IZeta= 3).
                        Self-potential: point-specific (ISelfS= 7).
                        Self-field    : sphere-specific E.n sum rule (ISelfD= 2).
 1st derivatives      : Analytical E(r).r(x)/FMM algorithm (CHGder, D1EAlg=3).
                        Cavity 1st derivative terms included.
 2nd derivatives      : Analytical E(r).r(xy)/FMM algorithm (CHGder, D2EAlg=3).
                        Cavity 2nd derivative terms included.
 Solvent              : Toluene, Eps=   2.374100 Eps(inf)=   2.238315
 ------------------------------------------------------------------------------
 ------------------------------------------------------------------------------
 Atomic radii for non-electrostatic terms: SMD-CDS.
 ------------------------------------------------------------------------------
 Nuclear repulsion after PCM non-electrostatic terms =     1624.0817476580 Hartrees.
 One-electron integrals computed using PRISM.
 NBasis=   785 RedAO= T EigKep=  1.36D-06  NBF=   785
 NBsUse=   779 1.00D-06 EigRej=  9.66D-07 NBFU=   779
 ExpMin= 3.17D-02 ExpMax= 6.95D+04 ExpMxC= 2.37D+03 IAcc=3 IRadAn=         5 AccDes= 0.00D+00
 Harris functional with IExCor= 4639 and IRadAn=       5 diagonalized for initial guess.
 HarFok:  IExCor= 4639 AccDes= 0.00D+00 IRadAn=         5 IDoV= 1 UseB2=F ITyADJ=14
 ICtDFT=  3500011 ScaDFX=  1.000000  1.000000  1.000000  1.000000
 FoFCou: FMM=F IPFlag=           0 FMFlag=      100000 FMFlg1=           0
         NFxFlg=           0 DoJE=T BraDBF=F KetDBF=T FulRan=T
         wScrn=  0.000000 ICntrl=     500 IOpCl=  0 I1Cent=   200000004 NGrid=           0
         NMat0=    1 NMatS0=      1 NMatT0=    0 NMatD0=    1 NMtDS0=    0 NMtDT0=    0
 Petite list used in FoFCou.
 Requested convergence on RMS density matrix=1.00D-08 within 128 cycles.
 Requested convergence on MAX density matrix=1.00D-06.
 Requested convergence on             energy=1.00D-06.
 No special actions if energy rises.
 Inv3:  Mode=1 IEnd=    25090992.
 Iteration    1 A*A^-1 deviation from unit magnitude is 4.88D-15 for   2876.
 Iteration    1 A*A^-1 deviation from orthogonality  is 4.79D-15 for   1169     44.
 Iteration    1 A^-1*A deviation from unit magnitude is 4.55D-15 for   2876.
 Iteration    1 A^-1*A deviation from orthogonality  is 7.86D-13 for   1806   1764.
 Error on total polarization charges =  0.02262
 SCF Done:  E(RwB97XD) =  -1268.98004096     A.U. after   16 cycles
            NFock= 16  Conv=0.27D-08     -V/T= 2.0036
 SMD-CDS (non-electrostatic) energy       (kcal/mol) =      -6.82
 (included in total energy above)
 DoSCS=F DFT=T ScalE2(SS,OS)=  1.000000  1.000000
 Range of M.O.s used for correlation:     1   779
 NBasis=   785 NAE=    75 NBE=    75 NFC=     0 NFV=     0
 NROrb=    779 NOA=    75 NOB=    75 NVA=   704 NVB=   704

 **** Warning!!: The largest alpha MO coefficient is  0.11751344D+03

 Symmetrizing basis deriv contribution to polar:
 IMax=3 JMax=2 DiffMx= 0.00D+00
 G2DrvN: will do    39 centers at a time, making    1 passes.
 Calling FoFCou, ICntrl=  3107 FMM=F I1Cent=   0 AccDes= 0.00D+00.
 NEqPCM:  Using equilibrium solvation (IEInf=0, Eps=   2.3741, EpsInf=   2.2383)
 G2PCM: DoFxE=T DoFxN=T DoGrad=T DoDP/DQ/DG/TGxP=FFFF NFrqRd=   0 IEInf=0 SqF1=F DoCFld=F IF1Alg=4.
 End of G2Drv F.D. properties file   721 does not exist.
 End of G2Drv F.D. properties file   722 does not exist.
 End of G2Drv F.D. properties file   788 does not exist.
          IDoAtm=11111111111111111111111111111111111111
 NEqPCM:  Using equilibrium solvation (IEInf=0, Eps=   2.3741, EpsInf=   2.2383)
          Differentiating once with respect to electric field.
                with respect to dipole field.
          Differentiating once with respect to nuclear coordinates.
          There are   117 degrees of freedom in the 1st order CPHF.  IDoFFX=6 NUNeed=     3.
    114 vectors produced by pass  0 Test12= 5.28D-14 1.00D-09 XBig12= 1.26D+02 5.28D+00.
 AX will form   114 AO Fock derivatives at one time.
    114 vectors produced by pass  1 Test12= 5.28D-14 1.00D-09 XBig12= 1.18D+01 3.52D-01.
    114 vectors produced by pass  2 Test12= 5.28D-14 1.00D-09 XBig12= 3.85D-01 1.39D-01.
    114 vectors produced by pass  3 Test12= 5.28D-14 1.00D-09 XBig12= 6.18D-03 9.05D-03.
    114 vectors produced by pass  4 Test12= 5.28D-14 1.00D-09 XBig12= 7.51D-05 8.37D-04.
    114 vectors produced by pass  5 Test12= 5.28D-14 1.00D-09 XBig12= 7.69D-07 7.36D-05.
    114 vectors produced by pass  6 Test12= 5.28D-14 1.00D-09 XBig12= 5.93D-09 4.79D-06.
     53 vectors produced by pass  7 Test12= 5.28D-14 1.00D-09 XBig12= 4.78D-11 5.74D-07.
     31 vectors produced by pass  8 Test12= 5.28D-14 1.00D-09 XBig12= 6.61D-12 2.13D-07.
     30 vectors produced by pass  9 Test12= 5.28D-14 1.00D-09 XBig12= 3.72D-13 3.69D-08.
     29 vectors produced by pass 10 Test12= 5.28D-14 1.00D-09 XBig12= 1.67D-14 1.00D-08.
     29 vectors produced by pass 11 Test12= 5.28D-14 1.00D-09 XBig12= 7.70D-14 2.64D-08.
     29 vectors produced by pass 12 Test12= 5.28D-14 1.00D-09 XBig12= 1.33D-13 2.15D-08.
     24 vectors produced by pass 13 Test12= 5.28D-14 1.00D-09 XBig12= 2.48D-14 1.24D-08.
     24 vectors produced by pass 14 Test12= 5.28D-14 1.00D-09 XBig12= 6.82D-14 1.51D-08.
     24 vectors produced by pass 15 Test12= 5.28D-14 1.00D-09 XBig12= 7.19D-14 1.65D-08.
     24 vectors produced by pass 16 Test12= 5.28D-14 1.00D-09 XBig12= 3.71D-14 1.26D-08.
     20 vectors produced by pass 17 Test12= 5.28D-14 1.00D-09 XBig12= 2.61D-14 9.91D-09.
     20 vectors produced by pass 18 Test12= 5.28D-14 1.00D-09 XBig12= 3.10D-14 1.07D-08.
     20 vectors produced by pass 19 Test12= 5.28D-14 1.00D-09 XBig12= 3.87D-14 1.18D-08.
     19 vectors produced by pass 20 Test12= 5.28D-14 1.00D-09 XBig12= 2.81D-14 9.21D-09.
     19 vectors produced by pass 21 Test12= 5.28D-14 1.00D-09 XBig12= 3.59D-14 1.14D-08.
     17 vectors produced by pass 22 Test12= 5.28D-14 1.00D-09 XBig12= 1.80D-14 8.76D-09.
     17 vectors produced by pass 23 Test12= 5.28D-14 1.00D-09 XBig12= 3.25D-14 8.69D-09.
     15 vectors produced by pass 24 Test12= 5.28D-14 1.00D-09 XBig12= 1.08D-14 5.51D-09.
     15 vectors produced by pass 25 Test12= 5.28D-14 1.00D-09 XBig12= 4.04D-14 1.16D-08.
     15 vectors produced by pass 26 Test12= 5.28D-14 1.00D-09 XBig12= 1.40D-14 7.32D-09.
     15 vectors produced by pass 27 Test12= 5.28D-14 1.00D-09 XBig12= 5.12D-14 1.18D-08.
     15 vectors produced by pass 28 Test12= 5.28D-14 1.00D-09 XBig12= 1.91D-14 6.25D-09.
     15 vectors produced by pass 29 Test12= 5.28D-14 1.00D-09 XBig12= 3.77D-14 9.30D-09.
     15 vectors produced by pass 30 Test12= 5.28D-14 1.00D-09 XBig12= 3.59D-14 8.31D-09.
     15 vectors produced by pass 31 Test12= 5.28D-14 1.00D-09 XBig12= 3.22D-14 9.62D-09.
     15 vectors produced by pass 32 Test12= 5.28D-14 1.00D-09 XBig12= 3.08D-14 9.43D-09.
     15 vectors produced by pass 33 Test12= 5.28D-14 1.00D-09 XBig12= 2.09D-14 6.35D-09.
     13 vectors produced by pass 34 Test12= 5.28D-14 1.00D-09 XBig12= 1.64D-14 6.37D-09.
     13 vectors produced by pass 35 Test12= 5.28D-14 1.00D-09 XBig12= 2.88D-14 9.83D-09.
     13 vectors produced by pass 36 Test12= 5.28D-14 1.00D-09 XBig12= 2.88D-14 7.53D-09.
     13 vectors produced by pass 37 Test12= 5.28D-14 1.00D-09 XBig12= 3.21D-14 7.72D-09.
     13 vectors produced by pass 38 Test12= 5.28D-14 1.00D-09 XBig12= 4.44D-14 1.26D-08.
     13 vectors produced by pass 39 Test12= 5.28D-14 1.00D-09 XBig12= 2.35D-14 6.58D-09.
     10 vectors produced by pass 40 Test12= 5.28D-14 1.00D-09 XBig12= 1.25D-14 5.68D-09.
      6 vectors produced by pass 41 Test12= 5.28D-14 1.00D-09 XBig12= 7.56D-15 4.07D-09.
      6 vectors produced by pass 42 Test12= 5.28D-14 1.00D-09 XBig12= 1.95D-14 6.86D-09.
      6 vectors produced by pass 43 Test12= 5.28D-14 1.00D-09 XBig12= 1.13D-14 5.39D-09.
      6 vectors produced by pass 44 Test12= 5.28D-14 1.00D-09 XBig12= 1.41D-14 5.73D-09.
      6 vectors produced by pass 45 Test12= 5.28D-14 1.00D-09 XBig12= 2.65D-14 7.24D-09.
      4 vectors produced by pass 46 Test12= 5.28D-14 1.00D-09 XBig12= 8.16D-15 4.75D-09.
      4 vectors produced by pass 47 Test12= 5.28D-14 1.00D-09 XBig12= 1.17D-14 6.24D-09.
      4 vectors produced by pass 48 Test12= 5.28D-14 1.00D-09 XBig12= 2.50D-14 8.91D-09.
      4 vectors produced by pass 49 Test12= 5.28D-14 1.00D-09 XBig12= 1.34D-14 5.85D-09.
      4 vectors produced by pass 50 Test12= 5.28D-14 1.00D-09 XBig12= 2.51D-14 6.89D-09.
      4 vectors produced by pass 51 Test12= 5.28D-14 1.00D-09 XBig12= 8.53D-15 4.85D-09.
      4 vectors produced by pass 52 Test12= 5.28D-14 1.00D-09 XBig12= 2.05D-14 7.58D-09.
      4 vectors produced by pass 53 Test12= 5.28D-14 1.00D-09 XBig12= 9.13D-15 4.38D-09.
      4 vectors produced by pass 54 Test12= 5.28D-14 1.00D-09 XBig12= 1.02D-14 4.20D-09.
      4 vectors produced by pass 55 Test12= 5.28D-14 1.00D-09 XBig12= 1.12D-14 4.92D-09.
      4 vectors produced by pass 56 Test12= 5.28D-14 1.00D-09 XBig12= 1.89D-14 5.68D-09.
      4 vectors produced by pass 57 Test12= 5.28D-14 1.00D-09 XBig12= 1.12D-14 5.00D-09.
      4 vectors produced by pass 58 Test12= 5.28D-14 1.00D-09 XBig12= 1.71D-14 5.62D-09.
      4 vectors produced by pass 59 Test12= 5.28D-14 1.00D-09 XBig12= 1.01D-14 4.71D-09.
      4 vectors produced by pass 60 Test12= 5.28D-14 1.00D-09 XBig12= 1.77D-14 5.82D-09.
      4 vectors produced by pass 61 Test12= 5.28D-14 1.00D-09 XBig12= 1.32D-14 5.73D-09.
      4 vectors produced by pass 62 Test12= 5.28D-14 1.00D-09 XBig12= 1.09D-14 4.59D-09.
      4 vectors produced by pass 63 Test12= 5.28D-14 1.00D-09 XBig12= 1.80D-14 5.53D-09.
      4 vectors produced by pass 64 Test12= 5.28D-14 1.00D-09 XBig12= 1.10D-14 4.62D-09.
      4 vectors produced by pass 65 Test12= 5.28D-14 1.00D-09 XBig12= 9.71D-15 4.38D-09.
      4 vectors produced by pass 66 Test12= 5.28D-14 1.00D-09 XBig12= 1.06D-14 4.25D-09.
      4 vectors produced by pass 67 Test12= 5.28D-14 1.00D-09 XBig12= 1.44D-14 5.59D-09.
      4 vectors produced by pass 68 Test12= 5.28D-14 1.00D-09 XBig12= 6.43D-15 3.14D-09.
      4 vectors produced by pass 69 Test12= 5.28D-14 1.00D-09 XBig12= 1.73D-14 5.56D-09.
      4 vectors produced by pass 70 Test12= 5.28D-14 1.00D-09 XBig12= 1.58D-14 5.02D-09.
      4 vectors produced by pass 71 Test12= 5.28D-14 1.00D-09 XBig12= 1.41D-14 6.15D-09.
      4 vectors produced by pass 72 Test12= 5.28D-14 1.00D-09 XBig12= 1.15D-14 4.06D-09.
      3 vectors produced by pass 73 Test12= 5.28D-14 1.00D-09 XBig12= 5.54D-15 3.78D-09.
      2 vectors produced by pass 74 Test12= 5.28D-14 1.00D-09 XBig12= 9.22D-16 1.33D-09.
 InvSVY:  IOpt=1 It=  1 EMax= 1.24D-14
 Solved reduced A of dimension  1608 with   117 vectors.
 Isotropic polarizability for W=    0.000000      247.31 Bohr**3.
 End of Minotr F.D. properties file   721 does not exist.
 End of Minotr F.D. properties file   722 does not exist.
 End of Minotr F.D. properties file   788 does not exist.

 **********************************************************************

            Population analysis using the SCF density.

 **********************************************************************

 Orbital symmetries:
       Occupied  (A) (A) (A) (A) (A) (A) (A) (A) (A) (A) (A) (A)
                 (A) (A) (A) (A) (A) (A) (A) (A) (A) (A) (A) (A)
                 (A) (A) (A) (A) (A) (A) (A) (A) (A) (A) (A) (A)
                 (A) (A) (A) (A) (A) (A) (A) (A) (A) (A) (A) (A)
                 (A) (A) (A) (A) (A) (A) (A) (A) (A) (A) (A) (A)
                 (A) (A) (A) (A) (A) (A) (A) (A) (A) (A) (A) (A)
                 (A) (A) (A)
       Virtual   (A) (A) (A) (A) (A) (A) (A) (A) (A) (A) (A) (A)
                 (A) (A) (A) (A) (A) (A) (A) (A) (A) (A) (A) (A)
                 (A) (A) (A) (A) (A) (A) (A) (A) (A) (A) (A) (A)
                 (A) (A) (A) (A) (A) (A) (A) (A) (A) (A) (A) (A)
                 (A) (A) (A) (A) (A) (A) (A) (A) (A) (A) (A) (A)
                 (A) (A) (A) (A) (A) (A) (A) (A) (A) (A) (A) (A)
                 (A) (A) (A) (A) (A) (A) (A) (A) (A) (A) (A) (A)
                 (A) (A) (A) (A) (A) (A) (A) (A) (A) (A) (A) (A)
                 (A) (A) (A) (A) (A) (A) (A) (A) (A) (A) (A) (A)
                 (A) (A) (A) (A) (A) (A) (A) (A) (A) (A) (A) (A)
                 (A) (A) (A) (A) (A) (A) (A) (A) (A) (A) (A) (A)
                 (A) (A) (A) (A) (A) (A) (A) (A) (A) (A) (A) (A)
                 (A) (A) (A) (A) (A) (A) (A) (A) (A) (A) (A) (A)
                 (A) (A) (A) (A) (A) (A) (A) (A) (A) (A) (A) (A)
                 (A) (A) (A) (A) (A) (A) (A) (A) (A) (A) (A) (A)
                 (A) (A) (A) (A) (A) (A) (A) (A) (A) (A) (A) (A)
                 (A) (A) (A) (A) (A) (A) (A) (A) (A) (A) (A) (A)
                 (A) (A) (A) (A) (A) (A) (A) (A) (A) (A) (A) (A)
                 (A) (A) (A) (A) (A) (A) (A) (A) (A) (A) (A) (A)
                 (A) (A) (A) (A) (A) (A) (A) (A) (A) (A) (A) (A)
                 (A) (A) (A) (A) (A) (A) (A) (A) (A) (A) (A) (A)
                 (A) (A) (A) (A) (A) (A) (A) (A) (A) (A) (A) (A)
                 (A) (A) (A) (A) (A) (A) (A) (A) (A) (A) (A) (A)
                 (A) (A) (A) (A) (A) (A) (A) (A) (A) (A) (A) (A)
                 (A) (A) (A) (A) (A) (A) (A) (A) (A) (A) (A) (A)
                 (A) (A) (A) (A) (A) (A) (A) (A) (A) (A) (A) (A)
                 (A) (A) (A) (A) (A) (A) (A) (A) (A) (A) (A) (A)
                 (A) (A) (A) (A) (A) (A) (A) (A) (A) (A) (A) (A)
                 (A) (A) (A) (A) (A) (A) (A) (A) (A) (A) (A) (A)
                 (A) (A) (A) (A) (A) (A) (A) (A) (A) (A) (A) (A)
                 (A) (A) (A) (A) (A) (A) (A) (A) (A) (A) (A) (A)
                 (A) (A) (A) (A) (A) (A) (A) (A) (A) (A) (A) (A)
                 (A) (A) (A) (A) (A) (A) (A) (A) (A) (A) (A) (A)
                 (A) (A) (A) (A) (A) (A) (A) (A) (A) (A) (A) (A)
                 (A) (A) (A) (A) (A) (A) (A) (A) (A) (A) (A) (A)
                 (A) (A) (A) (A) (A) (A) (A) (A) (A) (A) (A) (A)
                 (A) (A) (A) (A) (A) (A) (A) (A) (A) (A) (A) (A)
                 (A) (A) (A) (A) (A) (A) (A) (A) (A) (A) (A) (A)
                 (A) (A) (A) (A) (A) (A) (A) (A) (A) (A) (A) (A)
                 (A) (A) (A) (A) (A) (A) (A) (A) (A) (A) (A) (A)
                 (A) (A) (A) (A) (A) (A) (A) (A) (A) (A) (A) (A)
                 (A) (A) (A) (A) (A) (A) (A) (A) (A) (A) (A) (A)
                 (A) (A) (A) (A) (A) (A) (A) (A) (A) (A) (A) (A)
                 (A) (A) (A) (A) (A) (A) (A) (A) (A) (A) (A) (A)
                 (A) (A) (A) (A) (A) (A) (A) (A) (A) (A) (A) (A)
                 (A) (A) (A) (A) (A) (A) (A) (A) (A) (A) (A) (A)
                 (A) (A) (A) (A) (A) (A) (A) (A) (A) (A) (A) (A)
                 (A) (A) (A) (A) (A) (A) (A) (A) (A) (A) (A) (A)
                 (A) (A) (A) (A) (A) (A) (A) (A) (A) (A) (A) (A)
                 (A) (A) (A) (A) (A) (A) (A) (A) (A) (A) (A) (A)
                 (A) (A) (A) (A) (A) (A) (A) (A) (A) (A) (A) (A)
                 (A) (A) (A) (A) (A) (A) (A) (A) (A) (A) (A) (A)
                 (A) (A) (A) (A) (A) (A) (A) (A) (A) (A) (A) (A)
                 (A) (A) (A) (A) (A) (A) (A) (A) (A) (A) (A) (A)
                 (A) (A) (A) (A) (A) (A) (A) (A) (A) (A) (A) (A)
                 (A) (A) (A) (A) (A) (A) (A) (A) (A) (A) (A) (A)
                 (A) (A) (A) (A) (A) (A) (A) (A) (A) (A) (A) (A)
                 (A) (A) (A) (A) (A) (A) (A) (A) (A) (A) (A) (A)
                 (A) (A) (A) (A) (A) (A) (A) (A)
 The electronic state is 1-A.
 Alpha  occ. eigenvalues -- -101.70252 -19.29704 -19.24586 -19.24133 -10.36819
 Alpha  occ. eigenvalues --  -10.36745 -10.35211 -10.31981 -10.31506 -10.30677
 Alpha  occ. eigenvalues --  -10.29955 -10.29921 -10.29853 -10.29797 -10.29745
 Alpha  occ. eigenvalues --  -10.29297 -10.28005 -10.27906 -10.27804  -9.58788
 Alpha  occ. eigenvalues --   -7.33427  -7.32575  -7.32551  -1.18771  -1.10803
 Alpha  occ. eigenvalues --   -1.10364  -1.01124  -0.96748  -0.94264  -0.92102
 Alpha  occ. eigenvalues --   -0.87160  -0.86161  -0.85447  -0.82232  -0.79627
 Alpha  occ. eigenvalues --   -0.74537  -0.73470  -0.71820  -0.69918  -0.65925
 Alpha  occ. eigenvalues --   -0.62823  -0.61646  -0.61355  -0.61279  -0.59696
 Alpha  occ. eigenvalues --   -0.58087  -0.57143  -0.56270  -0.53587  -0.53170
 Alpha  occ. eigenvalues --   -0.53010  -0.52579  -0.51754  -0.50973  -0.49399
 Alpha  occ. eigenvalues --   -0.48902  -0.48370  -0.47778  -0.47217  -0.46879
 Alpha  occ. eigenvalues --   -0.46578  -0.45715  -0.45313  -0.44016  -0.43486
 Alpha  occ. eigenvalues --   -0.43104  -0.40998  -0.40093  -0.39742  -0.39583
 Alpha  occ. eigenvalues --   -0.39483  -0.35786  -0.35302  -0.33795  -0.28918
 Alpha virt. eigenvalues --    0.00507   0.02944   0.03903   0.04591   0.05120
 Alpha virt. eigenvalues --    0.05766   0.05920   0.06166   0.06505   0.07255
 Alpha virt. eigenvalues --    0.07627   0.07912   0.08105   0.08737   0.08840
 Alpha virt. eigenvalues --    0.09329   0.10129   0.10491   0.10694   0.10879
 Alpha virt. eigenvalues --    0.11382   0.11827   0.11937   0.12592   0.13125
 Alpha virt. eigenvalues --    0.13266   0.13432   0.13617   0.13820   0.14063
 Alpha virt. eigenvalues --    0.14572   0.15028   0.15218   0.15596   0.16177
 Alpha virt. eigenvalues --    0.16405   0.16429   0.16651   0.16806   0.17039
 Alpha virt. eigenvalues --    0.17357   0.17597   0.17777   0.18040   0.18363
 Alpha virt. eigenvalues --    0.18429   0.18752   0.18895   0.19161   0.19793
 Alpha virt. eigenvalues --    0.20097   0.20488   0.20761   0.21049   0.21287
 Alpha virt. eigenvalues --    0.21496   0.21907   0.22294   0.22443   0.22722
 Alpha virt. eigenvalues --    0.23051   0.23094   0.23288   0.23998   0.24145
 Alpha virt. eigenvalues --    0.24427   0.24864   0.25294   0.25586   0.25904
 Alpha virt. eigenvalues --    0.26049   0.26425   0.26457   0.26863   0.27673
 Alpha virt. eigenvalues --    0.27846   0.28221   0.28765   0.29036   0.29371
 Alpha virt. eigenvalues --    0.29677   0.29994   0.30260   0.30450   0.31044
 Alpha virt. eigenvalues --    0.31087   0.31762   0.31828   0.32414   0.32790
 Alpha virt. eigenvalues --    0.33253   0.33314   0.33420   0.34137   0.34508
 Alpha virt. eigenvalues --    0.35378   0.35928   0.36079   0.36227   0.36489
 Alpha virt. eigenvalues --    0.37225   0.38401   0.38450   0.39505   0.40050
 Alpha virt. eigenvalues --    0.40406   0.41246   0.41740   0.42469   0.42883
 Alpha virt. eigenvalues --    0.43229   0.44335   0.44627   0.45257   0.45400
 Alpha virt. eigenvalues --    0.46009   0.46256   0.46720   0.46815   0.47501
 Alpha virt. eigenvalues --    0.47864   0.48677   0.49096   0.49413   0.49611
 Alpha virt. eigenvalues --    0.50255   0.50905   0.50970   0.51249   0.51476
 Alpha virt. eigenvalues --    0.51968   0.52092   0.52425   0.52898   0.53069
 Alpha virt. eigenvalues --    0.53642   0.53923   0.54118   0.54956   0.55212
 Alpha virt. eigenvalues --    0.55501   0.56058   0.56374   0.56628   0.56974
 Alpha virt. eigenvalues --    0.57616   0.57972   0.58330   0.59179   0.59374
 Alpha virt. eigenvalues --    0.59873   0.60103   0.60655   0.61180   0.61472
 Alpha virt. eigenvalues --    0.62052   0.62190   0.62247   0.62889   0.63723
 Alpha virt. eigenvalues --    0.63905   0.64640   0.65071   0.65381   0.66569
 Alpha virt. eigenvalues --    0.66829   0.67284   0.67692   0.68523   0.68763
 Alpha virt. eigenvalues --    0.69233   0.69612   0.69931   0.70386   0.71460
 Alpha virt. eigenvalues --    0.71978   0.72528   0.72900   0.74100   0.74331
 Alpha virt. eigenvalues --    0.74704   0.75391   0.76165   0.76995   0.77537
 Alpha virt. eigenvalues --    0.77739   0.78974   0.79303   0.79864   0.80393
 Alpha virt. eigenvalues --    0.80427   0.81305   0.81854   0.82352   0.83428
 Alpha virt. eigenvalues --    0.83703   0.84248   0.84770   0.85340   0.85812
 Alpha virt. eigenvalues --    0.87024   0.87285   0.88101   0.89090   0.89505
 Alpha virt. eigenvalues --    0.89913   0.90485   0.91029   0.91335   0.92607
 Alpha virt. eigenvalues --    0.93013   0.94000   0.95194   0.95835   0.96559
 Alpha virt. eigenvalues --    0.96741   0.97525   0.97617   0.99783   1.00504
 Alpha virt. eigenvalues --    1.01813   1.02266   1.03509   1.03720   1.05484
 Alpha virt. eigenvalues --    1.06705   1.07713   1.08546   1.09520   1.11022
 Alpha virt. eigenvalues --    1.11684   1.12760   1.13752   1.14793   1.15590
 Alpha virt. eigenvalues --    1.16802   1.18199   1.18708   1.19923   1.20449
 Alpha virt. eigenvalues --    1.20917   1.21900   1.22748   1.23142   1.24543
 Alpha virt. eigenvalues --    1.25119   1.26029   1.26664   1.27675   1.28066
 Alpha virt. eigenvalues --    1.29310   1.29601   1.30495   1.31227   1.33005
 Alpha virt. eigenvalues --    1.33447   1.34470   1.34894   1.35477   1.36954
 Alpha virt. eigenvalues --    1.37269   1.38413   1.38795   1.39255   1.39878
 Alpha virt. eigenvalues --    1.40855   1.41368   1.42451   1.43383   1.43639
 Alpha virt. eigenvalues --    1.45014   1.45586   1.46951   1.47263   1.47843
 Alpha virt. eigenvalues --    1.49623   1.50298   1.51003   1.52055   1.52696
 Alpha virt. eigenvalues --    1.53997   1.56106   1.57779   1.57966   1.59201
 Alpha virt. eigenvalues --    1.61178   1.62134   1.62989   1.63646   1.64913
 Alpha virt. eigenvalues --    1.65680   1.65961   1.67338   1.67754   1.69663
 Alpha virt. eigenvalues --    1.69875   1.70042   1.70884   1.71875   1.72049
 Alpha virt. eigenvalues --    1.72623   1.73697   1.74258   1.74968   1.75237
 Alpha virt. eigenvalues --    1.76338   1.76826   1.78214   1.78816   1.79473
 Alpha virt. eigenvalues --    1.79777   1.80781   1.81582   1.81798   1.82556
 Alpha virt. eigenvalues --    1.82764   1.83380   1.83990   1.84969   1.85287
 Alpha virt. eigenvalues --    1.85647   1.86231   1.86810   1.87441   1.88206
 Alpha virt. eigenvalues --    1.89153   1.90206   1.91895   1.92400   1.93869
 Alpha virt. eigenvalues --    1.94420   1.94668   1.95340   1.95731   1.96447
 Alpha virt. eigenvalues --    1.97724   1.98148   1.98490   1.99268   2.01916
 Alpha virt. eigenvalues --    2.02042   2.03954   2.04879   2.05477   2.06109
 Alpha virt. eigenvalues --    2.07218   2.07940   2.09028   2.10155   2.11336
 Alpha virt. eigenvalues --    2.11982   2.12926   2.13513   2.14656   2.15005
 Alpha virt. eigenvalues --    2.17315   2.17561   2.19157   2.19969   2.20226
 Alpha virt. eigenvalues --    2.21825   2.22464   2.23044   2.23916   2.24585
 Alpha virt. eigenvalues --    2.25714   2.26139   2.26869   2.27667   2.29264
 Alpha virt. eigenvalues --    2.29733   2.30070   2.30588   2.31496   2.33283
 Alpha virt. eigenvalues --    2.33488   2.34533   2.35097   2.36941   2.38323
 Alpha virt. eigenvalues --    2.39445   2.41590   2.42219   2.42485   2.43661
 Alpha virt. eigenvalues --    2.44101   2.44128   2.45062   2.45512   2.45986
 Alpha virt. eigenvalues --    2.47147   2.48005   2.48176   2.49392   2.49713
 Alpha virt. eigenvalues --    2.51265   2.51408   2.52190   2.53293   2.54276
 Alpha virt. eigenvalues --    2.54403   2.55357   2.56168   2.57059   2.58269
 Alpha virt. eigenvalues --    2.59311   2.59924   2.60971   2.61632   2.62760
 Alpha virt. eigenvalues --    2.63667   2.63891   2.64897   2.66907   2.68068
 Alpha virt. eigenvalues --    2.68562   2.69514   2.70218   2.71001   2.71686
 Alpha virt. eigenvalues --    2.71997   2.72167   2.73107   2.73760   2.75035
 Alpha virt. eigenvalues --    2.76053   2.76362   2.77876   2.78046   2.79512
 Alpha virt. eigenvalues --    2.79782   2.80693   2.81284   2.82083   2.82480
 Alpha virt. eigenvalues --    2.82938   2.84240   2.84762   2.86131   2.87200
 Alpha virt. eigenvalues --    2.87398   2.88424   2.88865   2.88879   2.89640
 Alpha virt. eigenvalues --    2.91095   2.91453   2.92002   2.92625   2.94041
 Alpha virt. eigenvalues --    2.94884   2.95086   2.96037   2.97392   2.97889
 Alpha virt. eigenvalues --    2.98727   3.00369   3.00822   3.01255   3.01784
 Alpha virt. eigenvalues --    3.02958   3.03212   3.03970   3.04841   3.05747
 Alpha virt. eigenvalues --    3.06196   3.07755   3.08309   3.09624   3.10496
 Alpha virt. eigenvalues --    3.10569   3.11137   3.12527   3.13116   3.13887
 Alpha virt. eigenvalues --    3.14672   3.15049   3.16332   3.17747   3.18542
 Alpha virt. eigenvalues --    3.19385   3.20435   3.21069   3.21603   3.23126
 Alpha virt. eigenvalues --    3.24911   3.25328   3.26361   3.26793   3.27143
 Alpha virt. eigenvalues --    3.28648   3.28873   3.29276   3.29978   3.31051
 Alpha virt. eigenvalues --    3.31838   3.32568   3.33569   3.34514   3.34942
 Alpha virt. eigenvalues --    3.36101   3.36335   3.37354   3.37578   3.38360
 Alpha virt. eigenvalues --    3.38682   3.39946   3.40497   3.42344   3.42618
 Alpha virt. eigenvalues --    3.42889   3.43556   3.44550   3.45153   3.46926
 Alpha virt. eigenvalues --    3.47132   3.47448   3.47823   3.49016   3.49536
 Alpha virt. eigenvalues --    3.49949   3.51187   3.51590   3.52095   3.52863
 Alpha virt. eigenvalues --    3.53859   3.55965   3.56709   3.57686   3.57947
 Alpha virt. eigenvalues --    3.59105   3.59389   3.60332   3.61287   3.62536
 Alpha virt. eigenvalues --    3.62886   3.62999   3.64091   3.64481   3.66463
 Alpha virt. eigenvalues --    3.67220   3.68881   3.69192   3.70693   3.72587
 Alpha virt. eigenvalues --    3.73067   3.74086   3.74904   3.76289   3.77309
 Alpha virt. eigenvalues --    3.77675   3.80022   3.81310   3.83972   3.85143
 Alpha virt. eigenvalues --    3.86304   3.87090   3.90725   3.91515   3.92450
 Alpha virt. eigenvalues --    3.93444   3.94454   3.96143   3.98356   4.00072
 Alpha virt. eigenvalues --    4.01700   4.02210   4.05808   4.06482   4.06890
 Alpha virt. eigenvalues --    4.09125   4.10443   4.10922   4.12315   4.13168
 Alpha virt. eigenvalues --    4.14748   4.15163   4.17592   4.18427   4.19867
 Alpha virt. eigenvalues --    4.19907   4.20842   4.22925   4.23901   4.25768
 Alpha virt. eigenvalues --    4.26124   4.26424   4.27556   4.29533   4.30948
 Alpha virt. eigenvalues --    4.31661   4.32394   4.35154   4.36019   4.36970
 Alpha virt. eigenvalues --    4.37179   4.39662   4.42309   4.43095   4.44949
 Alpha virt. eigenvalues --    4.47142   4.49062   4.49890   4.51744   4.54882
 Alpha virt. eigenvalues --    4.55304   4.56435   4.57136   4.59784   4.60474
 Alpha virt. eigenvalues --    4.62075   4.63639   4.67138   4.69071   4.73860
 Alpha virt. eigenvalues --    4.77836   4.79822   4.81473   4.83173   4.84070
 Alpha virt. eigenvalues --    4.86439   4.88816   4.90134   4.91432   4.92094
 Alpha virt. eigenvalues --    4.94846   4.97206   5.02676   5.04671   5.07367
 Alpha virt. eigenvalues --    5.09657   5.10520   5.17889   5.19755   5.20265
 Alpha virt. eigenvalues --    5.20570   5.24439   5.25475   5.29251   5.31136
 Alpha virt. eigenvalues --    5.31792   5.32442   5.36825   5.39428   5.42477
 Alpha virt. eigenvalues --    5.46012   5.48732   5.49289   5.49932   5.53210
 Alpha virt. eigenvalues --    5.53926   5.56308   5.57207   5.59250   5.71933
 Alpha virt. eigenvalues --    5.73054   5.84165   5.86471   5.97498   6.11558
 Alpha virt. eigenvalues --    6.16143   6.18977   6.20791   6.35035   6.39836
 Alpha virt. eigenvalues --    6.44353   6.45382   6.48173   6.49478   6.55952
 Alpha virt. eigenvalues --    6.56511   6.58133   6.76473   6.78934   7.02023
 Alpha virt. eigenvalues --    7.05541   7.07939   7.09929   7.21340   7.21677
 Alpha virt. eigenvalues --    7.52208   7.71189  10.93512  11.02999  11.52428
 Alpha virt. eigenvalues --   22.41261  22.48677  22.59543  22.61853  22.74391
 Alpha virt. eigenvalues --   22.82089  22.85193  22.89638  22.92094  22.97035
 Alpha virt. eigenvalues --   23.01665  23.11095  23.15144  23.32463  23.83249
 Alpha virt. eigenvalues --   26.48574  43.72235  43.88285  44.85293
          Condensed to atoms (all electrons):
               1          2          3          4          5          6
     1  C    5.804920   0.222377  -0.057959   0.047075  -0.640182   0.073459
     2  C    0.222377   6.175253   0.086463  -0.539790   0.039112   0.115426
     3  C   -0.057959   0.086463   7.429908  -0.510416  -0.140091  -0.445032
     4  C    0.047075  -0.539790  -0.510416   7.866243  -0.358289  -0.106019
     5  C   -0.640182   0.039112  -0.140091  -0.358289   7.299526   0.423864
     6  C    0.073459   0.115426  -0.445032  -0.106019   0.423864   5.571029
     7  H    0.414454  -0.064373   0.017202  -0.013032   0.042620  -0.026429
     8  H   -0.054838   0.479577  -0.058007   0.009279  -0.006730   0.013832
     9  H    0.027755  -0.014427   0.008266  -0.042310   0.394751  -0.005898
    10  H   -0.039307   0.019266  -0.008437   0.029530  -0.072185   0.432549
    11  C    0.252801  -0.166437  -0.358513   0.139554  -1.119014   0.103190
    12  C   -0.139323  -0.108536   0.299551  -0.171848   0.377966   0.060302
    13  C    0.155722  -0.449421  -0.280619   0.785042  -0.411410  -0.118165
    14  H    0.001525  -0.008407  -0.021657   0.007047  -0.001554   0.001454
    15  C    0.024701   0.281207   0.260519  -0.787803   0.024105  -0.017441
    16  H    0.000154   0.001424   0.026566  -0.015880   0.002121   0.000023
    17  O    0.039349  -0.099360  -0.014434   0.158172   0.033651  -0.011824
    18  Cl  -0.012330   0.064188  -0.147903   0.036168  -0.003801   0.008917
    19  C   -0.124242   0.219492  -0.127941  -0.589644   0.734560  -0.188960
    20  C    0.037585  -0.111302  -0.011144   0.320106  -0.233939   0.068030
    21  H    0.000031  -0.000057  -0.000600  -0.000552   0.001558   0.000107
    22  C   -0.008833  -0.001491   0.004912   0.034008   0.011783   0.014489
    23  H   -0.000027  -0.000147   0.000232  -0.001850   0.003193   0.000184
    24  H    0.000112   0.000029  -0.000064   0.003977  -0.008112  -0.000190
    25  H    0.000009   0.000002  -0.002038   0.001467   0.002595   0.000092
    26  C    0.046337  -0.056210  -0.044816   0.123334  -0.216202   0.052817
    27  H    0.001261  -0.000508  -0.001994  -0.010442   0.001018   0.001919
    28  H    0.000039  -0.000063  -0.000367  -0.000276  -0.000168   0.000172
    29  H   -0.000083  -0.000350   0.000169   0.003527  -0.001027   0.001949
    30  C   -0.033354   0.085693   0.081720  -0.216837   0.142643  -0.043207
    31  H   -0.000176   0.000367   0.000438   0.001291  -0.000258  -0.000197
    32  H   -0.000762   0.000643  -0.003728  -0.005047   0.011909   0.002257
    33  O    0.000842   0.004129  -0.002203   0.038754  -0.012720   0.004876
    34  H    0.004437   0.003472   0.027478  -0.027154  -0.009319  -0.006018
    35  H    0.000265   0.005580   0.024218   0.010499   0.001198  -0.002258
    36  O   -0.014217  -0.007005  -0.013610   0.040667   0.025250  -0.030224
    37  H   -0.004736   0.001146  -0.011313   0.010750   0.011437   0.007722
    38  H   -0.015516   0.011650  -0.002518  -0.032234   0.094758  -0.011310
               7          8          9         10         11         12
     1  C    0.414454  -0.054838   0.027755  -0.039307   0.252801  -0.139323
     2  C   -0.064373   0.479577  -0.014427   0.019266  -0.166437  -0.108536
     3  C    0.017202  -0.058007   0.008266  -0.008437  -0.358513   0.299551
     4  C   -0.013032   0.009279  -0.042310   0.029530   0.139554  -0.171848
     5  C    0.042620  -0.006730   0.394751  -0.072185  -1.119014   0.377966
     6  C   -0.026429   0.013832  -0.005898   0.432549   0.103190   0.060302
     7  H    0.484142  -0.006588   0.000049  -0.005829  -0.006281  -0.001741
     8  H   -0.006588   0.484057  -0.000023   0.000035  -0.002423  -0.018462
     9  H    0.000049  -0.000023   0.430713  -0.005877  -0.003587  -0.000544
    10  H   -0.005829   0.000035  -0.005877   0.482985   0.001819  -0.001421
    11  C   -0.006281  -0.002423  -0.003587   0.001819   8.657899  -0.714620
    12  C   -0.001741  -0.018462  -0.000544  -0.001421  -0.714620   6.283626
    13  C   -0.001083  -0.010843  -0.002846   0.000683   0.353405  -0.718468
    14  H    0.000000  -0.000004   0.000024   0.000000  -0.092470  -0.005055
    15  C    0.000364  -0.005568  -0.001300  -0.001359  -0.206941   0.461226
    16  H    0.000000   0.000034  -0.000002   0.000000   0.032217  -0.064528
    17  O    0.000296  -0.000797   0.002384  -0.000055   0.002334  -0.022915
    18  Cl   0.000150   0.001002   0.000050   0.000018  -0.019379   0.278771
    19  C    0.000032  -0.000087  -0.023746  -0.000596  -1.822487   0.019316
    20  C   -0.000038  -0.000089   0.012549   0.000124   0.741417  -0.072518
    21  H    0.000000   0.000000   0.000000   0.000000  -0.009492   0.000754
    22  C   -0.000028   0.000114  -0.001774   0.000155  -0.030134   0.048150
    23  H    0.000000   0.000000   0.000002   0.000000   0.033787   0.000590
    24  H    0.000000   0.000000  -0.000021   0.000000  -0.015423  -0.002358
    25  H    0.000000   0.000000  -0.000009   0.000000  -0.025071  -0.001088
    26  C   -0.000026  -0.000017   0.010690  -0.000064   0.413408  -0.053660
    27  H    0.000000   0.000000   0.000334  -0.000002   0.010372  -0.000530
    28  H    0.000000   0.000000  -0.000071   0.000000   0.007920  -0.000106
    29  H    0.000000   0.000000   0.000244   0.000001   0.003268   0.000135
    30  C    0.000042   0.000073  -0.007516   0.000085  -0.358924   0.070682
    31  H    0.000000   0.000000  -0.000008   0.000000  -0.003291   0.000041
    32  H    0.000000   0.000000  -0.000127  -0.000001  -0.014264   0.011712
    33  O    0.000048   0.000150   0.000185   0.000030  -0.010139  -0.010679
    34  H    0.000005  -0.000037  -0.000022  -0.000005   0.002549  -0.026732
    35  H    0.000030  -0.000040  -0.000005   0.000014  -0.018941  -0.012629
    36  O   -0.000007   0.000002  -0.006629   0.000106   0.039352  -0.006049
    37  H    0.000004  -0.000003  -0.001448  -0.000011  -0.024415   0.003062
    38  H    0.000003   0.000000   0.000007  -0.000126  -0.142150   0.009086
              13         14         15         16         17         18
     1  C    0.155722   0.001525   0.024701   0.000154   0.039349  -0.012330
     2  C   -0.449421  -0.008407   0.281207   0.001424  -0.099360   0.064188
     3  C   -0.280619  -0.021657   0.260519   0.026566  -0.014434  -0.147903
     4  C    0.785042   0.007047  -0.787803  -0.015880   0.158172   0.036168
     5  C   -0.411410  -0.001554   0.024105   0.002121   0.033651  -0.003801
     6  C   -0.118165   0.001454  -0.017441   0.000023  -0.011824   0.008917
     7  H   -0.001083   0.000000   0.000364   0.000000   0.000296   0.000150
     8  H   -0.010843  -0.000004  -0.005568   0.000034  -0.000797   0.001002
     9  H   -0.002846   0.000024  -0.001300  -0.000002   0.002384   0.000050
    10  H    0.000683   0.000000  -0.001359   0.000000  -0.000055   0.000018
    11  C    0.353405  -0.092470  -0.206941   0.032217   0.002334  -0.019379
    12  C   -0.718468  -0.005055   0.461226  -0.064528  -0.022915   0.278771
    13  C    7.393939   0.504833  -0.375393  -0.080604  -0.044964   0.041527
    14  H    0.504833   0.457031  -0.021428  -0.005914   0.000604  -0.000265
    15  C   -0.375393  -0.021428   6.161894   0.460397  -0.151606  -0.127503
    16  H   -0.080604  -0.005914   0.460397   0.476256  -0.002159  -0.011194
    17  O   -0.044964   0.000604  -0.151606  -0.002159   9.183555  -0.001351
    18  Cl   0.041527  -0.000265  -0.127503  -0.011194  -0.001351  17.068436
    19  C   -0.235248   0.040735   0.274514   0.004322  -0.780225  -0.002289
    20  C    0.000912  -0.018768  -0.206966  -0.004258   0.211904   0.001274
    21  H   -0.000374  -0.000891  -0.000133   0.000007   0.010048  -0.000005
    22  C   -0.046747  -0.028404   0.038557  -0.000368  -0.039687  -0.000052
    23  H   -0.004770   0.000103  -0.003243  -0.000001   0.021439  -0.000002
    24  H    0.038008  -0.001163   0.001048   0.000068  -0.029800   0.000011
    25  H   -0.012862  -0.000219   0.002365   0.000001   0.004335   0.000005
    26  C    0.085338   0.008931  -0.066004  -0.000416   0.125396   0.000308
    27  H   -0.008678   0.000057  -0.000932   0.000000  -0.015144   0.000000
    28  H    0.000875   0.000044   0.000179   0.000000   0.018284   0.000000
    29  H   -0.002785  -0.000001  -0.000844   0.000000  -0.016247   0.000000
    30  C   -0.131861  -0.011276   0.115118   0.002276  -0.136700  -0.000738
    31  H   -0.004005   0.000220   0.000919  -0.000001  -0.001656   0.000004
    32  H   -0.006832  -0.000992   0.004265   0.000027  -0.003383  -0.000101
    33  O   -0.008950   0.000331   0.010921   0.000370   0.005977  -0.001773
    34  H    0.024895  -0.000056   0.008600  -0.000060   0.004088  -0.000730
    35  H   -0.000225   0.000024  -0.004440  -0.000015   0.003051   0.000250
    36  O    0.016602   0.000170  -0.010104  -0.000011   0.011144   0.000031
    37  H   -0.007735   0.000013  -0.000354  -0.000001   0.010487  -0.000022
    38  H   -0.019076  -0.000118   0.009754   0.000006  -0.013959  -0.000017
              19         20         21         22         23         24
     1  C   -0.124242   0.037585   0.000031  -0.008833  -0.000027   0.000112
     2  C    0.219492  -0.111302  -0.000057  -0.001491  -0.000147   0.000029
     3  C   -0.127941  -0.011144  -0.000600   0.004912   0.000232  -0.000064
     4  C   -0.589644   0.320106  -0.000552   0.034008  -0.001850   0.003977
     5  C    0.734560  -0.233939   0.001558   0.011783   0.003193  -0.008112
     6  C   -0.188960   0.068030   0.000107   0.014489   0.000184  -0.000190
     7  H    0.000032  -0.000038   0.000000  -0.000028   0.000000   0.000000
     8  H   -0.000087  -0.000089   0.000000   0.000114   0.000000   0.000000
     9  H   -0.023746   0.012549   0.000000  -0.001774   0.000002  -0.000021
    10  H   -0.000596   0.000124   0.000000   0.000155   0.000000   0.000000
    11  C   -1.822487   0.741417  -0.009492  -0.030134   0.033787  -0.015423
    12  C    0.019316  -0.072518   0.000754   0.048150   0.000590  -0.002358
    13  C   -0.235248   0.000912  -0.000374  -0.046747  -0.004770   0.038008
    14  H    0.040735  -0.018768  -0.000891  -0.028404   0.000103  -0.001163
    15  C    0.274514  -0.206966  -0.000133   0.038557  -0.003243   0.001048
    16  H    0.004322  -0.004258   0.000007  -0.000368  -0.000001   0.000068
    17  O   -0.780225   0.211904   0.010048  -0.039687   0.021439  -0.029800
    18  Cl  -0.002289   0.001274  -0.000005  -0.000052  -0.000002   0.000011
    19  C   10.886220  -1.853500  -0.023119  -0.166630  -0.096472  -0.031587
    20  C   -1.853500   7.011162   0.368352  -0.056063  -0.021784   0.049316
    21  H   -0.023119   0.368352   0.472526   0.011375   0.001944  -0.000926
    22  C   -0.166630  -0.056063   0.011375   5.515610   0.459068   0.397389
    23  H   -0.096472  -0.021784   0.001944   0.459068   0.491776  -0.020788
    24  H   -0.031587   0.049316  -0.000926   0.397389  -0.020788   0.509996
    25  H   -0.063559  -0.005345  -0.000023   0.454619  -0.014507  -0.014691
    26  C   -0.883915   0.267576  -0.006760  -0.140899  -0.022863  -0.020125
    27  H   -0.024932  -0.060265   0.000585   0.002844   0.000018  -0.000322
    28  H   -0.053030  -0.019659  -0.000909  -0.027982   0.000487  -0.000037
    29  H   -0.107559   0.051432   0.000046   0.012522   0.000707   0.000011
    30  C    0.848006  -0.281778   0.003369  -0.068507   0.003702  -0.011264
    31  H    0.017733  -0.075927  -0.004799   0.000661  -0.000013   0.000037
    32  H    0.014529  -0.077881   0.002685   0.005336   0.000025  -0.000136
    33  O    0.005069   0.023595  -0.000098  -0.002556   0.000001  -0.000013
    34  H    0.007244  -0.007211  -0.000014  -0.001256   0.000000   0.000001
    35  H   -0.001071   0.001468   0.000002  -0.000478   0.000000   0.000000
    36  O   -0.103093   0.008481   0.000047   0.010140   0.000179   0.000092
    37  H    0.028431  -0.001456  -0.000001  -0.005426   0.000000  -0.000005
    38  H    0.205745  -0.034110  -0.000045  -0.017348  -0.000041   0.000071
              25         26         27         28         29         30
     1  C    0.000009   0.046337   0.001261   0.000039  -0.000083  -0.033354
     2  C    0.000002  -0.056210  -0.000508  -0.000063  -0.000350   0.085693
     3  C   -0.002038  -0.044816  -0.001994  -0.000367   0.000169   0.081720
     4  C    0.001467   0.123334  -0.010442  -0.000276   0.003527  -0.216837
     5  C    0.002595  -0.216202   0.001018  -0.000168  -0.001027   0.142643
     6  C    0.000092   0.052817   0.001919   0.000172   0.001949  -0.043207
     7  H    0.000000  -0.000026   0.000000   0.000000   0.000000   0.000042
     8  H    0.000000  -0.000017   0.000000   0.000000   0.000000   0.000073
     9  H   -0.000009   0.010690   0.000334  -0.000071   0.000244  -0.007516
    10  H    0.000000  -0.000064  -0.000002   0.000000   0.000001   0.000085
    11  C   -0.025071   0.413408   0.010372   0.007920   0.003268  -0.358924
    12  C   -0.001088  -0.053660  -0.000530  -0.000106   0.000135   0.070682
    13  C   -0.012862   0.085338  -0.008678   0.000875  -0.002785  -0.131861
    14  H   -0.000219   0.008931   0.000057   0.000044  -0.000001  -0.011276
    15  C    0.002365  -0.066004  -0.000932   0.000179  -0.000844   0.115118
    16  H    0.000001  -0.000416   0.000000   0.000000   0.000000   0.002276
    17  O    0.004335   0.125396  -0.015144   0.018284  -0.016247  -0.136700
    18  Cl   0.000005   0.000308   0.000000   0.000000   0.000000  -0.000738
    19  C   -0.063559  -0.883915  -0.024932  -0.053030  -0.107559   0.848006
    20  C   -0.005345   0.267576  -0.060265  -0.019659   0.051432  -0.281778
    21  H   -0.000023  -0.006760   0.000585  -0.000909   0.000046   0.003369
    22  C    0.454619  -0.140899   0.002844  -0.027982   0.012522  -0.068507
    23  H   -0.014507  -0.022863   0.000018   0.000487   0.000707   0.003702
    24  H   -0.014691  -0.020125  -0.000322  -0.000037   0.000011  -0.011264
    25  H    0.476334   0.019614  -0.000108   0.000433   0.002579  -0.001422
    26  C    0.019614   5.811352   0.456653   0.447271   0.431588  -0.224796
    27  H   -0.000108   0.456653   0.501078  -0.014916  -0.019114   0.018385
    28  H    0.000433   0.447271  -0.014916   0.488989  -0.018676   0.001363
    29  H    0.002579   0.431588  -0.019114  -0.018676   0.499516  -0.008270
    30  C   -0.001422  -0.224796   0.018385   0.001363  -0.008270   5.674404
    31  H    0.000000   0.003190  -0.000074   0.000001   0.000012   0.444209
    32  H    0.000049  -0.008524  -0.000129  -0.000023   0.000062   0.431557
    33  O   -0.000006   0.004046   0.000024  -0.000003  -0.000001  -0.019473
    34  H   -0.000001  -0.001375   0.000006   0.000000   0.000001   0.004750
    35  H    0.000000  -0.000511   0.000006   0.000000   0.000000   0.000697
    36  O    0.001093   0.034452  -0.000396   0.000087  -0.001926  -0.002554
    37  H   -0.000021  -0.008958   0.000028   0.000003   0.000142   0.001119
    38  H   -0.003254  -0.036341  -0.000424  -0.000164   0.001243   0.010320
              31         32         33         34         35         36
     1  C   -0.000176  -0.000762   0.000842   0.004437   0.000265  -0.014217
     2  C    0.000367   0.000643   0.004129   0.003472   0.005580  -0.007005
     3  C    0.000438  -0.003728  -0.002203   0.027478   0.024218  -0.013610
     4  C    0.001291  -0.005047   0.038754  -0.027154   0.010499   0.040667
     5  C   -0.000258   0.011909  -0.012720  -0.009319   0.001198   0.025250
     6  C   -0.000197   0.002257   0.004876  -0.006018  -0.002258  -0.030224
     7  H    0.000000   0.000000   0.000048   0.000005   0.000030  -0.000007
     8  H    0.000000   0.000000   0.000150  -0.000037  -0.000040   0.000002
     9  H   -0.000008  -0.000127   0.000185  -0.000022  -0.000005  -0.006629
    10  H    0.000000  -0.000001   0.000030  -0.000005   0.000014   0.000106
    11  C   -0.003291  -0.014264  -0.010139   0.002549  -0.018941   0.039352
    12  C    0.000041   0.011712  -0.010679  -0.026732  -0.012629  -0.006049
    13  C   -0.004005  -0.006832  -0.008950   0.024895  -0.000225   0.016602
    14  H    0.000220  -0.000992   0.000331  -0.000056   0.000024   0.000170
    15  C    0.000919   0.004265   0.010921   0.008600  -0.004440  -0.010104
    16  H   -0.000001   0.000027   0.000370  -0.000060  -0.000015  -0.000011
    17  O   -0.001656  -0.003383   0.005977   0.004088   0.003051   0.011144
    18  Cl   0.000004  -0.000101  -0.001773  -0.000730   0.000250   0.000031
    19  C    0.017733   0.014529   0.005069   0.007244  -0.001071  -0.103093
    20  C   -0.075927  -0.077881   0.023595  -0.007211   0.001468   0.008481
    21  H   -0.004799   0.002685  -0.000098  -0.000014   0.000002   0.000047
    22  C    0.000661   0.005336  -0.002556  -0.001256  -0.000478   0.010140
    23  H   -0.000013   0.000025   0.000001   0.000000   0.000000   0.000179
    24  H    0.000037  -0.000136  -0.000013   0.000001   0.000000   0.000092
    25  H    0.000000   0.000049  -0.000006  -0.000001   0.000000   0.001093
    26  C    0.003190  -0.008524   0.004046  -0.001375  -0.000511   0.034452
    27  H   -0.000074  -0.000129   0.000024   0.000006   0.000006  -0.000396
    28  H    0.000001  -0.000023  -0.000003   0.000000   0.000000   0.000087
    29  H    0.000012   0.000062  -0.000001   0.000001   0.000000  -0.001926
    30  C    0.444209   0.431557  -0.019473   0.004750   0.000697  -0.002554
    31  H    0.466829  -0.013624   0.000044   0.000164  -0.000014   0.000002
    32  H   -0.013624   0.447280  -0.005686  -0.002929  -0.000017  -0.000001
    33  O    0.000044  -0.005686   7.968013   0.312814   0.322861   0.000000
    34  H    0.000164  -0.002929   0.312814   0.365736  -0.027060  -0.000003
    35  H   -0.000014  -0.000017   0.322861  -0.027060   0.332704  -0.000002
    36  O    0.000002  -0.000001   0.000000  -0.000003  -0.000002   8.045703
    37  H    0.000000  -0.000001   0.000005   0.000001   0.000001   0.297013
    38  H    0.000005   0.000036   0.000102  -0.000002   0.000001   0.262876
              37         38
     1  C   -0.004736  -0.015516
     2  C    0.001146   0.011650
     3  C   -0.011313  -0.002518
     4  C    0.010750  -0.032234
     5  C    0.011437   0.094758
     6  C    0.007722  -0.011310
     7  H    0.000004   0.000003
     8  H   -0.000003   0.000000
     9  H   -0.001448   0.000007
    10  H   -0.000011  -0.000126
    11  C   -0.024415  -0.142150
    12  C    0.003062   0.009086
    13  C   -0.007735  -0.019076
    14  H    0.000013  -0.000118
    15  C   -0.000354   0.009754
    16  H   -0.000001   0.000006
    17  O    0.010487  -0.013959
    18  Cl  -0.000022  -0.000017
    19  C    0.028431   0.205745
    20  C   -0.001456  -0.034110
    21  H   -0.000001  -0.000045
    22  C   -0.005426  -0.017348
    23  H    0.000000  -0.000041
    24  H   -0.000005   0.000071
    25  H   -0.000021  -0.003254
    26  C   -0.008958  -0.036341
    27  H    0.000028  -0.000424
    28  H    0.000003  -0.000164
    29  H    0.000142   0.001243
    30  C    0.001119   0.010320
    31  H    0.000000   0.000005
    32  H   -0.000001   0.000036
    33  O    0.000005   0.000102
    34  H    0.000001  -0.000002
    35  H    0.000001   0.000001
    36  O    0.297013   0.262876
    37  H    0.363341  -0.016293
    38  H   -0.016293   0.483659
 Mulliken charges:
               1
     1  C   -0.009329
     2  C   -0.188613
     3  C   -0.002238
     4  C   -0.237073
     5  C   -0.444616
     6  C    0.054514
     7  H    0.166012
     8  H    0.176399
     9  H    0.230188
    10  H    0.167875
    11  C    0.369102
    12  C    0.228838
    13  C   -0.417817
    14  H    0.195494
    15  C   -0.151292
    16  H    0.179146
    17  O   -0.460233
    18  Cl  -0.171655
    19  C   -0.002019
    20  C   -0.021282
    21  H    0.175363
    22  C   -0.377069
    23  H    0.169073
    24  H    0.156859
    25  H    0.178630
    26  C   -0.549818
    27  H    0.164322
    28  H    0.170304
    29  H    0.167726
    30  C   -0.381735
    31  H    0.167877
    32  H    0.211814
    33  O   -0.628888
    34  H    0.343743
    35  H    0.364839
    36  O   -0.597660
    37  H    0.347493
    38  H    0.255724
 Sum of Mulliken charges =   0.00000
 Mulliken charges with hydrogens summed into heavy atoms:
               1
     1  C    0.156683
     2  C   -0.012214
     3  C   -0.002238
     4  C   -0.237073
     5  C   -0.214427
     6  C    0.222389
    11  C    0.369102
    12  C    0.228838
    13  C   -0.222324
    15  C    0.027854
    17  O   -0.460233
    18  Cl  -0.171655
    19  C   -0.002019
    20  C    0.154081
    22  C    0.127493
    26  C   -0.047465
    30  C   -0.002043
    33  O    0.079694
    36  O    0.005557
 APT charges:
               1
     1  C    0.000667
     2  C   -0.092261
     3  C    0.008023
     4  C   -0.071908
     5  C   -0.085652
     6  C   -0.043308
     7  H    0.050482
     8  H    0.074071
     9  H    0.078725
    10  H    0.052003
    11  C    0.754086
    12  C    0.291667
    13  C   -0.238043
    14  H    0.077496
    15  C    0.017704
    16  H    0.076165
    17  O   -1.237365
    18  Cl  -0.360338
    19  C    0.770307
    20  C   -0.058329
    21  H    0.034021
    22  C   -0.081167
    23  H    0.007869
    24  H    0.016434
    25  H    0.022494
    26  C   -0.034872
    27  H    0.013191
    28  H    0.007913
    29  H    0.006483
    30  C   -0.146365
    31  H    0.049634
    32  H    0.075953
    33  O   -0.553328
    34  H    0.263868
    35  H    0.255840
    36  O   -0.627026
    37  H    0.273384
    38  H    0.351483
 Sum of APT charges =   0.00000
 APT charges with hydrogens summed into heavy atoms:
               1
     1  C    0.051148
     2  C   -0.018190
     3  C    0.008023
     4  C   -0.071908
     5  C   -0.006927
     6  C    0.008694
    11  C    0.754086
    12  C    0.291667
    13  C   -0.160547
    15  C    0.093869
    17  O   -1.237365
    18  Cl  -0.360338
    19  C    0.770307
    20  C   -0.024308
    22  C   -0.034370
    26  C   -0.007285
    30  C   -0.020777
    33  O   -0.033620
    36  O   -0.002159
 Electronic spatial extent (au):  <R**2>=           5738.9370
 Charge=              0.0000 electrons
 Dipole moment (field-independent basis, Debye):
    X=              1.5596    Y=             -0.0931    Z=             -0.6278  Tot=              1.6839
 Quadrupole moment (field-independent basis, Debye-Ang):
   XX=           -115.9146   YY=           -116.5517   ZZ=           -134.2577
   XY=            -17.0805   XZ=              1.3505   YZ=             13.1032
 Traceless Quadrupole moment (field-independent basis, Debye-Ang):
   XX=              6.3267   YY=              5.6896   ZZ=            -12.0163
   XY=            -17.0805   XZ=              1.3505   YZ=             13.1032
 Octapole moment (field-independent basis, Debye-Ang**2):
  XXX=             34.0774  YYY=             -4.6096  ZZZ=            -24.1519  XYY=            -20.4879
  XXY=             -3.5735  XXZ=              8.5193  XZZ=              2.8163  YZZ=             10.5472
  YYZ=             11.6953  XYZ=              5.2306
 Hexadecapole moment (field-independent basis, Debye-Ang**3):
 XXXX=          -4312.1854 YYYY=          -1872.5603 ZZZZ=          -1277.4589 XXXY=           -114.6241
 XXXZ=            -56.8269 YYYX=            -89.2213 YYYZ=             57.7990 ZZZX=             39.1908
 ZZZY=             58.6471 XXYY=          -1091.7425 XXZZ=          -1001.8479 YYZZ=           -529.9747
 XXYZ=             61.2945 YYXZ=             39.3350 ZZXY=            -47.0009
 N-N= 1.624081747658D+03 E-N=-6.227051704142D+03  KE= 1.264451774508D+03
  Exact polarizability: 294.037  -8.381 259.006  -3.848  30.399 188.883
 Approx polarizability: 265.334  -4.755 253.360  -3.743  31.445 192.857
 D2PCM: PCM CHGder 2nd derivatives, FixD1E=F FixD2E=F DoIter=F DoCFld=F I1PDM=0
 Calling FoFJK, ICntrl=    100127 FMM=F ISym2X=0 I1Cent= 0 IOpClX= 0 NMat=1 NMatS=1 NMatT=0.
 Full mass-weighted force constant matrix:
 Low frequencies ---   -9.9812   -0.0014   -0.0011    0.0024    7.1207   15.1262
 Low frequencies ---   27.4652   36.3326   42.3557
 Diagonal vibrational polarizability:
      205.3334759     186.1306997     197.4190145
 Harmonic frequencies (cm**-1), IR intensities (KM/Mole), Raman scattering
 activities (A**4/AMU), depolarization ratios for plane and unpolarized
 incident light, reduced masses (AMU), force constants (mDyne/A),
 and normal coordinates:
                      1                      2                      3
                      A                      A                      A
 Frequencies --     26.3814                35.9065                41.9815
 Red. masses --      6.7559                 4.9497                 6.0644
 Frc consts  --      0.0028                 0.0038                 0.0063
 IR Inten    --      3.1901                 1.1167                 2.2860
  Atom  AN      X      Y      Z        X      Y      Z        X      Y      Z
     1   6     0.04   0.06  -0.05     0.02  -0.08   0.18     0.01   0.05  -0.02
     2   6     0.03   0.06  -0.05     0.02  -0.05   0.13     0.00   0.04   0.02
     3   6     0.02   0.04   0.00     0.02  -0.01   0.03     0.00   0.03   0.02
     4   6     0.02   0.01   0.05     0.02   0.00   0.00     0.00   0.04   0.00
     5   6     0.03   0.01   0.05     0.03  -0.02   0.05     0.01   0.06  -0.04
     6   6     0.03   0.03   0.00     0.02  -0.06   0.14     0.01   0.06  -0.05
     7   1     0.04   0.08  -0.08     0.02  -0.11   0.26     0.01   0.06  -0.03
     8   1     0.03   0.09  -0.09     0.02  -0.06   0.16     0.00   0.03   0.04
     9   1     0.03  -0.02   0.09     0.03  -0.01   0.01     0.01   0.07  -0.06
    10   1     0.04   0.03   0.00     0.02  -0.08   0.17     0.01   0.08  -0.08
    11   6     0.02  -0.02   0.09     0.03   0.03  -0.07     0.00   0.04   0.00
    12   6     0.02   0.04  -0.01     0.03   0.02  -0.03     0.00   0.02   0.04
    13   6     0.01  -0.02   0.10     0.03   0.06  -0.12     0.00   0.03   0.01
    14   1     0.00  -0.04   0.13     0.04   0.08  -0.17     0.00   0.03   0.01
    15   6     0.01   0.01   0.04     0.03   0.05  -0.10     0.00   0.02   0.03
    16   1     0.00   0.02   0.04     0.04   0.07  -0.15    -0.01   0.02   0.05
    17   8     0.02  -0.03   0.12     0.03   0.04  -0.07     0.00   0.05  -0.03
    18  17     0.02   0.09  -0.11     0.02   0.00   0.00    -0.01   0.00   0.10
    19   6     0.02   0.00   0.04     0.03   0.02   0.02     0.00   0.03   0.01
    20   6     0.08  -0.01   0.02    -0.04   0.03   0.05    -0.02   0.05   0.05
    21   1     0.09   0.01  -0.01    -0.02   0.02   0.11    -0.04   0.02   0.07
    22   6    -0.05   0.02   0.03     0.13  -0.01   0.04     0.03  -0.01   0.02
    23   1    -0.04   0.06  -0.02     0.14   0.00   0.11     0.02  -0.03   0.05
[...]
 16552,-0.00000165,-0.00002941,-0.00022802,-0.00002803,0.00011696,0.000
 00640,0.00000176,-0.00000621,0.00001083,-0.00000560,-0.00001660,0.0000
 2282,0.00001033,0.00001415,-0.00005986,-0.00009505,0.00013923,-0.00016
 206,-0.00001017,-0.00002981,-0.00000056,-0.00001734,-0.00002374,0.0000
 0323,0.00005205,0.00008976,0.00000071,0.00005776,0.00117306,0.00018282
 ,-0.00000989,-0.00010542,-0.00013554,-0.00134838,-0.00089140,-0.000438
 74,-0.01033598,0.02980943,0.02962508,0.01246659,0.00006889,0.00013286,
 0.00009923,0.00023223,-0.00032154,-0.00024975,0.00056930,0.00000066,0.
 00002277,-0.00021701,-0.00069839,-0.00001336,0.00003771,-0.00052097,-0
 .00035501,-0.00018740,0.00004428,0.00006609,-0.00001705,0.00002887,0.0
 0001587,-0.00004035,0.00001705,0.00002044,0.00000511,0.00000781,0.0000
 3390,-0.00001363,0.00003316,0.00002038,-0.00080690,0.00014223,0.000204
 78,0.00039392,0.00054049,0.00054006,0.00043554,0.00018596,-0.00009186,
 0.00008851,0.00001221,-0.00018706,-0.00009470,-0.00013029,0.00032273,-
 0.00005000,-0.00005477,-0.00030578,0.00042479,-0.00020626,-0.00003698,
 -0.00030893,-0.00017344,-0.00008090,-0.00043418,0.00025492,0.00006553,
 0.00014557,-0.00018340,-0.00015366,0.00004348,-0.00001784,-0.00005538,
 0.00007776,-0.00006419,-0.00000616,0.00003263,0.00000181,-0.00001700,-
 0.00001929,0.00002855,0.00000745,-0.00001712,-0.00000740,0.00001556,0.
 00005955,-0.00005299,0.00002535,-0.00001754,0.00000500,-0.00001067,0.0
 0003376,0.00000746,-0.00000166,-0.00001894,-0.00001245,0.00000156,-0.0
 0017996,0.00017684,0.00024057,0.00026734,-0.00014192,0.00001655,-0.000
 39822,0.00005244,-0.00012264,0.03221759,-0.11663283,-0.14754141,-0.037
 30381,0.13800413,0.00006269,-0.00011759,-0.00008250,-0.00005936,-0.000
 04861,-0.00001430,0.00016561,0.00091598,-0.00020199,-0.00040947,0.0009
 4164,-0.00076848,0.00007306,-0.00007224,-0.00001172,0.00002635,-0.0002
 0055,-0.00010578,0.00001382,-0.00003692,-0.00000276,0.00003114,-0.0000
 0868,0.00003100,-0.00003645,-0.00004145,0.00001455,0.00000791,-0.00003
 530,-0.00000427,0.00117559,0.00130538,0.00063041,-0.00155879,0.0002104
 2,-0.00018558,0.00084752,-0.00060424,0.00033173,-0.00005198,0.00001324
 ,0.00007254,-0.00054082,-0.00098975,-0.00073622,0.00002157,0.00002363,
 0.00002357,-0.00132629,-0.00037530,-0.00027121,0.00043443,0.00011520,0
 .00002408,0.00059965,-0.00030174,0.00006176,0.00006914,-0.00020819,-0.
 00006178,0.00001452,0.00002704,-0.00010200,-0.00007550,0.00011420,0.00
 002375,-0.00004170,-0.00000386,0.00001801,0.00000249,-0.00004846,-0.00
 003199,0.00001656,0.00000363,-0.00003152,-0.00008151,0.00009232,-0.000
 02895,0.00000092,-0.00001736,-0.00000501,-0.00003767,-0.00001883,-0.00
 000555,0.00002589,0.00003172,-0.00000102,-0.00001431,0.00031584,-0.000
 02588,-0.00006074,0.00000747,-0.00001411,-0.00046630,-0.00028076,0.000
 09068,0.04850145,-0.20282640,-0.44260003,-0.04386180,0.19159361,0.4412
 6959,0.00006511,0.00025062,0.00041472,-0.00048751,-0.00017828,0.000064
 44,0.00028368,-0.00005027,-0.00034168,0.00008915,0.00050032,-0.0000234
 5,-0.00014422,-0.00035582,-0.00049278,0.00024729,0.00005732,-0.0001115
 5,-0.00004346,0.00005575,-0.00005004,-0.00008431,0.00005097,-0.0001370
 0,-0.00009641,-0.00012247,0.00013149,-0.00001855,-0.00001645,0.0000136
 4,0.00008575,0.00042049,0.00029703,0.00026620,-0.00019955,0.00002338,-
 0.00002450,0.00000869,-0.00004947,-0.00001122,-0.00001204,0.00001436,0
 .00006671,0.00004522,0.00007124,-0.00001327,0.00000078,-0.00003255,-0.
 00029475,-0.00017374,-0.00022863,-0.00028354,-0.00007339,-0.00001065,-
 0.00011509,0.00002091,0.00008665,0.00006704,-0.00014232,-0.00002613,0.
 00005253,0.00001302,-0.00003790,0.00002348,0.00000108,-0.00000325,0.00
 000905,-0.00000395,-0.00000814,-0.00000675,-0.00000590,-0.00000184,-0.
 00000055,0.00000388,-0.00000608,-0.00000085,0.00001653,0.00002558,-0.0
 0002906,-0.00001037,-0.00001959,0.00001096,-0.00001139,-0.00001168,0.0
 0000120,0.00001426,-0.00000783,-0.00030868,0.00005062,0.00016423,0.000
 17629,-0.00010371,-0.00007702,-0.00041610,0.00033585,0.00002733,-0.056
 59616,0.15928103,-0.02155291,-0.00127505,0.00499620,-0.00347004,0.0588
 0385,0.00024815,-0.00022687,-0.00021868,-0.00005022,0.00024534,0.00031
 074,-0.00002987,0.00000445,0.00061849,0.00001634,0.00003612,0.00093603
 ,-0.00043345,0.00024036,0.00006489,0.00027984,-0.00033405,-0.00045261,
 -0.00001256,-0.00001895,0.00001177,-0.00002352,0.00002294,-0.00005475,
 -0.00004925,-0.00002125,0.00003565,-0.00000487,-0.00005622,0.00003955,
 0.00007952,0.00029233,0.00016760,-0.00003475,-0.00012216,0.00004938,0.
 00005703,-0.00034143,0.00000631,-0.00001232,-0.00001425,-0.00001036,0.
 00012629,-0.00029035,-0.00011197,0.00000875,-0.00000273,-0.00001990,-0
 .00004844,-0.00015336,-0.00008843,-0.00010105,-0.00006641,-0.00003269,
 -0.00002741,0.00003372,-0.00005184,-0.00004453,0.00009484,0.00000677,0
 .00000480,0.00000817,0.00004835,0.00000997,-0.00001928,0.00000169,0.00
 000089,0.00000092,-0.00000385,-0.00000337,-0.00000261,-0.00000961,-0.0
 0000161,-0.00000165,0.00001210,0.00001867,-0.00001673,0.00004225,-0.00
 000719,0.00001193,-0.00001106,0.00000529,-0.00000347,-0.00000661,-0.00
 001345,-0.00001766,0.00000578,-0.00013758,-0.00014224,-0.00000523,0.00
 000822,0.00001364,0.00001472,0.00027863,0.00011761,-0.00004044,0.15682
 197,-0.45540057,0.05455538,0.00772387,-0.02043362,0.01048033,-0.164643
 91,0.47654405,0.00007358,0.00005001,-0.00007120,-0.00044834,0.00034190
 ,0.00013397,-0.00085587,-0.00018088,-0.00061200,0.00066972,0.00042910,
 -0.00034510,0.00008914,0.00068605,0.00019352,0.00001791,0.00000040,-0.
 00015463,0.00004973,-0.00008464,0.00002265,0.00005131,-0.00001889,0.00
 001456,-0.00006433,-0.00007273,0.00003577,0.00000051,-0.00012457,0.000
 02181,0.00114429,-0.00020965,-0.00015074,-0.00046609,-0.00067416,-0.00
 026053,-0.00015085,-0.00002502,-0.00011140,-0.00001844,0.00003492,0.00
 004929,0.00021508,0.00010478,-0.00004993,-0.00000373,0.00002673,0.0000
 5759,-0.00092759,-0.00002214,-0.00011233,0.00026702,0.00016232,0.00006
 624,0.00045980,-0.00020008,0.00000115,-0.00006718,-0.00004635,0.000004
 56,0.00000450,0.00003329,-0.00000511,-0.00007756,0.00004401,0.00000973
 ,-0.00003134,0.00000710,0.00002052,0.00000890,-0.00002675,-0.00002270,
 0.00001557,0.00000084,-0.00001244,-0.00005393,0.00004981,0.00002468,0.
 00000489,-0.00000572,-0.00000290,-0.00002975,-0.00001004,-0.00000749,0
 .00001372,0.00000416,-0.00000167,-0.00005959,0.00001627,-0.00008308,-0
 .00000126,0.00001577,-0.00000061,0.00010254,0.00001313,0.00010152,-0.0
 4045988,0.11004036,-0.06026870,0.01515975,-0.04410310,0.00272043,0.025
 35124,-0.06629866,0.05882086,0.00000467,-0.00020067,-0.00016195,-0.000
 16261,0.00011159,0.00003415,0.00021812,0.00019876,-0.00000291,0.000189
 74,0.00015926,0.00043443,-0.00062675,-0.00038629,0.00114315,0.00051109
 ,-0.00055162,0.00012384,-0.00003753,0.00001597,-0.00002658,0.00000761,
 -0.00000146,-0.00001192,-0.00047157,0.00008519,-0.00050050,-0.00001270
 ,0.00002249,-0.00003601,-0.00195340,0.00012260,-0.00048602,0.00028636,
 0.00003249,0.00004615,0.00040419,0.00031946,0.00018923,-0.00002592,-0.
 00007919,-0.00004875,-0.00015894,-0.00005716,-0.00001785,0.00001081,0.
 00000223,-0.00000391,0.00303501,0.00116188,-0.00052133,-0.00002597,-0.
 00004773,-0.00001424,-0.00063267,-0.00058817,0.00055808,0.00031381,-0.
 00017869,0.00002899,-0.00002501,-0.00004370,0.00000259,-0.00003593,-0.
 00013167,0.00045557,0.00000312,0.00017365,-0.00010807,-0.00001294,0.00
 034317,-0.00005363,-0.00020877,-0.00003810,-0.00057610,-0.00052885,-0.
 00066285,0.00032984,0.00002188,0.00009349,-0.00010680,-0.00000104,0.00
 033475,-0.00018845,0.00032489,0.00055285,-0.00018146,0.00004348,0.0001
 7385,-0.00006551,-0.00000354,-0.00000223,-0.00004836,-0.00002417,-0.00
 001500,-0.00000036,0.00008086,-0.00007945,0.00008346,-0.00005138,0.000
 06962,-0.00003900,-0.00000732,0.00003267,-0.00008677,0.51891063,-0.000
 31292,-0.00003371,-0.00004943,-0.00000410,0.00025724,0.00009298,0.0003
 1256,-0.00013732,0.00000270,-0.00016129,-0.00025635,-0.00000681,-0.000
 56398,-0.00012974,-0.00014513,0.00023526,0.00007846,-0.00006308,-0.000
 03338,0.00000859,0.00002444,-0.00002398,0.00001662,0.00000705,0.000384
 50,-0.00021361,0.00000663,-0.00009594,0.00007609,0.00016622,0.00472034
 ,0.00196686,0.00050286,0.00008480,0.00019845,0.00010843,-0.00081783,-0
 .00065968,-0.00006663,0.00001337,0.00010666,-0.00002469,0.00043391,0.0
 0019870,0.00000313,-0.00004992,-0.00002557,-0.00001991,-0.00208500,-0.
 00602381,0.00432775,-0.00036011,-0.00008544,-0.00005664,-0.00217451,0.
 00055479,-0.00029211,0.00034845,0.00009893,0.00000429,0.00002975,-0.00
 013586,0.00005788,0.00073991,0.00082173,-0.00087207,0.00015193,-0.0004
 5736,0.00023134,-0.00004341,-0.00006779,0.00009344,-0.00039538,-0.0004
 5110,0.00052936,0.00018223,0.00012965,-0.00014798,0.00000872,-0.000076
 99,0.00014619,0.00008304,-0.00003460,0.00007624,-0.00004444,-0.0001498
 5,-0.00006949,0.00001056,-0.00014806,0.00011504,-0.00001491,-0.0000633
 3,0.00002584,0.00000984,0.00002263,-0.00009925,-0.00011317,0.00000289,
 0.00014069,0.00008385,0.00005026,-0.00007837,0.00004330,-0.00005488,-0
 .00009077,-0.14623878,0.36604913,-0.00007558,0.00001585,0.00023590,0.0
 0036224,0.00002083,0.00007578,0.00010909,-0.00004040,0.00005267,0.0005
 7555,-0.00056125,-0.00034428,-0.00032175,0.00001360,-0.00160654,-0.000
 04561,0.00052498,-0.00009693,0.00010494,-0.00000487,-0.00000799,0.0000
 1734,0.00004062,-0.00003805,0.00053618,0.00014571,0.00117716,-0.000088
 37,0.00003835,-0.00000825,-0.00269428,-0.00086602,-0.00078047,-0.00017
 081,-0.00003595,-0.00003719,0.00034779,0.00058789,0.00044494,-0.000013
 80,0.00004731,-0.00010300,-0.00004274,0.00004270,0.00011395,0.00004469
 ,0.00005280,-0.00001394,0.00059073,0.00469962,-0.00131389,0.00026700,0
 .00011073,0.00007829,0.00179039,-0.00037098,-0.00091271,-0.00030039,0.
 00017798,0.00030162,-0.00006256,0.00014505,-0.00010096,0.00008225,0.00
 011045,-0.00004068,0.00000245,-0.00009690,0.00017767,0.00000745,0.0001
 2068,-0.00001074,-0.00038822,-0.00019643,-0.00005426,-0.00029496,-0.00
 025759,0.00041004,0.00007171,-0.00006425,0.00015406,-0.00007494,0.0001
 7874,-0.00006062,-0.00001264,0.00023931,-0.00033264,0.00003192,0.00001
 404,0.00002493,-0.00003331,0.00001224,-0.00001668,-0.00002263,-0.00004
 300,0.00005708,0.00006791,0.00010574,-0.00002550,-0.00002324,-0.000066
 48,0.00001289,-0.00005339,-0.00005131,0.00004154,-0.00471348,-0.281126
 49,0.25356251,-0.00012971,0.00004334,-0.00005610,-0.00008918,0.0000335
 5,-0.00001471,0.00002120,-0.00013683,-0.00000641,-0.00003134,-0.000088
 17,0.00005241,0.00060353,0.00007974,-0.00006828,-0.00019442,0.00026352
 ,-0.00009830,-0.00001476,-0.00000732,0.00002152,-0.00000969,-0.0000051
 4,0.00001465,-0.00007516,-0.00001969,-0.00022394,0.00003324,-0.0000184
 6,0.00005151,0.00109993,0.00042984,0.00015299,-0.00008585,0.00001442,-
 0.00001157,-0.00019061,-0.00016189,-0.00006927,-0.00000011,0.00001927,
 0.00000294,0.00012363,0.00003020,0.00000989,-0.00000958,-0.00000600,0.
 00000269,-0.00063627,-0.00106982,0.00049715,-0.00004075,0.00000204,-0.
 00001023,-0.00030629,0.00019870,-0.00008286,0.00004408,0.00000955,-0.0
 0002615,0.00000942,-0.00001626,0.00001450,0.00010921,-0.00010795,0.000
 04879,0.00002120,-0.00004348,0.00000668,-0.00000388,-0.00000058,-0.000
 01776,-0.00015411,0.00013680,0.00001910,0.00000107,-0.00010021,0.00002
 867,-0.00001459,0.00004185,-0.00002939,0.00002314,-0.00001073,0.,-0.00
 006553,0.00004989,-0.00000392,-0.00001478,-0.00002862,0.00001579,0.000
 00245,-0.00000467,0.00000580,0.00001070,0.00000726,-0.00000886,-0.0000
 3235,0.00001499,-0.00001538,0.00001948,-0.00001130,0.00000569,0.000011
 16,-0.00001205,0.00002000,-0.47326897,0.17883731,-0.03574070,0.4759568
 2,0.00019515,0.00010856,0.00009248,0.00009993,-0.00018278,-0.00002617,
 -0.00036658,-0.00000419,-0.00010699,0.00005059,0.00018913,-0.00003698,
 0.00015277,0.00016095,-0.00024231,-0.00025159,0.00010831,0.00008833,0.
 00004849,-0.00000305,-0.00000854,0.00000887,-0.00000418,-0.00000924,0.
 00007262,0.00011268,0.00014793,0.00004542,-0.00004498,-0.00015340,0.00
 034452,-0.00048070,0.00011294,-0.00015550,-0.00010058,-0.00002825,-0.0
 0001745,-0.00001491,-0.00008381,0.00000563,0.00000351,0.00003549,-0.00
 003279,-0.00003804,-0.00003215,0.00000364,0.00000432,0.00000604,-0.000
 53628,-0.00022884,0.00029121,0.00012129,0.00005024,0.00002386,0.000200
 01,0.00006973,-0.00009158,-0.00005589,0.00000141,-0.00000652,0.0000041
 3,0.00002101,-0.00000576,0.00002679,-0.00006995,-0.00007847,-0.0000305
 0,-0.00002625,0.00000526,0.00001783,-0.00009377,0.00000994,0.00002358,
 0.00003542,0.00010438,-0.00003213,0.00011687,-0.00004695,0.00000007,-0
 .00000003,-0.00001148,-0.00001958,-0.00000052,0.00000344,0.00008084,-0
 .00015517,0.00010775,-0.00001401,-0.00000501,-0.00001404,0.00000023,0.
 00001174,0.00000157,0.00000402,0.00000610,0.00001578,0.00002153,0.0000
 3418,-0.00008470,-0.00000961,-0.00004442,0.00003771,-0.00001921,0.0000
 0952,0.00006643,0.13696876,-0.07911020,0.03338520,-0.17361655,0.091681
 42,0.00019679,-0.00003600,-0.00008717,-0.00025671,-0.00007909,-0.00012
 129,-0.00008358,0.00015796,-0.00004058,-0.00014190,0.00044265,0.000344
 53,-0.00002140,-0.00009859,0.00071110,0.00019220,-0.00044997,0.0001133
 0,-0.00006493,0.00000833,0.00000664,-0.00001039,-0.00003451,0.00002766
 ,-0.00047589,0.00014798,-0.00065996,0.00004828,-0.00002893,-0.00006795
 ,-0.00032443,0.00019429,-0.00005690,0.00020651,-0.00004244,0.00001722,
 0.00021821,-0.00003076,-0.00006700,0.00000303,-0.00002739,0.00000586,-
 0.00014224,-0.00006181,-0.00003942,-0.00000156,-0.00002202,0.00000914,
 0.00063848,0.00039136,-0.00034172,-0.00011324,-0.00006082,-0.00004249,
 -0.00012238,-0.00013965,0.00004467,0.00002939,-0.00000948,0.00000581,0
 .00000556,-0.00000795,0.00000677,0.00007141,-0.00015866,-0.00002061,0.
 00001226,-0.00001513,-0.00000471,-0.00000436,-0.00006746,0.00004278,-0
 .00002925,0.00028340,0.00003400,-0.00012989,-0.00007294,0.00005851,-0.
 00000781,0.00001546,-0.00002861,0.00000930,0.00005558,-0.00005152,0.00
 009633,0.00007318,-0.00008531,-0.00000138,0.00001156,0.00000361,0.0000
 0327,-0.00000679,-0.00000167,-0.00000073,0.00000643,-0.00000351,-0.000
 01227,-0.00007709,0.00002425,-0.00000430,0.00004326,-0.00000437,0.0000
 2343,0.00004468,-0.00003581,0.00132864,0.02245461,-0.02131647,0.030351
 62,-0.03513599,0.02408251,0.00016117,0.00015479,0.00018942,0.00024724,
 -0.00016961,-0.00007966,-0.00035198,-0.00017915,-0.00003936,-0.0005264
 1,-0.00020914,-0.00023143,-0.00050255,-0.00000891,0.00003836,-0.000306
 60,0.00039702,-0.00012159,0.00006027,-0.00000999,0.00001345,0.00001081
 ,0.00000114,-0.00000362,0.00007349,0.00009880,0.00140012,0.00002192,-0
 .00004536,-0.00001259,0.00110929,-0.00214707,0.00132474,-0.00028576,0.
 00004858,-0.00001273,-0.00053646,-0.00027815,-0.00020586,0.00003475,0.
 00009476,0.00007317,0.00020357,0.00006652,-0.00003028,-0.00000542,0.00
 000671,-0.00000014,-0.00425578,-0.00036543,0.00009163,0.00008863,0.000
 06616,0.00003721,0.00109942,0.00201809,-0.00128624,-0.00059248,0.00027
 528,0.00000548,0.00002104,0.00008130,-0.00002845,-0.00019361,0.0005560
 7,-0.00044485,0.00000041,-0.00020357,0.00010668,0.00002318,-0.00039784
 ,0.00001633,-0.00016709,0.00047665,0.00093707,0.00058763,0.00125436,-0
 .00077671,0.00005104,-0.00020582,0.00021546,0.00005106,-0.00056111,0.0
 0036784,-0.00167457,-0.00079152,-0.00014040,-0.00004299,-0.00023590,0.
 00008655,0.00000659,0.00000708,0.00006147,0.00002094,0.00000785,0.0000
 0514,-0.00007005,0.00007309,-0.00008026,0.00004477,-0.00006313,0.00003
 571,-0.00000207,-0.00002948,0.00008331,-0.04609028,-0.03318057,0.04016
 377,-0.00272229,0.03666097,-0.03148609,0.05440918,0.00011277,-0.000091
 82,-0.00017009,-0.00016012,-0.00009314,-0.00002352,-0.00012227,0.00008
 912,-0.00006602,0.00044758,0.00010774,0.00024745,0.00050162,0.00039030
 ,0.00115534,0.00001181,-0.00051369,0.00000611,-0.00001879,-0.00001761,
 -0.00003289,0.00003556,-0.00002061,-0.00000536,-0.00060393,0.00029625,
 -0.00051918,0.00007484,-0.00008355,-0.00004673,-0.00960451,-0.00419162
 ,-0.00030373,0.00004125,-0.00001598,-0.00003455,0.00131016,0.00124823,
 0.00035068,-0.00001710,-0.00009739,-0.00004538,-0.00044135,-0.00027321
 ,-0.00000535,0.00009686,0.00004969,0.00002460,0.00351167,0.00370914,-0
 .00244989,0.00049707,0.00010304,0.00007683,0.00500147,-0.00291086,0.00
 081008,-0.00069047,0.00005986,0.00013743,-0.00006336,0.00027736,-0.000
 14545,-0.00057302,-0.00072298,0.00030192,-0.00020830,0.00042829,0.0000
 4324,0.00003101,0.00009732,-0.00006334,0.00074440,-0.00026851,-0.00101
 394,0.00017701,0.00026456,0.00010095,-0.00001027,0.00005354,-0.0001206
 3,-0.00023263,-0.00017013,-0.00008288,-0.00011902,0.00031295,0.0001532
 2,-0.00000758,0.00017947,-0.00014095,0.00000429,0.00008472,-0.00002197
 ,-0.00003154,-0.00004529,0.00015554,0.00013472,-0.00003028,-0.00012482
 ,-0.00010382,-0.00003026,0.00008523,-0.00004401,0.00006481,0.00006676,
 0.00832807,-0.28232244,0.24295148,-0.00474658,-0.01211758,0.01233273,-
 0.00326346,0.29620056,-0.00006053,0.00012876,-0.00005047,-0.00016048,-
 0.00004663,-0.00001207,-0.00008623,-0.00005031,-0.00001198,-0.00057989
 ,0.00054335,0.00004342,0.00142894,0.00064741,-0.00030910,-0.00039458,-
 0.00022234,-0.00005288,-0.00008631,-0.00000443,0.00000400,-0.00002173,
 -0.00001449,0.00001824,0.00102333,-0.00067460,-0.00212152,0.00000989,0
 .00001260,0.00005769,0.00499088,0.00129697,0.00121574,0.00002823,-0.00
 003081,-0.00003034,-0.00084977,-0.00086328,-0.00058785,0.00001388,-0.0
 0004439,0.00012714,0.00009441,-0.00001180,-0.00011851,-0.00007455,-0.0
 0004797,-0.00000486,-0.00128062,-0.00225867,-0.00195683,-0.00028592,-0
 .00009796,-0.00005940,-0.00323546,0.00105707,0.00149571,0.00060475,-0.
 00033657,-0.00045880,0.00007940,-0.00025450,0.00017081,-0.00016368,-0.
 00050092,0.00066751,-0.00002656,0.00031616,-0.00041046,-0.00002610,0.0
 0005433,-0.00011001,0.00095936,-0.00065836,-0.00067012,0.00028316,0.00
 010596,-0.00044865,-0.00008796,0.00007597,-0.00021976,0.00018414,-0.00
 021848,0.00009748,-0.00043939,-0.00011169,0.00044626,-0.00003403,-0.00
 000162,-0.00002504,0.00003415,-0.00001789,0.00001563,0.00002606,0.0000
 5549,-0.00008968,-0.00007915,-0.00006150,0.00003760,0.00003691,0.00004
 316,-0.00002796,0.00004482,0.00001555,-0.00003201,0.00324184,0.2540917
 5,-0.22969925,0.00516144,0.00166759,-0.00246129,-0.01027264,-0.2535829
 1,0.23557160\\-0.00000571,0.00000378,-0.00000927,-0.00000636,-0.000001
 16,-0.00000870,0.00000233,-0.00000175,0.00000722,0.00000032,-0.0000124
 0,0.00000057,0.00000090,0.00000856,-0.00001407,-0.00000365,0.00000189,
 -0.00001401,-0.00000111,-0.00000050,-0.00001899,0.00000083,-0.00000858
 ,-0.00000016,-0.00000123,0.00000475,-0.00001374,-0.00000351,0.00000731
 ,-0.00002455,0.00000466,0.00000702,0.00000579,-0.00000367,-0.00001465,
 0.00000250,0.00000012,-0.00000349,0.00000846,0.00000470,-0.00000913,0.
 00001450,0.00000359,-0.00000668,0.00001680,0.00000237,-0.00001518,0.00
 002014,-0.00000113,0.00000057,-0.00000379,0.00000173,-0.00001273,0.000
 01512,0.00000746,-0.00000283,0.00000942,0.00000142,0.00001438,-0.00000
 113,0.00000209,0.00000307,0.00001280,-0.00000757,-0.00001039,-0.000002
 89,0.00000053,-0.00000473,0.00000562,0.00000139,-0.00001467,0.00000956
 ,0.00000123,-0.00001296,-0.00000150,-0.00000225,0.00000943,-0.00001151
 ,-0.00000012,0.00001351,-0.00000805,0.00000163,0.00000590,-0.00000342,
 -0.00000293,-0.00000043,-0.00001205,0.00000487,0.00001363,0.00002019,0
 .00000510,0.00002015,0.00001837,0.00000003,0.00001056,0.00000495,0.000
 00517,0.00001842,0.00000696,0.00000536,0.00000895,0.00001409,0.0000018
 6,0.00001588,0.00000656,-0.00000979,-0.00001188,-0.00001622,-0.0000016
 0,-0.00001337,-0.00002168,-0.00000902,-0.00001026,-0.00001389\\\@


 Just remember, when you're over the hill, you begin to pick up speed.
 -- Charles Schulz
 Job cpu time:       3 days 16 hours 53 minutes 27.8 seconds.
 File lengths (MBytes):  RWF=   3069 Int=      0 D2E=      0 Chk=     44 Scr=      1
 Normal termination of Gaussian 09 at Sat Feb  5 01:12:15 2022.
