 Entering Gaussian System, Link 0=g09
 Input=sm_claisen_water_ma.com
 Output=sm_claisen_water_ma.log
 Initial command:
 /apps/applications/gaussian/G09.D01/2/default/g09/l1.exe "/nobackup/pmmass/Temp/Gau-192661.inp" -scrdir="/nobackup/pmmass/Temp/"
 Entering Link 1 = /apps/applications/gaussian/G09.D01/2/default/g09/l1.exe PID=    192662.
  
 Copyright (c) 1988,1990,1992,1993,1995,1998,2003,2009,2013,
            Gaussian, Inc.  All Rights Reserved.
  
 This is part of the Gaussian(R) 09 program.  It is based on
 the Gaussian(R) 03 system (copyright 2003, Gaussian, Inc.),
 the Gaussian(R) 98 system (copyright 1998, Gaussian, Inc.),
 the Gaussian(R) 94 system (copyright 1995, Gaussian, Inc.),
 the Gaussian 92(TM) system (copyright 1992, Gaussian, Inc.),
 the Gaussian 90(TM) system (copyright 1990, Gaussian, Inc.),
 the Gaussian 88(TM) system (copyright 1988, Gaussian, Inc.),
 the Gaussian 86(TM) system (copyright 1986, Carnegie Mellon
 University), and the Gaussian 82(TM) system (copyright 1983,
 Carnegie Mellon University). Gaussian is a federally registered
 trademark of Gaussian, Inc.
  
 This software contains proprietary and confidential information,
 including trade secrets, belonging to Gaussian, Inc.
  
 This software is provided under written license and may be
 used, copied, transmitted, or stored only in accord with that
 written license.
  
 The following legend is applicable only to US Government
 contracts under FAR:
  
                    RESTRICTED RIGHTS LEGEND
  
 Use, reproduction and disclosure by the US Government is
 subject to restrictions as set forth in subparagraphs (a)
 and (c) of the Commercial Computer Software - Restricted
 Rights clause in FAR 52.227-19.
  
 Gaussian, Inc.
 340 Quinnipiac St., Bldg. 40, Wallingford CT 06492
  
  
 ---------------------------------------------------------------
 Warning -- This program may not be used in any manner that
 competes with the business of Gaussian, Inc. or will provide
 assistance to any competitor of Gaussian, Inc.  The licensee
 of this program is prohibited from giving any competitor of
 Gaussian, Inc. access to this program.  By using this program,
 the user acknowledges that Gaussian, Inc. is engaged in the
 business of creating and licensing software in the field of
 computational chemistry and represents and warrants to the
 licensee that it is not a competitor of Gaussian, Inc. and that
 it will not use this program in any manner prohibited above.
 ---------------------------------------------------------------
  

 Cite this work as:
 Gaussian 09, Revision D.01,
 M. J. Frisch, G. W. Trucks, H. B. Schlegel, G. E. Scuseria, 
 M. A. Robb, J. R. Cheeseman, G. Scalmani, V. Barone, B. Mennucci, 
 G. A. Petersson, H. Nakatsuji, M. Caricato, X. Li, H. P. Hratchian, 
 A. F. Izmaylov, J. Bloino, G. Zheng, J. L. Sonnenberg, M. Hada, 
 M. Ehara, K. Toyota, R. Fukuda, J. Hasegawa, M. Ishida, T. Nakajima, 
 Y. Honda, O. Kitao, H. Nakai, T. Vreven, J. A. Montgomery, Jr., 
 J. E. Peralta, F. Ogliaro, M. Bearpark, J. J. Heyd, E. Brothers, 
 K. N. Kudin, V. N. Staroverov, T. Keith, R. Kobayashi, J. Normand, 
 K. Raghavachari, A. Rendell, J. C. Burant, S. S. Iyengar, J. Tomasi, 
 M. Cossi, N. Rega, J. M. Millam, M. Klene, J. E. Knox, J. B. Cross, 
 V. Bakken, C. Adamo, J. Jaramillo, R. Gomperts, R. E. Stratmann, 
 O. Yazyev, A. J. Austin, R. Cammi, C. Pomelli, J. W. Ochterski, 
 R. L. Martin, K. Morokuma, V. G. Zakrzewski, G. A. Voth, 
 P. Salvador, J. J. Dannenberg, S. Dapprich, A. D. Daniels, 
 O. Farkas, J. B. Foresman, J. V. Ortiz, J. Cioslowski, 
 and D. J. Fox, Gaussian, Inc., Wallingford CT, 2013.
 
 ******************************************
 Gaussian 09:  ES64L-G09RevD.01 24-Apr-2013
                 2-Feb-2022 
 ******************************************
 %nprocshared=8
 Will use up to    8 processors via shared memory.
 %mem=4GB
 %NoSave
 %chk="sm_claisen_water_ma.chk"
 -------------------------------------------
 #n wB97XD/Gen scrf(smd,solvent=toluene) opt
 -------------------------------------------
 1/14=-1,18=20,19=15,26=3,38=1/1,3;
 2/9=110,12=2,17=6,18=5,40=1/2;
 3/5=7,11=2,16=1,25=1,30=1,70=32201,71=1,72=13,74=-58/1,2,3;
 4//1;
 5/5=2,38=5,53=13/2;
 6/7=2,8=2,9=2,10=2,28=1/1;
 7//1,2,3,16;
 1/14=-1,18=20,19=15,26=3/3(2);
 2/9=110/2;
 99//99;
 2/9=110/2;
 3/5=7,6=1,11=2,16=1,25=1,30=1,70=32205,71=1,72=13,74=-58,82=7/1,2,3;
 4/5=5,16=3,69=1/1;
 5/5=2,38=5,53=13/2;
 7//1,2,3,16;
 1/14=-1,18=20,19=15,26=3/3(-5);
 2/9=110/2;
 6/7=2,8=2,9=2,10=2,19=2,28=1/1;
 99/9=1/99;
 ---------------------------------------
 starting material claisen toluene - opt
 ---------------------------------------
 Symbolic Z-matrix:
 Charge =  0 Multiplicity = 1
 C                    -2.74548   2.47531   0.60429 
 C                    -3.01523   1.21094   0.1377 
 C                    -1.96306   0.29458  -0.12709 
 C                    -0.61523   0.71187   0.08265 
 C                    -0.36915   2.0223    0.57654 
 C                    -1.41097   2.88419   0.82927 
 H                    -3.56561   3.16509   0.80729 
 H                    -4.04271   0.88876  -0.02797 
 H                     0.6583    2.33674   0.75455 
 H                    -1.2068    3.88612   1.20882 
 C                     0.46381  -0.20947  -0.15324 
 C                    -2.19132  -1.04118  -0.57765 
 C                     0.19132  -1.49326  -0.57185 
 H                     0.98852  -2.2176   -0.71119 
 C                    -1.14658  -1.90293  -0.78697 
 H                    -1.34861  -2.9216   -1.1177 
 O                     1.68816   0.30207   0.10824 
 Cl                   -3.81865  -1.59342  -0.861 
 C                     2.94126  -0.33756  -0.22139 
 C                     3.16776  -1.58649   0.59979 
 H                     4.01765  -2.19157   0.26546 
 C                     3.04018  -0.58845  -1.72846 
 H                     4.06133  -0.91428  -1.9692 
 H                     2.3443   -1.35589  -2.08679 
 H                     2.83978   0.35404  -2.25744 
 C                     3.98351   0.70648   0.18647 
 H                     3.85311   0.95836   1.24721 
 H                     4.99421   0.30272   0.04093 
 H                     3.86873   1.61293  -0.42508 
 C                     2.48369  -1.93526   1.68752 
 H                     2.75647  -2.83333   2.24569 
 H                     1.62455  -1.36144   2.04964 
 O                    -0.59037  -0.85327   2.77212 
 H                    -0.88082  -1.30694   1.97039 
 H                    -0.70328   0.07814   2.54674 
 O                     2.0001    2.63732  -1.62699 
 H                     1.18882   2.74059  -2.13776 
 H                     1.79896   1.91196  -1.01913 
 
 Add virtual bond connecting atoms H38        and O17        Dist= 3.72D+00.
 Add virtual bond connecting atoms O33        and H32        Dist= 4.51D+00.
 Add virtual bond connecting atoms H34        and H32        Dist= 4.74D+00.

 GradGradGradGradGradGradGradGradGradGradGradGradGradGradGradGradGradGrad
 Berny optimization.
 Initialization pass.
                           ----------------------------
                           !    Initial Parameters    !
                           ! (Angstroms and Degrees)  !
 --------------------------                            --------------------------
 ! Name  Definition              Value          Derivative Info.                !
 --------------------------------------------------------------------------------
 ! R1    R(1,2)                  1.3744         estimate D2E/DX2                !
 ! R2    R(1,6)                  1.4138         estimate D2E/DX2                !
 ! R3    R(1,7)                  1.0907         estimate D2E/DX2                !
 ! R4    R(2,3)                  1.4202         estimate D2E/DX2                !
 ! R5    R(2,8)                  1.0895         estimate D2E/DX2                !
 ! R6    R(3,4)                  1.4265         estimate D2E/DX2                !
 ! R7    R(3,12)                 1.4281         estimate D2E/DX2                !
 ! R8    R(4,5)                  1.4219         estimate D2E/DX2                !
 ! R9    R(4,11)                 1.4383         estimate D2E/DX2                !
 ! R10   R(5,6)                  1.3755         estimate D2E/DX2                !
 ! R11   R(5,9)                  1.0891         estimate D2E/DX2                !
 ! R12   R(6,10)                 1.0907         estimate D2E/DX2                !
 ! R13   R(11,13)                1.3775         estimate D2E/DX2                !
 ! R14   R(11,17)                1.3524         estimate D2E/DX2                !
 ! R15   R(12,15)                1.3704         estimate D2E/DX2                !
 ! R16   R(12,18)                1.7417         estimate D2E/DX2                !
 ! R17   R(13,14)                1.0861         estimate D2E/DX2                !
 ! R18   R(13,15)                1.4157         estimate D2E/DX2                !
 ! R19   R(15,16)                1.0899         estimate D2E/DX2                !
 ! R20   R(17,19)                1.445          estimate D2E/DX2                !
 ! R21   R(17,38)                1.9685         estimate D2E/DX2                !
 ! R22   R(19,20)                1.5118         estimate D2E/DX2                !
 ! R23   R(19,22)                1.531          estimate D2E/DX2                !
 ! R24   R(19,26)                1.5306         estimate D2E/DX2                !
 ! R25   R(20,21)                1.0955         estimate D2E/DX2                !
 ! R26   R(20,30)                1.3314         estimate D2E/DX2                !
 ! R27   R(22,23)                1.0986         estimate D2E/DX2                !
 ! R28   R(22,24)                1.0962         estimate D2E/DX2                !
 ! R29   R(22,25)                1.0992         estimate D2E/DX2                !
 ! R30   R(26,27)                1.098          estimate D2E/DX2                !
 ! R31   R(26,28)                1.0981         estimate D2E/DX2                !
 ! R32   R(26,29)                1.0995         estimate D2E/DX2                !
 ! R33   R(30,31)                1.092          estimate D2E/DX2                !
 ! R34   R(30,32)                1.0948         estimate D2E/DX2                !
 ! R35   R(32,33)                2.3846         estimate D2E/DX2                !
 ! R36   R(32,34)                2.5072         estimate D2E/DX2                !
 ! R37   R(33,34)                0.9659         estimate D2E/DX2                !
 ! R38   R(33,35)                0.9649         estimate D2E/DX2                !
 ! R39   R(36,37)                0.9642         estimate D2E/DX2                !
 ! R40   R(36,38)                0.9675         estimate D2E/DX2                !
 ! A1    A(2,1,6)              120.3535         estimate D2E/DX2                !
 ! A2    A(2,1,7)              119.8268         estimate D2E/DX2                !
 ! A3    A(6,1,7)              119.8188         estimate D2E/DX2                !
 ! A4    A(1,2,3)              120.7611         estimate D2E/DX2                !
 ! A5    A(1,2,8)              120.5806         estimate D2E/DX2                !
 ! A6    A(3,2,8)              118.6561         estimate D2E/DX2                !
 ! A7    A(2,3,4)              118.9382         estimate D2E/DX2                !
 ! A8    A(2,3,12)             122.9526         estimate D2E/DX2                !
 ! A9    A(4,3,12)             118.1024         estimate D2E/DX2                !
 ! A10   A(3,4,5)              118.9608         estimate D2E/DX2                !
 ! A11   A(3,4,11)             119.8246         estimate D2E/DX2                !
 ! A12   A(5,4,11)             121.1636         estimate D2E/DX2                !
 ! A13   A(4,5,6)              120.6781         estimate D2E/DX2                !
 ! A14   A(4,5,9)              119.0857         estimate D2E/DX2                !
 ! A15   A(6,5,9)              120.2362         estimate D2E/DX2                !
 ! A16   A(1,6,5)              120.2967         estimate D2E/DX2                !
 ! A17   A(1,6,10)             119.8516         estimate D2E/DX2                !
 ! A18   A(5,6,10)             119.8512         estimate D2E/DX2                !
 ! A19   A(4,11,13)            119.8945         estimate D2E/DX2                !
 ! A20   A(4,11,17)            113.901          estimate D2E/DX2                !
 ! A21   A(13,11,17)           126.1801         estimate D2E/DX2                !
 ! A22   A(3,12,15)            120.9664         estimate D2E/DX2                !
 ! A23   A(3,12,18)            119.8184         estimate D2E/DX2                !
 ! A24   A(15,12,18)           119.2147         estimate D2E/DX2                !
 ! A25   A(11,13,14)           121.0193         estimate D2E/DX2                !
 ! A26   A(11,13,15)           120.1864         estimate D2E/DX2                !
 ! A27   A(14,13,15)           118.7635         estimate D2E/DX2                !
 ! A28   A(12,15,13)           121.0185         estimate D2E/DX2                !
 ! A29   A(12,15,16)           119.5234         estimate D2E/DX2                !
 ! A30   A(13,15,16)           119.4568         estimate D2E/DX2                !
 ! A31   A(11,17,19)           124.9971         estimate D2E/DX2                !
 ! A32   A(11,17,38)           104.4515         estimate D2E/DX2                !
 ! A33   A(19,17,38)           100.5186         estimate D2E/DX2                !
 ! A34   A(17,19,20)           111.8207         estimate D2E/DX2                !
 ! A35   A(17,19,22)           110.6781         estimate D2E/DX2                !
 ! A36   A(17,19,26)           103.167          estimate D2E/DX2                !
 ! A37   A(20,19,22)           112.9318         estimate D2E/DX2                !
 ! A38   A(20,19,26)           108.4669         estimate D2E/DX2                !
 ! A39   A(22,19,26)           109.2744         estimate D2E/DX2                !
 ! A40   A(19,20,21)           114.0006         estimate D2E/DX2                !
 ! A41   A(19,20,30)           125.6751         estimate D2E/DX2                !
 ! A42   A(21,20,30)           120.2127         estimate D2E/DX2                !
 ! A43   A(19,22,23)           108.9276         estimate D2E/DX2                !
 ! A44   A(19,22,24)           113.2965         estimate D2E/DX2                !
 ! A45   A(19,22,25)           108.749          estimate D2E/DX2                !
 ! A46   A(23,22,24)           108.1075         estimate D2E/DX2                !
 ! A47   A(23,22,25)           108.5609         estimate D2E/DX2                !
 ! A48   A(24,22,25)           109.1012         estimate D2E/DX2                !
 ! A49   A(19,26,27)           109.4533         estimate D2E/DX2                !
 ! A50   A(19,26,28)           109.916          estimate D2E/DX2                !
 ! A51   A(19,26,29)           110.0638         estimate D2E/DX2                !
 ! A52   A(27,26,28)           108.7663         estimate D2E/DX2                !
 ! A53   A(27,26,29)           109.6226         estimate D2E/DX2                !
 ! A54   A(28,26,29)           108.9972         estimate D2E/DX2                !
 ! A55   A(20,30,31)           120.309          estimate D2E/DX2                !
 ! A56   A(20,30,32)           122.4202         estimate D2E/DX2                !
 ! A57   A(31,30,32)           117.2593         estimate D2E/DX2                !
 ! A58   A(30,32,33)           160.1965         estimate D2E/DX2                !
 ! A59   A(30,32,34)           141.7325         estimate D2E/DX2                !
 ! A60   A(32,33,35)           104.1009         estimate D2E/DX2                !
 ! A61   A(34,33,35)           102.9626         estimate D2E/DX2                !
 ! A62   A(37,36,38)           103.7794         estimate D2E/DX2                !
 ! A63   L(17,38,36,1,-1)      189.9293         estimate D2E/DX2                !
 ! A64   L(17,38,36,1,-2)      181.6241         estimate D2E/DX2                !
 ! D1    D(6,1,2,3)             -0.0327         estimate D2E/DX2                !
 ! D2    D(6,1,2,8)            179.4154         estimate D2E/DX2                !
 ! D3    D(7,1,2,3)           -179.6961         estimate D2E/DX2                !
 ! D4    D(7,1,2,8)             -0.248          estimate D2E/DX2                !
 ! D5    D(2,1,6,5)              0.3392         estimate D2E/DX2                !
 ! D6    D(2,1,6,10)          -179.4088         estimate D2E/DX2                !
 ! D7    D(7,1,6,5)           -179.9973         estimate D2E/DX2                !
 ! D8    D(7,1,6,10)             0.2546         estimate D2E/DX2                !
 ! D9    D(1,2,3,4)             -0.7891         estimate D2E/DX2                !
 ! D10   D(1,2,3,12)           178.2442         estimate D2E/DX2                !
 ! D11   D(8,2,3,4)            179.7523         estimate D2E/DX2                !
 ! D12   D(8,2,3,12)            -1.2143         estimate D2E/DX2                !
 ! D13   D(2,3,4,5)              1.2957         estimate D2E/DX2                !
 ! D14   D(2,3,4,11)           178.7292         estimate D2E/DX2                !
 ! D15   D(12,3,4,5)          -177.7847         estimate D2E/DX2                !
 ! D16   D(12,3,4,11)           -0.3513         estimate D2E/DX2                !
 ! D17   D(2,3,12,15)         -178.2573         estimate D2E/DX2                !
 ! D18   D(2,3,12,18)            1.4711         estimate D2E/DX2                !
 ! D19   D(4,3,12,15)            0.7836         estimate D2E/DX2                !
 ! D20   D(4,3,12,18)         -179.4879         estimate D2E/DX2                !
 ! D21   D(3,4,5,6)             -1.0153         estimate D2E/DX2                !
 ! D22   D(3,4,5,9)            178.9009         estimate D2E/DX2                !
 ! D23   D(11,4,5,6)          -178.4131         estimate D2E/DX2                !
 ! D24   D(11,4,5,9)             1.503          estimate D2E/DX2                !
 ! D25   D(3,4,11,13)           -0.4373         estimate D2E/DX2                !
 ! D26   D(3,4,11,17)         -178.7514         estimate D2E/DX2                !
 ! D27   D(5,4,11,13)          176.9384         estimate D2E/DX2                !
 ! D28   D(5,4,11,17)           -1.3757         estimate D2E/DX2                !
 ! D29   D(4,5,6,1)              0.1968         estimate D2E/DX2                !
 ! D30   D(4,5,6,10)           179.9448         estimate D2E/DX2                !
 ! D31   D(9,5,6,1)           -179.7184         estimate D2E/DX2                !
 ! D32   D(9,5,6,10)             0.0297         estimate D2E/DX2                !
 ! D33   D(4,11,13,14)        -177.1431         estimate D2E/DX2                !
 ! D34   D(4,11,13,15)           0.8118         estimate D2E/DX2                !
 ! D35   D(17,11,13,14)          0.9473         estimate D2E/DX2                !
 ! D36   D(17,11,13,15)        178.9022         estimate D2E/DX2                !
 ! D37   D(4,11,17,19)        -170.7262         estimate D2E/DX2                !
 ! D38   D(4,11,17,38)         -56.4857         estimate D2E/DX2                !
 ! D39   D(13,11,17,19)         11.0847         estimate D2E/DX2                !
 ! D40   D(13,11,17,38)        125.3251         estimate D2E/DX2                !
 ! D41   D(3,12,15,13)          -0.4301         estimate D2E/DX2                !
 ! D42   D(3,12,15,16)         179.1526         estimate D2E/DX2                !
 ! D43   D(18,12,15,13)        179.8399         estimate D2E/DX2                !
 ! D44   D(18,12,15,16)         -0.5774         estimate D2E/DX2                !
 ! D45   D(11,13,15,12)         -0.3879         estimate D2E/DX2                !
 ! D46   D(11,13,15,16)       -179.9709         estimate D2E/DX2                !
 ! D47   D(14,13,15,12)        177.6128         estimate D2E/DX2                !
 ! D48   D(14,13,15,16)         -1.9702         estimate D2E/DX2                !
 ! D49   D(11,17,19,20)        -67.9902         estimate D2E/DX2                !
 ! D50   D(11,17,19,22)         58.86           estimate D2E/DX2                !
 ! D51   D(11,17,19,26)        175.6451         estimate D2E/DX2                !
 ! D52   D(38,17,19,20)        175.9154         estimate D2E/DX2                !
 ! D53   D(38,17,19,22)        -57.2343         estimate D2E/DX2                !
 ! D54   D(38,17,19,26)         59.5508         estimate D2E/DX2                !
 ! D55   D(11,17,36,37)          1.0617         estimate D2E/DX2                !
 ! D56   D(19,17,36,37)        130.8779         estimate D2E/DX2                !
 ! D57   D(17,19,20,21)        170.1755         estimate D2E/DX2                !
 ! D58   D(17,19,20,30)        -13.6837         estimate D2E/DX2                !
 ! D59   D(22,19,20,21)         44.5557         estimate D2E/DX2                !
 ! D60   D(22,19,20,30)       -139.3035         estimate D2E/DX2                !
 ! D61   D(26,19,20,21)        -76.7204         estimate D2E/DX2                !
 ! D62   D(26,19,20,30)         99.4204         estimate D2E/DX2                !
 ! D63   D(17,19,22,23)        170.4824         estimate D2E/DX2                !
 ! D64   D(17,19,22,24)        -69.1604         estimate D2E/DX2                !
 ! D65   D(17,19,22,25)         52.3337         estimate D2E/DX2                !
 ! D66   D(20,19,22,23)        -63.2846         estimate D2E/DX2                !
 ! D67   D(20,19,22,24)         57.0726         estimate D2E/DX2                !
 ! D68   D(20,19,22,25)        178.5667         estimate D2E/DX2                !
 ! D69   D(26,19,22,23)         57.5329         estimate D2E/DX2                !
 ! D70   D(26,19,22,24)        177.8902         estimate D2E/DX2                !
 ! D71   D(26,19,22,25)        -60.6158         estimate D2E/DX2                !
 ! D72   D(17,19,26,27)         56.9462         estimate D2E/DX2                !
 ! D73   D(17,19,26,28)        176.3433         estimate D2E/DX2                !
 ! D74   D(17,19,26,29)        -63.5955         estimate D2E/DX2                !
 ! D75   D(20,19,26,27)        -61.7776         estimate D2E/DX2                !
 ! D76   D(20,19,26,28)         57.6195         estimate D2E/DX2                !
 ! D77   D(20,19,26,29)        177.6807         estimate D2E/DX2                !
 ! D78   D(22,19,26,27)        174.7208         estimate D2E/DX2                !
 ! D79   D(22,19,26,28)        -65.8822         estimate D2E/DX2                !
 ! D80   D(22,19,26,29)         54.179          estimate D2E/DX2                !
 ! D81   D(19,20,30,31)       -176.7396         estimate D2E/DX2                !
 ! D82   D(19,20,30,32)          4.5314         estimate D2E/DX2                !
 ! D83   D(21,20,30,31)         -0.8197         estimate D2E/DX2                !
 ! D84   D(21,20,30,32)       -179.5487         estimate D2E/DX2                !
 ! D85   D(20,30,32,33)        125.1164         estimate D2E/DX2                !
 ! D86   D(20,30,32,34)         96.6959         estimate D2E/DX2                !
 ! D87   D(31,30,32,33)        -53.6493         estimate D2E/DX2                !
 ! D88   D(31,30,32,34)        -82.0698         estimate D2E/DX2                !
 ! D89   D(30,32,33,35)       -152.4366         estimate D2E/DX2                !
 ! D90   D(32,33,34,35)       -103.5314         estimate D2E/DX2                !
 --------------------------------------------------------------------------------
 Trust Radius=3.00D-01 FncErr=1.00D-07 GrdErr=1.00D-06
 Number of steps in this run=    204 maximum allowed number of steps=    228.
 GradGradGradGradGradGradGradGradGradGradGradGradGradGradGradGradGradGrad

                          Input orientation:                          
 ---------------------------------------------------------------------
 Center     Atomic      Atomic             Coordinates (Angstroms)
 Number     Number       Type             X           Y           Z
 ---------------------------------------------------------------------
      1          6           0       -2.745480    2.475310    0.604290
      2          6           0       -3.015230    1.210940    0.137700
      3          6           0       -1.963060    0.294580   -0.127090
      4          6           0       -0.615230    0.711870    0.082650
      5          6           0       -0.369150    2.022300    0.576540
      6          6           0       -1.410970    2.884190    0.829270
      7          1           0       -3.565610    3.165090    0.807290
      8          1           0       -4.042710    0.888760   -0.027970
      9          1           0        0.658300    2.336740    0.754550
     10          1           0       -1.206800    3.886120    1.208820
     11          6           0        0.463810   -0.209470   -0.153240
     12          6           0       -2.191320   -1.041180   -0.577650
     13          6           0        0.191320   -1.493260   -0.571850
     14          1           0        0.988520   -2.217600   -0.711190
     15          6           0       -1.146580   -1.902930   -0.786970
     16          1           0       -1.348610   -2.921600   -1.117700
     17          8           0        1.688160    0.302070    0.108240
     18         17           0       -3.818650   -1.593420   -0.861000
     19          6           0        2.941260   -0.337560   -0.221390
     20          6           0        3.167760   -1.586490    0.599790
     21          1           0        4.017650   -2.191570    0.265460
     22          6           0        3.040180   -0.588450   -1.728460
     23          1           0        4.061330   -0.914280   -1.969200
     24          1           0        2.344300   -1.355890   -2.086790
     25          1           0        2.839780    0.354040   -2.257440
     26          6           0        3.983510    0.706480    0.186470
     27          1           0        3.853110    0.958360    1.247210
     28          1           0        4.994210    0.302720    0.040930
     29          1           0        3.868730    1.612930   -0.425080
     30          6           0        2.483690   -1.935260    1.687520
     31          1           0        2.756470   -2.833330    2.245690
     32          1           0        1.624550   -1.361440    2.049640
     33          8           0       -0.590370   -0.853270    2.772120
     34          1           0       -0.880820   -1.306940    1.970390
     35          1           0       -0.703280    0.078140    2.546740
     36          8           0        2.000100    2.637320   -1.626990
     37          1           0        1.188820    2.740590   -2.137760
     38          1           0        1.798960    1.911960   -1.019130
 ---------------------------------------------------------------------
                    Distance matrix (angstroms):
                    1          2          3          4          5
     1  C    0.000000
     2  C    1.374446   0.000000
     3  C    2.429543   1.420173   0.000000
     4  C    2.814213   2.451959   1.426453   0.000000
     5  C    2.419283   2.802254   2.453703   1.421868   0.000000
     6  C    1.413759   2.419026   2.815228   2.430971   1.375542
     7  H    1.090696   2.137749   3.417757   3.904886   3.402436
     8  H    2.144691   1.089478   2.165137   3.433824   3.891708
     9  H    3.409912   3.891369   3.437911   2.171067   1.089134
    10  H    2.173333   3.402103   3.905860   3.419660   2.138986
    11  C    4.252227   3.769075   2.478800   1.438346   2.491425
    12  C    3.750970   2.502518   1.428062   2.448109   3.746648
    13  C    5.075199   4.254189   2.834702   2.437517   3.740600
    14  H    6.139760   5.339056   3.919700   3.432782   4.634465
    15  C    4.864265   3.747406   2.435391   2.806377   4.227409
    16  H    5.834649   4.629421   3.420917   3.896253   5.317136
    17  O    4.962479   4.790490   3.658804   2.339700   2.722319
    18  Cl   4.455708   3.083394   2.747068   4.057923   5.199904
    19  C    6.397890   6.164947   4.945791   3.720533   4.143000
    20  C    7.173886   6.802096   5.512902   4.456558   5.053082
    21  H    8.224020   7.813757   6.488754   5.470554   6.090771
    22  C    6.949979   6.586983   5.326963   4.281702   4.873661
    23  H    8.027754   7.683312   6.414670   5.359540   5.893509
    24  H    6.915625   6.345198   5.011769   4.211997   5.086089
    25  H    6.624531   6.383738   5.254446   4.188217   4.594754
    26  C    6.970125   7.017066   5.969060   4.599915   4.563900
    27  H    6.801167   6.961961   6.013081   4.624178   4.405593
    28  H    8.058556   8.061350   6.959303   5.624497   5.657691
    29  H    6.749154   6.918614   5.986369   4.601695   4.373837
    30  C    6.926091   6.522165   5.295147   4.380207   5.003524
    31  H    7.819674   7.356104   6.139045   5.349350   6.011049
    32  H    5.992232   5.639168   4.511264   3.631016   4.194587
    33  O    4.519229   4.132926   3.406942   3.111837   3.624695
    34  H    4.432674   3.775471   2.852285   2.776634   3.645334
    35  H    3.700016   3.525879   2.963656   2.545802   2.788026
    36  O    5.246464   5.504746   4.841980   3.670174   3.293500
    37  H    4.802908   5.019122   4.467673   3.507210   3.211018
    38  H    4.858476   5.000611   4.190996   2.912464   2.694260
                    6          7          8          9         10
     6  C    0.000000
     7  H    2.172984   0.000000
     8  H    3.412134   2.471227   0.000000
     9  H    2.141766   4.304691   4.980811   0.000000
    10  H    1.090691   2.499019   4.307691   2.466888   0.000000
    11  C    3.748447   5.342892   4.640100   2.710183   4.628175
    12  C    4.242275   4.636749   2.730286   4.615781   5.332827
    13  C    4.867498   6.141398   4.888439   4.079989   5.836373
    14  H    5.844556   7.212436   5.952272   4.795774   6.764707
    15  C    5.059511   5.837653   4.093554   4.858876   6.123717
    16  H    6.123870   6.757845   4.792132   5.931538   7.195683
    17  O    4.097784   6.023923   5.762433   2.370276   4.736822
    18  Cl   5.357511   5.048825   2.627805   6.172458   6.413367
    19  C    5.515928   7.460972   7.093455   3.649143   6.090269
    20  C    6.403469   8.243715   7.649302   4.659729   7.032578
    21  H    7.453263   9.300173   8.633883   5.659508   8.069890
    22  C    6.197899   8.009716   7.432439   4.516130   6.832732
    23  H    7.225363   9.084072   8.526124   5.437698   7.803643
    24  H    6.370537   7.983858   7.076093   4.954929   7.137929
    25  H    5.830807   7.636988   7.254318   4.214503   6.392602
    26  C    5.852865   7.963629   8.031153   3.746663   6.172085
    27  H    5.620857   7.752457   7.998431   3.514179   5.846019
    28  H    6.950669   9.058200   9.056164   4.842170   7.256531
    29  H    5.573574   7.693981   7.954433   3.496039   5.796380
    30  C    6.255563   7.961307   7.315182   4.738403   6.909221
    31  H    7.215527   8.832821   8.077892   5.775417   7.869791
    32  H    5.359950   6.997905   6.441871   4.035769   6.021661
    33  O    4.291463   5.372134   4.774288   3.975667   5.028490
    34  H    4.375932   5.344151   4.337291   4.138062   5.258719
    35  H    3.365181   4.554984   4.293953   3.188592   4.067465
    36  O    4.210648   6.097654   6.490753   2.750002   4.459319
    37  H    3.947505   5.608754   5.937120   2.968165   4.272099
    38  H    3.829551   5.803857   6.012857   2.151159   4.230326
                   11         12         13         14         15
    11  C    0.000000
    12  C    2.814530   0.000000
    13  C    1.377535   2.425156   0.000000
    14  H    2.149236   3.393108   1.086099   0.000000
    15  C    2.421317   1.370368   1.415656   2.159493   0.000000
    16  H    3.401573   2.130210   2.170136   2.474478   1.089902
    17  O    1.352434   4.162347   2.434392   2.740383   3.701240
    18  Cl   4.555843   1.741683   4.021629   4.849838   2.690954
    19  C    2.481695   5.192820   3.003437   2.754569   4.413695
    20  C    3.126433   5.513934   3.200098   2.620316   4.542771
    21  H    4.090698   6.370678   3.978634   3.182790   5.278276
    22  C    3.043456   5.375679   3.205063   2.810387   4.488120
    23  H    4.091041   6.406883   4.155091   3.566987   5.431153
    24  H    2.930723   4.790448   2.636140   2.114937   3.764974
    25  H    3.223420   5.484551   3.642536   3.525817   4.811160
    26  C    3.652760   6.462718   4.449113   4.280888   5.837331
    27  H    3.848693   6.622946   4.767402   4.704033   6.109155
    28  H    4.563394   7.336249   5.164184   4.791999   6.577204
    29  H    3.871501   6.617536   4.815942   4.801086   6.135599
    30  C    3.232130   5.271252   3.248858   2.840609   4.393519
    31  H    4.230342   5.971907   4.039098   3.499701   5.029560
    32  H    2.743544   4.643930   2.990608   2.959683   4.002340
    33  O    3.175454   3.717433   3.493245   4.060510   3.752103
    34  H    2.742677   2.877594   2.765354   3.393318   2.833525
    35  H    2.955454   3.637163   3.604887   4.329748   3.903175
    36  O    3.554763   5.674547   4.631058   5.043038   5.587584
    37  H    3.628610   5.306701   4.623047   5.163223   5.370382
    38  H    2.651953   4.983801   3.792109   4.219586   4.825297
                   16         17         18         19         20
    16  H    0.000000
    17  O    4.595318   0.000000
    18  Cl   2.816213   5.904004   0.000000
    19  C    5.087595   1.445006   6.905264   0.000000
    20  C    5.012972   2.448979   7.137498   1.511775   0.000000
    21  H    5.589528   3.416062   7.939414   2.198407   1.095542
    22  C    5.007803   2.448357   6.986129   1.531010   2.536357
    23  H    5.832824   3.380414   7.986452   2.154531   2.801793
    24  H    4.126520   2.827987   6.288158   2.207504   2.819393
    25  H    5.437962   2.631610   7.076534   2.152698   3.469437
    26  C    6.579919   2.332016   8.201246   1.530573   2.468601
    27  H    6.906865   2.532781   8.355359   2.160478   2.713875
    28  H    7.209024   3.306735   9.059543   2.166420   2.686514
    29  H    6.947109   2.599552   8.340655   2.169355   3.431910
    30  C    4.850634   2.851778   6.806710   2.530998   1.331446
    31  H    5.307718   3.942171   7.377066   3.514185   2.105411
    32  H    4.615823   2.557410   6.176898   2.817735   2.129368
    33  O    4.470304   3.690903   4.916215   4.658269   4.402291
    34  H    3.516000   3.557552   4.090194   4.511307   4.283421
    35  H    4.779436   3.422778   4.910431   4.595435   4.641827
    36  O    6.509595   2.926042   7.234898   3.422193   4.915542
    37  H    6.288042   3.352646   6.744517   4.027223   5.489445
    38  H    5.768901   1.968498   6.623461   2.646050   4.090681
                   21         22         23         24         25
    21  H    0.000000
    22  C    2.738824   0.000000
    23  H    2.574312   1.098576   0.000000
    24  H    3.005252   1.096181   1.776806   0.000000
    25  H    3.772603   1.099212   1.784349   1.788430   0.000000
    26  C    2.899327   2.496732   2.698116   3.479668   2.721218
    27  H    3.303478   3.450810   3.727657   4.329875   3.697920
    28  H    2.688041   2.782653   2.528236   3.781561   3.150668
    29  H    3.869527   2.689120   2.967860   3.728144   2.449711
    30  C    2.107364   3.713825   4.111320   3.821062   4.574976
    31  H    2.433874   4.573166   4.811518   4.595987   5.517649
    32  H    3.098280   4.107988   4.721115   4.198586   4.792765
    33  O    5.413708   5.788458   6.642451   5.698589   6.206448
    34  H    5.261593   5.438011   6.332409   5.183098   5.871649
    35  H    5.713405   5.721466   6.639286   5.728332   5.975746
    36  O    5.565074   3.390819   4.120636   4.034305   2.513145
    37  H    6.172840   3.831131   4.651645   4.256628   2.904413
    38  H    4.838565   2.880248   3.742804   3.480824   2.245848
                   26         27         28         29         30
    26  C    0.000000
    27  H    1.098006   0.000000
    28  H    1.098052   1.785241   0.000000
    29  H    1.099463   1.795901   1.789000   0.000000
    30  C    3.388422   3.231443   3.744666   4.355579   0.000000
    31  H    4.275075   4.071424   4.438835   5.304655   1.092013
    32  H    3.648615   3.315395   4.261332   4.472970   1.094770
    33  O    5.480765   5.035064   6.323231   6.015630   3.434662
    34  H    5.558591   5.297610   6.389820   6.068125   3.434345
    35  H    5.285044   4.819155   6.228235   5.664854   3.866370
    36  O    3.309184   3.809669   4.146928   2.446577   5.668185
    37  H    4.165326   4.661846   5.017060   3.374434   6.178433
    38  H    2.771085   3.203932   3.731354   2.173997   4.753516
                   31         32         33         34         35
    31  H    0.000000
    32  H    1.867120   0.000000
    33  O    3.924169   2.384551   0.000000
    34  H    3.954179   2.507216   0.965893   0.000000
    35  H    4.531794   2.781778   0.964919   1.510677   0.000000
    36  O    6.745203   5.445065   6.184410   6.066138   5.592646
    37  H    7.262282   5.877995   6.339422   6.127218   5.710799
    38  H    5.838977   4.490314   5.265831   5.145850   4.726471
                   36         37         38
    36  O    0.000000
    37  H    0.964223   0.000000
    38  H    0.967522   1.519945   0.000000
 Stoichiometry    C15H19ClO3
 Framework group  C1[X(C15H19ClO3)]
 Deg. of freedom   108
 Full point group                 C1      NOp   1
 Largest Abelian subgroup         C1      NOp   1
 Largest concise Abelian subgroup C1      NOp   1
                         Standard orientation:                         
 ---------------------------------------------------------------------
 Center     Atomic      Atomic             Coordinates (Angstroms)
 Number     Number       Type             X           Y           Z
 ---------------------------------------------------------------------
      1          6           0       -2.745480    2.475310    0.604291
      2          6           0       -3.015230    1.210940    0.137701
      3          6           0       -1.963060    0.294580   -0.127089
      4          6           0       -0.615230    0.711870    0.082651
      5          6           0       -0.369150    2.022300    0.576541
      6          6           0       -1.410970    2.884190    0.829271
      7          1           0       -3.565609    3.165091    0.807291
      8          1           0       -4.042710    0.888761   -0.027969
      9          1           0        0.658300    2.336740    0.754551
     10          1           0       -1.206799    3.886120    1.208821
     11          6           0        0.463810   -0.209470   -0.153239
     12          6           0       -2.191320   -1.041180   -0.577649
     13          6           0        0.191319   -1.493260   -0.571849
     14          1           0        0.988519   -2.217600   -0.711189
     15          6           0       -1.146581   -1.902930   -0.786969
     16          1           0       -1.348611   -2.921600   -1.117699
     17          8           0        1.688160    0.302069    0.108241
     18         17           0       -3.818651   -1.593419   -0.860999
     19          6           0        2.941260   -0.337561   -0.221389
     20          6           0        3.167759   -1.586491    0.599791
     21          1           0        4.017649   -2.191571    0.265461
     22          6           0        3.040180   -0.588451   -1.728459
     23          1           0        4.061330   -0.914281   -1.969199
     24          1           0        2.344299   -1.355891   -2.086789
     25          1           0        2.839780    0.354039   -2.257439
     26          6           0        3.983510    0.706479    0.186471
     27          1           0        3.853110    0.958359    1.247211
     28          1           0        4.994210    0.302719    0.040931
     29          1           0        3.868730    1.612929   -0.425079
     30          6           0        2.483689   -1.935261    1.687521
     31          1           0        2.756469   -2.833331    2.245691
     32          1           0        1.624549   -1.361441    2.049641
     33          8           0       -0.590370   -0.853270    2.772121
     34          1           0       -0.880820   -1.306940    1.970391
     35          1           0       -0.703280    0.078140    2.546741
     36          8           0        2.000100    2.637319   -1.626989
     37          1           0        1.188820    2.740589   -2.137759
     38          1           0        1.798960    1.911959   -1.019129
 ---------------------------------------------------------------------
 Rotational constants (GHZ):      0.4796422      0.2439407      0.2074003
 General basis read from cards:  (5D, 7F)
 There are   880 symmetry adapted cartesian basis functions of A   symmetry.
 There are   785 symmetry adapted basis functions of A   symmetry.
   785 basis functions,  1215 primitive gaussians,   880 cartesian basis functions
    75 alpha electrons       75 beta electrons
       nuclear repulsion energy      1631.7671712478 Hartrees.
 NAtoms=   38 NActive=   38 NUniq=   38 SFac= 1.00D+00 NAtFMM=   60 NAOKFM=F Big=F
 Integral buffers will be    131072 words long.
 Raffenetti 2 integral format.
 Two-electron integral symmetry is turned on.
 Nuclear repulsion after empirical dispersion term =     1631.7329558570 Hartrees.
 ------------------------------------------------------------------------------
 Polarizable Continuum Model (PCM)
 =================================
 Model                : PCM (using non-symmetric T matrix).
 Atomic radii         : SMD-Coulomb.
 Polarization charges : Total charges.
 Charge compensation  : None.
 Solution method      : On-the-fly selection.
 Cavity type          : VdW (van der Waals Surface) (Alpha=1.000).
 Cavity algorithm     : GePol (No added spheres)
                        Default sphere list used, NSphG=   38.
                        Lebedev-Laikov grids with approx.  5.0 points / Ang**2.
                        Smoothing algorithm: Karplus/York (Gamma=1.0000).
                        Polarization charges: spherical gaussians, with
                                              point-specific exponents (IZeta= 3).
                        Self-potential: point-specific (ISelfS= 7).
                        Self-field    : sphere-specific E.n sum rule (ISelfD= 2).
 1st derivatives      : Analytical E(r).r(x)/FMM algorithm (CHGder, D1EAlg=3).
                        Cavity 1st derivative terms included.
 Solvent              : Toluene, Eps=   2.374100 Eps(inf)=   2.238315
 ------------------------------------------------------------------------------
 ------------------------------------------------------------------------------
 Atomic radii for non-electrostatic terms: SMD-CDS.
 ------------------------------------------------------------------------------
 Nuclear repulsion after PCM non-electrostatic terms =     1631.7225158437 Hartrees.
 One-electron integrals computed using PRISM.
 NBasis=   785 RedAO= T EigKep=  1.38D-06  NBF=   785
 NBsUse=   779 1.00D-06 EigRej=  9.93D-07 NBFU=   779
 ExpMin= 3.17D-02 ExpMax= 6.95D+04 ExpMxC= 2.37D+03 IAcc=3 IRadAn=         5 AccDes= 0.00D+00
 Harris functional with IExCor= 4639 and IRadAn=       5 diagonalized for initial guess.
 HarFok:  IExCor= 4639 AccDes= 0.00D+00 IRadAn=         5 IDoV= 1 UseB2=F ITyADJ=14
 ICtDFT=  3500011 ScaDFX=  1.000000  1.000000  1.000000  1.000000
 FoFCou: FMM=F IPFlag=           0 FMFlag=      100000 FMFlg1=           0
         NFxFlg=           0 DoJE=T BraDBF=F KetDBF=T FulRan=T
         wScrn=  0.000000 ICntrl=     500 IOpCl=  0 I1Cent=   200000004 NGrid=           0
         NMat0=    1 NMatS0=      1 NMatT0=    0 NMatD0=    1 NMtDS0=    0 NMtDT0=    0
 Petite list used in FoFCou.
 Requested convergence on RMS density matrix=1.00D-08 within 128 cycles.
 Requested convergence on MAX density matrix=1.00D-06.
 Requested convergence on             energy=1.00D-06.
 No special actions if energy rises.
 Inv3:  Mode=1 IEnd=    23402547.
 Iteration    1 A*A^-1 deviation from unit magnitude is 5.44D-15 for   2791.
 Iteration    1 A*A^-1 deviation from orthogonality  is 2.18D-15 for   1659   1022.
 Iteration    1 A^-1*A deviation from unit magnitude is 5.22D-15 for   2791.
 Iteration    1 A^-1*A deviation from orthogonality  is 8.37D-12 for   1632   1583.
 Error on total polarization charges =  0.02302
 SCF Done:  E(RwB97XD) =  -1268.97517621     A.U. after   16 cycles
            NFock= 16  Conv=0.27D-08     -V/T= 2.0039
 SMD-CDS (non-electrostatic) energy       (kcal/mol) =      -6.55
 (included in total energy above)

 **********************************************************************

            Population analysis using the SCF density.

 **********************************************************************

 Orbital symmetries:
       Occupied  (A) (A) (A) (A) (A) (A) (A) (A) (A) (A) (A) (A)
                 (A) (A) (A) (A) (A) (A) (A) (A) (A) (A) (A) (A)
                 (A) (A) (A) (A) (A) (A) (A) (A) (A) (A) (A) (A)
                 (A) (A) (A) (A) (A) (A) (A) (A) (A) (A) (A) (A)
                 (A) (A) (A) (A) (A) (A) (A) (A) (A) (A) (A) (A)
                 (A) (A) (A) (A) (A) (A) (A) (A) (A) (A) (A) (A)
                 (A) (A) (A)
       Virtual   (A) (A) (A) (A) (A) (A) (A) (A) (A) (A) (A) (A)
                 (A) (A) (A) (A) (A) (A) (A) (A) (A) (A) (A) (A)
                 (A) (A) (A) (A) (A) (A) (A) (A) (A) (A) (A) (A)
                 (A) (A) (A) (A) (A) (A) (A) (A) (A) (A) (A) (A)
                 (A) (A) (A) (A) (A) (A) (A) (A) (A) (A) (A) (A)
                 (A) (A) (A) (A) (A) (A) (A) (A) (A) (A) (A) (A)
                 (A) (A) (A) (A) (A) (A) (A) (A) (A) (A) (A) (A)
                 (A) (A) (A) (A) (A) (A) (A) (A) (A) (A) (A) (A)
                 (A) (A) (A) (A) (A) (A) (A) (A) (A) (A) (A) (A)
                 (A) (A) (A) (A) (A) (A) (A) (A) (A) (A) (A) (A)
                 (A) (A) (A) (A) (A) (A) (A) (A) (A) (A) (A) (A)
                 (A) (A) (A) (A) (A) (A) (A) (A) (A) (A) (A) (A)
                 (A) (A) (A) (A) (A) (A) (A) (A) (A) (A) (A) (A)
                 (A) (A) (A) (A) (A) (A) (A) (A) (A) (A) (A) (A)
                 (A) (A) (A) (A) (A) (A) (A) (A) (A) (A) (A) (A)
                 (A) (A) (A) (A) (A) (A) (A) (A) (A) (A) (A) (A)
                 (A) (A) (A) (A) (A) (A) (A) (A) (A) (A) (A) (A)
                 (A) (A) (A) (A) (A) (A) (A) (A) (A) (A) (A) (A)
                 (A) (A) (A) (A) (A) (A) (A) (A) (A) (A) (A) (A)
                 (A) (A) (A) (A) (A) (A) (A) (A) (A) (A) (A) (A)
                 (A) (A) (A) (A) (A) (A) (A) (A) (A) (A) (A) (A)
                 (A) (A) (A) (A) (A) (A) (A) (A) (A) (A) (A) (A)
                 (A) (A) (A) (A) (A) (A) (A) (A) (A) (A) (A) (A)
                 (A) (A) (A) (A) (A) (A) (A) (A) (A) (A) (A) (A)
                 (A) (A) (A) (A) (A) (A) (A) (A) (A) (A) (A) (A)
                 (A) (A) (A) (A) (A) (A) (A) (A) (A) (A) (A) (A)
                 (A) (A) (A) (A) (A) (A) (A) (A) (A) (A) (A) (A)
                 (A) (A) (A) (A) (A) (A) (A) (A) (A) (A) (A) (A)
                 (A) (A) (A) (A) (A) (A) (A) (A) (A) (A) (A) (A)
                 (A) (A) (A) (A) (A) (A) (A) (A) (A) (A) (A) (A)
                 (A) (A) (A) (A) (A) (A) (A) (A) (A) (A) (A) (A)
                 (A) (A) (A) (A) (A) (A) (A) (A) (A) (A) (A) (A)
                 (A) (A) (A) (A) (A) (A) (A) (A) (A) (A) (A) (A)
                 (A) (A) (A) (A) (A) (A) (A) (A) (A) (A) (A) (A)
                 (A) (A) (A) (A) (A) (A) (A) (A) (A) (A) (A) (A)
                 (A) (A) (A) (A) (A) (A) (A) (A) (A) (A) (A) (A)
                 (A) (A) (A) (A) (A) (A) (A) (A) (A) (A) (A) (A)
                 (A) (A) (A) (A) (A) (A) (A) (A) (A) (A) (A) (A)
                 (A) (A) (A) (A) (A) (A) (A) (A) (A) (A) (A) (A)
                 (A) (A) (A) (A) (A) (A) (A) (A) (A) (A) (A) (A)
                 (A) (A) (A) (A) (A) (A) (A) (A) (A) (A) (A) (A)
                 (A) (A) (A) (A) (A) (A) (A) (A) (A) (A) (A) (A)
                 (A) (A) (A) (A) (A) (A) (A) (A) (A) (A) (A) (A)
                 (A) (A) (A) (A) (A) (A) (A) (A) (A) (A) (A) (A)
                 (A) (A) (A) (A) (A) (A) (A) (A) (A) (A) (A) (A)
                 (A) (A) (A) (A) (A) (A) (A) (A) (A) (A) (A) (A)
                 (A) (A) (A) (A) (A) (A) (A) (A) (A) (A) (A) (A)
                 (A) (A) (A) (A) (A) (A) (A) (A) (A) (A) (A) (A)
                 (A) (A) (A) (A) (A) (A) (A) (A) (A) (A) (A) (A)
                 (A) (A) (A) (A) (A) (A) (A) (A) (A) (A) (A) (A)
                 (A) (A) (A) (A) (A) (A) (A) (A) (A) (A) (A) (A)
                 (A) (A) (A) (A) (A) (A) (A) (A) (A) (A) (A) (A)
                 (A) (A) (A) (A) (A) (A) (A) (A) (A) (A) (A) (A)
                 (A) (A) (A) (A) (A) (A) (A) (A) (A) (A) (A) (A)
                 (A) (A) (A) (A) (A) (A) (A) (A) (A) (A) (A) (A)
                 (A) (A) (A) (A) (A) (A) (A) (A) (A) (A) (A) (A)
                 (A) (A) (A) (A) (A) (A) (A) (A) (A) (A) (A) (A)
                 (A) (A) (A) (A) (A) (A) (A) (A) (A) (A) (A) (A)
                 (A) (A) (A) (A) (A) (A) (A) (A)
 The electronic state is 1-A.
 Alpha  occ. eigenvalues -- -101.70432 -19.29861 -19.24655 -19.24404 -10.37050
 Alpha  occ. eigenvalues --  -10.36734 -10.35573 -10.32321 -10.31869 -10.31136
 Alpha  occ. eigenvalues --  -10.30333 -10.30284 -10.30221 -10.30180 -10.30078
 Alpha  occ. eigenvalues --  -10.29259 -10.28018 -10.27855 -10.27783  -9.58963
 Alpha  occ. eigenvalues --   -7.33605  -7.32750  -7.32726  -1.18997  -1.10780
 Alpha  occ. eigenvalues --   -1.10589  -1.00950  -0.96645  -0.93993  -0.91845
 Alpha  occ. eigenvalues --   -0.86973  -0.85982  -0.85010  -0.82106  -0.79230
 Alpha  occ. eigenvalues --   -0.74394  -0.73317  -0.71676  -0.69604  -0.65737
 Alpha  occ. eigenvalues --   -0.62926  -0.61591  -0.61155  -0.60992  -0.59253
 Alpha  occ. eigenvalues --   -0.57886  -0.56937  -0.56178  -0.53674  -0.53141
 Alpha  occ. eigenvalues --   -0.52840  -0.52335  -0.51480  -0.50911  -0.49431
 Alpha  occ. eigenvalues --   -0.48852  -0.48093  -0.47701  -0.47286  -0.47040
 Alpha  occ. eigenvalues --   -0.46267  -0.45595  -0.45104  -0.43928  -0.43595
 Alpha  occ. eigenvalues --   -0.43106  -0.41214  -0.40208  -0.39660  -0.39609
 Alpha  occ. eigenvalues --   -0.39119  -0.35694  -0.34831  -0.33752  -0.28927
 Alpha virt. eigenvalues --    0.00253   0.02679   0.03931   0.04668   0.05195
 Alpha virt. eigenvalues --    0.05834   0.06031   0.06192   0.06505   0.07240
 Alpha virt. eigenvalues --    0.07713   0.07945   0.08035   0.08779   0.08870
 Alpha virt. eigenvalues --    0.09323   0.10086   0.10488   0.10688   0.10849
 Alpha virt. eigenvalues --    0.11360   0.11810   0.11948   0.12478   0.13063
 Alpha virt. eigenvalues --    0.13217   0.13365   0.13575   0.13896   0.14091
 Alpha virt. eigenvalues --    0.14672   0.15116   0.15361   0.15530   0.16173
 Alpha virt. eigenvalues --    0.16373   0.16512   0.16601   0.16876   0.17065
 Alpha virt. eigenvalues --    0.17291   0.17600   0.17736   0.18094   0.18380
 Alpha virt. eigenvalues --    0.18451   0.18734   0.18836   0.19142   0.19872
 Alpha virt. eigenvalues --    0.20092   0.20426   0.20918   0.21305   0.21393
 Alpha virt. eigenvalues --    0.21562   0.22013   0.22081   0.22728   0.22820
 Alpha virt. eigenvalues --    0.22960   0.23198   0.23302   0.23937   0.24146
 Alpha virt. eigenvalues --    0.24560   0.25084   0.25478   0.25638   0.25905
 Alpha virt. eigenvalues --    0.26007   0.26292   0.26627   0.26723   0.27736
 Alpha virt. eigenvalues --    0.27910   0.28181   0.28799   0.28992   0.29354
 Alpha virt. eigenvalues --    0.29631   0.29728   0.29988   0.30434   0.31037
 Alpha virt. eigenvalues --    0.31467   0.31537   0.31768   0.32359   0.32578
 Alpha virt. eigenvalues --    0.32798   0.33311   0.33648   0.33859   0.34500
 Alpha virt. eigenvalues --    0.34917   0.35421   0.36042   0.36315   0.36916
 Alpha virt. eigenvalues --    0.37446   0.37706   0.38542   0.38899   0.39903
 Alpha virt. eigenvalues --    0.40566   0.41078   0.41922   0.42333   0.42726
 Alpha virt. eigenvalues --    0.43207   0.44505   0.44953   0.45383   0.45827
 Alpha virt. eigenvalues --    0.46100   0.46403   0.46825   0.46952   0.47316
 Alpha virt. eigenvalues --    0.48066   0.48435   0.48783   0.49329   0.49652
 Alpha virt. eigenvalues --    0.50087   0.50656   0.50825   0.51193   0.51669
 Alpha virt. eigenvalues --    0.51815   0.52056   0.52544   0.52996   0.53198
 Alpha virt. eigenvalues --    0.53430   0.53742   0.54596   0.55008   0.55221
 Alpha virt. eigenvalues --    0.55521   0.55932   0.56091   0.56318   0.56583
 Alpha virt. eigenvalues --    0.57886   0.58103   0.58397   0.58971   0.59324
 Alpha virt. eigenvalues --    0.59839   0.60025   0.60383   0.60930   0.61237
 Alpha virt. eigenvalues --    0.62018   0.62234   0.62549   0.63480   0.63990
 Alpha virt. eigenvalues --    0.64094   0.64290   0.65255   0.65588   0.65619
 Alpha virt. eigenvalues --    0.66699   0.67003   0.67821   0.68195   0.68918
 Alpha virt. eigenvalues --    0.69474   0.69815   0.70297   0.70500   0.70763
 Alpha virt. eigenvalues --    0.71341   0.72045   0.72285   0.73710   0.74741
 Alpha virt. eigenvalues --    0.74812   0.75534   0.76164   0.77176   0.77480
 Alpha virt. eigenvalues --    0.78332   0.78478   0.78754   0.79533   0.79898
 Alpha virt. eigenvalues --    0.80800   0.81348   0.81999   0.82329   0.82793
 Alpha virt. eigenvalues --    0.83361   0.84343   0.85109   0.85593   0.86046
 Alpha virt. eigenvalues --    0.86162   0.87398   0.87871   0.88477   0.89374
 Alpha virt. eigenvalues --    0.90016   0.91202   0.91610   0.92468   0.92692
 Alpha virt. eigenvalues --    0.93344   0.94516   0.94965   0.96072   0.96856
 Alpha virt. eigenvalues --    0.97704   0.98105   0.98460   0.99146   1.01237
 Alpha virt. eigenvalues --    1.02110   1.02876   1.03838   1.04352   1.05620
 Alpha virt. eigenvalues --    1.06594   1.06993   1.08717   1.09560   1.11395
 Alpha virt. eigenvalues --    1.11854   1.13574   1.13823   1.15063   1.16048
 Alpha virt. eigenvalues --    1.17474   1.17604   1.19374   1.20145   1.20943
 Alpha virt. eigenvalues --    1.21521   1.22213   1.22876   1.24053   1.25378
 Alpha virt. eigenvalues --    1.25736   1.26371   1.27233   1.27769   1.28221
 Alpha virt. eigenvalues --    1.28804   1.29623   1.30982   1.31297   1.32119
 Alpha virt. eigenvalues --    1.33876   1.34918   1.35741   1.36125   1.36213
 Alpha virt. eigenvalues --    1.37004   1.37881   1.38359   1.39381   1.39843
 Alpha virt. eigenvalues --    1.40839   1.41330   1.41698   1.44225   1.44694
 Alpha virt. eigenvalues --    1.46167   1.46481   1.46869   1.48129   1.49419
 Alpha virt. eigenvalues --    1.49642   1.50876   1.51668   1.52110   1.53636
 Alpha virt. eigenvalues --    1.54368   1.55700   1.58027   1.58625   1.60499
 Alpha virt. eigenvalues --    1.60677   1.61998   1.62994   1.63687   1.64761
 Alpha virt. eigenvalues --    1.65313   1.66758   1.67193   1.68504   1.69684
 Alpha virt. eigenvalues --    1.69988   1.70211   1.70482   1.71557   1.72067
 Alpha virt. eigenvalues --    1.73040   1.73763   1.73940   1.74613   1.74890
 Alpha virt. eigenvalues --    1.76256   1.77219   1.78008   1.78631   1.79215
 Alpha virt. eigenvalues --    1.79749   1.80574   1.80960   1.81868   1.82887
 Alpha virt. eigenvalues --    1.83370   1.84123   1.84620   1.85151   1.85971
 Alpha virt. eigenvalues --    1.86707   1.86796   1.87892   1.88482   1.89171
 Alpha virt. eigenvalues --    1.89516   1.90909   1.92578   1.93158   1.93710
 Alpha virt. eigenvalues --    1.93952   1.94762   1.95987   1.96451   1.96740
 Alpha virt. eigenvalues --    1.98112   1.98348   1.98967   1.99530   2.00799
 Alpha virt. eigenvalues --    2.02567   2.05167   2.05321   2.06295   2.06778
 Alpha virt. eigenvalues --    2.07147   2.07631   2.08736   2.10128   2.11145
 Alpha virt. eigenvalues --    2.12362   2.13005   2.13262   2.13866   2.14690
 Alpha virt. eigenvalues --    2.16919   2.17380   2.18004   2.19425   2.20152
 Alpha virt. eigenvalues --    2.21547   2.22380   2.23118   2.24910   2.25745
 Alpha virt. eigenvalues --    2.26068   2.26678   2.27462   2.28291   2.28831
 Alpha virt. eigenvalues --    2.29197   2.30187   2.31423   2.32510   2.33130
 Alpha virt. eigenvalues --    2.33720   2.34588   2.35525   2.36328   2.38265
 Alpha virt. eigenvalues --    2.39315   2.41087   2.42279   2.42889   2.43457
 Alpha virt. eigenvalues --    2.44125   2.44800   2.45460   2.46206   2.47139
 Alpha virt. eigenvalues --    2.48119   2.48573   2.48989   2.49924   2.50869
 Alpha virt. eigenvalues --    2.51174   2.51783   2.52373   2.53038   2.53617
 Alpha virt. eigenvalues --    2.53777   2.55256   2.55414   2.57024   2.58351
 Alpha virt. eigenvalues --    2.59199   2.60905   2.61096   2.61814   2.62408
 Alpha virt. eigenvalues --    2.63247   2.64042   2.66886   2.67594   2.68180
 Alpha virt. eigenvalues --    2.69257   2.69529   2.69742   2.70283   2.71004
 Alpha virt. eigenvalues --    2.71254   2.72041   2.73129   2.73431   2.74720
 Alpha virt. eigenvalues --    2.75737   2.76732   2.77615   2.78811   2.78995
 Alpha virt. eigenvalues --    2.79478   2.80227   2.82079   2.82694   2.83009
 Alpha virt. eigenvalues --    2.83215   2.84185   2.84979   2.85465   2.86656
 Alpha virt. eigenvalues --    2.87267   2.88248   2.89126   2.89512   2.89691
 Alpha virt. eigenvalues --    2.91023   2.91260   2.92497   2.93287   2.94645
 Alpha virt. eigenvalues --    2.95221   2.95438   2.96615   2.97752   2.98190
 Alpha virt. eigenvalues --    2.99448   3.00067   3.00760   3.00908   3.01682
 Alpha virt. eigenvalues --    3.03411   3.03462   3.04058   3.04832   3.04963
 Alpha virt. eigenvalues --    3.06359   3.07016   3.07881   3.09435   3.09673
 Alpha virt. eigenvalues --    3.11149   3.11890   3.12901   3.13185   3.14208
 Alpha virt. eigenvalues --    3.14619   3.16086   3.17014   3.17460   3.18785
 Alpha virt. eigenvalues --    3.20038   3.20766   3.21964   3.23654   3.23898
 Alpha virt. eigenvalues --    3.24434   3.25867   3.26794   3.27406   3.27620
 Alpha virt. eigenvalues --    3.28835   3.29664   3.30473   3.30731   3.31022
 Alpha virt. eigenvalues --    3.32012   3.33015   3.34186   3.34845   3.35342
 Alpha virt. eigenvalues --    3.36090   3.36690   3.37477   3.37747   3.38700
 Alpha virt. eigenvalues --    3.39083   3.40126   3.41536   3.42059   3.42770
 Alpha virt. eigenvalues --    3.42802   3.43574   3.44550   3.45347   3.46493
 Alpha virt. eigenvalues --    3.46704   3.47099   3.47748   3.48135   3.49228
 Alpha virt. eigenvalues --    3.50210   3.50477   3.52262   3.52392   3.52984
 Alpha virt. eigenvalues --    3.54995   3.55691   3.56160   3.56618   3.57306
 Alpha virt. eigenvalues --    3.59031   3.59448   3.59859   3.60678   3.61515
 Alpha virt. eigenvalues --    3.62037   3.62694   3.63843   3.64314   3.65383
 Alpha virt. eigenvalues --    3.66830   3.68610   3.69430   3.70540   3.71047
 Alpha virt. eigenvalues --    3.73575   3.73879   3.74545   3.74986   3.76257
 Alpha virt. eigenvalues --    3.76659   3.79540   3.81048   3.82863   3.84222
 Alpha virt. eigenvalues --    3.84444   3.87956   3.90445   3.92165   3.92929
 Alpha virt. eigenvalues --    3.93285   3.94769   3.96268   3.97754   3.99891
 Alpha virt. eigenvalues --    4.01661   4.02185   4.05308   4.05957   4.06355
 Alpha virt. eigenvalues --    4.06806   4.09477   4.10470   4.11200   4.12771
 Alpha virt. eigenvalues --    4.13625   4.13779   4.15786   4.17633   4.18950
 Alpha virt. eigenvalues --    4.19669   4.20056   4.22033   4.22839   4.24458
 Alpha virt. eigenvalues --    4.24939   4.25424   4.26494   4.27746   4.30004
 Alpha virt. eigenvalues --    4.30207   4.31445   4.33301   4.33889   4.34845
 Alpha virt. eigenvalues --    4.35601   4.38692   4.40423   4.41015   4.44801
 Alpha virt. eigenvalues --    4.45165   4.47103   4.47821   4.49444   4.52568
 Alpha virt. eigenvalues --    4.53075   4.55101   4.56362   4.57916   4.59885
 Alpha virt. eigenvalues --    4.61301   4.62856   4.65660   4.66978   4.72569
 Alpha virt. eigenvalues --    4.75622   4.79042   4.79810   4.81125   4.81690
 Alpha virt. eigenvalues --    4.85040   4.86615   4.88737   4.90638   4.91219
 Alpha virt. eigenvalues --    4.93655   4.94481   5.01454   5.04804   5.06641
 Alpha virt. eigenvalues --    5.08397   5.11513   5.16352   5.18760   5.19816
 Alpha virt. eigenvalues --    5.20750   5.21750   5.23818   5.28669   5.31669
 Alpha virt. eigenvalues --    5.32020   5.33593   5.34052   5.38373   5.41973
 Alpha virt. eigenvalues --    5.43715   5.46006   5.48943   5.49959   5.53460
 Alpha virt. eigenvalues --    5.54285   5.55846   5.56148   5.58188   5.70731
 Alpha virt. eigenvalues --    5.72978   5.82378   5.86441   5.95511   6.12194
 Alpha virt. eigenvalues --    6.16183   6.18783   6.19323   6.35291   6.38464
 Alpha virt. eigenvalues --    6.45756   6.48338   6.49670   6.51520   6.57776
 Alpha virt. eigenvalues --    6.58392   6.60091   6.74349   6.81021   7.02402
 Alpha virt. eigenvalues --    7.03240   7.06753   7.11504   7.23211   7.23565
 Alpha virt. eigenvalues --    7.52102   7.72933  10.93377  11.02784  11.51748
 Alpha virt. eigenvalues --   22.40435  22.45772  22.55832  22.58734  22.71449
 Alpha virt. eigenvalues --   22.78173  22.80102  22.86545  22.89135  22.92729
 Alpha virt. eigenvalues --   22.97236  23.06462  23.09299  23.28325  23.78008
 Alpha virt. eigenvalues --   26.46917  43.81923  43.91374  44.85696
          Condensed to atoms (all electrons):
               1          2          3          4          5          6
     1  C    5.664475   0.147602  -0.171817   0.285214  -0.649060   0.092595
     2  C    0.147602   5.750227   0.152164  -0.397492   0.182545   0.126788
     3  C   -0.171817   0.152164   6.591038   0.154769  -0.116192  -0.044138
     4  C    0.285214  -0.397492   0.154769   7.599802  -0.424567  -0.362291
     5  C   -0.649060   0.182545  -0.116192  -0.424567   7.159023   0.600221
     6  C    0.092595   0.126788  -0.044138  -0.362291   0.600221   5.304160
     7  H    0.411341  -0.062335   0.019900  -0.010075   0.034742  -0.025298
     8  H   -0.053969   0.477838  -0.054790   0.009057  -0.006232   0.011117
     9  H   -0.019987   0.007042   0.017013  -0.066642   0.471520  -0.013477
    10  H   -0.023487   0.016017  -0.005915   0.032397  -0.079169   0.421287
    11  C    0.270018  -0.042590  -0.571486  -0.623254  -0.896947  -0.014472
    12  C   -0.188141   0.098100   0.283253  -0.081118   0.394132   0.100359
    13  C    0.248289  -0.465995  -0.030958   0.559418  -0.529578  -0.152331
    14  H    0.001062  -0.004308  -0.004459  -0.010282  -0.000623   0.001257
    15  C    0.034649   0.090149   0.034395  -0.356086   0.014642  -0.008482
    16  H   -0.000147  -0.001532   0.019952  -0.009638   0.002247   0.000239
    17  O    0.084438  -0.108336   0.019530   0.064018  -0.217237   0.005506
    18  Cl  -0.018395   0.056815  -0.137759   0.024595   0.006510   0.008185
    19  C   -0.134515   0.229807  -0.464867  -0.184363   0.731863  -0.133714
    20  C    0.040987  -0.084819   0.199004   0.032332  -0.274512   0.034514
    21  H   -0.000067   0.000081   0.000019   0.001559   0.001446   0.000010
    22  C    0.002689  -0.020330   0.073740   0.056109  -0.066121   0.021218
    23  H   -0.000050  -0.000071   0.000978  -0.002117   0.001546  -0.000061
    24  H    0.000109   0.000351   0.002212   0.001519  -0.007938  -0.000316
    25  H   -0.000243   0.000383  -0.001610   0.003388   0.003028   0.000368
    26  C    0.032850  -0.033799   0.002779  -0.002922  -0.166633   0.016412
    27  H    0.001360  -0.000740  -0.000883  -0.014603  -0.004075   0.002116
    28  H    0.000002  -0.000017  -0.000122   0.000921  -0.000452  -0.000020
    29  H   -0.000472  -0.000086   0.001279   0.004174   0.001628   0.000193
    30  C   -0.037495   0.064257  -0.069043   0.009814   0.177063  -0.008597
    31  H   -0.000049   0.000189  -0.000407   0.001620  -0.001226  -0.000119
    32  H   -0.001863   0.000110   0.002620   0.006299   0.015162   0.003297
    33  O    0.003622   0.000720  -0.039243   0.014297  -0.021997  -0.003617
    34  H    0.004511   0.003394   0.020588  -0.013635  -0.013367  -0.004604
    35  H    0.000290  -0.000847   0.003533   0.032018   0.003316   0.002625
    36  O   -0.004054  -0.009254  -0.003265   0.020977  -0.021198  -0.023601
    37  H    0.001396  -0.001828  -0.010391   0.004900   0.007428   0.009610
    38  H   -0.014936   0.013178  -0.015047  -0.013573   0.117524  -0.003670
               7          8          9         10         11         12
     1  C    0.411341  -0.053969  -0.019987  -0.023487   0.270018  -0.188141
     2  C   -0.062335   0.477838   0.007042   0.016017  -0.042590   0.098100
     3  C    0.019900  -0.054790   0.017013  -0.005915  -0.571486   0.283253
     4  C   -0.010075   0.009057  -0.066642   0.032397  -0.623254  -0.081118
     5  C    0.034742  -0.006232   0.471520  -0.079169  -0.896947   0.394132
     6  C   -0.025298   0.011117  -0.013477   0.421287  -0.014472   0.100359
     7  H    0.483201  -0.006046  -0.000035  -0.005164  -0.004599  -0.002422
     8  H   -0.006046   0.484865   0.000008  -0.000001  -0.005903  -0.016354
     9  H   -0.000035   0.000008   0.445394  -0.005852  -0.042298   0.004914
    10  H   -0.005164  -0.000001  -0.005852   0.481686  -0.001301  -0.000721
    11  C   -0.004599  -0.005903  -0.042298  -0.001301   9.318915  -0.700243
    12  C   -0.002422  -0.016354   0.004914  -0.000721  -0.700243   6.282750
    13  C   -0.000944  -0.010184  -0.001455   0.000387   0.278603  -0.973047
    14  H    0.000000  -0.000002  -0.000065   0.000000  -0.088548   0.002831
    15  C   -0.000093  -0.006190   0.003666  -0.001158  -0.156659   0.451226
    16  H    0.000000   0.000029   0.000003   0.000000   0.030987  -0.058477
    17  O    0.000100  -0.000412  -0.021576   0.001371   0.146545  -0.098176
    18  Cl   0.000244   0.000651   0.000080  -0.000006  -0.019038   0.300457
    19  C   -0.000164  -0.000160   0.006203  -0.000604  -1.995256   0.029428
    20  C   -0.000015  -0.000038   0.003917   0.000257   1.013932  -0.069732
    21  H    0.000000   0.000000   0.000006   0.000000  -0.013954   0.000892
    22  C    0.000017   0.000110  -0.002552   0.000253   0.209061   0.030642
    23  H    0.000000   0.000000   0.000015   0.000000   0.037322  -0.000004
    24  H    0.000000   0.000000  -0.000033   0.000000  -0.019674  -0.000483
    25  H    0.000000   0.000000   0.000129   0.000000  -0.028553   0.000711
    26  C    0.000011   0.000002   0.001006  -0.000219   0.297054  -0.035911
    27  H    0.000000   0.000000  -0.000492   0.000001   0.041270  -0.001043
    28  H    0.000000   0.000000  -0.000035   0.000000   0.004509  -0.000089
    29  H    0.000000   0.000000   0.000270   0.000002  -0.011177   0.000302
    30  C   -0.000002   0.000058   0.000078  -0.000068  -0.602525   0.097538
    31  H    0.000000   0.000000   0.000002   0.000000  -0.002783  -0.000297
    32  H    0.000000   0.000000   0.000068   0.000000  -0.035924   0.013562
    33  O    0.000041   0.000210  -0.000467   0.000093   0.064440  -0.030022
    34  H    0.000005  -0.000039  -0.000168   0.000000  -0.008296  -0.014753
    35  H    0.000002  -0.000038  -0.000064   0.000062  -0.035570  -0.003732
    36  O   -0.000005  -0.000003  -0.001869  -0.000129   0.086487  -0.011752
    37  H    0.000003  -0.000002  -0.001896   0.000013   0.007338   0.001187
    38  H   -0.000001   0.000000   0.001698  -0.000096  -0.143814   0.010757
              13         14         15         16         17         18
     1  C    0.248289   0.001062   0.034649  -0.000147   0.084438  -0.018395
     2  C   -0.465995  -0.004308   0.090149  -0.001532  -0.108336   0.056815
     3  C   -0.030958  -0.004459   0.034395   0.019952   0.019530  -0.137759
     4  C    0.559418  -0.010282  -0.356086  -0.009638   0.064018   0.024595
     5  C   -0.529578  -0.000623   0.014642   0.002247  -0.217237   0.006510
     6  C   -0.152331   0.001257  -0.008482   0.000239   0.005506   0.008185
     7  H   -0.000944   0.000000  -0.000093   0.000000   0.000100   0.000244
     8  H   -0.010184  -0.000002  -0.006190   0.000029  -0.000412   0.000651
     9  H   -0.001455  -0.000065   0.003666   0.000003  -0.021576   0.000080
    10  H    0.000387   0.000000  -0.001158   0.000000   0.001371  -0.000006
    11  C    0.278603  -0.088548  -0.156659   0.030987   0.146545  -0.019038
    12  C   -0.973047   0.002831   0.451226  -0.058477  -0.098176   0.300457
    13  C    7.536334   0.486665  -0.208017  -0.071899  -0.004494   0.028057
    14  H    0.486665   0.439479  -0.004023  -0.004671  -0.002173  -0.000340
    15  C   -0.208017  -0.004023   5.885636   0.448016  -0.096707  -0.130664
    16  H   -0.071899  -0.004671   0.448016   0.472973  -0.001041  -0.010426
    17  O   -0.004494  -0.002173  -0.096707  -0.001041   8.855009  -0.002445
    18  Cl   0.028057  -0.000340  -0.130664  -0.010426  -0.002445  17.064569
    19  C   -0.277644   0.024195   0.245103   0.004359  -0.223764   0.000914
    20  C    0.115219  -0.028968  -0.144211  -0.002774   0.057654  -0.000746
    21  H   -0.003411  -0.000197   0.000528   0.000000   0.004410  -0.000001
    22  C   -0.042599  -0.017931  -0.028013  -0.001125  -0.021812  -0.000483
    23  H   -0.002265   0.000060  -0.002568  -0.000001   0.016533  -0.000001
    24  H    0.030977  -0.003360   0.005620   0.000094  -0.019851   0.000002
    25  H   -0.012390  -0.000148   0.002092   0.000003  -0.000726   0.000004
    26  C    0.091605   0.007528  -0.030352  -0.000266  -0.005615  -0.000114
    27  H   -0.010961   0.000075  -0.001611   0.000000  -0.012752  -0.000001
    28  H    0.002179   0.000050   0.000311   0.000000   0.024931   0.000000
    29  H   -0.000579  -0.000029  -0.000069   0.000000  -0.019316   0.000000
    30  C   -0.189338  -0.007950   0.109388   0.001775  -0.014684   0.000846
    31  H   -0.001172   0.000232   0.000907   0.000001   0.000598   0.000002
    32  H   -0.015468   0.000030   0.005094  -0.000022  -0.005638  -0.000053
    33  O   -0.008471  -0.000915   0.004047   0.000331   0.023801  -0.000334
    34  H    0.019883   0.000036   0.010558  -0.000035  -0.001361  -0.000828
    35  H   -0.002250   0.000067  -0.004640  -0.000010   0.003813   0.000084
    36  O    0.022964   0.000289  -0.011958  -0.000014  -0.012190  -0.000073
    37  H   -0.005619   0.000007  -0.001031   0.000000   0.010314  -0.000022
    38  H   -0.016313  -0.000321   0.008654   0.000009   0.000093   0.000025
              19         20         21         22         23         24
     1  C   -0.134515   0.040987  -0.000067   0.002689  -0.000050   0.000109
     2  C    0.229807  -0.084819   0.000081  -0.020330  -0.000071   0.000351
     3  C   -0.464867   0.199004   0.000019   0.073740   0.000978   0.002212
     4  C   -0.184363   0.032332   0.001559   0.056109  -0.002117   0.001519
     5  C    0.731863  -0.274512   0.001446  -0.066121   0.001546  -0.007938
     6  C   -0.133714   0.034514   0.000010   0.021218  -0.000061  -0.000316
     7  H   -0.000164  -0.000015   0.000000   0.000017   0.000000   0.000000
     8  H   -0.000160  -0.000038   0.000000   0.000110   0.000000   0.000000
     9  H    0.006203   0.003917   0.000006  -0.002552   0.000015  -0.000033
    10  H   -0.000604   0.000257   0.000000   0.000253   0.000000   0.000000
    11  C   -1.995256   1.013932  -0.013954   0.209061   0.037322  -0.019674
    12  C    0.029428  -0.069732   0.000892   0.030642  -0.000004  -0.000483
    13  C   -0.277644   0.115219  -0.003411  -0.042599  -0.002265   0.030977
    14  H    0.024195  -0.028968  -0.000197  -0.017931   0.000060  -0.003360
    15  C    0.245103  -0.144211   0.000528  -0.028013  -0.002568   0.005620
    16  H    0.004359  -0.002774   0.000000  -0.001125  -0.000001   0.000094
    17  O   -0.223764   0.057654   0.004410  -0.021812   0.016533  -0.019851
    18  Cl   0.000914  -0.000746  -0.000001  -0.000483  -0.000001   0.000002
    19  C   11.155714  -2.286894  -0.005976  -0.750270  -0.104731  -0.040326
    20  C   -2.286894   7.254835   0.354549   0.213768  -0.014328   0.050368
    21  H   -0.005976   0.354549   0.472197   0.013070   0.001855  -0.000328
    22  C   -0.750270   0.213768   0.013070   5.701899   0.460879   0.399930
    23  H   -0.104731  -0.014328   0.001855   0.460879   0.494400  -0.019344
    24  H   -0.040326   0.050368  -0.000328   0.399930  -0.019344   0.509904
    25  H   -0.070303  -0.012597   0.000181   0.461903  -0.010952  -0.016612
    26  C   -0.604239   0.105180  -0.014500  -0.089983  -0.022052  -0.024207
    27  H   -0.087015  -0.036137   0.000764   0.007429  -0.000095  -0.000321
    28  H   -0.067034  -0.015029  -0.001148  -0.038355   0.000514  -0.000020
    29  H   -0.082831   0.031628   0.000046   0.036049   0.000913  -0.000027
    30  C    0.882254  -0.344394   0.018360  -0.175692  -0.001659  -0.008721
    31  H    0.017447  -0.065415  -0.004732  -0.000801  -0.000011   0.000034
    32  H   -0.008265  -0.068330   0.002891   0.011815   0.000007  -0.000052
    33  O    0.069838  -0.020320  -0.000245  -0.012860   0.000003  -0.000055
    34  H    0.003403   0.000598  -0.000004   0.000151   0.000000   0.000002
    35  H   -0.001380   0.001231   0.000006   0.000274   0.000000   0.000000
    36  O   -0.137886   0.042599   0.000000   0.014513   0.000190   0.000569
    37  H   -0.006479  -0.001755  -0.000001  -0.001285  -0.000016   0.000001
    38  H    0.199595  -0.042321  -0.000032  -0.042247  -0.000191   0.000162
              25         26         27         28         29         30
     1  C   -0.000243   0.032850   0.001360   0.000002  -0.000472  -0.037495
     2  C    0.000383  -0.033799  -0.000740  -0.000017  -0.000086   0.064257
     3  C   -0.001610   0.002779  -0.000883  -0.000122   0.001279  -0.069043
     4  C    0.003388  -0.002922  -0.014603   0.000921   0.004174   0.009814
     5  C    0.003028  -0.166633  -0.004075  -0.000452   0.001628   0.177063
     6  C    0.000368   0.016412   0.002116  -0.000020   0.000193  -0.008597
     7  H    0.000000   0.000011   0.000000   0.000000   0.000000  -0.000002
     8  H    0.000000   0.000002   0.000000   0.000000   0.000000   0.000058
     9  H    0.000129   0.001006  -0.000492  -0.000035   0.000270   0.000078
    10  H    0.000000  -0.000219   0.000001   0.000000   0.000002  -0.000068
    11  C   -0.028553   0.297054   0.041270   0.004509  -0.011177  -0.602525
    12  C    0.000711  -0.035911  -0.001043  -0.000089   0.000302   0.097538
    13  C   -0.012390   0.091605  -0.010961   0.002179  -0.000579  -0.189338
    14  H   -0.000148   0.007528   0.000075   0.000050  -0.000029  -0.007950
    15  C    0.002092  -0.030352  -0.001611   0.000311  -0.000069   0.109388
    16  H    0.000003  -0.000266   0.000000   0.000000   0.000000   0.001775
    17  O   -0.000726  -0.005615  -0.012752   0.024931  -0.019316  -0.014684
    18  Cl   0.000004  -0.000114  -0.000001   0.000000   0.000000   0.000846
    19  C   -0.070303  -0.604239  -0.087015  -0.067034  -0.082831   0.882254
    20  C   -0.012597   0.105180  -0.036137  -0.015029   0.031628  -0.344394
    21  H    0.000181  -0.014500   0.000764  -0.001148   0.000046   0.018360
    22  C    0.461903  -0.089983   0.007429  -0.038355   0.036049  -0.175692
    23  H   -0.010952  -0.022052  -0.000095   0.000514   0.000913  -0.001659
    24  H   -0.016612  -0.024207  -0.000321  -0.000020  -0.000027  -0.008721
    25  H    0.482435   0.023087  -0.000333   0.000434   0.003798   0.001390
    26  C    0.023087   5.722042   0.473669   0.456208   0.418297  -0.060710
    27  H   -0.000333   0.473669   0.502588  -0.016031  -0.018292   0.010879
    28  H    0.000434   0.456208  -0.016031   0.493215  -0.017184   0.006467
    29  H    0.003798   0.418297  -0.018292  -0.017184   0.489582  -0.009388
    30  C    0.001390  -0.060710   0.010879   0.006467  -0.009388   5.658304
    31  H    0.000001   0.006787  -0.000108   0.000013   0.000009   0.427854
    32  H    0.000089  -0.008462  -0.000015  -0.000009   0.000084   0.443308
    33  O   -0.000014   0.002401  -0.000087  -0.000012  -0.000007  -0.002762
    34  H   -0.000003  -0.001289   0.000011   0.000000   0.000000  -0.002294
    35  H    0.000000  -0.000419   0.000017   0.000001  -0.000002   0.000883
    36  O    0.007003   0.032039  -0.000192   0.000534  -0.003015  -0.012753
    37  H   -0.001672   0.001539   0.000021  -0.000020   0.000811  -0.000130
    38  H   -0.008444  -0.036734  -0.001120  -0.000258  -0.001827   0.011419
              31         32         33         34         35         36
     1  C   -0.000049  -0.001863   0.003622   0.004511   0.000290  -0.004054
     2  C    0.000189   0.000110   0.000720   0.003394  -0.000847  -0.009254
     3  C   -0.000407   0.002620  -0.039243   0.020588   0.003533  -0.003265
     4  C    0.001620   0.006299   0.014297  -0.013635   0.032018   0.020977
     5  C   -0.001226   0.015162  -0.021997  -0.013367   0.003316  -0.021198
     6  C   -0.000119   0.003297  -0.003617  -0.004604   0.002625  -0.023601
     7  H    0.000000   0.000000   0.000041   0.000005   0.000002  -0.000005
     8  H    0.000000   0.000000   0.000210  -0.000039  -0.000038  -0.000003
     9  H    0.000002   0.000068  -0.000467  -0.000168  -0.000064  -0.001869
    10  H    0.000000   0.000000   0.000093   0.000000   0.000062  -0.000129
    11  C   -0.002783  -0.035924   0.064440  -0.008296  -0.035570   0.086487
    12  C   -0.000297   0.013562  -0.030022  -0.014753  -0.003732  -0.011752
    13  C   -0.001172  -0.015468  -0.008471   0.019883  -0.002250   0.022964
    14  H    0.000232   0.000030  -0.000915   0.000036   0.000067   0.000289
    15  C    0.000907   0.005094   0.004047   0.010558  -0.004640  -0.011958
    16  H    0.000001  -0.000022   0.000331  -0.000035  -0.000010  -0.000014
    17  O    0.000598  -0.005638   0.023801  -0.001361   0.003813  -0.012190
    18  Cl   0.000002  -0.000053  -0.000334  -0.000828   0.000084  -0.000073
    19  C    0.017447  -0.008265   0.069838   0.003403  -0.001380  -0.137886
    20  C   -0.065415  -0.068330  -0.020320   0.000598   0.001231   0.042599
    21  H   -0.004732   0.002891  -0.000245  -0.000004   0.000006   0.000000
    22  C   -0.000801   0.011815  -0.012860   0.000151   0.000274   0.014513
    23  H   -0.000011   0.000007   0.000003   0.000000   0.000000   0.000190
    24  H    0.000034  -0.000052  -0.000055   0.000002   0.000000   0.000569
    25  H    0.000001   0.000089  -0.000014  -0.000003   0.000000   0.007003
    26  C    0.006787  -0.008462   0.002401  -0.001289  -0.000419   0.032039
    27  H   -0.000108  -0.000015  -0.000087   0.000011   0.000017  -0.000192
    28  H    0.000013  -0.000009  -0.000012   0.000000   0.000001   0.000534
    29  H    0.000009   0.000084  -0.000007   0.000000  -0.000002  -0.003015
    30  C    0.427854   0.443308  -0.002762  -0.002294   0.000883  -0.012753
    31  H    0.472793  -0.015082   0.000655   0.000026  -0.000040   0.000001
    32  H   -0.015082   0.458474  -0.016952  -0.001505   0.000771  -0.000046
    33  O    0.000655  -0.016952   7.933166   0.320549   0.333820  -0.000175
    34  H    0.000026  -0.001505   0.320549   0.366824  -0.029532  -0.000001
    35  H   -0.000040   0.000771   0.333820  -0.029532   0.328929   0.000046
    36  O    0.000001  -0.000046  -0.000175  -0.000001   0.000046   8.072230
    37  H    0.000000   0.000001   0.000000   0.000001   0.000000   0.301709
    38  H    0.000005   0.000001   0.000272  -0.000017  -0.000035   0.250115
              37         38
     1  C    0.001396  -0.014936
     2  C   -0.001828   0.013178
     3  C   -0.010391  -0.015047
     4  C    0.004900  -0.013573
     5  C    0.007428   0.117524
     6  C    0.009610  -0.003670
     7  H    0.000003  -0.000001
     8  H   -0.000002   0.000000
     9  H   -0.001896   0.001698
    10  H    0.000013  -0.000096
    11  C    0.007338  -0.143814
    12  C    0.001187   0.010757
    13  C   -0.005619  -0.016313
    14  H    0.000007  -0.000321
    15  C   -0.001031   0.008654
[...]
    23  H    0.000000   0.000000   0.000002   0.000000   0.033787   0.000590
    24  H    0.000000   0.000000  -0.000021   0.000000  -0.015421  -0.002358
    25  H    0.000000   0.000000  -0.000009   0.000000  -0.025072  -0.001088
    26  C   -0.000026  -0.000017   0.010687  -0.000064   0.413409  -0.053659
    27  H    0.000000   0.000000   0.000334  -0.000002   0.010372  -0.000530
    28  H    0.000000   0.000000  -0.000071   0.000000   0.007919  -0.000106
    29  H    0.000000   0.000000   0.000244   0.000001   0.003267   0.000135
    30  C    0.000042   0.000073  -0.007516   0.000085  -0.358940   0.070681
    31  H    0.000000   0.000000  -0.000008   0.000000  -0.003291   0.000041
    32  H    0.000000   0.000000  -0.000127  -0.000001  -0.014265   0.011712
    33  O    0.000048   0.000150   0.000185   0.000030  -0.010136  -0.010683
    34  H    0.000005  -0.000037  -0.000022  -0.000005   0.002554  -0.026734
    35  H    0.000030  -0.000040  -0.000005   0.000014  -0.018939  -0.012629
    36  O   -0.000007   0.000002  -0.006628   0.000106   0.039356  -0.006049
    37  H    0.000004  -0.000003  -0.001448  -0.000011  -0.024416   0.003062
    38  H    0.000003   0.000000   0.000008  -0.000126  -0.142156   0.009087
              13         14         15         16         17         18
     1  C    0.155708   0.001525   0.024709   0.000155   0.039357  -0.012331
     2  C   -0.449447  -0.008407   0.281211   0.001426  -0.099367   0.064179
     3  C   -0.280651  -0.021658   0.260580   0.026568  -0.014418  -0.147902
     4  C    0.785040   0.007047  -0.787801  -0.015881   0.158163   0.036172
     5  C   -0.411400  -0.001552   0.024085   0.002120   0.033645  -0.003800
     6  C   -0.118155   0.001455  -0.017448   0.000023  -0.011834   0.008916
     7  H   -0.001083   0.000000   0.000363   0.000000   0.000296   0.000150
     8  H   -0.010842  -0.000004  -0.005569   0.000034  -0.000797   0.001002
     9  H   -0.002848   0.000024  -0.001299  -0.000002   0.002383   0.000050
    10  H    0.000683   0.000000  -0.001359   0.000000  -0.000056   0.000018
    11  C    0.353494  -0.092468  -0.206989   0.032214   0.002353  -0.019377
    12  C   -0.718496  -0.005055   0.461216  -0.064529  -0.022922   0.278777
    13  C    7.393928   0.504832  -0.375378  -0.080603  -0.044964   0.041525
    14  H    0.504832   0.457030  -0.021428  -0.005914   0.000605  -0.000265
    15  C   -0.375378  -0.021428   6.161896   0.460398  -0.151606  -0.127505
    16  H   -0.080603  -0.005914   0.460398   0.476255  -0.002159  -0.011194
    17  O   -0.044964   0.000605  -0.151606  -0.002159   9.183578  -0.001351
    18  Cl   0.041525  -0.000265  -0.127505  -0.011194  -0.001351  17.068436
    19  C   -0.235267   0.040737   0.274517   0.004322  -0.780259  -0.002289
    20  C    0.000918  -0.018768  -0.206972  -0.004258   0.211931   0.001274
    21  H   -0.000373  -0.000891  -0.000133   0.000007   0.010048  -0.000005
    22  C   -0.046738  -0.028403   0.038557  -0.000368  -0.039690  -0.000052
    23  H   -0.004770   0.000103  -0.003243  -0.000001   0.021439  -0.000002
    24  H    0.038008  -0.001163   0.001047   0.000068  -0.029800   0.000011
    25  H   -0.012862  -0.000219   0.002365   0.000001   0.004334   0.000005
    26  C    0.085337   0.008930  -0.066006  -0.000416   0.125395   0.000308
    27  H   -0.008678   0.000057  -0.000932   0.000000  -0.015144   0.000000
    28  H    0.000875   0.000044   0.000179   0.000000   0.018284   0.000000
    29  H   -0.002785  -0.000001  -0.000844   0.000000  -0.016246   0.000000
    30  C   -0.131869  -0.011276   0.115125   0.002276  -0.136707  -0.000738
    31  H   -0.004005   0.000220   0.000919  -0.000001  -0.001656   0.000004
    32  H   -0.006831  -0.000992   0.004266   0.000027  -0.003384  -0.000101
    33  O   -0.008953   0.000331   0.010923   0.000370   0.005978  -0.001773
    34  H    0.024891  -0.000056   0.008601  -0.000060   0.004088  -0.000730
    35  H   -0.000225   0.000024  -0.004440  -0.000015   0.003051   0.000250
    36  O    0.016602   0.000170  -0.010104  -0.000011   0.011147   0.000031
    37  H   -0.007735   0.000013  -0.000354  -0.000001   0.010488  -0.000022
    38  H   -0.019076  -0.000118   0.009755   0.000006  -0.013963  -0.000017
              19         20         21         22         23         24
     1  C   -0.124232   0.037583   0.000031  -0.008835  -0.000027   0.000112
     2  C    0.219478  -0.111304  -0.000057  -0.001487  -0.000147   0.000029
     3  C   -0.127909  -0.011165  -0.000600   0.004914   0.000232  -0.000065
     4  C   -0.589654   0.320112  -0.000551   0.034013  -0.001850   0.003977
     5  C    0.734552  -0.233928   0.001557   0.011780   0.003193  -0.008111
     6  C   -0.188980   0.068039   0.000107   0.014487   0.000184  -0.000190
     7  H    0.000032  -0.000038   0.000000  -0.000028   0.000000   0.000000
     8  H   -0.000087  -0.000089   0.000000   0.000114   0.000000   0.000000
     9  H   -0.023736   0.012547   0.000000  -0.001774   0.000002  -0.000021
    10  H   -0.000597   0.000124   0.000000   0.000155   0.000000   0.000000
    11  C   -1.822518   0.741430  -0.009493  -0.030139   0.033787  -0.015421
    12  C    0.019322  -0.072517   0.000754   0.048152   0.000590  -0.002358
    13  C   -0.235267   0.000918  -0.000373  -0.046738  -0.004770   0.038008
    14  H    0.040737  -0.018768  -0.000891  -0.028403   0.000103  -0.001163
    15  C    0.274517  -0.206972  -0.000133   0.038557  -0.003243   0.001047
    16  H    0.004322  -0.004258   0.000007  -0.000368  -0.000001   0.000068
    17  O   -0.780259   0.211931   0.010048  -0.039690   0.021439  -0.029800
    18  Cl  -0.002289   0.001274  -0.000005  -0.000052  -0.000002   0.000011
    19  C   10.886303  -1.853542  -0.023120  -0.166652  -0.096474  -0.031585
    20  C   -1.853542   7.011193   0.368352  -0.056047  -0.021782   0.049315
    21  H   -0.023120   0.368352   0.472526   0.011375   0.001944  -0.000926
    22  C   -0.166652  -0.056047   0.011375   5.515614   0.459068   0.397388
    23  H   -0.096474  -0.021782   0.001944   0.459068   0.491776  -0.020789
    24  H   -0.031585   0.049315  -0.000926   0.397388  -0.020789   0.509997
    25  H   -0.063560  -0.005345  -0.000023   0.454619  -0.014507  -0.014691
    26  C   -0.883910   0.267579  -0.006761  -0.140896  -0.022863  -0.020126
    27  H   -0.024931  -0.060266   0.000585   0.002844   0.000018  -0.000322
    28  H   -0.053029  -0.019660  -0.000909  -0.027982   0.000487  -0.000037
    29  H   -0.107558   0.051432   0.000046   0.012522   0.000707   0.000011
    30  C    0.848055  -0.281830   0.003370  -0.068512   0.003701  -0.011264
    31  H    0.017733  -0.075928  -0.004800   0.000661  -0.000013   0.000037
    32  H    0.014526  -0.077879   0.002685   0.005336   0.000025  -0.000136
    33  O    0.005069   0.023596  -0.000098  -0.002556   0.000001  -0.000013
    34  H    0.007245  -0.007211  -0.000014  -0.001256   0.000000   0.000001
    35  H   -0.001071   0.001468   0.000002  -0.000478   0.000000   0.000000
    36  O   -0.103096   0.008482   0.000047   0.010140   0.000179   0.000092
    37  H    0.028433  -0.001457  -0.000001  -0.005426   0.000000  -0.000005
    38  H    0.205752  -0.034112  -0.000045  -0.017349  -0.000041   0.000071
              25         26         27         28         29         30
     1  C    0.000009   0.046336   0.001261   0.000039  -0.000083  -0.033353
     2  C    0.000002  -0.056209  -0.000508  -0.000063  -0.000350   0.085695
     3  C   -0.002038  -0.044824  -0.001994  -0.000367   0.000169   0.081731
     4  C    0.001467   0.123329  -0.010442  -0.000276   0.003527  -0.216840
     5  C    0.002595  -0.216191   0.001018  -0.000168  -0.001027   0.142637
     6  C    0.000092   0.052824   0.001919   0.000172   0.001949  -0.043213
     7  H    0.000000  -0.000026   0.000000   0.000000   0.000000   0.000042
     8  H    0.000000  -0.000017   0.000000   0.000000   0.000000   0.000073
     9  H   -0.000009   0.010687   0.000334  -0.000071   0.000244  -0.007516
    10  H    0.000000  -0.000064  -0.000002   0.000000   0.000001   0.000085
    11  C   -0.025072   0.413409   0.010372   0.007919   0.003267  -0.358940
    12  C   -0.001088  -0.053659  -0.000530  -0.000106   0.000135   0.070681
    13  C   -0.012862   0.085337  -0.008678   0.000875  -0.002785  -0.131869
    14  H   -0.000219   0.008930   0.000057   0.000044  -0.000001  -0.011276
    15  C    0.002365  -0.066006  -0.000932   0.000179  -0.000844   0.115125
    16  H    0.000001  -0.000416   0.000000   0.000000   0.000000   0.002276
    17  O    0.004334   0.125395  -0.015144   0.018284  -0.016246  -0.136707
    18  Cl   0.000005   0.000308   0.000000   0.000000   0.000000  -0.000738
    19  C   -0.063560  -0.883910  -0.024931  -0.053029  -0.107558   0.848055
    20  C   -0.005345   0.267579  -0.060266  -0.019660   0.051432  -0.281830
    21  H   -0.000023  -0.006761   0.000585  -0.000909   0.000046   0.003370
    22  C    0.454619  -0.140896   0.002844  -0.027982   0.012522  -0.068512
    23  H   -0.014507  -0.022863   0.000018   0.000487   0.000707   0.003701
    24  H   -0.014691  -0.020126  -0.000322  -0.000037   0.000011  -0.011264
    25  H    0.476335   0.019615  -0.000108   0.000433   0.002579  -0.001422
    26  C    0.019615   5.811349   0.456653   0.447271   0.431588  -0.224803
    27  H   -0.000108   0.456653   0.501078  -0.014916  -0.019114   0.018385
    28  H    0.000433   0.447271  -0.014916   0.488988  -0.018677   0.001363
    29  H    0.002579   0.431588  -0.019114  -0.018677   0.499517  -0.008270
    30  C   -0.001422  -0.224803   0.018385   0.001363  -0.008270   5.674449
    31  H    0.000000   0.003190  -0.000074   0.000001   0.000012   0.444208
    32  H    0.000049  -0.008524  -0.000129  -0.000023   0.000062   0.431558
    33  O   -0.000006   0.004046   0.000024  -0.000003  -0.000001  -0.019473
    34  H   -0.000001  -0.001375   0.000006   0.000000   0.000001   0.004750
    35  H    0.000000  -0.000511   0.000006   0.000000   0.000000   0.000697
    36  O    0.001093   0.034452  -0.000396   0.000087  -0.001926  -0.002554
    37  H   -0.000021  -0.008958   0.000028   0.000003   0.000142   0.001119
    38  H   -0.003254  -0.036341  -0.000424  -0.000164   0.001243   0.010320
              31         32         33         34         35         36
     1  C   -0.000176  -0.000762   0.000843   0.004438   0.000266  -0.014217
     2  C    0.000367   0.000643   0.004130   0.003470   0.005580  -0.007005
     3  C    0.000437  -0.003727  -0.002199   0.027479   0.024218  -0.013610
     4  C    0.001291  -0.005045   0.038750  -0.027156   0.010499   0.040667
     5  C   -0.000258   0.011908  -0.012721  -0.009319   0.001197   0.025252
     6  C   -0.000197   0.002257   0.004876  -0.006018  -0.002258  -0.030225
     7  H    0.000000   0.000000   0.000048   0.000005   0.000030  -0.000007
     8  H    0.000000   0.000000   0.000150  -0.000037  -0.000040   0.000002
     9  H   -0.000008  -0.000127   0.000185  -0.000022  -0.000005  -0.006628
    10  H    0.000000  -0.000001   0.000030  -0.000005   0.000014   0.000106
    11  C   -0.003291  -0.014265  -0.010136   0.002554  -0.018939   0.039356
    12  C    0.000041   0.011712  -0.010683  -0.026734  -0.012629  -0.006049
    13  C   -0.004005  -0.006831  -0.008953   0.024891  -0.000225   0.016602
    14  H    0.000220  -0.000992   0.000331  -0.000056   0.000024   0.000170
    15  C    0.000919   0.004266   0.010923   0.008601  -0.004440  -0.010104
    16  H   -0.000001   0.000027   0.000370  -0.000060  -0.000015  -0.000011
    17  O   -0.001656  -0.003384   0.005978   0.004088   0.003051   0.011147
    18  Cl   0.000004  -0.000101  -0.001773  -0.000730   0.000250   0.000031
    19  C    0.017733   0.014526   0.005069   0.007245  -0.001071  -0.103096
    20  C   -0.075928  -0.077879   0.023596  -0.007211   0.001468   0.008482
    21  H   -0.004800   0.002685  -0.000098  -0.000014   0.000002   0.000047
    22  C    0.000661   0.005336  -0.002556  -0.001256  -0.000478   0.010140
    23  H   -0.000013   0.000025   0.000001   0.000000   0.000000   0.000179
    24  H    0.000037  -0.000136  -0.000013   0.000001   0.000000   0.000092
    25  H    0.000000   0.000049  -0.000006  -0.000001   0.000000   0.001093
    26  C    0.003190  -0.008524   0.004046  -0.001375  -0.000511   0.034452
    27  H   -0.000074  -0.000129   0.000024   0.000006   0.000006  -0.000396
    28  H    0.000001  -0.000023  -0.000003   0.000000   0.000000   0.000087
    29  H    0.000012   0.000062  -0.000001   0.000001   0.000000  -0.001926
    30  C    0.444208   0.431558  -0.019473   0.004750   0.000697  -0.002554
    31  H    0.466832  -0.013624   0.000044   0.000164  -0.000014   0.000002
    32  H   -0.013624   0.447279  -0.005686  -0.002929  -0.000017  -0.000001
    33  O    0.000044  -0.005686   7.968010   0.312816   0.322863   0.000000
    34  H    0.000164  -0.002929   0.312816   0.365734  -0.027060  -0.000003
    35  H   -0.000014  -0.000017   0.322863  -0.027060   0.332703  -0.000002
    36  O    0.000002  -0.000001   0.000000  -0.000003  -0.000002   8.045704
    37  H    0.000000  -0.000001   0.000005   0.000001   0.000001   0.297013
    38  H    0.000005   0.000036   0.000102  -0.000002   0.000001   0.262874
              37         38
     1  C   -0.004735  -0.015516
     2  C    0.001146   0.011650
     3  C   -0.011314  -0.002517
     4  C    0.010750  -0.032234
     5  C    0.011436   0.094761
     6  C    0.007722  -0.011313
     7  H    0.000004   0.000003
     8  H   -0.000003   0.000000
     9  H   -0.001448   0.000008
    10  H   -0.000011  -0.000126
    11  C   -0.024416  -0.142156
    12  C    0.003062   0.009087
    13  C   -0.007735  -0.019076
    14  H    0.000013  -0.000118
    15  C   -0.000354   0.009755
    16  H   -0.000001   0.000006
    17  O    0.010488  -0.013963
    18  Cl  -0.000022  -0.000017
    19  C    0.028433   0.205752
    20  C   -0.001457  -0.034112
    21  H   -0.000001  -0.000045
    22  C   -0.005426  -0.017349
    23  H    0.000000  -0.000041
    24  H   -0.000005   0.000071
    25  H   -0.000021  -0.003254
    26  C   -0.008958  -0.036341
    27  H    0.000028  -0.000424
    28  H    0.000003  -0.000164
    29  H    0.000142   0.001243
    30  C    0.001119   0.010320
    31  H    0.000000   0.000005
    32  H   -0.000001   0.000036
    33  O    0.000005   0.000102
    34  H    0.000001  -0.000002
    35  H    0.000001   0.000001
    36  O    0.297013   0.262874
    37  H    0.363341  -0.016293
    38  H   -0.016293   0.483663
 Mulliken charges:
               1
     1  C   -0.009326
     2  C   -0.188614
     3  C   -0.002254
     4  C   -0.237064
     5  C   -0.444614
     6  C    0.054525
     7  H    0.166012
     8  H    0.176399
     9  H    0.230183
    10  H    0.167876
    11  C    0.369096
    12  C    0.228848
    13  C   -0.417805
    14  H    0.195494
    15  C   -0.151302
    16  H    0.179146
    17  O   -0.460237
    18  Cl  -0.171653
    19  C   -0.002021
    20  C   -0.021278
    21  H    0.175363
    22  C   -0.377070
    23  H    0.169073
    24  H    0.156859
    25  H    0.178629
    26  C   -0.549817
    27  H    0.164322
    28  H    0.170304
    29  H    0.167726
    30  C   -0.381740
    31  H    0.167876
    32  H    0.211815
    33  O   -0.628889
    34  H    0.343743
    35  H    0.364839
    36  O   -0.597660
    37  H    0.347493
    38  H    0.255722
 Sum of Mulliken charges =   0.00000
 Mulliken charges with hydrogens summed into heavy atoms:
               1
     1  C    0.156685
     2  C   -0.012215
     3  C   -0.002254
     4  C   -0.237064
     5  C   -0.214431
     6  C    0.222402
    11  C    0.369096
    12  C    0.228848
    13  C   -0.222311
    15  C    0.027844
    17  O   -0.460237
    18  Cl  -0.171653
    19  C   -0.002021
    20  C    0.154085
    22  C    0.127492
    26  C   -0.047465
    30  C   -0.002049
    33  O    0.079693
    36  O    0.005556
 Electronic spatial extent (au):  <R**2>=           5738.9344
 Charge=              0.0000 electrons
 Dipole moment (field-independent basis, Debye):
    X=              1.5596    Y=             -0.0931    Z=             -0.6278  Tot=              1.6838
 Quadrupole moment (field-independent basis, Debye-Ang):
   XX=           -115.9147   YY=           -116.5517   ZZ=           -134.2576
   XY=            -17.0804   XZ=              1.3506   YZ=             13.1033
 Traceless Quadrupole moment (field-independent basis, Debye-Ang):
   XX=              6.3266   YY=              5.6896   ZZ=            -12.0163
   XY=            -17.0804   XZ=              1.3506   YZ=             13.1033
 Octapole moment (field-independent basis, Debye-Ang**2):
  XXX=             34.0768  YYY=             -4.6096  ZZZ=            -24.1514  XYY=            -20.4880
  XXY=             -3.5740  XXZ=              8.5195  XZZ=              2.8159  YZZ=             10.5470
  YYZ=             11.6954  XYZ=              5.2307
 Hexadecapole moment (field-independent basis, Debye-Ang**3):
 XXXX=          -4312.1858 YYYY=          -1872.5592 ZZZZ=          -1277.4568 XXXY=           -114.6234
 XXXZ=            -56.8258 YYYX=            -89.2199 YYYZ=             57.8001 ZZZX=             39.1903
 ZZZY=             58.6484 XXYY=          -1091.7426 XXZZ=          -1001.8472 YYZZ=           -529.9744
 XXYZ=             61.2950 YYXZ=             39.3349 ZZXY=            -47.0009
 N-N= 1.624082303711D+03 E-N=-6.227052835118D+03  KE= 1.264451792281D+03
 1\1\GINC-D11S0B4\FOpt\RwB97XD\Gen\C15H19Cl1O3\PMMASS\04-Feb-2022\0\\#n
  wB97XD/Gen scrf(smd,solvent=toluene) opt\\starting material claisen t
 oluene - opt\\0,1\C,-2.6787277552,2.4599316233,0.7071174759\C,-2.95653
 36961,1.2181711125,0.2108562171\C,-1.9182707042,0.3152563502,-0.114216
 4074\C,-0.5723635207,0.7281222787,0.0724319831\C,-0.3199349105,2.01546
 80419,0.6008824595\C,-1.3468303605,2.8618080408,0.9101988845\H,-3.4882
 502205,3.1351486464,0.9537295079\H,-3.9830619461,0.9110513611,0.067916
 5009\H,0.703015885,2.3176840393,0.7748245209\H,-1.1357159921,3.8409784
 258,1.3206786119\C,0.4981082874,-0.1691616091,-0.2393081679\C,-2.15101
 33295,-1.0020891189,-0.5924241462\C,0.2176928254,-1.4388996988,-0.6642
 909592\H,1.0006943817,-2.153462043,-0.8549974084\C,-1.1171617685,-1.84
 89886603,-0.8447443161\H,-1.313444933,-2.8538710283,-1.1933822821\O,1.
 727483339,0.3636658976,-0.0569826304\Cl,-3.7798179061,-1.5611870266,-0
 .8508395597\C,2.9776193313,-0.3381903948,-0.2600922875\C,3.1031448015,
 -1.5486783355,0.635284855\H,3.831583984,-2.2794831934,0.2957768436\C,3
 .17670201,-0.6810721819,-1.7348598879\H,4.193387151,-1.0485009327,-1.8
 81372172\H,2.4923895717,-1.4456064056,-2.0958970208\H,3.0473955942,0.2
 127221606,-2.3462332401\C,4.0217859599,0.691490063,0.1681334022\H,3.83
 66768101,1.005128954,1.195552328\H,5.0187896759,0.2529249631,0.1163944
 138\H,3.9962570022,1.5650574416,-0.486306988\C,2.4634868688,-1.7363273
 172,1.7768151364\H,2.6471326313,-2.6190445482,2.3769075879\H,1.7298524
 622,-1.032947793,2.154718173\O,-0.8977627324,-1.1154796695,2.887028556
 6\H,-0.8285682107,-1.5559305332,2.0354777888\H,-1.2174797525,-0.235174
 8727,2.6741191031\O,1.7604115695,2.6558562654,-2.0144625551\H,0.856357
 2248,2.9743322025,-2.0595995082\H,1.7456203715,1.9758674953,-1.3304248
 132\\Version=ES64L-G09RevD.01\State=1-A\HF=-1268.980041\RMSD=3.134e-09
 \RMSF=9.285e-06\Dipole=0.6063803,-0.0493723,-0.2621144\Quadrupole=4.85
 28236,5.2514527,-10.1042763,-12.3572614,1.2863145,9.2802405\PG=C01 [X(
 C15H19Cl1O3)]\\@


 IT IS WELL TO REMEMBER THAT MAN IS A PART OF NATURE AND THAT HIS WORKS,
 WHATEVER THEY MAY BE, ARE NO MORE "UNNATURAL" THAN 
 THE FLIGHT OF AN EAGLE OR THE PASSAGE OF A TORNADO.

                                    -- CHARLES MCCARRY IN "THE GREAT SOUTHWEST"
 Job cpu time:      12 days  9 hours 27 minutes 35.0 seconds.
 File lengths (MBytes):  RWF=    587 Int=      0 D2E=      0 Chk=     44 Scr=      1
 Normal termination of Gaussian 09 at Fri Feb  4 04:46:18 2022.
