 Entering Gaussian System, Link 0=g09
 Input=ts_claisen_water_ma2.com
 Output=ts_claisen_water_ma2.log
 Initial command:
 /apps/applications/gaussian/G09.D01/2/default/g09/l1.exe "/nobackup/pmmass/Temp/Gau-11963.inp" -scrdir="/nobackup/pmmass/Temp/"
 Entering Link 1 = /apps/applications/gaussian/G09.D01/2/default/g09/l1.exe PID=     11964.
  
 Copyright (c) 1988,1990,1992,1993,1995,1998,2003,2009,2013,
            Gaussian, Inc.  All Rights Reserved.
  
 This is part of the Gaussian(R) 09 program.  It is based on
 the Gaussian(R) 03 system (copyright 2003, Gaussian, Inc.),
 the Gaussian(R) 98 system (copyright 1998, Gaussian, Inc.),
 the Gaussian(R) 94 system (copyright 1995, Gaussian, Inc.),
 the Gaussian 92(TM) system (copyright 1992, Gaussian, Inc.),
 the Gaussian 90(TM) system (copyright 1990, Gaussian, Inc.),
 the Gaussian 88(TM) system (copyright 1988, Gaussian, Inc.),
 the Gaussian 86(TM) system (copyright 1986, Carnegie Mellon
 University), and the Gaussian 82(TM) system (copyright 1983,
 Carnegie Mellon University). Gaussian is a federally registered
 trademark of Gaussian, Inc.
  
 This software contains proprietary and confidential information,
 including trade secrets, belonging to Gaussian, Inc.
  
 This software is provided under written license and may be
 used, copied, transmitted, or stored only in accord with that
 written license.
  
 The following legend is applicable only to US Government
 contracts under FAR:
  
                    RESTRICTED RIGHTS LEGEND
  
 Use, reproduction and disclosure by the US Government is
 subject to restrictions as set forth in subparagraphs (a)
 and (c) of the Commercial Computer Software - Restricted
 Rights clause in FAR 52.227-19.
  
 Gaussian, Inc.
 340 Quinnipiac St., Bldg. 40, Wallingford CT 06492
  
  
 ---------------------------------------------------------------
 Warning -- This program may not be used in any manner that
 competes with the business of Gaussian, Inc. or will provide
 assistance to any competitor of Gaussian, Inc.  The licensee
 of this program is prohibited from giving any competitor of
 Gaussian, Inc. access to this program.  By using this program,
 the user acknowledges that Gaussian, Inc. is engaged in the
 business of creating and licensing software in the field of
 computational chemistry and represents and warrants to the
 licensee that it is not a competitor of Gaussian, Inc. and that
 it will not use this program in any manner prohibited above.
 ---------------------------------------------------------------
  

 Cite this work as:
 Gaussian 09, Revision D.01,
 M. J. Frisch, G. W. Trucks, H. B. Schlegel, G. E. Scuseria, 
 M. A. Robb, J. R. Cheeseman, G. Scalmani, V. Barone, B. Mennucci, 
 G. A. Petersson, H. Nakatsuji, M. Caricato, X. Li, H. P. Hratchian, 
 A. F. Izmaylov, J. Bloino, G. Zheng, J. L. Sonnenberg, M. Hada, 
 M. Ehara, K. Toyota, R. Fukuda, J. Hasegawa, M. Ishida, T. Nakajima, 
 Y. Honda, O. Kitao, H. Nakai, T. Vreven, J. A. Montgomery, Jr., 
 J. E. Peralta, F. Ogliaro, M. Bearpark, J. J. Heyd, E. Brothers, 
 K. N. Kudin, V. N. Staroverov, T. Keith, R. Kobayashi, J. Normand, 
 K. Raghavachari, A. Rendell, J. C. Burant, S. S. Iyengar, J. Tomasi, 
 M. Cossi, N. Rega, J. M. Millam, M. Klene, J. E. Knox, J. B. Cross, 
 V. Bakken, C. Adamo, J. Jaramillo, R. Gomperts, R. E. Stratmann, 
 O. Yazyev, A. J. Austin, R. Cammi, C. Pomelli, J. W. Ochterski, 
 R. L. Martin, K. Morokuma, V. G. Zakrzewski, G. A. Voth, 
 P. Salvador, J. J. Dannenberg, S. Dapprich, A. D. Daniels, 
 O. Farkas, J. B. Foresman, J. V. Ortiz, J. Cioslowski, 
 and D. J. Fox, Gaussian, Inc., Wallingford CT, 2013.
 
 ******************************************
 Gaussian 09:  ES64L-G09RevD.01 24-Apr-2013
                 7-Feb-2022 
 ******************************************
 %nprocshared=8
 Will use up to    8 processors via shared memory.
 %mem=4GB
 %NoSave
 %chk="ts_claisen_water_ma.chk"
 -------------------------------------------------------------------
 #n wB97XD/Gen scrf(smd,solvent=toluene) opt=(calcfc,ts,noeigentest)
 -------------------------------------------------------------------
 1/5=1,10=4,11=1,14=-1,18=20,26=3,38=1/1,3;
 2/9=110,12=2,17=6,18=5,40=1/2;
 3/5=7,11=2,16=1,25=1,30=1,70=32201,71=2,72=13,74=-58,140=1/1,2,3;
 4//1;
 5/5=2,38=5,53=13/2;
 8/6=4,10=90,11=11/1;
 11/6=1,8=1,9=11,15=111,16=1/1,2,10;
 10/6=1,13=1/2;
 6/7=2,8=2,9=2,10=2,28=1/1;
 7/10=1,18=20,25=1/1,2,3,16;
 1/5=1,10=4,11=1,14=-1,18=20,26=3/3(2);
 2/9=110/2;
 99//99;
 2/9=110/2;
 3/5=7,6=1,11=2,16=1,25=1,30=1,70=32205,71=1,72=13,74=-58,82=7/1,2,3;
 4/5=5,16=3,69=1/1;
 5/5=2,38=5,53=13/2;
 7//1,2,3,16;
 1/5=1,11=1,14=-1,18=20,26=3/3(-5);
 2/9=110/2;
 6/7=2,8=2,9=2,10=2,19=2,28=1/1;
 99/9=1/99;
 ------------------------
 ts_claisen toluene - opt
 ------------------------
 Symbolic Z-matrix:
 Charge =  0 Multiplicity = 1
 C                     2.67706   2.73162  -0.319 
 C                     3.05837   1.42528  -0.15731 
 C                     2.10714   0.42494   0.12527 
 C                     0.74451   0.79233   0.23032 
 C                     0.3864    2.14152   0.07274 
 C                     1.32975   3.09725  -0.19828 
 H                     3.42379   3.48573  -0.53382 
 H                     4.10175   1.15524  -0.24285 
 H                    -0.65577   2.41181   0.17315 
 H                     1.03741   4.13296  -0.31657 
 C                    -0.27228  -0.20598   0.53215 
 C                     2.45474  -0.95051   0.33176 
 C                     0.14745  -1.53809   0.67502 
 H                    -0.56817  -2.26918   1.02358 
 C                     1.51928  -1.88517   0.62102 
 H                     1.81274  -2.91205   0.79513 
 O                    -1.50935   0.10985   0.58799 
 Cl                    4.12612  -1.43772   0.23461 
 C                    -2.48018  -0.38525  -1.43152 
 C                    -1.98808  -1.68924  -1.37095 
 H                    -2.64714  -2.44263  -0.95447 
 C                    -3.89284  -0.12131  -1.05304 
 H                    -3.97386   0.81395  -0.49737 
 H                    -4.48343  -0.00214  -1.96836 
 H                    -4.3206   -0.92815  -0.46112 
 C                    -1.79459   0.70384  -2.1789 
 H                    -0.71108   0.61376  -2.19038 
 H                    -2.14121   0.66493  -3.21773 
 H                    -2.06725   1.67868  -1.77893 
 C                    -0.67661  -2.01557  -1.56669 
 H                    -0.35083  -3.04284  -1.47229 
 H                     0.03438  -1.33655  -2.01612 
 O                    -3.38917   1.89852   1.74882 
 H                    -2.59846   1.51225   1.34522 
 H                    -3.84109   1.12035   2.09203 
 O                    -3.40469  -1.16037   2.13515 
 H                    -3.01779  -1.33635   2.9947 
 H                    -2.67236  -0.81652   1.58651 
 
 Add virtual bond connecting atoms H38        and O17        Dist= 3.38D+00.
 Add virtual bond connecting atoms H34        and O17        Dist= 3.65D+00.
 Add virtual bond connecting atoms C19        and O17        Dist= 4.34D+00.
 Add virtual bond connecting atoms H23        and H34        Dist= 4.54D+00.
 Add virtual bond connecting atoms C30        and C13        Dist= 4.60D+00.

 GradGradGradGradGradGradGradGradGradGradGradGradGradGradGradGradGradGrad
 Berny optimization.
 Initialization pass.
                           ----------------------------
                           !    Initial Parameters    !
                           ! (Angstroms and Degrees)  !
 --------------------------                            --------------------------
 ! Name  Definition              Value          Derivative Info.                !
 --------------------------------------------------------------------------------
 ! R1    R(1,2)                  1.3704         calculate D2E/DX2 analytically  !
 ! R2    R(1,6)                  1.4013         calculate D2E/DX2 analytically  !
 ! R3    R(1,7)                  1.0828         calculate D2E/DX2 analytically  !
 ! R4    R(2,3)                  1.409          calculate D2E/DX2 analytically  !
 ! R5    R(2,8)                  1.0811         calculate D2E/DX2 analytically  !
 ! R6    R(3,4)                  1.4152         calculate D2E/DX2 analytically  !
 ! R7    R(3,12)                 1.4336         calculate D2E/DX2 analytically  !
 ! R8    R(4,5)                  1.4048         calculate D2E/DX2 analytically  !
 ! R9    R(4,11)                 1.4566         calculate D2E/DX2 analytically  !
 ! R10   R(5,6)                  1.37           calculate D2E/DX2 analytically  !
 ! R11   R(5,9)                  1.0813         calculate D2E/DX2 analytically  !
 ! R12   R(6,10)                 1.0827         calculate D2E/DX2 analytically  !
 ! R13   R(11,13)                1.404          calculate D2E/DX2 analytically  !
 ! R14   R(11,17)                1.278          calculate D2E/DX2 analytically  !
 ! R15   R(12,15)                1.3536         calculate D2E/DX2 analytically  !
 ! R16   R(12,18)                1.7437         calculate D2E/DX2 analytically  !
 ! R17   R(13,14)                1.0808         calculate D2E/DX2 analytically  !
 ! R18   R(13,15)                1.4161         calculate D2E/DX2 analytically  !
 ! R19   R(13,30)                2.4356         calculate D2E/DX2 analytically  !
 ! R20   R(15,16)                1.0821         calculate D2E/DX2 analytically  !
 ! R21   R(17,19)                2.2948         calculate D2E/DX2 analytically  !
 ! R22   R(17,34)                1.9304         calculate D2E/DX2 analytically  !
 ! R23   R(17,38)                1.791          calculate D2E/DX2 analytically  !
 ! R24   R(19,20)                1.3951         calculate D2E/DX2 analytically  !
 ! R25   R(19,22)                1.4861         calculate D2E/DX2 analytically  !
 ! R26   R(19,26)                1.4882         calculate D2E/DX2 analytically  !
 ! R27   R(20,21)                1.0842         calculate D2E/DX2 analytically  !
 ! R28   R(20,30)                1.3656         calculate D2E/DX2 analytically  !
 ! R29   R(22,23)                1.0909         calculate D2E/DX2 analytically  !
 ! R30   R(22,24)                1.0958         calculate D2E/DX2 analytically  !
 ! R31   R(22,25)                1.0883         calculate D2E/DX2 analytically  !
 ! R32   R(23,34)                2.403          calculate D2E/DX2 analytically  !
 ! R33   R(26,27)                1.0873         calculate D2E/DX2 analytically  !
 ! R34   R(26,28)                1.0958         calculate D2E/DX2 analytically  !
 ! R35   R(26,29)                1.0884         calculate D2E/DX2 analytically  !
 ! R36   R(30,31)                1.0818         calculate D2E/DX2 analytically  !
 ! R37   R(30,32)                1.081          calculate D2E/DX2 analytically  !
 ! R38   R(33,34)                0.9682         calculate D2E/DX2 analytically  !
 ! R39   R(33,35)                0.9631         calculate D2E/DX2 analytically  !
 ! R40   R(36,37)                0.9589         calculate D2E/DX2 analytically  !
 ! R41   R(36,38)                0.9775         calculate D2E/DX2 analytically  !
 ! A1    A(2,1,6)              120.4041         calculate D2E/DX2 analytically  !
 ! A2    A(2,1,7)              119.6964         calculate D2E/DX2 analytically  !
 ! A3    A(6,1,7)              119.8978         calculate D2E/DX2 analytically  !
 ! A4    A(1,2,3)              120.8353         calculate D2E/DX2 analytically  !
 ! A5    A(1,2,8)              119.8201         calculate D2E/DX2 analytically  !
 ! A6    A(3,2,8)              119.3441         calculate D2E/DX2 analytically  !
 ! A7    A(2,3,4)              118.7247         calculate D2E/DX2 analytically  !
 ! A8    A(2,3,12)             123.1159         calculate D2E/DX2 analytically  !
 ! A9    A(4,3,12)             118.1531         calculate D2E/DX2 analytically  !
 ! A10   A(3,4,5)              119.1082         calculate D2E/DX2 analytically  !
 ! A11   A(3,4,11)             120.6371         calculate D2E/DX2 analytically  !
 ! A12   A(5,4,11)             120.2356         calculate D2E/DX2 analytically  !
 ! A13   A(4,5,6)              121.11           calculate D2E/DX2 analytically  !
 ! A14   A(4,5,9)              118.3821         calculate D2E/DX2 analytically  !
 ! A15   A(6,5,9)              120.5077         calculate D2E/DX2 analytically  !
 ! A16   A(1,6,5)              119.8083         calculate D2E/DX2 analytically  !
 ! A17   A(1,6,10)             119.9887         calculate D2E/DX2 analytically  !
 ! A18   A(5,6,10)             120.2028         calculate D2E/DX2 analytically  !
 ! A19   A(4,11,13)            117.5615         calculate D2E/DX2 analytically  !
 ! A20   A(4,11,17)            121.0245         calculate D2E/DX2 analytically  !
 ! A21   A(13,11,17)           121.2943         calculate D2E/DX2 analytically  !
 ! A22   A(3,12,15)            121.7136         calculate D2E/DX2 analytically  !
 ! A23   A(3,12,18)            119.5026         calculate D2E/DX2 analytically  !
 ! A24   A(15,12,18)           118.7768         calculate D2E/DX2 analytically  !
 ! A25   A(11,13,14)           118.4696         calculate D2E/DX2 analytically  !
 ! A26   A(11,13,15)           121.2178         calculate D2E/DX2 analytically  !
 ! A27   A(11,13,30)            89.4957         calculate D2E/DX2 analytically  !
 ! A28   A(14,13,15)           119.2052         calculate D2E/DX2 analytically  !
 ! A29   A(14,13,30)            86.5715         calculate D2E/DX2 analytically  !
 ! A30   A(15,13,30)           104.1591         calculate D2E/DX2 analytically  !
 ! A31   A(12,15,13)           120.5564         calculate D2E/DX2 analytically  !
 ! A32   A(12,15,16)           120.1467         calculate D2E/DX2 analytically  !
 ! A33   A(13,15,16)           119.2867         calculate D2E/DX2 analytically  !
 ! A34   A(11,17,19)           108.5267         calculate D2E/DX2 analytically  !
 ! A35   A(11,17,34)           137.9727         calculate D2E/DX2 analytically  !
 ! A36   A(11,17,38)           121.6753         calculate D2E/DX2 analytically  !
 ! A37   A(19,17,34)           105.2641         calculate D2E/DX2 analytically  !
 ! A38   A(19,17,38)            95.9884         calculate D2E/DX2 analytically  !
 ! A39   A(34,17,38)            77.9188         calculate D2E/DX2 analytically  !
 ! A40   A(17,19,20)            90.815          calculate D2E/DX2 analytically  !
 ! A41   A(17,19,22)            98.0307         calculate D2E/DX2 analytically  !
 ! A42   A(17,19,26)            95.1162         calculate D2E/DX2 analytically  !
 ! A43   A(20,19,22)           119.3577         calculate D2E/DX2 analytically  !
 ! A44   A(20,19,26)           122.9114         calculate D2E/DX2 analytically  !
 ! A45   A(22,19,26)           115.8389         calculate D2E/DX2 analytically  !
 ! A46   A(19,20,21)           116.8582         calculate D2E/DX2 analytically  !
 ! A47   A(19,20,30)           123.7738         calculate D2E/DX2 analytically  !
 ! A48   A(21,20,30)           118.2174         calculate D2E/DX2 analytically  !
 ! A49   A(19,22,23)           110.6459         calculate D2E/DX2 analytically  !
 ! A50   A(19,22,24)           108.5963         calculate D2E/DX2 analytically  !
 ! A51   A(19,22,25)           112.3636         calculate D2E/DX2 analytically  !
 ! A52   A(23,22,24)           106.9903         calculate D2E/DX2 analytically  !
 ! A53   A(23,22,25)           109.2311         calculate D2E/DX2 analytically  !
 ! A54   A(24,22,25)           108.8508         calculate D2E/DX2 analytically  !
 ! A55   A(22,23,34)           126.6699         calculate D2E/DX2 analytically  !
 ! A56   A(19,26,27)           113.8128         calculate D2E/DX2 analytically  !
 ! A57   A(19,26,28)           107.721          calculate D2E/DX2 analytically  !
 ! A58   A(19,26,29)           110.8241         calculate D2E/DX2 analytically  !
 ! A59   A(27,26,28)           107.5931         calculate D2E/DX2 analytically  !
 ! A60   A(27,26,29)           109.1304         calculate D2E/DX2 analytically  !
 ! A61   A(28,26,29)           107.5136         calculate D2E/DX2 analytically  !
 ! A62   A(13,30,20)            98.4043         calculate D2E/DX2 analytically  !
 ! A63   A(13,30,31)            90.2266         calculate D2E/DX2 analytically  !
 ! A64   A(13,30,32)            92.1195         calculate D2E/DX2 analytically  !
 ! A65   A(20,30,31)           120.2402         calculate D2E/DX2 analytically  !
 ! A66   A(20,30,32)           122.7619         calculate D2E/DX2 analytically  !
 ! A67   A(31,30,32)           115.7651         calculate D2E/DX2 analytically  !
 ! A68   A(34,33,35)           102.0886         calculate D2E/DX2 analytically  !
 ! A69   A(17,34,23)            79.107          calculate D2E/DX2 analytically  !
 ! A70   A(17,34,33)           156.0895         calculate D2E/DX2 analytically  !
 ! A71   A(23,34,33)            88.1738         calculate D2E/DX2 analytically  !
 ! A72   A(37,36,38)           105.3898         calculate D2E/DX2 analytically  !
 ! A73   L(17,38,36,21,-1)     185.5059         calculate D2E/DX2 analytically  !
 ! A74   L(17,38,36,21,-2)     189.9315         calculate D2E/DX2 analytically  !
 ! D1    D(6,1,2,3)              0.3505         calculate D2E/DX2 analytically  !
 ! D2    D(6,1,2,8)           -179.3974         calculate D2E/DX2 analytically  !
 ! D3    D(7,1,2,3)            179.8813         calculate D2E/DX2 analytically  !
 ! D4    D(7,1,2,8)              0.1335         calculate D2E/DX2 analytically  !
 ! D5    D(2,1,6,5)             -0.5096         calculate D2E/DX2 analytically  !
 ! D6    D(2,1,6,10)           179.3281         calculate D2E/DX2 analytically  !
 ! D7    D(7,1,6,5)            179.9605         calculate D2E/DX2 analytically  !
 ! D8    D(7,1,6,10)            -0.2018         calculate D2E/DX2 analytically  !
 ! D9    D(1,2,3,4)              0.443          calculate D2E/DX2 analytically  !
 ! D10   D(1,2,3,12)          -178.6274         calculate D2E/DX2 analytically  !
 ! D11   D(8,2,3,4)           -179.808          calculate D2E/DX2 analytically  !
 ! D12   D(8,2,3,12)             1.1216         calculate D2E/DX2 analytically  !
 ! D13   D(2,3,4,5)             -1.0682         calculate D2E/DX2 analytically  !
 ! D14   D(2,3,4,11)          -179.481          calculate D2E/DX2 analytically  !
 ! D15   D(12,3,4,5)           178.0487         calculate D2E/DX2 analytically  !
 ! D16   D(12,3,4,11)           -0.3641         calculate D2E/DX2 analytically  !
 ! D17   D(2,3,12,15)          179.021          calculate D2E/DX2 analytically  !
 ! D18   D(2,3,12,18)           -0.0013         calculate D2E/DX2 analytically  !
 ! D19   D(4,3,12,15)           -0.0543         calculate D2E/DX2 analytically  !
 ! D20   D(4,3,12,18)         -179.0767         calculate D2E/DX2 analytically  !
 ! D21   D(3,4,5,6)              0.9312         calculate D2E/DX2 analytically  !
 ! D22   D(3,4,5,9)           -178.906          calculate D2E/DX2 analytically  !
 ! D23   D(11,4,5,6)           179.3505         calculate D2E/DX2 analytically  !
 ! D24   D(11,4,5,9)            -0.4867         calculate D2E/DX2 analytically  !
 ! D25   D(3,4,11,13)           -1.7472         calculate D2E/DX2 analytically  !
 ! D26   D(3,4,11,17)         -177.8186         calculate D2E/DX2 analytically  !
 ! D27   D(5,4,11,13)          179.8579         calculate D2E/DX2 analytically  !
 ! D28   D(5,4,11,17)            3.7865         calculate D2E/DX2 analytically  !
 ! D29   D(4,5,6,1)             -0.1413         calculate D2E/DX2 analytically  !
 ! D30   D(4,5,6,10)          -179.9787         calculate D2E/DX2 analytically  !
 ! D31   D(9,5,6,1)            179.6925         calculate D2E/DX2 analytically  !
 ! D32   D(9,5,6,10)            -0.1449         calculate D2E/DX2 analytically  !
 ! D33   D(4,11,13,14)         172.2024         calculate D2E/DX2 analytically  !
 ! D34   D(4,11,13,15)           4.3298         calculate D2E/DX2 analytically  !
 ! D35   D(4,11,13,30)        -101.9727         calculate D2E/DX2 analytically  !
 ! D36   D(17,11,13,14)        -11.7373         calculate D2E/DX2 analytically  !
 ! D37   D(17,11,13,15)       -179.61           calculate D2E/DX2 analytically  !
 ! D38   D(17,11,13,30)         74.0875         calculate D2E/DX2 analytically  !
 ! D39   D(4,11,17,19)          96.861          calculate D2E/DX2 analytically  !
 ! D40   D(4,11,17,34)         -45.0043         calculate D2E/DX2 analytically  !
 ! D41   D(4,11,17,38)        -153.5019         calculate D2E/DX2 analytically  !
 ! D42   D(13,11,17,19)        -79.063          calculate D2E/DX2 analytically  !
 ! D43   D(13,11,17,34)        139.0717         calculate D2E/DX2 analytically  !
 ! D44   D(13,11,17,38)         30.574          calculate D2E/DX2 analytically  !
 ! D45   D(3,12,15,13)           2.6214         calculate D2E/DX2 analytically  !
 ! D46   D(3,12,15,16)        -178.5494         calculate D2E/DX2 analytically  !
 ! D47   D(18,12,15,13)       -178.3493         calculate D2E/DX2 analytically  !
 ! D48   D(18,12,15,16)          0.4798         calculate D2E/DX2 analytically  !
 ! D49   D(11,13,15,12)         -4.8746         calculate D2E/DX2 analytically  !
 ! D50   D(11,13,15,16)        176.2863         calculate D2E/DX2 analytically  !
 ! D51   D(14,13,15,12)       -172.6599         calculate D2E/DX2 analytically  !
 ! D52   D(14,13,15,16)          8.501          calculate D2E/DX2 analytically  !
 ! D53   D(30,13,15,12)         93.3051         calculate D2E/DX2 analytically  !
 ! D54   D(30,13,15,16)        -85.534          calculate D2E/DX2 analytically  !
 ! D55   D(11,13,30,20)        -59.7739         calculate D2E/DX2 analytically  !
 ! D56   D(11,13,30,31)        179.5834         calculate D2E/DX2 analytically  !
 ! D57   D(11,13,30,32)         63.7899         calculate D2E/DX2 analytically  !
 ! D58   D(14,13,30,20)         58.787          calculate D2E/DX2 analytically  !
 ! D59   D(14,13,30,31)        -61.8557         calculate D2E/DX2 analytically  !
 ! D60   D(14,13,30,32)       -177.6492         calculate D2E/DX2 analytically  !
 ! D61   D(15,13,30,20)        178.0629         calculate D2E/DX2 analytically  !
 ! D62   D(15,13,30,31)         57.4203         calculate D2E/DX2 analytically  !
 ! D63   D(15,13,30,32)        -58.3733         calculate D2E/DX2 analytically  !
 ! D64   D(11,17,19,20)         52.6582         calculate D2E/DX2 analytically  !
 ! D65   D(11,17,19,22)        172.4714         calculate D2E/DX2 analytically  !
 ! D66   D(11,17,19,26)        -70.4925         calculate D2E/DX2 analytically  !
 ! D67   D(34,17,19,20)       -152.7162         calculate D2E/DX2 analytically  !
 ! D68   D(34,17,19,22)        -32.9031         calculate D2E/DX2 analytically  !
 ! D69   D(34,17,19,26)         84.133          calculate D2E/DX2 analytically  !
 ! D70   D(38,17,19,20)        -73.6407         calculate D2E/DX2 analytically  !
 ! D71   D(38,17,19,22)         46.1724         calculate D2E/DX2 analytically  !
 ! D72   D(38,17,19,26)        163.2085         calculate D2E/DX2 analytically  !
 ! D73   D(11,17,34,23)        153.6476         calculate D2E/DX2 analytically  !
 ! D74   D(11,17,34,33)       -147.2915         calculate D2E/DX2 analytically  !
 ! D75   D(19,17,34,23)         11.0148         calculate D2E/DX2 analytically  !
 ! D76   D(19,17,34,33)         70.0757         calculate D2E/DX2 analytically  !
 ! D77   D(38,17,34,23)        -81.9763         calculate D2E/DX2 analytically  !
 ! D78   D(38,17,34,33)        -22.9154         calculate D2E/DX2 analytically  !
 ! D79   D(11,17,36,37)         42.2098         calculate D2E/DX2 analytically  !
 ! D80   D(19,17,36,37)        159.876          calculate D2E/DX2 analytically  !
 ! D81   D(34,17,36,37)        -95.9086         calculate D2E/DX2 analytically  !
 ! D82   D(17,19,20,21)         94.0246         calculate D2E/DX2 analytically  !
 ! D83   D(17,19,20,30)        -73.4681         calculate D2E/DX2 analytically  !
 ! D84   D(22,19,20,21)         -5.6647         calculate D2E/DX2 analytically  !
 ! D85   D(22,19,20,30)       -173.1574         calculate D2E/DX2 analytically  !
 ! D86   D(26,19,20,21)       -169.3463         calculate D2E/DX2 analytically  !
 ! D87   D(26,19,20,30)         23.161          calculate D2E/DX2 analytically  !
 ! D88   D(17,19,22,23)         45.3599         calculate D2E/DX2 analytically  !
 ! D89   D(17,19,22,24)        162.5048         calculate D2E/DX2 analytically  !
 ! D90   D(17,19,22,25)        -77.027          calculate D2E/DX2 analytically  !
 ! D91   D(20,19,22,23)        140.8598         calculate D2E/DX2 analytically  !
 ! D92   D(20,19,22,24)       -101.9953         calculate D2E/DX2 analytically  !
 ! D93   D(20,19,22,25)         18.4729         calculate D2E/DX2 analytically  !
 ! D94   D(26,19,22,23)        -54.334          calculate D2E/DX2 analytically  !
 ! D95   D(26,19,22,24)         62.8109         calculate D2E/DX2 analytically  !
 ! D96   D(26,19,22,25)       -176.7209         calculate D2E/DX2 analytically  !
 ! D97   D(17,19,26,27)         61.8129         calculate D2E/DX2 analytically  !
 ! D98   D(17,19,26,28)       -178.9872         calculate D2E/DX2 analytically  !
 ! D99   D(17,19,26,29)        -61.6298         calculate D2E/DX2 analytically  !
 ! D100  D(20,19,26,27)        -32.4859         calculate D2E/DX2 analytically  !
 ! D101  D(20,19,26,28)         86.714          calculate D2E/DX2 analytically  !
 ! D102  D(20,19,26,29)       -155.9286         calculate D2E/DX2 analytically  !
 ! D103  D(22,19,26,27)        163.3031         calculate D2E/DX2 analytically  !
 ! D104  D(22,19,26,28)        -77.4971         calculate D2E/DX2 analytically  !
 ! D105  D(22,19,26,29)         39.8603         calculate D2E/DX2 analytically  !
 ! D106  D(19,20,30,13)         82.6509         calculate D2E/DX2 analytically  !
 ! D107  D(19,20,30,31)        177.8579         calculate D2E/DX2 analytically  !
 ! D108  D(19,20,30,32)        -15.3699         calculate D2E/DX2 analytically  !
 ! D109  D(21,20,30,13)        -84.6836         calculate D2E/DX2 analytically  !
 ! D110  D(21,20,30,31)         10.5235         calculate D2E/DX2 analytically  !
 ! D111  D(21,20,30,32)        177.2956         calculate D2E/DX2 analytically  !
 ! D112  D(19,22,23,34)        -47.4307         calculate D2E/DX2 analytically  !
 ! D113  D(24,22,23,34)       -165.5601         calculate D2E/DX2 analytically  !
 ! D114  D(25,22,23,34)         76.7682         calculate D2E/DX2 analytically  !
 ! D115  D(22,23,34,17)         17.3717         calculate D2E/DX2 analytically  !
 ! D116  D(22,23,34,33)       -142.2745         calculate D2E/DX2 analytically  !
 ! D117  D(35,33,34,17)         19.3588         calculate D2E/DX2 analytically  !
 ! D118  D(35,33,34,23)         76.7838         calculate D2E/DX2 analytically  !
 --------------------------------------------------------------------------------
 Trust Radius=3.00D-01 FncErr=1.00D-07 GrdErr=1.00D-06
 Number of steps in this run=    228 maximum allowed number of steps=    228.
 Search for a saddle point of order  1.
 GradGradGradGradGradGradGradGradGradGradGradGradGradGradGradGradGradGrad

                          Input orientation:                          
 ---------------------------------------------------------------------
 Center     Atomic      Atomic             Coordinates (Angstroms)
 Number     Number       Type             X           Y           Z
 ---------------------------------------------------------------------
      1          6           0        2.677060    2.731620   -0.319000
      2          6           0        3.058370    1.425280   -0.157310
      3          6           0        2.107140    0.424940    0.125270
      4          6           0        0.744510    0.792330    0.230320
      5          6           0        0.386400    2.141520    0.072740
      6          6           0        1.329750    3.097250   -0.198280
      7          1           0        3.423790    3.485730   -0.533820
      8          1           0        4.101750    1.155240   -0.242850
      9          1           0       -0.655770    2.411810    0.173150
     10          1           0        1.037410    4.132960   -0.316570
     11          6           0       -0.272280   -0.205980    0.532150
     12          6           0        2.454740   -0.950510    0.331760
     13          6           0        0.147450   -1.538090    0.675020
     14          1           0       -0.568170   -2.269180    1.023580
     15          6           0        1.519280   -1.885170    0.621020
     16          1           0        1.812740   -2.912050    0.795130
     17          8           0       -1.509350    0.109850    0.587990
     18         17           0        4.126120   -1.437720    0.234610
     19          6           0       -2.480180   -0.385250   -1.431520
     20          6           0       -1.988080   -1.689240   -1.370950
     21          1           0       -2.647140   -2.442630   -0.954470
     22          6           0       -3.892840   -0.121310   -1.053040
     23          1           0       -3.973860    0.813950   -0.497370
     24          1           0       -4.483430   -0.002140   -1.968360
     25          1           0       -4.320600   -0.928150   -0.461120
     26          6           0       -1.794590    0.703840   -2.178900
     27          1           0       -0.711080    0.613760   -2.190380
     28          1           0       -2.141210    0.664930   -3.217730
     29          1           0       -2.067250    1.678680   -1.778930
     30          6           0       -0.676610   -2.015570   -1.566690
     31          1           0       -0.350830   -3.042840   -1.472290
     32          1           0        0.034380   -1.336550   -2.016120
     33          8           0       -3.389170    1.898520    1.748820
     34          1           0       -2.598460    1.512250    1.345220
     35          1           0       -3.841090    1.120350    2.092030
     36          8           0       -3.404690   -1.160370    2.135150
     37          1           0       -3.017790   -1.336350    2.994700
     38          1           0       -2.672360   -0.816520    1.586510
 ---------------------------------------------------------------------
                    Distance matrix (angstroms):
                    1          2          3          4          5
     1  C    0.000000
     2  C    1.370425   0.000000
     3  C    2.417221   1.409032   0.000000
     4  C    2.792373   2.429986   1.415193   0.000000
     5  C    2.397666   2.775851   2.431122   1.404773   0.000000
     6  C    1.401250   2.405263   2.801832   2.416373   1.369957
     7  H    1.082790   2.126205   3.396528   3.875159   3.376471
     8  H    2.126150   1.081148   2.155764   3.409788   3.856964
     9  H    3.384117   3.857108   3.403471   2.141674   1.081322
    10  H    2.156899   3.382480   3.884451   3.397747   2.131011
    11  C    4.248830   3.772213   2.495045   1.456567   2.481063
    12  C    3.745797   2.499587   1.433641   2.443904   3.729044
    13  C    5.061366   4.236483   2.827737   2.446446   3.736224
    14  H    6.110813   5.309927   3.901606   3.424213   4.611895
    15  C    4.851684   3.732784   2.434739   2.814591   4.218798
    16  H    5.817160   4.612068   3.416268   3.896480   5.300459
    17  O    5.022185   4.811434   3.659562   2.381930   2.826134
    18  Cl   4.448557   3.080659   2.749134   4.050732   5.179060
    19  C    6.127781   5.964660   4.911569   3.814057   4.106659
    20  C    6.512613   6.053083   4.845540   4.023593   4.732559
    21  H    7.451429   6.938951   5.656145   4.834458   5.592133
    22  C    7.200112   7.177297   6.138938   4.897629   4.969877
    23  H    6.924161   7.066939   6.125159   4.774203   4.593401
    24  H    7.840054   7.886455   6.928297   5.726843   5.698825
    25  H    7.898187   7.751137   6.594736   5.393837   5.644797
    26  C    5.250407   5.306460   4.539877   3.501314   3.448699
    27  H    4.412130   4.358978   3.652431   2.830268   2.942826
    28  H    5.990790   6.081113   5.411259   4.498073   4.404126
    29  H    5.074303   5.381993   4.756403   3.567730   3.108585
    30  C    5.944716   5.270282   4.070391   3.623966   4.593378
    31  H    6.621373   5.771994   4.540849   4.336725   5.459690
    32  H    5.139453   4.497488   3.461897   3.175359   4.072373
    33  O    6.462900   6.740034   5.917497   4.540574   4.138022
    34  H    5.664592   5.853622   4.981284   3.596767   3.305235
    35  H    7.134111   7.263268   6.303426   4.959969   4.794997
    36  O    7.626147   7.328854   6.077261   4.965609   5.434002
    37  H    7.743404   7.381158   6.131939   5.131079   5.676437
    38  H    6.696011   6.395924   5.149764   4.012811   4.516361
                    6          7          8          9         10
     6  C    0.000000
     7  H    2.156040   0.000000
     8  H    3.384874   2.444479   0.000000
     9  H    2.133091   4.277373   4.938220   0.000000
    10  H    1.082659   2.482119   4.273457   2.463542   0.000000
    11  C    3.743175   5.331599   4.646040   2.669976   4.611075
    12  C    4.234490   4.622609   2.734411   4.583189   5.317031
    13  C    4.862804   6.118371   4.871653   4.061865   5.825469
    14  H    5.821822   7.174972   5.927786   4.758421   6.735079
    15  C    5.052889   5.814411   4.081607   4.836886   6.109760
    16  H    6.109978   6.730021   4.781194   5.901177   7.174202
    17  O    4.195625   6.082014   5.767805   2.489922   4.846610
    18  Cl   5.345375   5.032307   2.636665   6.139147   6.393466
    19  C    5.307000   7.116686   6.863516   3.704994   5.833590
    20  C    5.940845   7.534550   6.815402   4.580164   6.645549
    21  H    6.861323   8.495798   7.681054   5.366812   7.564470
    22  C    6.193964   8.173947   8.136305   4.289389   6.553516
    23  H    5.781971   7.865428   8.086825   3.743324   6.013430
    24  H    6.821471   8.760552   8.833019   5.006416   7.092752
    25  H    6.942578   8.914213   8.678948   4.998861   7.371838
    26  C    4.405992   6.138134   6.222449   3.121892   4.821552
    27  H    3.781689   5.299958   5.220096   2.970239   4.353522
    28  H    5.203924   6.791871   6.932883   4.093432   5.526987
    29  H    4.006296   5.913311   6.378879   2.518009   4.219111
    30  C    5.660296   6.938617   5.885517   4.757013   6.504236
    31  H    6.492161   7.599389   6.241864   5.705582   7.399662
    32  H    4.963981   6.077804   5.088910   4.395385   5.814643
    33  O    5.243697   7.358404   7.786726   3.196510   5.371515
    34  H    4.508376   6.610061   6.895088   2.440697   4.780086
    35  H    5.990930   8.078898   8.278985   3.936525   6.219078
    36  O    6.781382   8.679734   8.207532   4.915941   7.332293
    37  H    6.982337   8.786174   8.208386   5.252522   7.571163
    38  H    5.875369   7.756816   7.288550   4.060337   6.471589
                   11         12         13         14         15
    11  C    0.000000
    12  C    2.833923   0.000000
    13  C    1.403959   2.405549   0.000000
    14  H    2.141459   3.369791   1.080786   0.000000
    15  C    2.457084   1.353642   1.416085   2.160316   0.000000
    16  H    3.426264   2.115305   2.162263   2.476732   1.082089
    17  O    1.277971   4.111451   2.338433   2.595254   3.626816
    18  Cl   4.577296   1.743652   4.004229   4.832200   2.673039
    19  C    2.960230   5.270874   3.559633   3.637649   4.739025
    20  C    2.960713   4.814934   2.961305   2.843633   4.038305
    21  H    3.585053   5.469003   3.359042   2.874871   4.489096
    22  C    3.953284   6.549581   4.617077   4.469802   5.933357
    23  H    3.975156   6.717713   4.887923   4.839184   6.221787
    24  H    4.901825   7.370764   5.549022   5.424061   6.803177
    25  H    4.230486   6.821612   4.650410   4.252461   6.015905
    26  C    3.239598   5.205487   4.116142   4.538594   5.052154
    27  H    2.876923   4.339418   3.684840   4.319873   4.373000
    28  H    4.279367   6.027544   5.024417   5.391861   5.885423
    29  H    3.480654   5.640571   4.612415   5.068225   5.596783
    30  C    2.800576   3.813636   2.435637   2.604914   3.102420
    31  H    3.474439   3.937469   2.668988   2.622051   3.036356
    32  H    2.804623   3.394070   2.701044   3.236146   3.075779
    33  O    3.952747   6.654045   5.046882   5.084657   6.299296
    34  H    3.004082   5.712015   4.158577   4.304038   5.387273
    35  H    4.114460   6.857440   4.998367   4.831408   6.319065
    36  O    3.645883   6.134263   3.859061   3.242051   5.202250
    37  H    3.857423   6.098254   3.929422   3.279653   5.149812
    38  H    2.691620   5.280105   3.050050   2.618153   4.432159
                   16         17         18         19         20
    16  H    0.000000
    17  O    4.495672   0.000000
    18  Cl   2.799921   5.854773   0.000000
    19  C    5.456359   2.294789   6.893974   0.000000
    20  C    4.542400   2.702472   6.326494   1.395070   0.000000
    21  H    4.813729   3.192006   6.949878   2.118553   1.084164
    22  C    6.614953   2.903005   8.227679   1.486109   2.487485
    23  H    7.002740   2.783446   8.438927   2.131149   3.312465
    24  H    7.466338   3.923343   9.002129   2.109024   3.070827
    25  H    6.567487   3.175091   8.490629   2.150247   2.616811
    26  C    5.910359   2.844269   6.742857   1.488196   2.533190
    27  H    5.264435   2.934365   5.786852   2.168779   2.757898
    28  H    6.673197   3.897546   7.457829   2.099601   2.996024
    29  H    6.538724   2.893923   7.219704   2.133310   3.393464
    30  C    3.546651   3.139030   5.161861   2.434970   1.365562
    31  H    3.136771   3.940352   5.053019   3.405669   2.126756
    32  H    3.680746   3.355080   4.671012   2.751316   2.151971
    33  O    7.149194   2.842638   8.360796   4.019506   4.956616
    34  H    6.271819   1.930358   7.426692   3.365231   4.242603
    35  H    7.064559   2.953008   8.571474   4.066241   4.829045
    36  O    5.664416   2.756715   7.771877   3.765191   3.818275
    37  H    5.536692   3.187340   7.659231   4.559061   4.499304
    38  H    5.013347   1.791032   6.959372   3.054739   3.158552
                   21         22         23         24         25
    21  H    0.000000
    22  C    2.636287   0.000000
    23  H    3.546046   1.090892   0.000000
    24  H    3.218062   1.095814   1.757691   0.000000
    25  H    2.310306   1.088273   1.776642   1.776452   0.000000
    26  C    3.482290   2.520136   2.754793   2.787937   3.463363
    27  H    3.823261   3.457957   3.681317   3.828740   4.289110
    28  H    3.877530   2.893486   3.283469   2.737134   3.858308
    29  H    4.242782   2.664519   2.454652   2.949401   3.689142
    30  C    2.107174   3.767784   4.474538   4.325173   3.960231
    31  H    2.429286   4.610525   5.380673   5.154641   4.610147
    32  H    3.088861   4.222249   4.795544   4.711002   4.642270
    33  O    5.167588   3.490532   2.561938   4.315940   3.706948
    34  H    4.575152   3.177356   2.403016   4.101987   3.490585
    35  H    4.837510   3.381695   2.610843   4.261379   3.308301
    36  O    3.429843   3.388583   3.339469   4.398178   2.762867
    37  H    4.117910   4.315812   4.210987   5.344173   3.715728
    38  H    3.016861   2.990002   2.948710   4.071890   2.630959
                   26         27         28         29         30
    26  C    0.000000
    27  H    1.087309   0.000000
    28  H    1.095823   1.761629   0.000000
    29  H    1.088408   1.772722   1.761620   0.000000
    30  C    3.003310   2.702509   3.472185   3.953025   0.000000
    31  H    4.076929   3.743816   4.472089   5.033178   1.081817
    32  H    2.744963   2.095182   3.191078   3.683031   1.081001
    33  O    4.404195   4.933566   5.267425   3.773701   5.802645
    34  H    3.703938   4.107305   4.663426   3.173357   4.961677
    35  H    4.754207   5.328474   5.593796   4.294482   5.764908
    36  O    4.967769   5.395673   5.794948   5.016869   4.677329
    37  H    5.694272   6.000741   6.585423   5.725511   5.171919
    38  H    4.154550   4.489679   5.055446   4.233009   3.919619
                   31         32         33         34         35
    31  H    0.000000
    32  H    1.831820   0.000000
    33  O    6.635066   6.030020   0.000000
    34  H    5.808532   5.132847   0.968153   0.000000
    35  H    6.497572   6.158938   0.963106   1.501812   0.000000
    36  O    5.087571   5.393634   3.083229   2.901188   2.322496
    37  H    5.475288   5.867202   3.486334   3.318304   2.743722
    38  H    4.438723   4.536057   2.812757   2.342403   2.317962
                   36         37         38
    36  O    0.000000
    37  H    0.958899   0.000000
    38  H    0.977520   1.540307   0.000000
 Stoichiometry    C15H19ClO3
 Framework group  C1[X(C15H19ClO3)]
 Deg. of freedom   108
 Full point group                 C1      NOp   1
 Largest Abelian subgroup         C1      NOp   1
 Largest concise Abelian subgroup C1      NOp   1
                         Standard orientation:                         
 ---------------------------------------------------------------------
 Center     Atomic      Atomic             Coordinates (Angstroms)
 Number     Number       Type             X           Y           Z
 ---------------------------------------------------------------------
      1          6           0       -2.677062    2.731617    0.318999
      2          6           0       -3.058371    1.425277    0.157309
      3          6           0       -2.107140    0.424938   -0.125271
      4          6           0       -0.744510    0.792329   -0.230321
      5          6           0       -0.386402    2.141520   -0.072741
      6          6           0       -1.329753    3.097249    0.198279
      7          1           0       -3.423793    3.485726    0.533819
      8          1           0       -4.101751    1.155235    0.242849
      9          1           0        0.655768    2.411811   -0.173151
     10          1           0       -1.037414    4.132959    0.316569
     11          6           0        0.272281   -0.205979   -0.532151
     12          6           0       -2.454738   -0.950513   -0.331761
     13          6           0       -0.147447   -1.538090   -0.675021
     14          1           0        0.568173   -2.269179   -1.023581
     15          6           0       -1.519277   -1.885172   -0.621021
     16          1           0       -1.812736   -2.912052   -0.795131
     17          8           0        1.509351    0.109852   -0.587991
     18         17           0       -4.126118   -1.437725   -0.234611
     19          6           0        2.480181   -0.385247    1.431519
     20          6           0        1.988083   -1.689237    1.370949
     21          1           0        2.647144   -2.442627    0.954469
     22          6           0        3.892841   -0.121305    1.053039
     23          1           0        3.973860    0.813955    0.497369
     24          1           0        4.483431   -0.002135    1.968359
     25          1           0        4.320602   -0.928145    0.461119
     26          6           0        1.794590    0.703842    2.178899
     27          1           0        0.711080    0.613761    2.190379
     28          1           0        2.141210    0.664933    3.217729
     29          1           0        2.067249    1.678683    1.778929
     30          6           0        0.676613   -2.015569    1.566689
     31          1           0        0.350834   -3.042839    1.472289
     32          1           0       -0.034378   -1.336550    2.016119
     33          8           0        3.389168    1.898524   -1.748821
     34          1           0        2.598459    1.512253   -1.345221
     35          1           0        3.841089    1.120355   -2.092031
     36          8           0        3.404692   -1.160366   -2.135151
     37          1           0        3.017792   -1.336346   -2.994701
     38          1           0        2.672362   -0.816517   -1.586511
 ---------------------------------------------------------------------
 Rotational constants (GHZ):      0.4855658      0.2281136      0.1967275
 General basis read from cards:  (5D, 7F)
 There are   880 symmetry adapted cartesian basis functions of A   symmetry.
 There are   785 symmetry adapted basis functions of A   symmetry.
   785 basis functions,  1215 primitive gaussians,   880 cartesian basis functions
    75 alpha electrons       75 beta electrons
       nuclear repulsion energy      1612.3240193321 Hartrees.
 NAtoms=   38 NActive=   38 NUniq=   38 SFac= 1.00D+00 NAtFMM=   60 NAOKFM=F Big=F
 Integral buffers will be    131072 words long.
 Raffenetti 2 integral format.
 Two-electron integral symmetry is turned on.
 Nuclear repulsion after empirical dispersion term =     1612.2898941341 Hartrees.
 Force inversion solution in PCM.
 ------------------------------------------------------------------------------
 Polarizable Continuum Model (PCM)
 =================================
 Model                : PCM (using non-symmetric T matrix).
 Atomic radii         : SMD-Coulomb.
 Polarization charges : Total charges.
 Charge compensation  : None.
 Solution method      : Matrix inversion.
 Cavity type          : VdW (van der Waals Surface) (Alpha=1.000).
 Cavity algorithm     : GePol (No added spheres)
                        Default sphere list used, NSphG=   38.
                        Lebedev-Laikov grids with approx.  5.0 points / Ang**2.
                        Smoothing algorithm: Karplus/York (Gamma=1.0000).
                        Polarization charges: spherical gaussians, with
                                              point-specific exponents (IZeta= 3).
                        Self-potential: point-specific (ISelfS= 7).
                        Self-field    : sphere-specific E.n sum rule (ISelfD= 2).
 1st derivatives      : Analytical E(r).r(x)/FMM algorithm (CHGder, D1EAlg=3).
                        Cavity 1st derivative terms included.
 2nd derivatives      : Analytical E(r).r(xy)/FMM algorithm (CHGder, D2EAlg=3).
                        Cavity 2nd derivative terms included.
 Solvent              : Toluene, Eps=   2.374100 Eps(inf)=   2.238315
 ------------------------------------------------------------------------------
 ------------------------------------------------------------------------------
 Atomic radii for non-electrostatic terms: SMD-CDS.
 ------------------------------------------------------------------------------
 Nuclear repulsion after PCM non-electrostatic terms =     1612.2783102719 Hartrees.
 One-electron integrals computed using PRISM.
 NBasis=   785 RedAO= T EigKep=  1.08D-06  NBF=   785
 NBsUse=   779 1.00D-06 EigRej=  8.84D-07 NBFU=   779
 ExpMin= 3.17D-02 ExpMax= 6.95D+04 ExpMxC= 2.37D+03 IAcc=3 IRadAn=         5 AccDes= 0.00D+00
 Harris functional with IExCor= 4639 and IRadAn=       5 diagonalized for initial guess.
 HarFok:  IExCor= 4639 AccDes= 0.00D+00 IRadAn=         5 IDoV= 1 UseB2=F ITyADJ=14
 ICtDFT=  3500011 ScaDFX=  1.000000  1.000000  1.000000  1.000000
 FoFCou: FMM=F IPFlag=           0 FMFlag=      100000 FMFlg1=           0
         NFxFlg=           0 DoJE=T BraDBF=F KetDBF=T FulRan=T
         wScrn=  0.000000 ICntrl=     500 IOpCl=  0 I1Cent=   200000004 NGrid=           0
         NMat0=    1 NMatS0=      1 NMatT0=    0 NMatD0=    1 NMtDS0=    0 NMtDT0=    0
 Petite list used in FoFCou.
 Requested convergence on RMS density matrix=1.00D-08 within 128 cycles.
 Requested convergence on MAX density matrix=1.00D-06.
 Requested convergence on             energy=1.00D-06.
 No special actions if energy rises.
 Inv3:  Mode=1 IEnd=    24573132.
 Iteration    1 A*A^-1 deviation from unit magnitude is 4.66D-15 for   2862.
 Iteration    1 A*A^-1 deviation from orthogonality  is 1.68D-15 for   1788    372.
 Iteration    1 A^-1*A deviation from unit magnitude is 4.66D-15 for   2862.
 Iteration    1 A^-1*A deviation from orthogonality  is 7.99D-15 for    835    811.
 Error on total polarization charges =  0.02231
 SCF Done:  E(RwB97XD) =  -1268.94803090     A.U. after   16 cycles
            NFock= 16  Conv=0.87D-08     -V/T= 2.0036
 SMD-CDS (non-electrostatic) energy       (kcal/mol) =      -7.27
 (included in total energy above)
 DoSCS=F DFT=T ScalE2(SS,OS)=  1.000000  1.000000
 Range of M.O.s used for correlation:     1   779
 NBasis=   785 NAE=    75 NBE=    75 NFC=     0 NFV=     0
 NROrb=    779 NOA=    75 NOB=    75 NVA=   704 NVB=   704

 **** Warning!!: The largest alpha MO coefficient is  0.14829265D+03

 Symmetrizing basis deriv contribution to polar:
 IMax=3 JMax=2 DiffMx= 0.00D+00
 G2DrvN: will do    39 centers at a time, making    1 passes.
 Calling FoFCou, ICntrl=  3107 FMM=F I1Cent=   0 AccDes= 0.00D+00.
 NEqPCM:  Using equilibrium solvation (IEInf=0, Eps=   2.3741, EpsInf=   2.2383)
 G2PCM: DoFxE=T DoFxN=T DoGrad=T DoDP/DQ/DG/TGxP=FFFF NFrqRd=   0 IEInf=0 SqF1=F DoCFld=F IF1Alg=4.
 End of G2Drv F.D. properties file   721 does not exist.
 End of G2Drv F.D. properties file   722 does not exist.
 End of G2Drv F.D. properties file   788 does not exist.
          IDoAtm=11111111111111111111111111111111111111
 NEqPCM:  Using equilibrium solvation (IEInf=0, Eps=   2.3741, EpsInf=   2.2383)
          Differentiating once with respect to nuclear coordinates.
          There are   117 degrees of freedom in the 1st order CPHF.  IDoFFX=6 NUNeed=     0.
    113 vectors produced by pass  0 Test12= 5.28D-14 1.00D-09 XBig12= 1.16D-01 7.24D-02.
 AX will form   113 AO Fock derivatives at one time.
    111 vectors produced by pass  1 Test12= 5.28D-14 1.00D-09 XBig12= 1.53D-02 2.27D-02.
    111 vectors produced by pass  2 Test12= 5.28D-14 1.00D-09 XBig12= 4.81D-04 2.86D-03.
    111 vectors produced by pass  3 Test12= 5.28D-14 1.00D-09 XBig12= 6.38D-06 2.70D-04.
    111 vectors produced by pass  4 Test12= 5.28D-14 1.00D-09 XBig12= 6.39D-08 3.24D-05.
    111 vectors produced by pass  5 Test12= 5.28D-14 1.00D-09 XBig12= 5.66D-10 2.74D-06.
    111 vectors produced by pass  6 Test12= 5.28D-14 1.00D-09 XBig12= 1.05D-11 2.72D-07.
     94 vectors produced by pass  7 Test12= 5.28D-14 1.00D-09 XBig12= 1.23D-12 7.58D-08.
     69 vectors produced by pass  8 Test12= 5.28D-14 1.00D-09 XBig12= 7.42D-14 1.80D-08.
     59 vectors produced by pass  9 Test12= 5.28D-14 1.00D-09 XBig12= 3.23D-14 1.39D-08.
     52 vectors produced by pass 10 Test12= 5.28D-14 1.00D-09 XBig12= 6.22D-14 1.74D-08.
     33 vectors produced by pass 11 Test12= 5.28D-14 1.00D-09 XBig12= 2.33D-14 9.01D-09.
     33 vectors produced by pass 12 Test12= 5.28D-14 1.00D-09 XBig12= 5.18D-14 1.67D-08.
     32 vectors produced by pass 13 Test12= 5.28D-14 1.00D-09 XBig12= 3.52D-14 1.09D-08.
     28 vectors produced by pass 14 Test12= 5.28D-14 1.00D-09 XBig12= 3.07D-14 1.03D-08.
     28 vectors produced by pass 15 Test12= 5.28D-14 1.00D-09 XBig12= 6.48D-14 1.38D-08.
     27 vectors produced by pass 16 Test12= 5.28D-14 1.00D-09 XBig12= 4.18D-14 1.13D-08.
     24 vectors produced by pass 17 Test12= 5.28D-14 1.00D-09 XBig12= 3.34D-14 1.04D-08.
     22 vectors produced by pass 18 Test12= 5.28D-14 1.00D-09 XBig12= 3.30D-14 9.02D-09.
     16 vectors produced by pass 19 Test12= 5.28D-14 1.00D-09 XBig12= 2.11D-14 7.91D-09.
     16 vectors produced by pass 20 Test12= 5.28D-14 1.00D-09 XBig12= 3.38D-14 8.72D-09.
     15 vectors produced by pass 21 Test12= 5.28D-14 1.00D-09 XBig12= 1.67D-14 7.76D-09.
     15 vectors produced by pass 22 Test12= 5.28D-14 1.00D-09 XBig12= 2.96D-14 7.72D-09.
     15 vectors produced by pass 23 Test12= 5.28D-14 1.00D-09 XBig12= 1.43D-14 5.72D-09.
     15 vectors produced by pass 24 Test12= 5.28D-14 1.00D-09 XBig12= 1.44D-14 6.34D-09.
     15 vectors produced by pass 25 Test12= 5.28D-14 1.00D-09 XBig12= 2.77D-14 7.77D-09.
     13 vectors produced by pass 26 Test12= 5.28D-14 1.00D-09 XBig12= 9.26D-15 4.34D-09.
     13 vectors produced by pass 27 Test12= 5.28D-14 1.00D-09 XBig12= 1.67D-14 6.38D-09.
     13 vectors produced by pass 28 Test12= 5.28D-14 1.00D-09 XBig12= 3.58D-14 9.52D-09.
     13 vectors produced by pass 29 Test12= 5.28D-14 1.00D-09 XBig12= 1.88D-14 6.62D-09.
     13 vectors produced by pass 30 Test12= 5.28D-14 1.00D-09 XBig12= 1.66D-14 6.22D-09.
     13 vectors produced by pass 31 Test12= 5.28D-14 1.00D-09 XBig12= 2.24D-14 6.87D-09.
     13 vectors produced by pass 32 Test12= 5.28D-14 1.00D-09 XBig12= 1.68D-14 6.00D-09.
     13 vectors produced by pass 33 Test12= 5.28D-14 1.00D-09 XBig12= 2.17D-14 6.40D-09.
     13 vectors produced by pass 34 Test12= 5.28D-14 1.00D-09 XBig12= 2.45D-14 6.85D-09.
     11 vectors produced by pass 35 Test12= 5.28D-14 1.00D-09 XBig12= 1.50D-14 5.84D-09.
     11 vectors produced by pass 36 Test12= 5.28D-14 1.00D-09 XBig12= 2.00D-14 7.11D-09.
     11 vectors produced by pass 37 Test12= 5.28D-14 1.00D-09 XBig12= 2.54D-14 7.82D-09.
      7 vectors produced by pass 38 Test12= 5.28D-14 1.00D-09 XBig12= 5.66D-15 3.30D-09.
      7 vectors produced by pass 39 Test12= 5.28D-14 1.00D-09 XBig12= 1.28D-14 4.39D-09.
      7 vectors produced by pass 40 Test12= 5.28D-14 1.00D-09 XBig12= 1.19D-14 5.17D-09.
      7 vectors produced by pass 41 Test12= 5.28D-14 1.00D-09 XBig12= 1.12D-14 5.24D-09.
      7 vectors produced by pass 42 Test12= 5.28D-14 1.00D-09 XBig12= 2.07D-14 6.14D-09.
      7 vectors produced by pass 43 Test12= 5.28D-14 1.00D-09 XBig12= 1.66D-14 5.73D-09.
      7 vectors produced by pass 44 Test12= 5.28D-14 1.00D-09 XBig12= 1.51D-14 5.13D-09.
      7 vectors produced by pass 45 Test12= 5.28D-14 1.00D-09 XBig12= 4.89D-15 3.05D-09.
      7 vectors produced by pass 46 Test12= 5.28D-14 1.00D-09 XBig12= 1.60D-14 5.04D-09.
      7 vectors produced by pass 47 Test12= 5.28D-14 1.00D-09 XBig12= 1.14D-14 4.11D-09.
      7 vectors produced by pass 48 Test12= 5.28D-14 1.00D-09 XBig12= 9.44D-15 4.01D-09.
      7 vectors produced by pass 49 Test12= 5.28D-14 1.00D-09 XBig12= 1.17D-14 4.22D-09.
      7 vectors produced by pass 50 Test12= 5.28D-14 1.00D-09 XBig12= 1.61D-14 5.32D-09.
      7 vectors produced by pass 51 Test12= 5.28D-14 1.00D-09 XBig12= 1.08D-14 4.46D-09.
      7 vectors produced by pass 52 Test12= 5.28D-14 1.00D-09 XBig12= 1.08D-14 4.42D-09.
      7 vectors produced by pass 53 Test12= 5.28D-14 1.00D-09 XBig12= 1.15D-14 4.16D-09.
      7 vectors produced by pass 54 Test12= 5.28D-14 1.00D-09 XBig12= 7.51D-15 3.52D-09.
      7 vectors produced by pass 55 Test12= 5.28D-14 1.00D-09 XBig12= 6.73D-15 4.07D-09.
      7 vectors produced by pass 56 Test12= 5.28D-14 1.00D-09 XBig12= 7.96D-15 3.87D-09.
      7 vectors produced by pass 57 Test12= 5.28D-14 1.00D-09 XBig12= 5.16D-15 2.95D-09.
      7 vectors produced by pass 58 Test12= 5.28D-14 1.00D-09 XBig12= 6.85D-15 3.62D-09.
      7 vectors produced by pass 59 Test12= 5.28D-14 1.00D-09 XBig12= 8.86D-15 3.74D-09.
      7 vectors produced by pass 60 Test12= 5.28D-14 1.00D-09 XBig12= 7.63D-15 3.46D-09.
      7 vectors produced by pass 61 Test12= 5.28D-14 1.00D-09 XBig12= 7.30D-15 3.88D-09.
      7 vectors produced by pass 62 Test12= 5.28D-14 1.00D-09 XBig12= 9.86D-15 3.78D-09.
      7 vectors produced by pass 63 Test12= 5.28D-14 1.00D-09 XBig12= 4.12D-15 2.74D-09.
      7 vectors produced by pass 64 Test12= 5.28D-14 1.00D-09 XBig12= 8.05D-15 4.27D-09.
      7 vectors produced by pass 65 Test12= 5.28D-14 1.00D-09 XBig12= 4.24D-15 2.77D-09.
      7 vectors produced by pass 66 Test12= 5.28D-14 1.00D-09 XBig12= 5.42D-15 2.89D-09.
      7 vectors produced by pass 67 Test12= 5.28D-14 1.00D-09 XBig12= 1.11D-14 4.42D-09.
      7 vectors produced by pass 68 Test12= 5.28D-14 1.00D-09 XBig12= 1.13D-14 4.12D-09.
      7 vectors produced by pass 69 Test12= 5.28D-14 1.00D-09 XBig12= 5.81D-15 3.22D-09.
      7 vectors produced by pass 70 Test12= 5.28D-14 1.00D-09 XBig12= 1.43D-14 5.18D-09.
      7 vectors produced by pass 71 Test12= 5.28D-14 1.00D-09 XBig12= 9.28D-15 4.27D-09.
      7 vectors produced by pass 72 Test12= 5.28D-14 1.00D-09 XBig12= 8.04D-15 3.92D-09.
      7 vectors produced by pass 73 Test12= 5.28D-14 1.00D-09 XBig12= 4.29D-15 2.82D-09.
      7 vectors produced by pass 74 Test12= 5.28D-14 1.00D-09 XBig12= 7.95D-15 3.85D-09.
      7 vectors produced by pass 75 Test12= 5.28D-14 1.00D-09 XBig12= 6.23D-15 2.93D-09.
      6 vectors produced by pass 76 Test12= 5.28D-14 1.00D-09 XBig12= 4.29D-15 2.95D-09.
      5 vectors produced by pass 77 Test12= 5.28D-14 1.00D-09 XBig12= 3.64D-15 2.65D-09.
      5 vectors produced by pass 78 Test12= 5.28D-14 1.00D-09 XBig12= 1.36D-14 4.05D-09.
      5 vectors produced by pass 79 Test12= 5.28D-14 1.00D-09 XBig12= 5.62D-15 2.70D-09.
      2 vectors produced by pass 80 Test12= 5.28D-14 1.00D-09 XBig12= 1.96D-15 1.71D-09.
 InvSVY:  IOpt=1 It=  1 EMax= 7.77D-16
 Solved reduced A of dimension  1826 with   117 vectors.
 End of Minotr F.D. properties file   721 does not exist.
 End of Minotr F.D. properties file   722 does not exist.
 End of Minotr F.D. properties file   788 does not exist.

 **********************************************************************

            Population analysis using the SCF density.

 **********************************************************************

 Orbital symmetries:
       Occupied  (A) (A) (A) (A) (A) (A) (A) (A) (A) (A) (A) (A)
                 (A) (A) (A) (A) (A) (A) (A) (A) (A) (A) (A) (A)
                 (A) (A) (A) (A) (A) (A) (A) (A) (A) (A) (A) (A)
                 (A) (A) (A) (A) (A) (A) (A) (A) (A) (A) (A) (A)
                 (A) (A) (A) (A) (A) (A) (A) (A) (A) (A) (A) (A)
                 (A) (A) (A) (A) (A) (A) (A) (A) (A) (A) (A) (A)
                 (A) (A) (A)
       Virtual   (A) (A) (A) (A) (A) (A) (A) (A) (A) (A) (A) (A)
                 (A) (A) (A) (A) (A) (A) (A) (A) (A) (A) (A) (A)
                 (A) (A) (A) (A) (A) (A) (A) (A) (A) (A) (A) (A)
                 (A) (A) (A) (A) (A) (A) (A) (A) (A) (A) (A) (A)
                 (A) (A) (A) (A) (A) (A) (A) (A) (A) (A) (A) (A)
                 (A) (A) (A) (A) (A) (A) (A) (A) (A) (A) (A) (A)
                 (A) (A) (A) (A) (A) (A) (A) (A) (A) (A) (A) (A)
                 (A) (A) (A) (A) (A) (A) (A) (A) (A) (A) (A) (A)
                 (A) (A) (A) (A) (A) (A) (A) (A) (A) (A) (A) (A)
                 (A) (A) (A) (A) (A) (A) (A) (A) (A) (A) (A) (A)
                 (A) (A) (A) (A) (A) (A) (A) (A) (A) (A) (A) (A)
                 (A) (A) (A) (A) (A) (A) (A) (A) (A) (A) (A) (A)
                 (A) (A) (A) (A) (A) (A) (A) (A) (A) (A) (A) (A)
                 (A) (A) (A) (A) (A) (A) (A) (A) (A) (A) (A) (A)
                 (A) (A) (A) (A) (A) (A) (A) (A) (A) (A) (A) (A)
                 (A) (A) (A) (A) (A) (A) (A) (A) (A) (A) (A) (A)
                 (A) (A) (A) (A) (A) (A) (A) (A) (A) (A) (A) (A)
                 (A) (A) (A) (A) (A) (A) (A) (A) (A) (A) (A) (A)
                 (A) (A) (A) (A) (A) (A) (A) (A) (A) (A) (A) (A)
                 (A) (A) (A) (A) (A) (A) (A) (A) (A) (A) (A) (A)
                 (A) (A) (A) (A) (A) (A) (A) (A) (A) (A) (A) (A)
                 (A) (A) (A) (A) (A) (A) (A) (A) (A) (A) (A) (A)
                 (A) (A) (A) (A) (A) (A) (A) (A) (A) (A) (A) (A)
                 (A) (A) (A) (A) (A) (A) (A) (A) (A) (A) (A) (A)
                 (A) (A) (A) (A) (A) (A) (A) (A) (A) (A) (A) (A)
                 (A) (A) (A) (A) (A) (A) (A) (A) (A) (A) (A) (A)
                 (A) (A) (A) (A) (A) (A) (A) (A) (A) (A) (A) (A)
                 (A) (A) (A) (A) (A) (A) (A) (A) (A) (A) (A) (A)
                 (A) (A) (A) (A) (A) (A) (A) (A) (A) (A) (A) (A)
                 (A) (A) (A) (A) (A) (A) (A) (A) (A) (A) (A) (A)
                 (A) (A) (A) (A) (A) (A) (A) (A) (A) (A) (A) (A)
                 (A) (A) (A) (A) (A) (A) (A) (A) (A) (A) (A) (A)
                 (A) (A) (A) (A) (A) (A) (A) (A) (A) (A) (A) (A)
                 (A) (A) (A) (A) (A) (A) (A) (A) (A) (A) (A) (A)
                 (A) (A) (A) (A) (A) (A) (A) (A) (A) (A) (A) (A)
                 (A) (A) (A) (A) (A) (A) (A) (A) (A) (A) (A) (A)
                 (A) (A) (A) (A) (A) (A) (A) (A) (A) (A) (A) (A)
                 (A) (A) (A) (A) (A) (A) (A) (A) (A) (A) (A) (A)
                 (A) (A) (A) (A) (A) (A) (A) (A) (A) (A) (A) (A)
                 (A) (A) (A) (A) (A) (A) (A) (A) (A) (A) (A) (A)
                 (A) (A) (A) (A) (A) (A) (A) (A) (A) (A) (A) (A)
                 (A) (A) (A) (A) (A) (A) (A) (A) (A) (A) (A) (A)
                 (A) (A) (A) (A) (A) (A) (A) (A) (A) (A) (A) (A)
                 (A) (A) (A) (A) (A) (A) (A) (A) (A) (A) (A) (A)
                 (A) (A) (A) (A) (A) (A) (A) (A) (A) (A) (A) (A)
                 (A) (A) (A) (A) (A) (A) (A) (A) (A) (A) (A) (A)
                 (A) (A) (A) (A) (A) (A) (A) (A) (A) (A) (A) (A)
                 (A) (A) (A) (A) (A) (A) (A) (A) (A) (A) (A) (A)
                 (A) (A) (A) (A) (A) (A) (A) (A) (A) (A) (A) (A)
                 (A) (A) (A) (A) (A) (A) (A) (A) (A) (A) (A) (A)
                 (A) (A) (A) (A) (A) (A) (A) (A) (A) (A) (A) (A)
                 (A) (A) (A) (A) (A) (A) (A) (A) (A) (A) (A) (A)
                 (A) (A) (A) (A) (A) (A) (A) (A) (A) (A) (A) (A)
                 (A) (A) (A) (A) (A) (A) (A) (A) (A) (A) (A) (A)
                 (A) (A) (A) (A) (A) (A) (A) (A) (A) (A) (A) (A)
                 (A) (A) (A) (A) (A) (A) (A) (A) (A) (A) (A) (A)
                 (A) (A) (A) (A) (A) (A) (A) (A) (A) (A) (A) (A)
                 (A) (A) (A) (A) (A) (A) (A) (A) (A) (A) (A) (A)
                 (A) (A) (A) (A) (A) (A) (A) (A)
 The electronic state is 1-A.
 Alpha  occ. eigenvalues -- -101.70026 -19.23379 -19.23285 -19.21923 -10.35956
 Alpha  occ. eigenvalues --  -10.35082 -10.34894 -10.32878 -10.31353 -10.30209
 Alpha  occ. eigenvalues --  -10.30092 -10.29774 -10.29555 -10.29325 -10.29209
 Alpha  occ. eigenvalues --  -10.29156 -10.29037 -10.28965 -10.28266  -9.58564
 Alpha  occ. eigenvalues --   -7.33197  -7.32357  -7.32330  -1.12429  -1.09367
 Alpha  occ. eigenvalues --   -1.08097  -1.00160  -0.95940  -0.95112  -0.91837
 Alpha  occ. eigenvalues --   -0.86742  -0.86118  -0.85223  -0.81010  -0.80150
 Alpha  occ. eigenvalues --   -0.73837  -0.72669  -0.72323  -0.67369  -0.63456
 Alpha  occ. eigenvalues --   -0.62040  -0.61336  -0.60453  -0.59110  -0.58360
 Alpha  occ. eigenvalues --   -0.58082  -0.56196  -0.55725  -0.54918  -0.52975
 Alpha  occ. eigenvalues --   -0.52022  -0.51878  -0.50894  -0.50264  -0.49601
 Alpha  occ. eigenvalues --   -0.48411  -0.47926  -0.47521  -0.46977  -0.46462
 Alpha  occ. eigenvalues --   -0.45992  -0.45165  -0.44904  -0.44578  -0.44123
 Alpha  occ. eigenvalues --   -0.42614  -0.39863  -0.39150  -0.38845  -0.38139
 Alpha  occ. eigenvalues --   -0.37308  -0.35285  -0.34685  -0.32510  -0.27509
 Alpha virt. eigenvalues --   -0.03460   0.01813   0.03873   0.04114   0.04765
 Alpha virt. eigenvalues --    0.05240   0.05936   0.06339   0.06538   0.07387
 Alpha virt. eigenvalues --    0.07506   0.07738   0.08396   0.08843   0.09030
 Alpha virt. eigenvalues --    0.09350   0.10148   0.10392   0.10566   0.10860
 Alpha virt. eigenvalues --    0.11119   0.11600   0.11867   0.12494   0.12866
 Alpha virt. eigenvalues --    0.13152   0.13659   0.13852   0.13934   0.14256
 Alpha virt. eigenvalues --    0.14795   0.15231   0.15492   0.15726   0.15917
 Alpha virt. eigenvalues --    0.16121   0.16551   0.16615   0.17206   0.17426
 Alpha virt. eigenvalues --    0.17673   0.17923   0.18245   0.18437   0.18702
 Alpha virt. eigenvalues --    0.18946   0.18997   0.19211   0.19367   0.19579
 Alpha virt. eigenvalues --    0.20246   0.20582   0.20829   0.21138   0.21209
 Alpha virt. eigenvalues --    0.21425   0.21602   0.21904   0.22598   0.22867
 Alpha virt. eigenvalues --    0.22952   0.23206   0.23417   0.23714   0.23884
 Alpha virt. eigenvalues --    0.24467   0.24755   0.24968   0.25458   0.25860
 Alpha virt. eigenvalues --    0.26029   0.26581   0.27006   0.27293   0.27454
 Alpha virt. eigenvalues --    0.27932   0.28414   0.28518   0.28689   0.29421
 Alpha virt. eigenvalues --    0.29641   0.29862   0.30160   0.30500   0.31215
 Alpha virt. eigenvalues --    0.31858   0.31959   0.32332   0.32509   0.33150
 Alpha virt. eigenvalues --    0.33834   0.33946   0.34200   0.34579   0.35308
 Alpha virt. eigenvalues --    0.35611   0.36141   0.36682   0.36939   0.37337
 Alpha virt. eigenvalues --    0.38625   0.38813   0.39486   0.39973   0.40317
 Alpha virt. eigenvalues --    0.40680   0.40933   0.41462   0.41958   0.42860
 Alpha virt. eigenvalues --    0.43354   0.43917   0.44157   0.44662   0.45619
 Alpha virt. eigenvalues --    0.45844   0.46099   0.46493   0.47337   0.47589
 Alpha virt. eigenvalues --    0.47693   0.48171   0.48340   0.48490   0.49496
 Alpha virt. eigenvalues --    0.49758   0.50113   0.50295   0.50735   0.51374
 Alpha virt. eigenvalues --    0.51691   0.52083   0.52678   0.52776   0.53006
 Alpha virt. eigenvalues --    0.54124   0.54249   0.54908   0.55422   0.55898
 Alpha virt. eigenvalues --    0.56363   0.56712   0.57027   0.57492   0.57828
 Alpha virt. eigenvalues --    0.58375   0.58919   0.59203   0.59417   0.59995
 Alpha virt. eigenvalues --    0.60035   0.60577   0.60901   0.61394   0.61884
 Alpha virt. eigenvalues --    0.62422   0.62804   0.62913   0.63378   0.64629
 Alpha virt. eigenvalues --    0.65230   0.65430   0.66162   0.66283   0.67170
 Alpha virt. eigenvalues --    0.67323   0.67627   0.68017   0.68181   0.68777
 Alpha virt. eigenvalues --    0.69553   0.69930   0.70429   0.70945   0.71298
 Alpha virt. eigenvalues --    0.72512   0.73066   0.73426   0.73784   0.74756
 Alpha virt. eigenvalues --    0.75195   0.75839   0.76278   0.76469   0.77831
 Alpha virt. eigenvalues --    0.78524   0.79006   0.79694   0.80420   0.80791
 Alpha virt. eigenvalues --    0.81329   0.81795   0.82381   0.83028   0.83450
 Alpha virt. eigenvalues --    0.83781   0.84274   0.85329   0.85582   0.86239
 Alpha virt. eigenvalues --    0.87100   0.87723   0.87892   0.88488   0.88955
 Alpha virt. eigenvalues --    0.90153   0.90257   0.91089   0.91757   0.92155
 Alpha virt. eigenvalues --    0.93481   0.93728   0.95001   0.96704   0.97072
 Alpha virt. eigenvalues --    0.99142   1.00160   1.01069   1.01363   1.01806
 Alpha virt. eigenvalues --    1.03395   1.04181   1.05505   1.05867   1.06956
 Alpha virt. eigenvalues --    1.08079   1.09368   1.09869   1.11001   1.12466
 Alpha virt. eigenvalues --    1.13943   1.14129   1.15121   1.15568   1.16011
 Alpha virt. eigenvalues --    1.17344   1.18279   1.19233   1.19947   1.21553
 Alpha virt. eigenvalues --    1.22289   1.22688   1.23624   1.23764   1.25004
 Alpha virt. eigenvalues --    1.26509   1.26886   1.27164   1.27941   1.28617
 Alpha virt. eigenvalues --    1.29695   1.30476   1.31076   1.32535   1.33242
 Alpha virt. eigenvalues --    1.33726   1.34999   1.35767   1.37073   1.37267
 Alpha virt. eigenvalues --    1.37978   1.38650   1.39137   1.39746   1.40283
 Alpha virt. eigenvalues --    1.41119   1.41317   1.42728   1.42876   1.43680
 Alpha virt. eigenvalues --    1.44773   1.46404   1.46851   1.47753   1.48065
 Alpha virt. eigenvalues --    1.49203   1.50493   1.51363   1.51808   1.52446
 Alpha virt. eigenvalues --    1.53940   1.55203   1.55376   1.57065   1.58071
 Alpha virt. eigenvalues --    1.60293   1.61301   1.62443   1.63018   1.64326
 Alpha virt. eigenvalues --    1.64916   1.65799   1.66100   1.67011   1.68043
 Alpha virt. eigenvalues --    1.68738   1.69585   1.69924   1.70409   1.71311
 Alpha virt. eigenvalues --    1.72189   1.73050   1.73806   1.74103   1.74715
 Alpha virt. eigenvalues --    1.75522   1.76116   1.77216   1.78178   1.78661
 Alpha virt. eigenvalues --    1.79536   1.80012   1.80486   1.81537   1.82108
 Alpha virt. eigenvalues --    1.82523   1.83282   1.84009   1.85182   1.85492
 Alpha virt. eigenvalues --    1.86101   1.86737   1.87096   1.87897   1.88127
 Alpha virt. eigenvalues --    1.88931   1.90268   1.90996   1.91839   1.92483
 Alpha virt. eigenvalues --    1.94207   1.95064   1.96376   1.97214   1.97735
 Alpha virt. eigenvalues --    1.98608   1.98865   2.00764   2.02310   2.02861
 Alpha virt. eigenvalues --    2.03753   2.04910   2.05537   2.06995   2.07594
 Alpha virt. eigenvalues --    2.08165   2.09825   2.10064   2.10608   2.11660
 Alpha virt. eigenvalues --    2.12314   2.13133   2.13399   2.14587   2.15756
 Alpha virt. eigenvalues --    2.16224   2.17683   2.18260   2.20408   2.21163
 Alpha virt. eigenvalues --    2.21574   2.22493   2.23163   2.23658   2.23938
 Alpha virt. eigenvalues --    2.24344   2.25494   2.26269   2.27374   2.28375
 Alpha virt. eigenvalues --    2.28700   2.29496   2.30330   2.31029   2.32329
 Alpha virt. eigenvalues --    2.33025   2.33142   2.35324   2.36097   2.38260
 Alpha virt. eigenvalues --    2.38865   2.40383   2.40955   2.41857   2.42516
 Alpha virt. eigenvalues --    2.43453   2.44021   2.45011   2.45209   2.45877
 Alpha virt. eigenvalues --    2.47116   2.48099   2.48697   2.49295   2.50714
 Alpha virt. eigenvalues --    2.51141   2.51605   2.52251   2.53027   2.54558
 Alpha virt. eigenvalues --    2.55304   2.56044   2.58091   2.58270   2.58659
 Alpha virt. eigenvalues --    2.59771   2.60470   2.60960   2.62625   2.63458
 Alpha virt. eigenvalues --    2.64051   2.64524   2.66535   2.67423   2.68569
 Alpha virt. eigenvalues --    2.69273   2.69553   2.70699   2.71110   2.71846
 Alpha virt. eigenvalues --    2.72267   2.72740   2.73448   2.73599   2.74789
 Alpha virt. eigenvalues --    2.75361   2.75769   2.77419   2.77762   2.80269
 Alpha virt. eigenvalues --    2.81241   2.81886   2.82504   2.82802   2.83293
 Alpha virt. eigenvalues --    2.84790   2.85188   2.85387   2.86598   2.87055
 Alpha virt. eigenvalues --    2.87408   2.88700   2.88958   2.89465   2.90340
 Alpha virt. eigenvalues --    2.91225   2.92235   2.92619   2.93159   2.93625
 Alpha virt. eigenvalues --    2.95406   2.96350   2.97038   2.97484   2.98436
 Alpha virt. eigenvalues --    2.98853   2.99729   3.00329   3.01094   3.01354
 Alpha virt. eigenvalues --    3.01428   3.03233   3.03922   3.04996   3.05250
 Alpha virt. eigenvalues --    3.05738   3.07726   3.08098   3.09195   3.09651
 Alpha virt. eigenvalues --    3.10234   3.10708   3.11074   3.13188   3.13996
 Alpha virt. eigenvalues --    3.14990   3.15959   3.16863   3.18606   3.19105
 Alpha virt. eigenvalues --    3.20600   3.20991   3.21533   3.22336   3.24006
 Alpha virt. eigenvalues --    3.25051   3.26017   3.27142   3.27617   3.28008
 Alpha virt. eigenvalues --    3.28887   3.29631   3.30626   3.30926   3.31881
 Alpha virt. eigenvalues --    3.32287   3.33493   3.33931   3.35372   3.35693
 Alpha virt. eigenvalues --    3.36501   3.36998   3.37623   3.38389   3.38733
 Alpha virt. eigenvalues --    3.39368   3.39762   3.40955   3.41911   3.42098
 Alpha virt. eigenvalues --    3.42931   3.43447   3.44202   3.44808   3.45210
 Alpha virt. eigenvalues --    3.46715   3.47334   3.48356   3.49089   3.49932
 Alpha virt. eigenvalues --    3.50529   3.51685   3.52219   3.52316   3.53359
 Alpha virt. eigenvalues --    3.54384   3.55202   3.56142   3.57143   3.57865
 Alpha virt. eigenvalues --    3.59014   3.59104   3.60183   3.61591   3.62085
 Alpha virt. eigenvalues --    3.62551   3.63833   3.63932   3.65169   3.66628
 Alpha virt. eigenvalues --    3.67612   3.68536   3.68929   3.69830   3.71332
 Alpha virt. eigenvalues --    3.72835   3.73366   3.75174   3.76067   3.76543
 Alpha virt. eigenvalues --    3.78951   3.79139   3.80966   3.81349   3.82009
 Alpha virt. eigenvalues --    3.83851   3.86214   3.88901   3.89534   3.92321
 Alpha virt. eigenvalues --    3.93499   3.95741   3.96208   3.96563   3.97772
 Alpha virt. eigenvalues --    3.97984   3.99397   4.00886   4.03112   4.05310
 Alpha virt. eigenvalues --    4.05869   4.08087   4.09663   4.10465   4.12057
 Alpha virt. eigenvalues --    4.12938   4.14050   4.15443   4.15810   4.16544
 Alpha virt. eigenvalues --    4.18401   4.19048   4.20779   4.22647   4.24159
 Alpha virt. eigenvalues --    4.25601   4.26429   4.27460   4.30112   4.30192
 Alpha virt. eigenvalues --    4.31284   4.32551   4.34287   4.35284   4.36325
 Alpha virt. eigenvalues --    4.36653   4.37454   4.40836   4.41719   4.42356
 Alpha virt. eigenvalues --    4.44146   4.44724   4.45510   4.47793   4.49953
 Alpha virt. eigenvalues --    4.51393   4.54952   4.55892   4.58173   4.58739
 Alpha virt. eigenvalues --    4.60664   4.62059   4.64894   4.70154   4.72685
 Alpha virt. eigenvalues --    4.73725   4.75982   4.80670   4.82734   4.83755
 Alpha virt. eigenvalues --    4.85356   4.86803   4.87847   4.90964   4.93866
 Alpha virt. eigenvalues --    4.97848   5.01034   5.03395   5.04641   5.07287
 Alpha virt. eigenvalues --    5.08830   5.10698   5.17803   5.20481   5.21472
 Alpha virt. eigenvalues --    5.21934   5.23057   5.28694   5.29650   5.31391
 Alpha virt. eigenvalues --    5.32169   5.34587   5.34978   5.35555   5.38942
 Alpha virt. eigenvalues --    5.39754   5.43411   5.49285   5.49971   5.50527
 Alpha virt. eigenvalues --    5.53917   5.55409   5.58610   5.60429   5.64023
 Alpha virt. eigenvalues --    5.65871   5.73780   5.77090   5.91450   5.92298
 Alpha virt. eigenvalues --    6.14171   6.17025   6.20267   6.36679   6.38562
 Alpha virt. eigenvalues --    6.43255   6.47361   6.48113   6.50615   6.51674
 Alpha virt. eigenvalues --    6.55733   6.64339   6.69420   6.74956   6.88105
 Alpha virt. eigenvalues --    7.01288   7.07510   7.10663   7.20113   7.26956
 Alpha virt. eigenvalues --    7.36169   7.37998  10.93655  11.02994  11.51520
 Alpha virt. eigenvalues --   22.44289  22.59243  22.60345  22.64155  22.74859
 Alpha virt. eigenvalues --   22.81210  22.83843  22.85965  22.93078  22.99294
 Alpha virt. eigenvalues --   23.09563  23.10744  23.15432  23.41522  23.84120
 Alpha virt. eigenvalues --   26.42856  43.89335  43.98802  44.49052
          Condensed to atoms (all electrons):
               1          2          3          4          5          6
     1  C    5.942009  -0.357124   0.055067  -0.257193  -1.226770   0.363085
     2  C   -0.357124   6.510012  -0.178674   0.246939   0.762662  -0.118057
     3  C    0.055067  -0.178674   6.555012   0.197854  -0.216233  -0.069936
     4  C   -0.257193   0.246939   0.197854   6.810400   0.286804  -0.140132
     5  C   -1.226770   0.762662  -0.216233   0.286804   8.368821   0.377119
     6  C    0.363085  -0.118057  -0.069936  -0.140132   0.377119   5.392558
     7  H    0.411393  -0.056240   0.024542  -0.013366   0.034522  -0.033536
     8  H   -0.051249   0.473942  -0.051336   0.016629  -0.006127   0.015128
     9  H   -0.006247  -0.011440   0.037827  -0.064261   0.473487  -0.029314
    10  H   -0.035343   0.049000  -0.022602   0.013037  -0.048276   0.413096
    11  C    0.533042  -0.221624  -0.361560  -0.224192  -1.628766  -0.151513
    12  C    0.562936  -0.921052   0.425351  -0.376191  -1.008050   0.121975
    13  C    0.160395   0.095214  -0.470367  -0.173905  -0.563954  -0.142175
    14  H   -0.000338  -0.002903  -0.009587   0.012089  -0.002123   0.002064
    15  C    0.099420  -0.075593  -0.058574  -0.430133  -0.222859   0.021335
    16  H    0.001306  -0.003109   0.032178  -0.018625  -0.001808   0.000350
    17  O   -0.088673  -0.038944   0.125507   0.070988   0.381954   0.027235
    18  Cl  -0.014845   0.006571  -0.122991   0.039339  -0.003390  -0.003175
    19  C    0.024288  -0.070743   0.025986   0.011690  -0.050427  -0.000893
    20  C   -0.149464   0.185126  -0.030793  -0.010683   0.722643  -0.044951
    21  H   -0.000003  -0.000439  -0.000313  -0.003800   0.001793   0.000478
    22  C    0.026226  -0.037329  -0.013614   0.060108  -0.078523   0.050242
    23  H   -0.000246  -0.000238   0.000658  -0.000527  -0.000497   0.001199
    24  H    0.000038  -0.000152   0.000546  -0.000067  -0.000364   0.000294
    25  H   -0.000130   0.000225  -0.001030  -0.003344   0.005085   0.000070
    26  C    0.086061  -0.060853   0.044283   0.064990  -0.460139  -0.045265
    27  H   -0.003353   0.008257   0.011824  -0.015749  -0.006431  -0.004344
    28  H   -0.000022  -0.000370  -0.000188  -0.000959   0.009448   0.001587
    29  H   -0.000671  -0.002210   0.004331   0.009691  -0.024664  -0.001553
    30  C   -0.040981   0.012824   0.070480   0.070342   0.124691   0.015663
    31  H    0.000514  -0.000126  -0.000870  -0.005918  -0.003308   0.000398
    32  H   -0.003448  -0.007407   0.009301   0.020609   0.004944   0.004190
    33  O   -0.003960   0.001027  -0.002075  -0.032165   0.031136  -0.001651
    34  H    0.000181   0.001730  -0.007060   0.005005   0.007542   0.003924
    35  H    0.000834  -0.000492  -0.000616   0.014482  -0.011894   0.000743
    36  O   -0.002168   0.002419   0.006097   0.000090   0.007429  -0.007360
    37  H    0.000015  -0.000367  -0.000496  -0.003748   0.004132   0.000741
    38  H   -0.004672   0.003491   0.008390  -0.045310   0.054313  -0.002507
               7          8          9         10         11         12
     1  C    0.411393  -0.051249  -0.006247  -0.035343   0.533042   0.562936
     2  C   -0.056240   0.473942  -0.011440   0.049000  -0.221624  -0.921052
     3  C    0.024542  -0.051336   0.037827  -0.022602  -0.361560   0.425351
     4  C   -0.013366   0.016629  -0.064261   0.013037  -0.224192  -0.376191
     5  C    0.034522  -0.006127   0.473487  -0.048276  -1.628766  -1.008050
     6  C   -0.033536   0.015128  -0.029314   0.413096  -0.151513   0.121975
     7  H    0.488321  -0.006191   0.000058  -0.005762  -0.003382  -0.002843
     8  H   -0.006191   0.489232  -0.000023   0.000023  -0.008365  -0.026421
     9  H    0.000058  -0.000023   0.477577  -0.006051  -0.082443   0.003854
    10  H   -0.005762   0.000023  -0.006051   0.488189  -0.003558  -0.004655
    11  C   -0.003382  -0.008365  -0.082443  -0.003558   8.776889  -0.323429
    12  C   -0.002843  -0.026421   0.003854  -0.004655  -0.323429   7.046431
    13  C   -0.001558  -0.006256  -0.019446   0.000580   1.252489  -0.435025
    14  H    0.000000  -0.000002   0.000044   0.000000  -0.091371   0.037693
    15  C    0.000157  -0.010409  -0.003523  -0.000660  -0.122726   0.694186
    16  H    0.000000   0.000033  -0.000001   0.000000   0.038317  -0.058847
    17  O    0.000152  -0.000522   0.041138   0.000363  -1.220964   0.142943
    18  Cl   0.000292  -0.000808   0.000016   0.000012  -0.007907   0.259716
    19  C   -0.000263  -0.000341   0.000415  -0.000044   0.150937   0.117611
    20  C   -0.000037  -0.000005  -0.005708   0.001001  -0.317992  -0.392945
    21  H    0.000000   0.000000   0.000025   0.000000  -0.002530   0.002970
    22  C    0.000035  -0.000072   0.003276  -0.000244  -0.103537   0.081651
    23  H    0.000000   0.000000   0.000529  -0.000001  -0.015490   0.000769
    24  H    0.000000   0.000000   0.000067   0.000000   0.006118   0.000342
    25  H    0.000000   0.000000  -0.000016   0.000000  -0.000509  -0.000826
    26  C    0.000327  -0.000316  -0.003760  -0.000657   0.139463   0.098154
    27  H    0.000002  -0.000008   0.000231   0.000060  -0.002003  -0.007448
    28  H    0.000000   0.000000   0.000008  -0.000002   0.000798  -0.000478
    29  H    0.000002  -0.000001  -0.001909   0.000001  -0.015657   0.002081
    30  C    0.000062   0.000830   0.003209  -0.000129  -0.052248  -0.085138
    31  H    0.000000   0.000000   0.000001   0.000000  -0.014852   0.002274
    32  H    0.000002   0.000000   0.000135   0.000001  -0.057273   0.033950
    33  O    0.000002  -0.000001   0.002930  -0.000010   0.008026  -0.002415
    34  H    0.000000   0.000000  -0.003340   0.000019  -0.006381  -0.001136
    35  H    0.000000   0.000000  -0.000257   0.000000  -0.016199   0.001123
    36  O    0.000000   0.000001   0.000183   0.000002   0.013769  -0.009736
    37  H    0.000000   0.000000   0.000051   0.000000   0.013400   0.001913
    38  H    0.000000   0.000000  -0.000061   0.000001   0.033316  -0.018135
              13         14         15         16         17         18
[...]
    35  H    0.000000   0.000000  -0.000259   0.000000  -0.016351   0.001115
    36  O    0.000000   0.000001   0.000184   0.000002   0.013634  -0.009460
    37  H    0.000000   0.000000   0.000050   0.000000   0.013518   0.001938
    38  H    0.000000   0.000000  -0.000071   0.000001   0.034909  -0.017685
              13         14         15         16         17         18
     1  C    0.161113  -0.000332   0.099587   0.001318  -0.089237  -0.014929
     2  C    0.095280  -0.002900  -0.075753  -0.003111  -0.038191   0.006556
     3  C   -0.471382  -0.009566  -0.061096   0.032121   0.125229  -0.122896
     4  C   -0.174078   0.012111  -0.430872  -0.018653   0.070318   0.039493
     5  C   -0.560896  -0.002208  -0.221159  -0.001841   0.379289  -0.003304
     6  C   -0.142075   0.002052   0.021628   0.000355   0.027647  -0.003195
     7  H   -0.001552   0.000000   0.000153   0.000000   0.000149   0.000292
     8  H   -0.006271  -0.000002  -0.010406   0.000033  -0.000515  -0.000811
     9  H   -0.019305   0.000043  -0.003460  -0.000001   0.040800   0.000017
    10  H    0.000576   0.000000  -0.000657   0.000000   0.000359   0.000012
    11  C    1.246792  -0.091031  -0.123115   0.038223  -1.216857  -0.008028
    12  C   -0.438311   0.037686   0.692318  -0.058765   0.142157   0.259479
    13  C    6.881525   0.431231   0.217915  -0.069987  -0.411706   0.056742
    14  H    0.431231   0.472792  -0.022230  -0.005217   0.000175  -0.000225
    15  C    0.217915  -0.022230   5.807524   0.439528   0.021474  -0.087656
    16  H   -0.069987  -0.005217   0.439528   0.478913  -0.000281  -0.011039
    17  O   -0.411706   0.000175   0.021474  -0.000281  10.200162  -0.003188
    18  Cl   0.056742  -0.000225  -0.087656  -0.011039  -0.003188  17.068295
    19  C   -0.164595   0.003046  -0.135477   0.002701  -0.033462  -0.000599
    20  C   -0.285179  -0.005004  -0.094704  -0.002892  -0.512444  -0.001534
    21  H   -0.006909   0.000669   0.001421   0.000030   0.008966  -0.000024
    22  C    0.014074  -0.002265   0.002522   0.000206   0.231957  -0.000056
    23  H   -0.000758   0.000010  -0.000432   0.000000   0.010197  -0.000001
    24  H   -0.004091   0.000004  -0.000674   0.000000   0.004330  -0.000001
    25  H    0.000705   0.000062   0.001789   0.000000  -0.019603   0.000000
    26  C    0.203449   0.006362   0.050527  -0.000631   0.022476  -0.000036
    27  H   -0.010320  -0.000164   0.004545   0.000021   0.003545   0.000089
    28  H   -0.002523   0.000012  -0.000448   0.000000  -0.000704  -0.000004
    29  H    0.001824   0.000017  -0.000575   0.000000   0.009083   0.000005
    30  C   -0.126720  -0.032397  -0.088065  -0.001138   0.022373   0.002327
    31  H   -0.003605  -0.001781   0.012337   0.000512   0.004105  -0.000160
    32  H   -0.053929   0.002494  -0.003646   0.000197   0.012419  -0.000666
    33  O   -0.005096   0.000182  -0.000922   0.000000  -0.032331  -0.000015
    34  H    0.008613  -0.000065   0.002634   0.000001   0.010626  -0.000003
    35  H    0.009892  -0.000015   0.000364   0.000000   0.035168   0.000000
    36  O   -0.005486   0.002536  -0.006513   0.000065  -0.017079  -0.000007
    37  H   -0.013292   0.000486  -0.004209   0.000005  -0.008118  -0.000010
    38  H   -0.056889   0.002329  -0.019025  -0.000023  -0.137841  -0.000025
              19         20         21         22         23         24
     1  C    0.023711  -0.147929  -0.000003   0.025963  -0.000247   0.000035
     2  C   -0.070087   0.184084  -0.000445  -0.037244  -0.000242  -0.000149
     3  C    0.027625  -0.030766  -0.000321  -0.013741   0.000673   0.000548
     4  C    0.013021  -0.012379  -0.003767   0.059743  -0.000442  -0.000092
     5  C   -0.050141   0.715762   0.001785  -0.076376  -0.000644  -0.000329
     6  C   -0.001949  -0.044810   0.000483   0.050681   0.001209   0.000289
     7  H   -0.000263  -0.000037   0.000000   0.000035   0.000000   0.000000
     8  H   -0.000339  -0.000008   0.000000  -0.000072   0.000000   0.000000
     9  H    0.000452  -0.005751   0.000024   0.003311   0.000524   0.000066
    10  H   -0.000044   0.000997   0.000000  -0.000241  -0.000001   0.000000
    11  C    0.153040  -0.313777  -0.002489  -0.105198  -0.015250   0.006042
    12  C    0.115236  -0.389487   0.002999   0.081657   0.000782   0.000337
    13  C   -0.164595  -0.285179  -0.006909   0.014074  -0.000758  -0.004091
    14  H    0.003046  -0.005004   0.000669  -0.002265   0.000010   0.000004
    15  C   -0.135477  -0.094704   0.001421   0.002522  -0.000432  -0.000674
    16  H    0.002701  -0.002892   0.000030   0.000206   0.000000   0.000000
    17  O   -0.033462  -0.512444   0.008966   0.231957   0.010197   0.004330
    18  Cl  -0.000599  -0.001534  -0.000024  -0.000056  -0.000001  -0.000001
    19  C    6.559203   0.232060  -0.048855  -0.201674  -0.096353  -0.019495
    20  C    0.232060   7.148431   0.412890  -0.615680  -0.031505  -0.025359
    21  H   -0.048855   0.412890   0.468800   0.003863   0.000197   0.000683
    22  C   -0.201674  -0.615680   0.003863   5.915170   0.467458   0.406630
    23  H   -0.096353  -0.031505   0.000197   0.467458   0.468028  -0.019923
    24  H   -0.019495  -0.025359   0.000683   0.406630  -0.019923   0.501722
    25  H   -0.081615   0.059626   0.002265   0.430813  -0.019635  -0.012742
    26  C   -0.006755  -0.497271   0.004329  -0.009749   0.034538  -0.018780
    27  H   -0.017886   0.033086  -0.000056  -0.032122   0.000155  -0.000118
    28  H   -0.052721  -0.000032  -0.000270  -0.013995   0.000316   0.000612
    29  H   -0.089464  -0.036584   0.000091   0.042543   0.002929  -0.000242
    30  C   -0.243685   0.318805  -0.026274  -0.097573   0.000464   0.004816
    31  H   -0.006261  -0.066840  -0.001761  -0.000532  -0.000017   0.000028
    32  H   -0.009357  -0.055836   0.002524  -0.007050   0.000050   0.000013
    33  O   -0.017092  -0.028498   0.000182   0.025346   0.013553   0.001498
    34  H    0.003356   0.008287  -0.000012  -0.015930  -0.004702  -0.000057
    35  H   -0.011747  -0.012823   0.000008   0.020927  -0.002199  -0.000059
    36  O    0.015080  -0.000146   0.001864  -0.039976  -0.002446   0.000611
    37  H   -0.005252  -0.009129   0.000202   0.012734   0.000284   0.000018
    38  H   -0.022683   0.082480   0.001020  -0.025522   0.001584   0.000030
              25         26         27         28         29         30
     1  C   -0.000128   0.085791  -0.003376  -0.000014  -0.000678  -0.041150
     2  C    0.000224  -0.061030   0.008325  -0.000379  -0.002223   0.013174
     3  C   -0.001024   0.044693   0.011712  -0.000199   0.004360   0.069032
     4  C   -0.003297   0.066128  -0.015770  -0.000960   0.009676   0.069008
     5  C    0.005025  -0.459289  -0.006424   0.009433  -0.024730   0.124876
     6  C    0.000065  -0.045060  -0.004414   0.001602  -0.001468   0.015996
     7  H    0.000000   0.000326   0.000002   0.000000   0.000002   0.000061
     8  H    0.000000  -0.000318  -0.000008   0.000000  -0.000001   0.000838
     9  H   -0.000017  -0.003680   0.000205   0.000008  -0.001899   0.003064
    10  H    0.000000  -0.000664   0.000061  -0.000002   0.000000  -0.000125
    11  C   -0.000453   0.139629  -0.001723   0.000744  -0.015581  -0.054362
    12  C   -0.000819   0.098124  -0.007525  -0.000463   0.002110  -0.084277
    13  C    0.000705   0.203449  -0.010320  -0.002523   0.001824  -0.126720
    14  H    0.000062   0.006362  -0.000164   0.000012   0.000017  -0.032397
    15  C    0.001789   0.050527   0.004545  -0.000448  -0.000575  -0.088065
    16  H    0.000000  -0.000631   0.000021   0.000000   0.000000  -0.001138
    17  O   -0.019603   0.022476   0.003545  -0.000704   0.009083   0.022373
    18  Cl   0.000000  -0.000036   0.000089  -0.000004   0.000005   0.002327
    19  C   -0.081615  -0.006755  -0.017886  -0.052721  -0.089464  -0.243685
    20  C    0.059626  -0.497271   0.033086  -0.000032  -0.036584   0.318805
    21  H    0.002265   0.004329  -0.000056  -0.000270   0.000091  -0.026274
    22  C    0.430813  -0.009749  -0.032122  -0.013995   0.042543  -0.097573
    23  H   -0.019635   0.034538   0.000155   0.000316   0.002929   0.000464
    24  H   -0.012742  -0.018780  -0.000118   0.000612  -0.000242   0.004816
    25  H    0.492473  -0.013413  -0.000310  -0.000309  -0.000139  -0.009837
    26  C   -0.013413   5.798776   0.352215   0.404629   0.493547  -0.157000
    27  H   -0.000310   0.352215   0.518813  -0.014991  -0.018211   0.038106
    28  H   -0.000309   0.404629  -0.014991   0.490795  -0.019047   0.014230
    29  H   -0.000139   0.493547  -0.018211  -0.019047   0.478651  -0.019861
    30  C   -0.009837  -0.157000   0.038106   0.014230  -0.019861   5.673171
    31  H   -0.000043   0.008900   0.000395  -0.000011  -0.000018   0.439951
    32  H    0.000044   0.000841  -0.002897   0.000226   0.000473   0.445319
    33  O   -0.003441   0.005662   0.000122  -0.000053   0.000559   0.000468
    34  H    0.000327  -0.001692   0.000292  -0.000026  -0.000928   0.001325
    35  H   -0.000233   0.001074  -0.000002  -0.000001  -0.000010  -0.001208
    36  O   -0.005755   0.005042   0.000018   0.000038  -0.000089   0.005599
    37  H   -0.000037   0.000407   0.000003   0.000000   0.000003   0.000247
    38  H    0.004102   0.008484  -0.000126  -0.000008   0.000288   0.009021
              31         32         33         34         35         36
     1  C    0.000508  -0.003448  -0.003974   0.000136   0.000840  -0.002160
     2  C   -0.000107  -0.007502   0.001016   0.001814  -0.000492   0.002368
     3  C   -0.000831   0.009288  -0.002099  -0.007187  -0.000638   0.006214
     4  C   -0.005910   0.020708  -0.032212   0.004505   0.014471   0.000452
     5  C   -0.003271   0.004922   0.031000   0.008326  -0.011794   0.006851
     6  C    0.000391   0.004230  -0.001745   0.003837   0.000764  -0.007354
     7  H    0.000000   0.000002   0.000002   0.000000   0.000000   0.000000
     8  H    0.000000   0.000000  -0.000001   0.000000   0.000000   0.000001
     9  H    0.000001   0.000135   0.002893  -0.003392  -0.000259   0.000184
    10  H    0.000000   0.000001  -0.000010   0.000020   0.000000   0.000002
    11  C   -0.014821  -0.057231   0.008476  -0.006554  -0.016351   0.013634
    12  C    0.002152   0.034123  -0.002373  -0.001282   0.001115  -0.009460
    13  C   -0.003605  -0.053929  -0.005096   0.008613   0.009892  -0.005486
    14  H   -0.001781   0.002494   0.000182  -0.000065  -0.000015   0.002536
    15  C    0.012337  -0.003646  -0.000922   0.002634   0.000364  -0.006513
    16  H    0.000512   0.000197   0.000000   0.000001   0.000000   0.000065
    17  O    0.004105   0.012419  -0.032331   0.010626   0.035168  -0.017079
    18  Cl  -0.000160  -0.000666  -0.000015  -0.000003   0.000000  -0.000007
    19  C   -0.006261  -0.009357  -0.017092   0.003356  -0.011747   0.015080
    20  C   -0.066840  -0.055836  -0.028498   0.008287  -0.012823  -0.000146
    21  H   -0.001761   0.002524   0.000182  -0.000012   0.000008   0.001864
    22  C   -0.000532  -0.007050   0.025346  -0.015930   0.020927  -0.039976
    23  H   -0.000017   0.000050   0.013553  -0.004702  -0.002199  -0.002446
    24  H    0.000028   0.000013   0.001498  -0.000057  -0.000059   0.000611
    25  H   -0.000043   0.000044  -0.003441   0.000327  -0.000233  -0.005755
    26  C    0.008900   0.000841   0.005662  -0.001692   0.001074   0.005042
    27  H    0.000395  -0.002897   0.000122   0.000292  -0.000002   0.000018
    28  H   -0.000011   0.000226  -0.000053  -0.000026  -0.000001   0.000038
    29  H   -0.000018   0.000473   0.000559  -0.000928  -0.000010  -0.000089
    30  C    0.439951   0.445319   0.000468   0.001325  -0.001208   0.005599
    31  H    0.451596  -0.006791   0.000010   0.000003   0.000000   0.000134
    32  H   -0.006791   0.454518   0.000059  -0.000033  -0.000001   0.000141
    33  O    0.000010   0.000059   8.059514   0.311936   0.299959  -0.015462
    34  H    0.000003  -0.000033   0.311936   0.362787  -0.026630  -0.006597
    35  H    0.000000  -0.000001   0.299959  -0.026630   0.358864  -0.000541
    36  O    0.000134   0.000141  -0.015462  -0.006597  -0.000541   8.140255
    37  H   -0.000002   0.000004  -0.001457  -0.000246  -0.000932   0.306892
    38  H   -0.000197   0.000258   0.012673  -0.002781  -0.010005   0.281530
              37         38
     1  C    0.000011  -0.004691
     2  C   -0.000366   0.003435
     3  C   -0.000500   0.008594
     4  C   -0.003667  -0.044873
     5  C    0.004118   0.053919
     6  C    0.000746  -0.002426
     7  H    0.000000   0.000000
     8  H    0.000000   0.000000
     9  H    0.000050  -0.000071
    10  H    0.000000   0.000001
    11  C    0.013518   0.034909
    12  C    0.001938  -0.017685
    13  C   -0.013292  -0.056889
    14  H    0.000486   0.002329
    15  C   -0.004209  -0.019025
    16  H    0.000005  -0.000023
    17  O   -0.008118  -0.137841
    18  Cl  -0.000010  -0.000025
    19  C   -0.005252  -0.022683
    20  C   -0.009129   0.082480
    21  H    0.000202   0.001020
    22  C    0.012734  -0.025522
    23  H    0.000284   0.001584
    24  H    0.000018   0.000030
    25  H   -0.000037   0.004102
    26  C    0.000407   0.008484
    27  H    0.000003  -0.000126
    28  H    0.000000  -0.000008
    29  H    0.000003   0.000288
    30  C    0.000247   0.009021
    31  H   -0.000002  -0.000197
    32  H    0.000004   0.000258
    33  O   -0.001457   0.012673
    34  H   -0.000246  -0.002781
    35  H   -0.000932  -0.010005
    36  O    0.306892   0.281530
    37  H    0.357929  -0.006848
    38  H   -0.006848   0.593032
 Mulliken charges:
               1
     1  C   -0.019497
     2  C   -0.194455
     3  C   -0.016483
     4  C   -0.131474
     5  C   -0.093801
     6  C   -0.016378
     7  H    0.163311
     8  H    0.172637
     9  H    0.192441
    10  H    0.162625
    11  C    0.089342
    12  C    0.037629
    13  C   -0.294777
    14  H    0.201103
    15  C    0.014826
    16  H    0.179349
    17  O   -0.861445
    18  Cl  -0.174895
    19  C    0.239320
    20  C    0.029896
    21  H    0.175888
    22  C   -0.500638
    23  H    0.191845
    24  H    0.173800
    25  H    0.175330
    26  C   -0.560583
    27  H    0.164733
    28  H    0.184514
    29  H    0.185586
    30  C   -0.288604
    31  H    0.191935
    32  H    0.215400
    33  O   -0.628329
    34  H    0.349293
    35  H    0.352493
    36  O   -0.670439
    37  H    0.354473
    38  H    0.254030
 Sum of Mulliken charges =   0.00000
 Mulliken charges with hydrogens summed into heavy atoms:
               1
     1  C    0.143814
     2  C   -0.021817
     3  C   -0.016483
     4  C   -0.131474
     5  C    0.098640
     6  C    0.146247
    11  C    0.089342
    12  C    0.037629
    13  C   -0.093675
    15  C    0.194175
    17  O   -0.861445
    18  Cl  -0.174895
    19  C    0.239320
    20  C    0.205784
    22  C    0.040338
    26  C   -0.025749
    30  C    0.118731
    33  O    0.073457
    36  O   -0.061936
 Electronic spatial extent (au):  <R**2>=           5926.5598
 Charge=              0.0000 electrons
 Dipole moment (field-independent basis, Debye):
    X=             -0.7607    Y=             -2.5683    Z=              4.4221  Tot=              5.1701
 Quadrupole moment (field-independent basis, Debye-Ang):
   XX=           -135.8779   YY=           -115.4907   ZZ=           -117.8988
   XY=            -11.9090   XZ=             10.8952   YZ=              7.2261
 Traceless Quadrupole moment (field-independent basis, Debye-Ang):
   XX=            -12.7887   YY=              7.5984   ZZ=              5.1903
   XY=            -11.9090   XZ=             10.8952   YZ=              7.2261
 Octapole moment (field-independent basis, Debye-Ang**2):
  XXX=             -5.4378  YYY=            -17.9080  ZZZ=            -21.8211  XYY=            -29.5079
  XXY=              2.1020  XXZ=             47.9233  XZZ=             23.9204  YZZ=            -21.1453
  YYZ=             14.6844  XYZ=             14.2584
 Hexadecapole moment (field-independent basis, Debye-Ang**3):
 XXXX=          -4925.3605 YYYY=          -1828.1404 ZZZZ=           -937.7921 XXXY=           -114.9540
 XXXZ=            103.2570 YYYX=            -77.8608 YYYZ=             59.3466 ZZZX=            -69.8336
 ZZZY=             65.7959 XXYY=          -1213.3379 XXZZ=           -977.1078 YYZZ=           -543.3781
 XXYZ=             54.0962 YYXZ=             27.9166 ZZXY=            -13.0666
 N-N= 1.612245296781D+03 E-N=-6.204345272054D+03  KE= 1.264437435936D+03
 1\1\GINC-D10S5B2\FTS\RwB97XD\Gen\C15H19Cl1O3\PMMASS\08-Feb-2022\0\\#n 
 wB97XD/Gen scrf(smd,solvent=toluene) opt=(calcfc,ts,noeigentest)\\ts_c
 laisen toluene - opt\\0,1\C,2.6769894568,2.7315001982,-0.3178739798\C,
 3.0583680679,1.425060909,-0.1572063519\C,2.1072777394,0.4245119163,0.1
 251550924\C,0.7446241563,0.7917539494,0.2308509059\C,0.3865051231,2.14
 11038956,0.0743370225\C,1.3297296605,3.0970268911,-0.196355787\H,3.423
 6261589,3.4857509476,-0.5325472312\H,4.1017188992,1.1551217418,-0.2433
 540175\H,-0.6556384164,2.4113058776,0.175035374\H,1.037318541,4.132806
 8521,-0.3138284481\C,-0.2720407762,-0.2068890548,0.5322735689\C,2.4550
 85261,-0.9510071582,0.3307199006\C,0.1479679685,-1.5390090555,0.674268
 2021\H,-0.5675422231,-2.2704336358,1.0223691182\C,1.5197983066,-1.8859
 111708,0.6197493937\H,1.8134065676,-2.9128668295,0.7931393342\O,-1.509
 1963304,0.1085626207,0.5886845522\Cl,4.1264547243,-1.4380628861,0.2327
 020519\C,-2.4805771396,-0.3859833726,-1.4312050067\C,-1.9874727784,-1.
 6896483642,-1.3717693077\H,-2.6459514173,-2.4439808822,-0.9560902711\C
 ,-3.8936173918,-0.1236259947,-1.0531327224\H,-3.9765542049,0.812319454
 6,-0.4989043108\H,-4.4841601523,-0.0068748275,-1.968834871\H,-4.320230
 2969,-0.9304098604,-0.4603353522\C,-1.7955745638,0.7041685376,-2.17763
 27921\H,-0.7119170407,0.6156311334,-2.1877768423\H,-2.1408145496,0.664
 8671043,-3.2169098211\H,-2.0702475173,1.6784952183,-1.7779540794\C,-0.
 675796059,-2.0147374699,-1.5680210129\H,-0.3491336112,-3.0418300776,-1
 .4747223632\H,0.0345679416,-1.3346172595,-2.0167714846\O,-3.3876177953
 ,1.9013772672,1.7433994177\H,-2.5969543519,1.5144971593,1.3403356835\H
 ,-3.8384220637,1.1236395555,2.0893765953\O,-3.4063681497,-1.1555161748
 ,2.1384080101\H,-3.021867044,-1.3351888234,2.9982607584\H,-2.671684699
 4,-0.813718332,1.5916310716\\Version=ES64L-G09RevD.01\State=1-A\HF=-12
 68.9480297\RMSD=9.851e-09\RMSF=6.976e-06\Dipole=0.2988671,-1.0084402,-
 1.7410155\Quadrupole=-9.5016083,5.656772,3.8448363,8.8485082,8.1102665
 ,-5.373363\PG=C01 [X(C15H19Cl1O3)]\\@


 A ROPE OVER THE TOP OF A FENCE HAS THE SAME LENGTH ON EACH SIDE.
 WEIGHS 1/3 POUND PER FOOT.  ON ONE END HANGS A MONKEY HOLDING A
 BANANA, AND ON THE OTHER END A WEIGHT EQUAL TO THE WEIGHT
 OF THE MONKEY.  THE BANANA WEIGHS TWO OUNCES PER INCH.
 THE ROPE IS AS LONG AS THE AGE OF THE MONKEY, 
 AND THE WEIGHT OF THE MONKEY (IN OUNCES) IS AS MUCH
 AS THE AGE OF THE MONKEY'S MOTHER.  THE COMBINED AGES OF MONKEY
 AND MOTHER ARE THIRTY YEARS.  HALF THE WEIGHT OF THE MONKEY,
  PLUS THE WEIGHT OF THE BANANA, IS ONE FOURTH AS MUCH AS THE WEIGHT
 OF THE WEIGHT AND THE ROPE.
 THE MONKEY'S MOTHER IS HALF AS OLD AS THE MONKEY WILL BE
 WHEN IT IS 3 TIMES AS OLD AS ITS MOTHER WAS WHEN
 SHE WAS HALF AS OLD AS THE MONKEY WILL BE WHEN IT IS
 AS OLD AS ITS MOTHER WILL BE WHEN SHE IS 4 TIMES AS
 OLD AS THE MONKEY WAS WHEN IT WAS TWICE AS OLD AS 
 ITS MOTHER WAS WHEN SHE WAS ONE THIRD AS OLD AS THE
 MONKEY WAS WHEN IT WAS AS OLD AS ITS MOTHER WAS WHEN 
 SHE WAS 3 TIMES AS OLD AS THE MONKEY WAS WHEN IT WAS AS OLD AS ITS
 MOTHER WAS WHEN SHE WAS 3 TIMES AS OLD AS THE MONKEY 
 WAS WHEN IT WAS ONE FOURTH WAS OLD AS IT IS NOW.

 HOW LONG IS THE BANANA?
 Job cpu time:       4 days  6 hours 31 minutes 28.4 seconds.
 File lengths (MBytes):  RWF=   4105 Int=      0 D2E=      0 Chk=     58 Scr=      1
 Normal termination of Gaussian 09 at Tue Feb  8 02:39:48 2022.
