 Entering Gaussian System, Link 0=g09
 Input=ts_claisen_water_ma_freq.com
 Output=ts_claisen_water_ma_freq.log
 Initial command:
 /apps/applications/gaussian/G09.D01/2/default/g09/l1.exe "/nobackup/pmmass/Temp/Gau-114787.inp" -scrdir="/nobackup/pmmass/Temp/"
 Entering Link 1 = /apps/applications/gaussian/G09.D01/2/default/g09/l1.exe PID=    114788.
  
 Copyright (c) 1988,1990,1992,1993,1995,1998,2003,2009,2013,
            Gaussian, Inc.  All Rights Reserved.
  
 This is part of the Gaussian(R) 09 program.  It is based on
 the Gaussian(R) 03 system (copyright 2003, Gaussian, Inc.),
 the Gaussian(R) 98 system (copyright 1998, Gaussian, Inc.),
 the Gaussian(R) 94 system (copyright 1995, Gaussian, Inc.),
 the Gaussian 92(TM) system (copyright 1992, Gaussian, Inc.),
 the Gaussian 90(TM) system (copyright 1990, Gaussian, Inc.),
 the Gaussian 88(TM) system (copyright 1988, Gaussian, Inc.),
 the Gaussian 86(TM) system (copyright 1986, Carnegie Mellon
 University), and the Gaussian 82(TM) system (copyright 1983,
 Carnegie Mellon University). Gaussian is a federally registered
 trademark of Gaussian, Inc.
  
 This software contains proprietary and confidential information,
 including trade secrets, belonging to Gaussian, Inc.
  
 This software is provided under written license and may be
 used, copied, transmitted, or stored only in accord with that
 written license.
  
 The following legend is applicable only to US Government
 contracts under FAR:
  
                    RESTRICTED RIGHTS LEGEND
  
 Use, reproduction and disclosure by the US Government is
 subject to restrictions as set forth in subparagraphs (a)
 and (c) of the Commercial Computer Software - Restricted
 Rights clause in FAR 52.227-19.
  
 Gaussian, Inc.
 340 Quinnipiac St., Bldg. 40, Wallingford CT 06492
  
  
 ---------------------------------------------------------------
 Warning -- This program may not be used in any manner that
 competes with the business of Gaussian, Inc. or will provide
 assistance to any competitor of Gaussian, Inc.  The licensee
 of this program is prohibited from giving any competitor of
 Gaussian, Inc. access to this program.  By using this program,
 the user acknowledges that Gaussian, Inc. is engaged in the
 business of creating and licensing software in the field of
 computational chemistry and represents and warrants to the
 licensee that it is not a competitor of Gaussian, Inc. and that
 it will not use this program in any manner prohibited above.
 ---------------------------------------------------------------
  

 Cite this work as:
 Gaussian 09, Revision D.01,
 M. J. Frisch, G. W. Trucks, H. B. Schlegel, G. E. Scuseria, 
 M. A. Robb, J. R. Cheeseman, G. Scalmani, V. Barone, B. Mennucci, 
 G. A. Petersson, H. Nakatsuji, M. Caricato, X. Li, H. P. Hratchian, 
 A. F. Izmaylov, J. Bloino, G. Zheng, J. L. Sonnenberg, M. Hada, 
 M. Ehara, K. Toyota, R. Fukuda, J. Hasegawa, M. Ishida, T. Nakajima, 
 Y. Honda, O. Kitao, H. Nakai, T. Vreven, J. A. Montgomery, Jr., 
 J. E. Peralta, F. Ogliaro, M. Bearpark, J. J. Heyd, E. Brothers, 
 K. N. Kudin, V. N. Staroverov, T. Keith, R. Kobayashi, J. Normand, 
 K. Raghavachari, A. Rendell, J. C. Burant, S. S. Iyengar, J. Tomasi, 
 M. Cossi, N. Rega, J. M. Millam, M. Klene, J. E. Knox, J. B. Cross, 
 V. Bakken, C. Adamo, J. Jaramillo, R. Gomperts, R. E. Stratmann, 
 O. Yazyev, A. J. Austin, R. Cammi, C. Pomelli, J. W. Ochterski, 
 R. L. Martin, K. Morokuma, V. G. Zakrzewski, G. A. Voth, 
 P. Salvador, J. J. Dannenberg, S. Dapprich, A. D. Daniels, 
 O. Farkas, J. B. Foresman, J. V. Ortiz, J. Cioslowski, 
 and D. J. Fox, Gaussian, Inc., Wallingford CT, 2013.
 
 ******************************************
 Gaussian 09:  ES64L-G09RevD.01 24-Apr-2013
                 8-Feb-2022 
 ******************************************
 %nprocshared=8
 Will use up to    8 processors via shared memory.
 %mem=4GB
 %NoSave
 %chk="ts_claisen_water_ma_freq.chk"
 --------------------------------------------
 #n wB97XD/Gen scrf(smd,solvent=toluene) freq
 --------------------------------------------
 1/10=4,30=1,38=1/1,3;
 2/12=2,17=6,18=5,40=1/2;
 3/5=7,11=2,16=1,25=1,30=1,70=32201,71=2,72=13,74=-58,140=1/1,2,3;
 4//1;
 5/5=2,38=5,53=13,98=1/2;
 8/6=4,10=90,11=11/1;
 11/6=1,8=1,9=11,15=111,16=1/1,2,10;
 10/6=1/2;
 6/7=2,8=2,9=2,10=2,18=1,28=1/1;
 7/8=1,10=1,25=1/1,2,3,16;
 1/10=4,30=1/3;
 99//99;
 -------------------------
 ts_claisen toluene - freq
 -------------------------
 Symbolic Z-matrix:
 Charge =  0 Multiplicity = 1
 C                    -2.67611   2.73191   0.32073 
 C                    -3.05787   1.42578   0.15847 
 C                    -2.10706   0.42528  -0.12502 
 C                    -0.74429   0.79224  -0.23018 
 C                    -0.38578   2.14129  -0.07202 
 C                    -1.32873   3.09717   0.19975 
 H                    -3.42254   3.48613   0.53626 
 H                    -4.10131   1.15605   0.24422 
 H                     0.65645   2.4113   -0.17232 
 H                    -1.03602   4.13272   0.31848 
 C                     0.27209  -0.20635  -0.53272 
 C                    -2.45527  -0.94989  -0.33226 
 C                    -0.14831  -1.53817  -0.67634 
 H                     0.56701  -2.2694   -1.02527 
 C                    -1.52025  -1.88473  -0.62234 
 H                    -1.81415  -2.91139  -0.79698 
 O                     1.50935   0.10879  -0.58867 
 Cl                   -4.1268   -1.43656  -0.23494 
 C                     2.48043  -0.38846   1.4307 
 C                     1.98694  -1.69191   1.36967 
 H                     2.64522  -2.44594   0.95313 
 C                     3.89358  -0.12608   1.05304 
 H                     3.97684   0.8105    0.49994 
 H                     4.48409  -0.0106    1.96893 
 H                     4.31999  -0.93228   0.45931 
 C                     1.79571   0.701     2.17838 
 H                     0.71202   0.61278   2.18834 
 H                     2.14086   0.66035   3.21764 
 H                     2.0707    1.67572   1.77989 
 C                     0.67515  -2.01683   1.56543 
 H                     0.34819  -3.04372   1.47088 
 H                    -0.03504  -1.33704   2.01495 
 O                     3.38839   1.90242  -1.7411 
 H                     2.59758   1.5153   -1.33856 
 H                     3.83899   1.12496  -2.08798 
 O                     3.40625  -1.154    -2.13977 
 H                     3.02176  -1.33253  -2.99986 
 H                     2.67163  -0.81264  -1.59263 
 

 GradGradGradGradGradGradGradGradGradGradGradGradGradGradGradGradGradGrad
 Berny optimization.
 Initialization pass.
 Trust Radius=3.00D-01 FncErr=1.00D-07 GrdErr=1.00D-07
 Number of steps in this run=      2 maximum allowed number of steps=      2.
 GradGradGradGradGradGradGradGradGradGradGradGradGradGradGradGradGradGrad

                          Input orientation:                          
 ---------------------------------------------------------------------
 Center     Atomic      Atomic             Coordinates (Angstroms)
 Number     Number       Type             X           Y           Z
 ---------------------------------------------------------------------
      1          6           0       -2.676110    2.731910    0.320730
      2          6           0       -3.057870    1.425780    0.158470
      3          6           0       -2.107060    0.425280   -0.125020
      4          6           0       -0.744290    0.792240   -0.230180
      5          6           0       -0.385780    2.141290   -0.072020
      6          6           0       -1.328730    3.097170    0.199750
      7          1           0       -3.422540    3.486130    0.536260
      8          1           0       -4.101310    1.156050    0.244220
      9          1           0        0.656450    2.411300   -0.172320
     10          1           0       -1.036020    4.132720    0.318480
     11          6           0        0.272090   -0.206350   -0.532720
     12          6           0       -2.455270   -0.949890   -0.332260
     13          6           0       -0.148310   -1.538170   -0.676340
     14          1           0        0.567010   -2.269400   -1.025270
     15          6           0       -1.520250   -1.884730   -0.622340
     16          1           0       -1.814150   -2.911390   -0.796980
     17          8           0        1.509350    0.108790   -0.588670
     18         17           0       -4.126800   -1.436560   -0.234940
     19          6           0        2.480430   -0.388460    1.430700
     20          6           0        1.986940   -1.691910    1.369670
     21          1           0        2.645220   -2.445940    0.953130
     22          6           0        3.893580   -0.126080    1.053040
     23          1           0        3.976840    0.810500    0.499940
     24          1           0        4.484090   -0.010600    1.968930
     25          1           0        4.319990   -0.932280    0.459310
     26          6           0        1.795710    0.701000    2.178380
     27          1           0        0.712020    0.612780    2.188340
     28          1           0        2.140860    0.660350    3.217640
     29          1           0        2.070700    1.675720    1.779890
     30          6           0        0.675150   -2.016830    1.565430
     31          1           0        0.348190   -3.043720    1.470880
     32          1           0       -0.035040   -1.337040    2.014950
     33          8           0        3.388390    1.902420   -1.741100
     34          1           0        2.597580    1.515300   -1.338560
     35          1           0        3.838990    1.124960   -2.087980
     36          8           0        3.406250   -1.154000   -2.139770
     37          1           0        3.021760   -1.332530   -2.999860
     38          1           0        2.671630   -0.812640   -1.592630
 ---------------------------------------------------------------------
                    Distance matrix (angstroms):
                    1          2          3          4          5
     1  C    0.000000
     2  C    1.370418   0.000000
     3  C    2.417241   1.409045   0.000000
     4  C    2.792445   2.430036   1.415224   0.000000
     5  C    2.397644   2.775814   2.431112   1.404806   0.000000
     6  C    1.401244   2.405239   2.801833   2.416426   1.369934
     7  H    1.082801   2.126206   3.396554   3.875241   3.376464
     8  H    2.126119   1.081145   2.155782   3.409838   3.856925
     9  H    3.384058   3.857051   3.403454   2.141676   1.081300
    10  H    2.156889   3.382455   3.884447   3.397785   2.130985
    11  C    4.248957   3.772297   2.495101   1.456620   2.481220
    12  C    3.745773   2.499550   1.433629   2.443950   3.729063
    13  C    5.061374   4.236443   2.827683   2.446439   3.736311
    14  H    6.110863   5.309929   3.901590   3.424225   4.612015
    15  C    4.851676   3.732749   2.434711   2.814618   4.218852
    16  H    5.817137   4.612024   3.416240   3.896503   5.300508
    17  O    5.022533   4.811671   3.659721   2.382123   2.826571
    18  Cl   4.448529   3.080645   2.749160   4.050796   5.179072
    19  C    6.128511   5.965132   4.911975   3.814629   4.107671
    20  C    6.512641   6.052859   4.845351   4.023697   4.733043
    21  H    7.451618   6.938799   5.656012   4.834750   5.592904
    22  C    7.201751   7.178522   6.139992   4.898959   4.971886
    23  H    6.927169   7.069817   6.128035   4.777288   4.596803
    24  H    7.842601   7.888099   6.929493   5.728577   5.701907
    25  H    7.898792   7.751372   6.594800   5.394098   5.645655
    26  C    5.250965   5.306843   4.540186   3.501583   3.449295
    27  H    4.411134   4.358143   3.651575   2.828831   2.941213
    28  H    5.990547   6.080395   5.410495   4.497660   4.404425
    29  H    5.077095   5.384580   4.758777   3.570026   3.111369
    30  C    5.943968   5.269396   4.069670   3.623520   4.593123
    31  H    6.620207   5.770623   4.539726   4.336093   5.459266
    32  H    5.138286   4.496353   3.460998   3.174504   4.071516
    33  O    6.458897   6.737197   5.915541   4.538108   4.133672
    34  H    5.660847   5.850917   4.979404   3.594359   3.300973
    35  H    7.129565   7.259732   6.300657   4.956670   4.790167
    36  O    7.625579   7.329531   6.078645   4.966021   5.432681
    37  H    7.746723   7.385474   6.136725   5.135066   5.678997
    38  H    6.695006   6.395627   5.149971   4.012533   4.515054
                    6          7          8          9         10
     6  C    0.000000
     7  H    2.156054   0.000000
     8  H    3.384837   2.444440   0.000000
     9  H    2.133024   4.277324   4.938161   0.000000
    10  H    1.082654   2.482133   4.273416   2.463458   0.000000
    11  C    3.743312   5.331737   4.646116   2.670152   4.611206
    12  C    4.234480   4.622576   2.734366   4.583228   5.317016
    13  C    4.862849   6.118380   4.871597   4.062018   5.825521
    14  H    5.821905   7.175027   5.927776   4.758621   6.735170
    15  C    5.052904   5.814396   4.081561   4.836984   6.109773
    16  H    6.109983   6.729986   4.781137   5.901279   7.174205
    17  O    4.196036   6.082387   5.768012   2.490449   4.847045
    18  Cl   5.345359   5.032257   2.636640   6.139172   6.393440
    19  C    5.307971   7.117410   6.863858   3.706107   5.834683
    20  C    5.941184   7.534530   6.815006   4.580859   6.646022
    21  H    6.861919   8.495937   7.680661   5.367926   7.565255
    22  C    6.195964   8.175618   8.137341   4.291715   6.555754
    23  H    5.785157   7.868363   8.089580   3.746930   6.016547
    24  H    6.824742   8.763245   8.834296   5.010128   7.096668
    25  H    6.943477   8.914877   8.679037   5.000001   7.372985
    26  C    4.406669   6.138700   6.222772   3.122312   4.822305
    27  H    3.780389   5.299065   5.219472   2.968245   4.352241
    28  H    5.204210   6.791631   6.931928   4.094036   5.527662
    29  H    4.009175   5.916070   6.381383   2.520378   4.221881
    30  C    5.659824   6.937782   5.884499   4.756938   6.503841
    31  H    6.491407   7.598083   6.240257   5.705469   7.399010
    32  H    4.962943   6.076566   5.087783   4.394583   5.813626
    33  O    5.238850   7.354133   7.784226   3.191164   5.365772
    34  H    4.503845   6.606131   6.892705   2.435347   4.774905
    35  H    5.985704   8.074130   8.275777   3.931028   6.213163
    36  O    6.779811   8.678958   8.208727   4.913616   7.329813
    37  H    6.984734   8.789348   8.213112   5.254135   7.572709
    38  H    5.873851   7.755676   7.288517   4.058574   6.469590
                   11         12         13         14         15
    11  C    0.000000
    12  C    2.833995   0.000000
    13  C    1.403961   2.405520   0.000000
    14  H    2.141438   3.369799   1.080802   0.000000
    15  C    2.457127   1.353638   1.416065   2.160319   0.000000
    16  H    3.426291   2.115297   2.162247   2.476730   1.082085
    17  O    1.277989   4.111540   2.338375   2.595075   3.626807
    18  Cl   4.577371   1.743655   4.004190   4.832194   2.673020
    19  C    2.960565   5.271088   3.559737   3.637430   4.739118
    20  C    2.960859   4.814602   2.961264   2.843490   4.038027
    21  H    3.585423   5.468582   3.359022   2.874750   4.488675
    22  C    3.954272   6.550238   4.617535   4.469817   5.933743
    23  H    3.978133   6.720385   4.890475   4.841383   6.224289
    24  H    4.902807   7.371055   5.548879   5.423184   6.802878
    25  H    4.230436   6.821367   4.650001   4.251673   6.015441
    26  C    3.239562   5.205726   4.116130   4.538321   5.052289
    27  H    2.875531   4.339019   3.684175   4.319176   4.372700
    28  H    4.278863   6.026531   5.023631   5.390985   5.884438
    29  H    3.482147   5.642642   4.613693   5.068923   5.598431
    30  C    2.800452   3.813019   2.435721   2.605228   3.102188
    31  H    3.474316   3.936347   2.669035   2.622636   3.035769
    32  H    2.804177   3.393640   2.701171   3.236464   3.075892
    33  O    3.952015   6.653485   5.047734   5.086913   6.299911
    34  H    3.003558   5.711488   4.159582   4.306428   5.387922
    35  H    4.112663   6.856039   4.998355   4.832896   6.318844
    36  O    3.647411   6.137277   3.863174   3.247693   5.206435
    37  H    3.862091   6.104127   3.935782   3.286720   5.156295
    38  H    2.692358   5.281333   3.052547   2.621731   4.434264
                   16         17         18         19         20
    16  H    0.000000
    17  O    4.495613   0.000000
    18  Cl   2.799886   5.854863   0.000000
    19  C    5.456295   2.295236   6.894081   0.000000
    20  C    4.542003   2.702907   6.325962   1.395077   0.000000
    21  H    4.813056   3.192803   6.949145   2.118597   1.084158
    22  C    6.615036   2.904295   8.228168   1.486090   2.487439
    23  H    7.005000   2.786750   8.441464   2.131446   3.313335
    24  H    7.465432   3.924876   9.002102   2.108820   3.069475
    25  H    6.566796   3.175183   8.490262   2.150191   2.617043
    26  C    5.910433   2.844166   6.743100   1.488217   2.533101
    27  H    5.264356   2.932836   5.786731   2.168819   2.758122
    28  H    6.672076   3.897566   7.456601   2.099634   2.995298
    29  H    6.540176   2.894902   7.221830   2.133226   3.393557
    30  C    3.546524   3.139155   5.161082   2.434908   1.365536
    31  H    3.136306   3.940604   5.051566   3.405652   2.126766
    32  H    3.681136   3.354758   4.670590   2.751135   2.151911
    33  O    7.150563   2.841829   8.360346   4.016570   4.955821
    34  H    6.273138   1.929987   7.426220   3.362563   4.241885
    35  H    7.065182   2.950890   8.570236   4.064140   4.829098
    36  O    5.669575   2.756588   7.775285   3.767154   3.823605
    37  H    5.543600   3.190396   7.665345   4.562255   4.504753
    38  H    5.015978   1.791051   6.960693   3.058923   3.164986
                   21         22         23         24         25
    21  H    0.000000
    22  C    2.636311   0.000000
    23  H    3.547252   1.090887   0.000000
    24  H    3.216236   1.095852   1.757680   0.000000
    25  H    2.310818   1.088255   1.776706   1.776338   0.000000
    26  C    3.482260   2.520220   2.754356   2.788840   3.463350
    27  H    3.823451   3.457910   3.680875   3.829524   4.288846
    28  H    3.877038   2.894131   3.283178   2.738645   3.859205
    29  H    4.242839   2.664148   2.453619   2.950231   3.688482
    30  C    2.107184   3.767728   4.475513   4.323863   3.960380
    31  H    2.429352   4.610532   5.381899   5.153013   4.610493
    32  H    3.088837   4.222055   4.796078   4.710000   4.642212
    33  O    5.169082   3.489591   2.561410   4.315614   3.707453
    34  H    4.576629   3.177026   2.403993   4.102046   3.491372
    35  H    4.839914   3.381433   2.610597   4.261944   3.309423
    36  O    3.437195   3.389417   3.339596   4.398922   2.763928
    37  H    4.124026   4.317591   4.213473   5.345539   3.716377
    38  H    3.024774   2.994010   2.952458   4.075903   2.634741
                   26         27         28         29         30
    26  C    0.000000
    27  H    1.087321   0.000000
    28  H    1.095829   1.761620   0.000000
    29  H    1.088344   1.772762   1.761540   0.000000
    30  C    3.002992   2.702633   3.470648   3.953287   0.000000
    31  H    4.076616   3.743944   4.470455   5.033452   1.081825
    32  H    2.744442   2.095223   3.189133   3.683221   1.080996
    33  O    4.397995   4.926117   5.261955   3.766307   5.801322
    34  H    3.697965   4.099866   4.658164   3.166712   4.960326
    35  H    4.749375   5.322329   5.590090   4.288427   5.764385
    36  O    4.968026   5.395639   5.796112   5.015450   4.683150
    37  H    5.696719   6.003045   6.588237   5.727137   5.178486
    38  H    4.156785   4.490838   5.058667   4.234022   3.925474
                   31         32         33         34         35
    31  H    0.000000
    32  H    1.831839   0.000000
    33  O    6.635053   6.026764   0.000000
    34  H    5.808388   5.129577   0.968133   0.000000
    35  H    6.498389   6.156589   0.963229   1.501697   0.000000
    36  O    5.095053   5.397933   3.082363   2.901904   2.320260
    37  H    5.483034   5.873020   3.490529   3.324151   2.745660
    38  H    4.445355   4.540451   2.811999   2.342934   2.315685
                   36         37         38
    36  O    0.000000
    37  H    0.958885   0.000000
    38  H    0.977525   1.540511   0.000000
 Stoichiometry    C15H19ClO3
 Framework group  C1[X(C15H19ClO3)]
 Deg. of freedom   108
 Full point group                 C1      NOp   1
 Largest Abelian subgroup         C1      NOp   1
 Largest concise Abelian subgroup C1      NOp   1
                         Standard orientation:                         
 ---------------------------------------------------------------------
 Center     Atomic      Atomic             Coordinates (Angstroms)
 Number     Number       Type             X           Y           Z
 ---------------------------------------------------------------------
      1          6           0       -2.676108    2.731912    0.320731
      2          6           0       -3.057869    1.425782    0.158471
      3          6           0       -2.107060    0.425282   -0.125019
      4          6           0       -0.744289    0.792241   -0.230179
      5          6           0       -0.385779    2.141291   -0.072019
      6          6           0       -1.328728    3.097171    0.199751
      7          1           0       -3.422538    3.486132    0.536261
      8          1           0       -4.101309    1.156052    0.244221
      9          1           0        0.656451    2.411300   -0.172319
     10          1           0       -1.036018    4.132721    0.318481
     11          6           0        0.272090   -0.206350   -0.532719
     12          6           0       -2.455270   -0.949888   -0.332259
     13          6           0       -0.148311   -1.538169   -0.676339
     14          1           0        0.567009   -2.269400   -1.025269
     15          6           0       -1.520251   -1.884729   -0.622339
     16          1           0       -1.814151   -2.911389   -0.796979
     17          8           0        1.509350    0.108790   -0.588669
     18         17           0       -4.126801   -1.436558   -0.234939
     19          6           0        2.480430   -0.388461    1.430701
     20          6           0        1.986939   -1.691911    1.369671
     21          1           0        2.645219   -2.445941    0.953131
     22          6           0        3.893580   -0.126081    1.053041
     23          1           0        3.976841    0.810499    0.499941
     24          1           0        4.484090   -0.010602    1.968931
     25          1           0        4.319990   -0.932282    0.459311
     26          6           0        1.795711    0.701000    2.178381
     27          1           0        0.712021    0.612780    2.188341
     28          1           0        2.140861    0.660349    3.217641
     29          1           0        2.070701    1.675719    1.779891
     30          6           0        0.675149   -2.016830    1.565431
     31          1           0        0.348189   -3.043720    1.470881
     32          1           0       -0.035040   -1.337040    2.014951
     33          8           0        3.388391    1.902419   -1.741099
     34          1           0        2.597581    1.515299   -1.338559
     35          1           0        3.838991    1.124959   -2.087979
     36          8           0        3.406250   -1.154001   -2.139769
     37          1           0        3.021760   -1.332531   -2.999859
     38          1           0        2.671630   -0.812641   -1.592629
 ---------------------------------------------------------------------
 Rotational constants (GHZ):      0.4856172      0.2281011      0.1967030
 General basis read from cards:  (5D, 7F)
 There are   880 symmetry adapted cartesian basis functions of A   symmetry.
 There are   785 symmetry adapted basis functions of A   symmetry.
   785 basis functions,  1215 primitive gaussians,   880 cartesian basis functions
    75 alpha electrons       75 beta electrons
       nuclear repulsion energy      1612.2908423049 Hartrees.
 NAtoms=   38 NActive=   38 NUniq=   38 SFac= 1.00D+00 NAtFMM=   60 NAOKFM=F Big=F
 Integral buffers will be    131072 words long.
 Raffenetti 2 integral format.
 Two-electron integral symmetry is turned on.
 Nuclear repulsion after empirical dispersion term =     1612.2567248662 Hartrees.
 Force inversion solution in PCM.
 ------------------------------------------------------------------------------
 Polarizable Continuum Model (PCM)
 =================================
 Model                : PCM (using non-symmetric T matrix).
 Atomic radii         : SMD-Coulomb.
 Polarization charges : Total charges.
 Charge compensation  : None.
 Solution method      : Matrix inversion.
 Cavity type          : VdW (van der Waals Surface) (Alpha=1.000).
 Cavity algorithm     : GePol (No added spheres)
                        Default sphere list used, NSphG=   38.
                        Lebedev-Laikov grids with approx.  5.0 points / Ang**2.
                        Smoothing algorithm: Karplus/York (Gamma=1.0000).
                        Polarization charges: spherical gaussians, with
                                              point-specific exponents (IZeta= 3).
                        Self-potential: point-specific (ISelfS= 7).
                        Self-field    : sphere-specific E.n sum rule (ISelfD= 2).
 1st derivatives      : Analytical E(r).r(x)/FMM algorithm (CHGder, D1EAlg=3).
                        Cavity 1st derivative terms included.
 2nd derivatives      : Analytical E(r).r(xy)/FMM algorithm (CHGder, D2EAlg=3).
                        Cavity 2nd derivative terms included.
 Solvent              : Toluene, Eps=   2.374100 Eps(inf)=   2.238315
 ------------------------------------------------------------------------------
 ------------------------------------------------------------------------------
 Atomic radii for non-electrostatic terms: SMD-CDS.
 ------------------------------------------------------------------------------
 Nuclear repulsion after PCM non-electrostatic terms =     1612.2451419696 Hartrees.
 One-electron integrals computed using PRISM.
 NBasis=   785 RedAO= T EigKep=  1.08D-06  NBF=   785
 NBsUse=   779 1.00D-06 EigRej=  8.85D-07 NBFU=   779
 ExpMin= 3.17D-02 ExpMax= 6.95D+04 ExpMxC= 2.37D+03 IAcc=3 IRadAn=         5 AccDes= 0.00D+00
 Harris functional with IExCor= 4639 and IRadAn=       5 diagonalized for initial guess.
 HarFok:  IExCor= 4639 AccDes= 0.00D+00 IRadAn=         5 IDoV= 1 UseB2=F ITyADJ=14
 ICtDFT=  3500011 ScaDFX=  1.000000  1.000000  1.000000  1.000000
 FoFCou: FMM=F IPFlag=           0 FMFlag=      100000 FMFlg1=           0
         NFxFlg=           0 DoJE=T BraDBF=F KetDBF=T FulRan=T
         wScrn=  0.000000 ICntrl=     500 IOpCl=  0 I1Cent=   200000004 NGrid=           0
         NMat0=    1 NMatS0=      1 NMatT0=    0 NMatD0=    1 NMtDS0=    0 NMtDT0=    0
 Petite list used in FoFCou.
 Requested convergence on RMS density matrix=1.00D-08 within 128 cycles.
 Requested convergence on MAX density matrix=1.00D-06.
 Requested convergence on             energy=1.00D-06.
 No special actions if energy rises.
 Inv3:  Mode=1 IEnd=    24590307.
 Iteration    1 A*A^-1 deviation from unit magnitude is 5.66D-15 for   2844.
 Iteration    1 A*A^-1 deviation from orthogonality  is 2.07D-15 for   2861   2860.
 Iteration    1 A^-1*A deviation from unit magnitude is 5.33D-15 for   2838.
 Iteration    1 A^-1*A deviation from orthogonality  is 8.03D-15 for   1399    689.
 Error on total polarization charges =  0.02231
 SCF Done:  E(RwB97XD) =  -1268.94802972     A.U. after   16 cycles
            NFock= 16  Conv=0.87D-08     -V/T= 2.0036
 SMD-CDS (non-electrostatic) energy       (kcal/mol) =      -7.27
 (included in total energy above)
 DoSCS=F DFT=T ScalE2(SS,OS)=  1.000000  1.000000
 Range of M.O.s used for correlation:     1   779
 NBasis=   785 NAE=    75 NBE=    75 NFC=     0 NFV=     0
 NROrb=    779 NOA=    75 NOB=    75 NVA=   704 NVB=   704

 **** Warning!!: The largest alpha MO coefficient is  0.14870890D+03

 Symmetrizing basis deriv contribution to polar:
 IMax=3 JMax=2 DiffMx= 0.00D+00
 G2DrvN: will do    39 centers at a time, making    1 passes.
 Calling FoFCou, ICntrl=  3107 FMM=F I1Cent=   0 AccDes= 0.00D+00.
 NEqPCM:  Using equilibrium solvation (IEInf=0, Eps=   2.3741, EpsInf=   2.2383)
 G2PCM: DoFxE=T DoFxN=T DoGrad=T DoDP/DQ/DG/TGxP=FFFF NFrqRd=   0 IEInf=0 SqF1=F DoCFld=F IF1Alg=4.
 End of G2Drv F.D. properties file   721 does not exist.
 End of G2Drv F.D. properties file   722 does not exist.
 End of G2Drv F.D. properties file   788 does not exist.
          IDoAtm=11111111111111111111111111111111111111
 NEqPCM:  Using equilibrium solvation (IEInf=0, Eps=   2.3741, EpsInf=   2.2383)
          Differentiating once with respect to electric field.
                with respect to dipole field.
          Differentiating once with respect to nuclear coordinates.
          There are   117 degrees of freedom in the 1st order CPHF.  IDoFFX=6 NUNeed=     3.
    116 vectors produced by pass  0 Test12= 5.28D-14 1.00D-09 XBig12= 1.79D+02 7.34D+00.
 AX will form   116 AO Fock derivatives at one time.
    114 vectors produced by pass  1 Test12= 5.28D-14 1.00D-09 XBig12= 1.77D+01 5.73D-01.
    114 vectors produced by pass  2 Test12= 5.28D-14 1.00D-09 XBig12= 6.04D-01 1.10D-01.
    114 vectors produced by pass  3 Test12= 5.28D-14 1.00D-09 XBig12= 1.00D-02 1.04D-02.
    114 vectors produced by pass  4 Test12= 5.28D-14 1.00D-09 XBig12= 1.33D-04 9.49D-04.
    114 vectors produced by pass  5 Test12= 5.28D-14 1.00D-09 XBig12= 1.24D-06 9.12D-05.
    114 vectors produced by pass  6 Test12= 5.28D-14 1.00D-09 XBig12= 9.42D-09 5.87D-06.
     58 vectors produced by pass  7 Test12= 5.28D-14 1.00D-09 XBig12= 7.33D-11 4.59D-07.
     33 vectors produced by pass  8 Test12= 5.28D-14 1.00D-09 XBig12= 4.41D-12 1.65D-07.
     33 vectors produced by pass  9 Test12= 5.28D-14 1.00D-09 XBig12= 3.63D-13 4.60D-08.
     33 vectors produced by pass 10 Test12= 5.28D-14 1.00D-09 XBig12= 3.39D-14 1.36D-08.
     33 vectors produced by pass 11 Test12= 5.28D-14 1.00D-09 XBig12= 4.33D-13 5.65D-08.
     33 vectors produced by pass 12 Test12= 5.28D-14 1.00D-09 XBig12= 6.32D-13 8.74D-08.
     21 vectors produced by pass 13 Test12= 5.28D-14 1.00D-09 XBig12= 5.99D-14 1.32D-08.
     21 vectors produced by pass 14 Test12= 5.28D-14 1.00D-09 XBig12= 1.53D-13 2.79D-08.
     21 vectors produced by pass 15 Test12= 5.28D-14 1.00D-09 XBig12= 1.59D-13 2.15D-08.
     19 vectors produced by pass 16 Test12= 5.28D-14 1.00D-09 XBig12= 7.85D-14 1.50D-08.
     17 vectors produced by pass 17 Test12= 5.28D-14 1.00D-09 XBig12= 8.58D-14 1.62D-08.
     11 vectors produced by pass 18 Test12= 5.28D-14 1.00D-09 XBig12= 3.50D-14 1.18D-08.
     11 vectors produced by pass 19 Test12= 5.28D-14 1.00D-09 XBig12= 4.74D-14 1.24D-08.
     11 vectors produced by pass 20 Test12= 5.28D-14 1.00D-09 XBig12= 3.49D-14 9.85D-09.
     11 vectors produced by pass 21 Test12= 5.28D-14 1.00D-09 XBig12= 6.70D-14 1.54D-08.
     11 vectors produced by pass 22 Test12= 5.28D-14 1.00D-09 XBig12= 1.48D-13 1.83D-08.
      8 vectors produced by pass 23 Test12= 5.28D-14 1.00D-09 XBig12= 3.54D-14 1.01D-08.
      8 vectors produced by pass 24 Test12= 5.28D-14 1.00D-09 XBig12= 4.60D-14 1.24D-08.
      8 vectors produced by pass 25 Test12= 5.28D-14 1.00D-09 XBig12= 6.86D-14 1.48D-08.
      8 vectors produced by pass 26 Test12= 5.28D-14 1.00D-09 XBig12= 5.26D-14 1.18D-08.
      8 vectors produced by pass 27 Test12= 5.28D-14 1.00D-09 XBig12= 3.71D-14 1.10D-08.
      8 vectors produced by pass 28 Test12= 5.28D-14 1.00D-09 XBig12= 6.04D-14 1.29D-08.
      8 vectors produced by pass 29 Test12= 5.28D-14 1.00D-09 XBig12= 3.66D-14 9.29D-09.
      8 vectors produced by pass 30 Test12= 5.28D-14 1.00D-09 XBig12= 7.79D-14 1.69D-08.
      8 vectors produced by pass 31 Test12= 5.28D-14 1.00D-09 XBig12= 6.44D-14 1.21D-08.
      8 vectors produced by pass 32 Test12= 5.28D-14 1.00D-09 XBig12= 2.24D-14 8.86D-09.
      8 vectors produced by pass 33 Test12= 5.28D-14 1.00D-09 XBig12= 8.11D-14 1.35D-08.
      8 vectors produced by pass 34 Test12= 5.28D-14 1.00D-09 XBig12= 3.05D-14 8.94D-09.
      8 vectors produced by pass 35 Test12= 5.28D-14 1.00D-09 XBig12= 6.15D-14 1.13D-08.
      8 vectors produced by pass 36 Test12= 5.28D-14 1.00D-09 XBig12= 3.39D-14 8.74D-09.
      8 vectors produced by pass 37 Test12= 5.28D-14 1.00D-09 XBig12= 3.86D-14 9.42D-09.
      8 vectors produced by pass 38 Test12= 5.28D-14 1.00D-09 XBig12= 5.30D-14 1.26D-08.
      8 vectors produced by pass 39 Test12= 5.28D-14 1.00D-09 XBig12= 2.67D-14 7.40D-09.
      8 vectors produced by pass 40 Test12= 5.28D-14 1.00D-09 XBig12= 2.22D-14 7.06D-09.
      8 vectors produced by pass 41 Test12= 5.28D-14 1.00D-09 XBig12= 2.05D-14 7.81D-09.
      7 vectors produced by pass 42 Test12= 5.28D-14 1.00D-09 XBig12= 2.13D-14 7.98D-09.
      7 vectors produced by pass 43 Test12= 5.28D-14 1.00D-09 XBig12= 4.25D-14 1.01D-08.
      7 vectors produced by pass 44 Test12= 5.28D-14 1.00D-09 XBig12= 3.70D-14 8.33D-09.
      7 vectors produced by pass 45 Test12= 5.28D-14 1.00D-09 XBig12= 4.22D-14 1.01D-08.
      7 vectors produced by pass 46 Test12= 5.28D-14 1.00D-09 XBig12= 3.53D-14 8.28D-09.
      7 vectors produced by pass 47 Test12= 5.28D-14 1.00D-09 XBig12= 3.24D-14 9.77D-09.
      7 vectors produced by pass 48 Test12= 5.28D-14 1.00D-09 XBig12= 1.28D-14 5.80D-09.
      7 vectors produced by pass 49 Test12= 5.28D-14 1.00D-09 XBig12= 5.57D-14 1.17D-08.
      7 vectors produced by pass 50 Test12= 5.28D-14 1.00D-09 XBig12= 2.57D-14 7.72D-09.
      7 vectors produced by pass 51 Test12= 5.28D-14 1.00D-09 XBig12= 1.69D-14 6.48D-09.
      7 vectors produced by pass 52 Test12= 5.28D-14 1.00D-09 XBig12= 2.68D-14 9.61D-09.
      7 vectors produced by pass 53 Test12= 5.28D-14 1.00D-09 XBig12= 5.13D-14 1.27D-08.
      7 vectors produced by pass 54 Test12= 5.28D-14 1.00D-09 XBig12= 2.01D-14 7.05D-09.
      7 vectors produced by pass 55 Test12= 5.28D-14 1.00D-09 XBig12= 2.33D-14 6.73D-09.
      7 vectors produced by pass 56 Test12= 5.28D-14 1.00D-09 XBig12= 2.09D-14 7.41D-09.
      7 vectors produced by pass 57 Test12= 5.28D-14 1.00D-09 XBig12= 2.73D-14 8.12D-09.
      7 vectors produced by pass 58 Test12= 5.28D-14 1.00D-09 XBig12= 1.39D-14 5.13D-09.
      7 vectors produced by pass 59 Test12= 5.28D-14 1.00D-09 XBig12= 1.47D-14 5.60D-09.
      7 vectors produced by pass 60 Test12= 5.28D-14 1.00D-09 XBig12= 2.40D-14 7.28D-09.
      7 vectors produced by pass 61 Test12= 5.28D-14 1.00D-09 XBig12= 2.70D-14 6.71D-09.
      7 vectors produced by pass 62 Test12= 5.28D-14 1.00D-09 XBig12= 1.33D-14 4.89D-09.
      7 vectors produced by pass 63 Test12= 5.28D-14 1.00D-09 XBig12= 2.27D-14 8.94D-09.
      7 vectors produced by pass 64 Test12= 5.28D-14 1.00D-09 XBig12= 2.10D-14 6.68D-09.
      7 vectors produced by pass 65 Test12= 5.28D-14 1.00D-09 XBig12= 2.65D-14 7.93D-09.
      6 vectors produced by pass 66 Test12= 5.28D-14 1.00D-09 XBig12= 9.31D-15 4.71D-09.
      6 vectors produced by pass 67 Test12= 5.28D-14 1.00D-09 XBig12= 1.96D-14 6.21D-09.
      6 vectors produced by pass 68 Test12= 5.28D-14 1.00D-09 XBig12= 9.63D-15 5.00D-09.
      6 vectors produced by pass 69 Test12= 5.28D-14 1.00D-09 XBig12= 1.96D-14 6.00D-09.
      6 vectors produced by pass 70 Test12= 5.28D-14 1.00D-09 XBig12= 1.19D-14 4.65D-09.
      6 vectors produced by pass 71 Test12= 5.28D-14 1.00D-09 XBig12= 1.25D-14 4.67D-09.
      6 vectors produced by pass 72 Test12= 5.28D-14 1.00D-09 XBig12= 1.35D-14 5.11D-09.
      5 vectors produced by pass 73 Test12= 5.28D-14 1.00D-09 XBig12= 4.05D-15 2.79D-09.
      5 vectors produced by pass 74 Test12= 5.28D-14 1.00D-09 XBig12= 7.25D-15 3.71D-09.
      5 vectors produced by pass 75 Test12= 5.28D-14 1.00D-09 XBig12= 1.78D-14 6.19D-09.
      5 vectors produced by pass 76 Test12= 5.28D-14 1.00D-09 XBig12= 1.19D-14 4.57D-09.
      5 vectors produced by pass 77 Test12= 5.28D-14 1.00D-09 XBig12= 1.95D-14 7.03D-09.
      5 vectors produced by pass 78 Test12= 5.28D-14 1.00D-09 XBig12= 1.21D-14 4.80D-09.
      5 vectors produced by pass 79 Test12= 5.28D-14 1.00D-09 XBig12= 1.09D-14 4.30D-09.
      5 vectors produced by pass 80 Test12= 5.28D-14 1.00D-09 XBig12= 1.28D-14 5.87D-09.
      5 vectors produced by pass 81 Test12= 5.28D-14 1.00D-09 XBig12= 1.26D-14 4.80D-09.
      5 vectors produced by pass 82 Test12= 5.28D-14 1.00D-09 XBig12= 9.14D-15 3.96D-09.
      5 vectors produced by pass 83 Test12= 5.28D-14 1.00D-09 XBig12= 6.51D-15 3.40D-09.
      5 vectors produced by pass 84 Test12= 5.28D-14 1.00D-09 XBig12= 1.78D-14 6.11D-09.
      5 vectors produced by pass 85 Test12= 5.28D-14 1.00D-09 XBig12= 1.18D-14 4.91D-09.
      5 vectors produced by pass 86 Test12= 5.28D-14 1.00D-09 XBig12= 1.49D-14 5.16D-09.
      5 vectors produced by pass 87 Test12= 5.28D-14 1.00D-09 XBig12= 1.03D-14 3.87D-09.
      5 vectors produced by pass 88 Test12= 5.28D-14 1.00D-09 XBig12= 1.68D-14 5.40D-09.
      5 vectors produced by pass 89 Test12= 5.28D-14 1.00D-09 XBig12= 8.02D-15 4.43D-09.
      5 vectors produced by pass 90 Test12= 5.28D-14 1.00D-09 XBig12= 9.79D-15 4.83D-09.
      5 vectors produced by pass 91 Test12= 5.28D-14 1.00D-09 XBig12= 1.06D-14 4.70D-09.
      5 vectors produced by pass 92 Test12= 5.28D-14 1.00D-09 XBig12= 1.37D-14 5.30D-09.
      5 vectors produced by pass 93 Test12= 5.28D-14 1.00D-09 XBig12= 9.31D-15 3.79D-09.
      5 vectors produced by pass 94 Test12= 5.28D-14 1.00D-09 XBig12= 1.83D-14 5.83D-09.
      5 vectors produced by pass 95 Test12= 5.28D-14 1.00D-09 XBig12= 7.89D-15 4.09D-09.
      5 vectors produced by pass 96 Test12= 5.28D-14 1.00D-09 XBig12= 2.46D-14 8.18D-09.
      3 vectors produced by pass 97 Test12= 5.28D-14 1.00D-09 XBig12= 3.24D-15 2.21D-09.
      3 vectors produced by pass 98 Test12= 5.28D-14 1.00D-09 XBig12= 3.67D-15 2.36D-09.
      3 vectors produced by pass 99 Test12= 5.28D-14 1.00D-09 XBig12= 5.33D-15 2.98D-09.
      3 vectors produced by pass100 Test12= 5.28D-14 1.00D-09 XBig12= 2.68D-15 2.03D-09.
      3 vectors produced by pass101 Test12= 5.28D-14 1.00D-09 XBig12= 2.69D-15 2.31D-09.
      3 vectors produced by pass102 Test12= 5.28D-14 1.00D-09 XBig12= 3.04D-15 2.12D-09.
      3 vectors produced by pass103 Test12= 5.28D-14 1.00D-09 XBig12= 2.63D-15 2.37D-09.
      3 vectors produced by pass104 Test12= 5.28D-14 1.00D-09 XBig12= 2.67D-15 2.01D-09.
      3 vectors produced by pass105 Test12= 5.28D-14 1.00D-09 XBig12= 2.51D-15 2.20D-09.
      3 vectors produced by pass106 Test12= 5.28D-14 1.00D-09 XBig12= 1.86D-15 1.81D-09.
      3 vectors produced by pass107 Test12= 5.28D-14 1.00D-09 XBig12= 1.99D-15 1.83D-09.
      2 vectors produced by pass108 Test12= 5.28D-14 1.00D-09 XBig12= 1.15D-15 1.53D-09.
 InvSVY:  IOpt=1 It=  1 EMax= 1.31D-14
 Solved reduced A of dimension  1694 with   117 vectors.
 Isotropic polarizability for W=    0.000000      282.36 Bohr**3.
 End of Minotr F.D. properties file   721 does not exist.
 End of Minotr F.D. properties file   722 does not exist.
 End of Minotr F.D. properties file   788 does not exist.

 **********************************************************************

            Population analysis using the SCF density.

 **********************************************************************

 Orbital symmetries:
       Occupied  (A) (A) (A) (A) (A) (A) (A) (A) (A) (A) (A) (A)
                 (A) (A) (A) (A) (A) (A) (A) (A) (A) (A) (A) (A)
                 (A) (A) (A) (A) (A) (A) (A) (A) (A) (A) (A) (A)
                 (A) (A) (A) (A) (A) (A) (A) (A) (A) (A) (A) (A)
                 (A) (A) (A) (A) (A) (A) (A) (A) (A) (A) (A) (A)
                 (A) (A) (A) (A) (A) (A) (A) (A) (A) (A) (A) (A)
                 (A) (A) (A)
       Virtual   (A) (A) (A) (A) (A) (A) (A) (A) (A) (A) (A) (A)
                 (A) (A) (A) (A) (A) (A) (A) (A) (A) (A) (A) (A)
                 (A) (A) (A) (A) (A) (A) (A) (A) (A) (A) (A) (A)
                 (A) (A) (A) (A) (A) (A) (A) (A) (A) (A) (A) (A)
                 (A) (A) (A) (A) (A) (A) (A) (A) (A) (A) (A) (A)
                 (A) (A) (A) (A) (A) (A) (A) (A) (A) (A) (A) (A)
                 (A) (A) (A) (A) (A) (A) (A) (A) (A) (A) (A) (A)
                 (A) (A) (A) (A) (A) (A) (A) (A) (A) (A) (A) (A)
                 (A) (A) (A) (A) (A) (A) (A) (A) (A) (A) (A) (A)
                 (A) (A) (A) (A) (A) (A) (A) (A) (A) (A) (A) (A)
                 (A) (A) (A) (A) (A) (A) (A) (A) (A) (A) (A) (A)
                 (A) (A) (A) (A) (A) (A) (A) (A) (A) (A) (A) (A)
                 (A) (A) (A) (A) (A) (A) (A) (A) (A) (A) (A) (A)
                 (A) (A) (A) (A) (A) (A) (A) (A) (A) (A) (A) (A)
                 (A) (A) (A) (A) (A) (A) (A) (A) (A) (A) (A) (A)
                 (A) (A) (A) (A) (A) (A) (A) (A) (A) (A) (A) (A)
                 (A) (A) (A) (A) (A) (A) (A) (A) (A) (A) (A) (A)
                 (A) (A) (A) (A) (A) (A) (A) (A) (A) (A) (A) (A)
                 (A) (A) (A) (A) (A) (A) (A) (A) (A) (A) (A) (A)
                 (A) (A) (A) (A) (A) (A) (A) (A) (A) (A) (A) (A)
                 (A) (A) (A) (A) (A) (A) (A) (A) (A) (A) (A) (A)
                 (A) (A) (A) (A) (A) (A) (A) (A) (A) (A) (A) (A)
                 (A) (A) (A) (A) (A) (A) (A) (A) (A) (A) (A) (A)
                 (A) (A) (A) (A) (A) (A) (A) (A) (A) (A) (A) (A)
                 (A) (A) (A) (A) (A) (A) (A) (A) (A) (A) (A) (A)
                 (A) (A) (A) (A) (A) (A) (A) (A) (A) (A) (A) (A)
                 (A) (A) (A) (A) (A) (A) (A) (A) (A) (A) (A) (A)
                 (A) (A) (A) (A) (A) (A) (A) (A) (A) (A) (A) (A)
                 (A) (A) (A) (A) (A) (A) (A) (A) (A) (A) (A) (A)
                 (A) (A) (A) (A) (A) (A) (A) (A) (A) (A) (A) (A)
                 (A) (A) (A) (A) (A) (A) (A) (A) (A) (A) (A) (A)
                 (A) (A) (A) (A) (A) (A) (A) (A) (A) (A) (A) (A)
                 (A) (A) (A) (A) (A) (A) (A) (A) (A) (A) (A) (A)
                 (A) (A) (A) (A) (A) (A) (A) (A) (A) (A) (A) (A)
                 (A) (A) (A) (A) (A) (A) (A) (A) (A) (A) (A) (A)
                 (A) (A) (A) (A) (A) (A) (A) (A) (A) (A) (A) (A)
                 (A) (A) (A) (A) (A) (A) (A) (A) (A) (A) (A) (A)
                 (A) (A) (A) (A) (A) (A) (A) (A) (A) (A) (A) (A)
                 (A) (A) (A) (A) (A) (A) (A) (A) (A) (A) (A) (A)
                 (A) (A) (A) (A) (A) (A) (A) (A) (A) (A) (A) (A)
                 (A) (A) (A) (A) (A) (A) (A) (A) (A) (A) (A) (A)
                 (A) (A) (A) (A) (A) (A) (A) (A) (A) (A) (A) (A)
                 (A) (A) (A) (A) (A) (A) (A) (A) (A) (A) (A) (A)
                 (A) (A) (A) (A) (A) (A) (A) (A) (A) (A) (A) (A)
                 (A) (A) (A) (A) (A) (A) (A) (A) (A) (A) (A) (A)
                 (A) (A) (A) (A) (A) (A) (A) (A) (A) (A) (A) (A)
                 (A) (A) (A) (A) (A) (A) (A) (A) (A) (A) (A) (A)
                 (A) (A) (A) (A) (A) (A) (A) (A) (A) (A) (A) (A)
                 (A) (A) (A) (A) (A) (A) (A) (A) (A) (A) (A) (A)
                 (A) (A) (A) (A) (A) (A) (A) (A) (A) (A) (A) (A)
                 (A) (A) (A) (A) (A) (A) (A) (A) (A) (A) (A) (A)
                 (A) (A) (A) (A) (A) (A) (A) (A) (A) (A) (A) (A)
                 (A) (A) (A) (A) (A) (A) (A) (A) (A) (A) (A) (A)
                 (A) (A) (A) (A) (A) (A) (A) (A) (A) (A) (A) (A)
                 (A) (A) (A) (A) (A) (A) (A) (A) (A) (A) (A) (A)
                 (A) (A) (A) (A) (A) (A) (A) (A) (A) (A) (A) (A)
                 (A) (A) (A) (A) (A) (A) (A) (A) (A) (A) (A) (A)
                 (A) (A) (A) (A) (A) (A) (A) (A) (A) (A) (A) (A)
                 (A) (A) (A) (A) (A) (A) (A) (A)
 The electronic state is 1-A.
 Alpha  occ. eigenvalues -- -101.70025 -19.23377 -19.23287 -19.21917 -10.35956
 Alpha  occ. eigenvalues --  -10.35082 -10.34893 -10.32878 -10.31353 -10.30211
 Alpha  occ. eigenvalues --  -10.30091 -10.29773 -10.29555 -10.29325 -10.29209
 Alpha  occ. eigenvalues --  -10.29157 -10.29037 -10.28963 -10.28265  -9.58564
 Alpha  occ. eigenvalues --   -7.33196  -7.32357  -7.32330  -1.12425  -1.09368
 Alpha  occ. eigenvalues --   -1.08090  -1.00160  -0.95939  -0.95111  -0.91836
 Alpha  occ. eigenvalues --   -0.86741  -0.86118  -0.85223  -0.81008  -0.80149
 Alpha  occ. eigenvalues --   -0.73835  -0.72669  -0.72322  -0.67369  -0.63455
 Alpha  occ. eigenvalues --   -0.62041  -0.61335  -0.60455  -0.59107  -0.58360
 Alpha  occ. eigenvalues --   -0.58074  -0.56195  -0.55722  -0.54918  -0.52973
 Alpha  occ. eigenvalues --   -0.52019  -0.51877  -0.50894  -0.50263  -0.49599
 Alpha  occ. eigenvalues --   -0.48411  -0.47922  -0.47522  -0.46975  -0.46466
 Alpha  occ. eigenvalues --   -0.45992  -0.45162  -0.44903  -0.44577  -0.44123
 Alpha  occ. eigenvalues --   -0.42614  -0.39863  -0.39150  -0.38846  -0.38137
 Alpha  occ. eigenvalues --   -0.37303  -0.35283  -0.34685  -0.32510  -0.27507
 Alpha virt. eigenvalues --   -0.03460   0.01813   0.03872   0.04115   0.04764
 Alpha virt. eigenvalues --    0.05241   0.05935   0.06339   0.06537   0.07387
 Alpha virt. eigenvalues --    0.07507   0.07738   0.08396   0.08843   0.09030
 Alpha virt. eigenvalues --    0.09349   0.10147   0.10393   0.10567   0.10860
 Alpha virt. eigenvalues --    0.11118   0.11600   0.11867   0.12494   0.12863
 Alpha virt. eigenvalues --    0.13153   0.13660   0.13855   0.13933   0.14255
 Alpha virt. eigenvalues --    0.14794   0.15230   0.15492   0.15725   0.15916
 Alpha virt. eigenvalues --    0.16122   0.16550   0.16615   0.17206   0.17428
 Alpha virt. eigenvalues --    0.17673   0.17924   0.18244   0.18434   0.18700
 Alpha virt. eigenvalues --    0.18946   0.18998   0.19212   0.19369   0.19579
 Alpha virt. eigenvalues --    0.20245   0.20585   0.20832   0.21139   0.21210
 Alpha virt. eigenvalues --    0.21424   0.21604   0.21906   0.22600   0.22868
 Alpha virt. eigenvalues --    0.22957   0.23211   0.23416   0.23713   0.23886
 Alpha virt. eigenvalues --    0.24469   0.24751   0.24971   0.25456   0.25860
 Alpha virt. eigenvalues --    0.26026   0.26574   0.27005   0.27285   0.27455
 Alpha virt. eigenvalues --    0.27937   0.28422   0.28516   0.28689   0.29421
 Alpha virt. eigenvalues --    0.29641   0.29862   0.30162   0.30499   0.31221
 Alpha virt. eigenvalues --    0.31863   0.31960   0.32332   0.32521   0.33150
 Alpha virt. eigenvalues --    0.33833   0.33949   0.34203   0.34581   0.35308
 Alpha virt. eigenvalues --    0.35608   0.36137   0.36682   0.36934   0.37336
 Alpha virt. eigenvalues --    0.38626   0.38823   0.39489   0.39964   0.40323
 Alpha virt. eigenvalues --    0.40688   0.40933   0.41462   0.41966   0.42867
 Alpha virt. eigenvalues --    0.43356   0.43927   0.44148   0.44669   0.45628
 Alpha virt. eigenvalues --    0.45842   0.46100   0.46500   0.47343   0.47589
 Alpha virt. eigenvalues --    0.47694   0.48166   0.48339   0.48484   0.49493
 Alpha virt. eigenvalues --    0.49754   0.50113   0.50301   0.50737   0.51375
 Alpha virt. eigenvalues --    0.51695   0.52072   0.52682   0.52780   0.53030
 Alpha virt. eigenvalues --    0.54123   0.54254   0.54907   0.55421   0.55896
 Alpha virt. eigenvalues --    0.56351   0.56710   0.57029   0.57490   0.57825
 Alpha virt. eigenvalues --    0.58378   0.58917   0.59200   0.59417   0.60007
 Alpha virt. eigenvalues --    0.60035   0.60577   0.60909   0.61388   0.61883
 Alpha virt. eigenvalues --    0.62424   0.62812   0.62911   0.63378   0.64623
 Alpha virt. eigenvalues --    0.65232   0.65435   0.66168   0.66274   0.67166
 Alpha virt. eigenvalues --    0.67363   0.67631   0.68027   0.68179   0.68778
 Alpha virt. eigenvalues --    0.69549   0.69926   0.70429   0.70946   0.71280
 Alpha virt. eigenvalues --    0.72509   0.73071   0.73450   0.73783   0.74758
 Alpha virt. eigenvalues --    0.75198   0.75831   0.76269   0.76475   0.77823
 Alpha virt. eigenvalues --    0.78537   0.79006   0.79687   0.80403   0.80783
 Alpha virt. eigenvalues --    0.81341   0.81798   0.82388   0.83024   0.83449
 Alpha virt. eigenvalues --    0.83772   0.84260   0.85335   0.85586   0.86243
 Alpha virt. eigenvalues --    0.87110   0.87734   0.87883   0.88490   0.88963
 Alpha virt. eigenvalues --    0.90149   0.90268   0.91092   0.91757   0.92158
 Alpha virt. eigenvalues --    0.93476   0.93737   0.94999   0.96696   0.97068
 Alpha virt. eigenvalues --    0.99143   1.00130   1.01035   1.01367   1.01809
 Alpha virt. eigenvalues --    1.03385   1.04185   1.05499   1.05865   1.06946
 Alpha virt. eigenvalues --    1.08063   1.09360   1.09881   1.10996   1.12458
 Alpha virt. eigenvalues --    1.13926   1.14130   1.15136   1.15542   1.16035
 Alpha virt. eigenvalues --    1.17350   1.18272   1.19241   1.19952   1.21559
 Alpha virt. eigenvalues --    1.22296   1.22677   1.23612   1.23773   1.25025
 Alpha virt. eigenvalues --    1.26512   1.26890   1.27167   1.27951   1.28613
 Alpha virt. eigenvalues --    1.29702   1.30526   1.31069   1.32551   1.33234
 Alpha virt. eigenvalues --    1.33741   1.35017   1.35776   1.37092   1.37253
 Alpha virt. eigenvalues --    1.37978   1.38649   1.39162   1.39750   1.40286
 Alpha virt. eigenvalues --    1.41110   1.41299   1.42747   1.42875   1.43668
 Alpha virt. eigenvalues --    1.44782   1.46401   1.46850   1.47738   1.48066
 Alpha virt. eigenvalues --    1.49204   1.50497   1.51356   1.51801   1.52451
 Alpha virt. eigenvalues --    1.53933   1.55234   1.55383   1.57065   1.58065
 Alpha virt. eigenvalues --    1.60293   1.61303   1.62432   1.63009   1.64326
 Alpha virt. eigenvalues --    1.64908   1.65785   1.66068   1.66995   1.68063
 Alpha virt. eigenvalues --    1.68737   1.69574   1.69923   1.70394   1.71303
 Alpha virt. eigenvalues --    1.72185   1.73063   1.73816   1.74102   1.74722
 Alpha virt. eigenvalues --    1.75524   1.76112   1.77207   1.78182   1.78664
 Alpha virt. eigenvalues --    1.79549   1.80013   1.80493   1.81540   1.82122
 Alpha virt. eigenvalues --    1.82531   1.83280   1.84019   1.85192   1.85499
 Alpha virt. eigenvalues --    1.86096   1.86726   1.87095   1.87899   1.88107
 Alpha virt. eigenvalues --    1.88923   1.90278   1.91015   1.91835   1.92497
 Alpha virt. eigenvalues --    1.94208   1.95067   1.96378   1.97199   1.97743
 Alpha virt. eigenvalues --    1.98604   1.98870   2.00787   2.02329   2.02864
 Alpha virt. eigenvalues --    2.03732   2.04917   2.05522   2.07006   2.07577
 Alpha virt. eigenvalues --    2.08175   2.09811   2.10089   2.10612   2.11679
 Alpha virt. eigenvalues --    2.12314   2.13130   2.13421   2.14594   2.15760
 Alpha virt. eigenvalues --    2.16226   2.17684   2.18253   2.20379   2.21133
 Alpha virt. eigenvalues --    2.21566   2.22488   2.23159   2.23658   2.23938
 Alpha virt. eigenvalues --    2.24330   2.25485   2.26272   2.27371   2.28370
 Alpha virt. eigenvalues --    2.28693   2.29508   2.30342   2.31025   2.32325
 Alpha virt. eigenvalues --    2.33020   2.33117   2.35331   2.36074   2.38264
 Alpha virt. eigenvalues --    2.38864   2.40385   2.40952   2.41833   2.42513
 Alpha virt. eigenvalues --    2.43462   2.44045   2.45016   2.45209   2.45856
 Alpha virt. eigenvalues --    2.47121   2.48106   2.48689   2.49296   2.50715
 Alpha virt. eigenvalues --    2.51138   2.51613   2.52247   2.53039   2.54574
 Alpha virt. eigenvalues --    2.55305   2.56073   2.58084   2.58292   2.58662
 Alpha virt. eigenvalues --    2.59775   2.60456   2.60962   2.62637   2.63478
 Alpha virt. eigenvalues --    2.64044   2.64525   2.66534   2.67402   2.68552
 Alpha virt. eigenvalues --    2.69227   2.69546   2.70707   2.71113   2.71833
 Alpha virt. eigenvalues --    2.72252   2.72735   2.73443   2.73604   2.74788
 Alpha virt. eigenvalues --    2.75343   2.75775   2.77412   2.77775   2.80283
 Alpha virt. eigenvalues --    2.81243   2.81904   2.82489   2.82781   2.83304
 Alpha virt. eigenvalues --    2.84778   2.85188   2.85382   2.86605   2.87062
 Alpha virt. eigenvalues --    2.87405   2.88695   2.88962   2.89462   2.90328
 Alpha virt. eigenvalues --    2.91212   2.92222   2.92628   2.93175   2.93611
 Alpha virt. eigenvalues --    2.95409   2.96334   2.97053   2.97495   2.98435
 Alpha virt. eigenvalues --    2.98871   2.99735   3.00330   3.01083   3.01333
 Alpha virt. eigenvalues --    3.01434   3.03225   3.03919   3.05002   3.05263
 Alpha virt. eigenvalues --    3.05729   3.07720   3.08079   3.09192   3.09661
 Alpha virt. eigenvalues --    3.10232   3.10712   3.11081   3.13177   3.13995
 Alpha virt. eigenvalues --    3.14987   3.15960   3.16869   3.18602   3.19108
 Alpha virt. eigenvalues --    3.20598   3.20997   3.21531   3.22330   3.24018
 Alpha virt. eigenvalues --    3.25065   3.26024   3.27151   3.27599   3.27984
 Alpha virt. eigenvalues --    3.28887   3.29634   3.30613   3.30932   3.31878
 Alpha virt. eigenvalues --    3.32265   3.33492   3.33930   3.35370   3.35678
 Alpha virt. eigenvalues --    3.36490   3.36996   3.37627   3.38378   3.38726
 Alpha virt. eigenvalues --    3.39362   3.39732   3.40958   3.41897   3.42092
 Alpha virt. eigenvalues --    3.42933   3.43447   3.44195   3.44815   3.45215
 Alpha virt. eigenvalues --    3.46707   3.47344   3.48356   3.49110   3.49933
 Alpha virt. eigenvalues --    3.50519   3.51691   3.52200   3.52298   3.53356
 Alpha virt. eigenvalues --    3.54386   3.55208   3.56148   3.57134   3.57871
 Alpha virt. eigenvalues --    3.59009   3.59104   3.60170   3.61595   3.62085
 Alpha virt. eigenvalues --    3.62540   3.63836   3.63941   3.65162   3.66605
 Alpha virt. eigenvalues --    3.67619   3.68540   3.68933   3.69819   3.71331
 Alpha virt. eigenvalues --    3.72879   3.73356   3.75174   3.76071   3.76542
 Alpha virt. eigenvalues --    3.78934   3.79133   3.80978   3.81360   3.82020
 Alpha virt. eigenvalues --    3.83855   3.86211   3.88887   3.89522   3.92336
 Alpha virt. eigenvalues --    3.93503   3.95724   3.96197   3.96538   3.97761
 Alpha virt. eigenvalues --    3.97980   3.99406   4.00863   4.03129   4.05317
 Alpha virt. eigenvalues --    4.05867   4.08067   4.09663   4.10463   4.12056
 Alpha virt. eigenvalues --    4.12956   4.14047   4.15425   4.15797   4.16543
 Alpha virt. eigenvalues --    4.18397   4.19043   4.20776   4.22642   4.24166
 Alpha virt. eigenvalues --    4.25602   4.26432   4.27456   4.30104   4.30188
 Alpha virt. eigenvalues --    4.31281   4.32551   4.34282   4.35280   4.36327
 Alpha virt. eigenvalues --    4.36637   4.37451   4.40815   4.41726   4.42347
 Alpha virt. eigenvalues --    4.44129   4.44720   4.45508   4.47791   4.49956
 Alpha virt. eigenvalues --    4.51384   4.54939   4.55886   4.58173   4.58743
 Alpha virt. eigenvalues --    4.60694   4.62056   4.64881   4.70152   4.72706
 Alpha virt. eigenvalues --    4.73713   4.75976   4.80674   4.82732   4.83749
 Alpha virt. eigenvalues --    4.85355   4.86801   4.87844   4.90959   4.93864
 Alpha virt. eigenvalues --    4.97849   5.01053   5.03391   5.04639   5.07293
 Alpha virt. eigenvalues --    5.08840   5.10696   5.17805   5.20482   5.21474
 Alpha virt. eigenvalues --    5.21933   5.23056   5.28701   5.29644   5.31388
 Alpha virt. eigenvalues --    5.32162   5.34599   5.34980   5.35564   5.38919
 Alpha virt. eigenvalues --    5.39746   5.43406   5.49284   5.49977   5.50527
 Alpha virt. eigenvalues --    5.53910   5.55409   5.58586   5.60474   5.64019
 Alpha virt. eigenvalues --    5.65871   5.73781   5.77086   5.91451   5.92290
 Alpha virt. eigenvalues --    6.14157   6.17015   6.20260   6.36661   6.38561
 Alpha virt. eigenvalues --    6.43228   6.47356   6.48115   6.50621   6.51653
 Alpha virt. eigenvalues --    6.55752   6.64379   6.69447   6.74985   6.88053
 Alpha virt. eigenvalues --    7.01291   7.07473   7.10689   7.20088   7.26988
 Alpha virt. eigenvalues --    7.36142   7.37947  10.93656  11.02993  11.51520
 Alpha virt. eigenvalues --   22.44272  22.59242  22.60330  22.64162  22.74862
 Alpha virt. eigenvalues --   22.81225  22.83846  22.85962  22.93069  22.99295
 Alpha virt. eigenvalues --   23.09568  23.10732  23.15430  23.41511  23.84109
 Alpha virt. eigenvalues --   26.42849  43.89393  43.98643  44.49031
          Condensed to atoms (all electrons):
               1          2          3          4          5          6
     1  C    5.938085  -0.350965   0.051800  -0.254930  -1.221595   0.362429
     2  C   -0.350965   6.503785  -0.175697   0.243267   0.755824  -0.116216
     3  C    0.051800  -0.175697   6.557028   0.200824  -0.216230  -0.072534
     4  C   -0.254930   0.243267   0.200824   6.805246   0.282747  -0.140073
     5  C   -1.221595   0.755824  -0.216230   0.282747   8.351193   0.380673
     6  C    0.362429  -0.116216  -0.072534  -0.140073   0.380673   5.392266
     7  H    0.411385  -0.056134   0.024528  -0.013335   0.034509  -0.033638
     8  H   -0.051081   0.473748  -0.051283   0.016586  -0.006184   0.015191
     9  H   -0.006420  -0.011536   0.038142  -0.064573   0.473097  -0.029352
    10  H   -0.035381   0.049031  -0.022616   0.013014  -0.048276   0.413113
    11  C    0.531307  -0.219546  -0.363699  -0.219128  -1.616559  -0.153447
    12  C    0.558126  -0.917159   0.428352  -0.370854  -0.998237   0.120495
    13  C    0.161111   0.095272  -0.471384  -0.174085  -0.560882  -0.142077
    14  H   -0.000332  -0.002900  -0.009566   0.012111  -0.002208   0.002052
    15  C    0.099588  -0.075739  -0.061091  -0.430874  -0.221164   0.021621
    16  H    0.001318  -0.003110   0.032120  -0.018653  -0.001841   0.000355
    17  O   -0.089230  -0.038193   0.125244   0.070323   0.379244   0.027644
    18  Cl  -0.014930   0.006553  -0.122893   0.039494  -0.003304  -0.003195
    19  C    0.023720  -0.070099   0.027625   0.013009  -0.050180  -0.001945
    20  C   -0.147935   0.184088  -0.030763  -0.012354   0.715788  -0.044808
    21  H   -0.000003  -0.000445  -0.000321  -0.003767   0.001785   0.000483
    22  C    0.025964  -0.037245  -0.013739   0.059743  -0.076389   0.050681
    23  H   -0.000247  -0.000242   0.000673  -0.000442  -0.000645   0.001208
    24  H    0.000035  -0.000149   0.000548  -0.000092  -0.000329   0.000289
    25  H   -0.000128   0.000224  -0.001024  -0.003297   0.005025   0.000065
    26  C    0.085791  -0.061029   0.044688   0.066118  -0.459274  -0.045062
    27  H   -0.003376   0.008326   0.011712  -0.015770  -0.006424  -0.004415
    28  H   -0.000014  -0.000379  -0.000200  -0.000960   0.009433   0.001602
    29  H   -0.000678  -0.002223   0.004360   0.009677  -0.024731  -0.001467
    30  C   -0.041152   0.013179   0.069034   0.069016   0.124883   0.015995
    31  H    0.000508  -0.000107  -0.000831  -0.005910  -0.003271   0.000391
    32  H   -0.003447  -0.007502   0.009288   0.020707   0.004922   0.004230
    33  O   -0.003974   0.001016  -0.002099  -0.032210   0.030998  -0.001746
    34  H    0.000136   0.001814  -0.007188   0.004505   0.008327   0.003837
    35  H    0.000840  -0.000492  -0.000638   0.014471  -0.011794   0.000764
    36  O   -0.002160   0.002368   0.006213   0.000451   0.006853  -0.007354
    37  H    0.000011  -0.000366  -0.000500  -0.003667   0.004118   0.000746
    38  H   -0.004691   0.003435   0.008593  -0.044872   0.053918  -0.002426
               7          8          9         10         11         12
     1  C    0.411385  -0.051081  -0.006420  -0.035381   0.531307   0.558126
     2  C   -0.056134   0.473748  -0.011536   0.049031  -0.219546  -0.917159
     3  C    0.024528  -0.051283   0.038142  -0.022616  -0.363699   0.428352
     4  C   -0.013335   0.016586  -0.064573   0.013014  -0.219128  -0.370854
     5  C    0.034509  -0.006184   0.473097  -0.048276  -1.616559  -0.998237
     6  C   -0.033638   0.015191  -0.029352   0.413113  -0.153447   0.120495
     7  H    0.488321  -0.006189   0.000057  -0.005761  -0.003379  -0.002848
     8  H   -0.006189   0.489215  -0.000023   0.000023  -0.008370  -0.026391
     9  H    0.000057  -0.000023   0.477924  -0.006074  -0.081539   0.003912
    10  H   -0.005761   0.000023  -0.006074   0.488196  -0.003538  -0.004642
    11  C   -0.003379  -0.008370  -0.081539  -0.003538   8.762395  -0.326096
    12  C   -0.002848  -0.026391   0.003912  -0.004642  -0.326096   7.035959
    13  C   -0.001551  -0.006271  -0.019304   0.000575   1.246763  -0.438290
    14  H    0.000000  -0.000002   0.000043   0.000000  -0.091028   0.037685
    15  C    0.000153  -0.010406  -0.003460  -0.000657  -0.123079   0.692296
    16  H    0.000000   0.000033  -0.000001   0.000000   0.038222  -0.058763
    17  O    0.000149  -0.000515   0.040800   0.000359  -1.216799   0.142150
    18  Cl   0.000292  -0.000810   0.000017   0.000012  -0.008029   0.259479
    19  C   -0.000263  -0.000339   0.000452  -0.000044   0.153046   0.115270
    20  C   -0.000037  -0.000008  -0.005752   0.000997  -0.313774  -0.389521
    21  H    0.000000   0.000000   0.000024   0.000000  -0.002488   0.002999
    22  C    0.000035  -0.000072   0.003311  -0.000241  -0.105195   0.081662
    23  H    0.000000   0.000000   0.000524  -0.000001  -0.015250   0.000783
    24  H    0.000000   0.000000   0.000066   0.000000   0.006042   0.000337
    25  H    0.000000   0.000000  -0.000017   0.000000  -0.000452  -0.000819
    26  C    0.000326  -0.000318  -0.003678  -0.000664   0.139614   0.098126
    27  H    0.000002  -0.000008   0.000205   0.000061  -0.001722  -0.007526
    28  H    0.000000   0.000000   0.000008  -0.000002   0.000744  -0.000463
    29  H    0.000002  -0.000001  -0.001900   0.000000  -0.015581   0.002111
    30  C    0.000061   0.000838   0.003064  -0.000125  -0.054355  -0.084295
    31  H    0.000000   0.000000   0.000001   0.000000  -0.014821   0.002152
    32  H    0.000002   0.000000   0.000135   0.000001  -0.057231   0.034122
    33  O    0.000002  -0.000001   0.002893  -0.000010   0.008476  -0.002373
    34  H    0.000000   0.000000  -0.003392   0.000020  -0.006555  -0.001282
    35  H    0.000000   0.000000  -0.000259   0.000000  -0.016351   0.001116
    36  O    0.000000   0.000001   0.000184   0.000002   0.013635  -0.009460
    37  H    0.000000   0.000000   0.000050   0.000000   0.013518   0.001938
    38  H    0.000000   0.000000  -0.000071   0.000001   0.034905  -0.017685
              13         14         15         16         17         18
     1  C    0.161111  -0.000332   0.099588   0.001318  -0.089230  -0.014930
     2  C    0.095272  -0.002900  -0.075739  -0.003110  -0.038193   0.006553
     3  C   -0.471384  -0.009566  -0.061091   0.032120   0.125244  -0.122893
     4  C   -0.174085   0.012111  -0.430874  -0.018653   0.070323   0.039494
     5  C   -0.560882  -0.002208  -0.221164  -0.001841   0.379244  -0.003304
     6  C   -0.142077   0.002052   0.021621   0.000355   0.027644  -0.003195
     7  H   -0.001551   0.000000   0.000153   0.000000   0.000149   0.000292
     8  H   -0.006271  -0.000002  -0.010406   0.000033  -0.000515  -0.000810
     9  H   -0.019304   0.000043  -0.003460  -0.000001   0.040800   0.000017
    10  H    0.000575   0.000000  -0.000657   0.000000   0.000359   0.000012
    11  C    1.246763  -0.091028  -0.123079   0.038222  -1.216799  -0.008029
    12  C   -0.438290   0.037685   0.692296  -0.058763   0.142150   0.259479
    13  C    6.881515   0.431232   0.217930  -0.069987  -0.411696   0.056742
    14  H    0.431232   0.472795  -0.022234  -0.005217   0.000175  -0.000225
    15  C    0.217930  -0.022234   5.807506   0.439528   0.021460  -0.087653
    16  H   -0.069987  -0.005217   0.439528   0.478912  -0.000281  -0.011039
    17  O   -0.411696   0.000175   0.021460  -0.000281  10.200134  -0.003188
    18  Cl   0.056742  -0.000225  -0.087653  -0.011039  -0.003188  17.068293
    19  C   -0.164582   0.003047  -0.135474   0.002701  -0.033433  -0.000599
    20  C   -0.285202  -0.005005  -0.094708  -0.002892  -0.512458  -0.001535
    21  H   -0.006909   0.000669   0.001421   0.000030   0.008966  -0.000024
    22  C    0.014077  -0.002265   0.002521   0.000206   0.231959  -0.000056
    23  H   -0.000758   0.000010  -0.000433   0.000000   0.010197  -0.000001
    24  H   -0.004091   0.000004  -0.000674   0.000000   0.004330  -0.000001
    25  H    0.000705   0.000062   0.001789   0.000000  -0.019603   0.000000
    26  C    0.203449   0.006362   0.050525  -0.000631   0.022478  -0.000036
    27  H   -0.010320  -0.000164   0.004545   0.000021   0.003545   0.000089
    28  H   -0.002523   0.000012  -0.000448   0.000000  -0.000704  -0.000004
    29  H    0.001824   0.000017  -0.000575   0.000000   0.009083   0.000005
    30  C   -0.126722  -0.032398  -0.088059  -0.001137   0.022360   0.002328
    31  H   -0.003605  -0.001782   0.012337   0.000512   0.004104  -0.000160
    32  H   -0.053928   0.002494  -0.003647   0.000197   0.012419  -0.000666
    33  O   -0.005095   0.000182  -0.000922   0.000000  -0.032330  -0.000015
    34  H    0.008612  -0.000065   0.002634   0.000001   0.010626  -0.000003
    35  H    0.009892  -0.000015   0.000364   0.000000   0.035167   0.000000
    36  O   -0.005487   0.002536  -0.006513   0.000065  -0.017081  -0.000007
    37  H   -0.013292   0.000486  -0.004209   0.000005  -0.008117  -0.000010
    38  H   -0.056888   0.002329  -0.019024  -0.000023  -0.137834  -0.000025
              19         20         21         22         23         24
     1  C    0.023720  -0.147935  -0.000003   0.025964  -0.000247   0.000035
     2  C   -0.070099   0.184088  -0.000445  -0.037245  -0.000242  -0.000149
     3  C    0.027625  -0.030763  -0.000321  -0.013739   0.000673   0.000548
     4  C    0.013009  -0.012354  -0.003767   0.059743  -0.000442  -0.000092
     5  C   -0.050180   0.715788   0.001785  -0.076389  -0.000645  -0.000329
     6  C   -0.001945  -0.044808   0.000483   0.050681   0.001208   0.000289
     7  H   -0.000263  -0.000037   0.000000   0.000035   0.000000   0.000000
     8  H   -0.000339  -0.000008   0.000000  -0.000072   0.000000   0.000000
     9  H    0.000452  -0.005752   0.000024   0.003311   0.000524   0.000066
    10  H   -0.000044   0.000997   0.000000  -0.000241  -0.000001   0.000000
    11  C    0.153046  -0.313774  -0.002488  -0.105195  -0.015250   0.006042
    12  C    0.115270  -0.389521   0.002999   0.081662   0.000783   0.000337
    13  C   -0.164582  -0.285202  -0.006909   0.014077  -0.000758  -0.004091
    14  H    0.003047  -0.005005   0.000669  -0.002265   0.000010   0.000004
    15  C   -0.135474  -0.094708   0.001421   0.002521  -0.000433  -0.000674
    16  H    0.002701  -0.002892   0.000030   0.000206   0.000000   0.000000
    17  O   -0.033433  -0.512458   0.008966   0.231959   0.010197   0.004330
    18  Cl  -0.000599  -0.001535  -0.000024  -0.000056  -0.000001  -0.000001
    19  C    6.559253   0.231953  -0.048857  -0.201634  -0.096350  -0.019493
    20  C    0.231953   7.148580   0.412891  -0.615726  -0.031506  -0.025360
    21  H   -0.048857   0.412891   0.468799   0.003864   0.000197   0.000683
    22  C   -0.201634  -0.615726   0.003864   5.915182   0.467459   0.406629
    23  H   -0.096350  -0.031506   0.000197   0.467459   0.468026  -0.019923
    24  H   -0.019493  -0.025360   0.000683   0.406629  -0.019923   0.501724
    25  H   -0.081616   0.059628   0.002265   0.430812  -0.019635  -0.012742
    26  C   -0.006735  -0.497287   0.004328  -0.009744   0.034537  -0.018780
    27  H   -0.017889   0.033089  -0.000056  -0.032122   0.000155  -0.000118
    28  H   -0.052722  -0.000031  -0.000270  -0.013995   0.000316   0.000612
    29  H   -0.089461  -0.036587   0.000091   0.042543   0.002929  -0.000242
    30  C   -0.243716   0.318836  -0.026273  -0.097584   0.000463   0.004816
    31  H   -0.006260  -0.066842  -0.001761  -0.000532  -0.000017   0.000028
    32  H   -0.009359  -0.055836   0.002524  -0.007050   0.000050   0.000013
    33  O   -0.017091  -0.028500   0.000182   0.025348   0.013553   0.001498
    34  H    0.003355   0.008287  -0.000012  -0.015930  -0.004702  -0.000057
    35  H   -0.011746  -0.012823   0.000008   0.020927  -0.002199  -0.000059
    36  O    0.015079  -0.000145   0.001864  -0.039976  -0.002446   0.000611
    37  H   -0.005252  -0.009130   0.000202   0.012734   0.000284   0.000018
    38  H   -0.022687   0.082481   0.001021  -0.025521   0.001584   0.000030
              25         26         27         28         29         30
     1  C   -0.000128   0.085791  -0.003376  -0.000014  -0.000678  -0.041152
     2  C    0.000224  -0.061029   0.008326  -0.000379  -0.002223   0.013179
     3  C   -0.001024   0.044688   0.011712  -0.000200   0.004360   0.069034
     4  C   -0.003297   0.066118  -0.015770  -0.000960   0.009677   0.069016
     5  C    0.005025  -0.459274  -0.006424   0.009433  -0.024731   0.124883
     6  C    0.000065  -0.045062  -0.004415   0.001602  -0.001467   0.015995
     7  H    0.000000   0.000326   0.000002   0.000000   0.000002   0.000061
     8  H    0.000000  -0.000318  -0.000008   0.000000  -0.000001   0.000838
     9  H   -0.000017  -0.003678   0.000205   0.000008  -0.001900   0.003064
    10  H    0.000000  -0.000664   0.000061  -0.000002   0.000000  -0.000125
    11  C   -0.000452   0.139614  -0.001722   0.000744  -0.015581  -0.054355
    12  C   -0.000819   0.098126  -0.007526  -0.000463   0.002111  -0.084295
    13  C    0.000705   0.203449  -0.010320  -0.002523   0.001824  -0.126722
    14  H    0.000062   0.006362  -0.000164   0.000012   0.000017  -0.032398
    15  C    0.001789   0.050525   0.004545  -0.000448  -0.000575  -0.088059
    16  H    0.000000  -0.000631   0.000021   0.000000   0.000000  -0.001137
    17  O   -0.019603   0.022478   0.003545  -0.000704   0.009083   0.022360
    18  Cl   0.000000  -0.000036   0.000089  -0.000004   0.000005   0.002328
    19  C   -0.081616  -0.006735  -0.017889  -0.052722  -0.089461  -0.243716
    20  C    0.059628  -0.497287   0.033089  -0.000031  -0.036587   0.318836
    21  H    0.002265   0.004328  -0.000056  -0.000270   0.000091  -0.026273
    22  C    0.430812  -0.009744  -0.032122  -0.013995   0.042543  -0.097584
    23  H   -0.019635   0.034537   0.000155   0.000316   0.002929   0.000463
    24  H   -0.012742  -0.018780  -0.000118   0.000612  -0.000242   0.004816
    25  H    0.492472  -0.013413  -0.000310  -0.000309  -0.000139  -0.009837
    26  C   -0.013413   5.798781   0.352214   0.404629   0.493548  -0.157005
    27  H   -0.000310   0.352214   0.518814  -0.014991  -0.018211   0.038107
    28  H   -0.000309   0.404629  -0.014991   0.490795  -0.019047   0.014230
    29  H   -0.000139   0.493548  -0.018211  -0.019047   0.478650  -0.019861
    30  C   -0.009837  -0.157005   0.038107   0.014230  -0.019861   5.673202
    31  H   -0.000043   0.008900   0.000395  -0.000011  -0.000018   0.439951
    32  H    0.000043   0.000840  -0.002897   0.000226   0.000473   0.445322
    33  O   -0.003441   0.005662   0.000122  -0.000053   0.000559   0.000468
    34  H    0.000327  -0.001692   0.000292  -0.000026  -0.000928   0.001325
    35  H   -0.000233   0.001074  -0.000002  -0.000001  -0.000010  -0.001208
    36  O   -0.005755   0.005042   0.000018   0.000038  -0.000089   0.005600
    37  H   -0.000037   0.000408   0.000003   0.000000   0.000003   0.000246
    38  H    0.004102   0.008485  -0.000126  -0.000008   0.000288   0.009021
              31         32         33         34         35         36
     1  C    0.000508  -0.003447  -0.003974   0.000136   0.000840  -0.002160
     2  C   -0.000107  -0.007502   0.001016   0.001814  -0.000492   0.002368
     3  C   -0.000831   0.009288  -0.002099  -0.007188  -0.000638   0.006213
     4  C   -0.005910   0.020707  -0.032210   0.004505   0.014471   0.000451
     5  C   -0.003271   0.004922   0.030998   0.008327  -0.011794   0.006853
     6  C    0.000391   0.004230  -0.001746   0.003837   0.000764  -0.007354
     7  H    0.000000   0.000002   0.000002   0.000000   0.000000   0.000000
     8  H    0.000000   0.000000  -0.000001   0.000000   0.000000   0.000001
     9  H    0.000001   0.000135   0.002893  -0.003392  -0.000259   0.000184
    10  H    0.000000   0.000001  -0.000010   0.000020   0.000000   0.000002
    11  C   -0.014821  -0.057231   0.008476  -0.006555  -0.016351   0.013635
    12  C    0.002152   0.034122  -0.002373  -0.001282   0.001116  -0.009460
    13  C   -0.003605  -0.053928  -0.005095   0.008612   0.009892  -0.005487
    14  H   -0.001782   0.002494   0.000182  -0.000065  -0.000015   0.002536
    15  C    0.012337  -0.003647  -0.000922   0.002634   0.000364  -0.006513
    16  H    0.000512   0.000197   0.000000   0.000001   0.000000   0.000065
    17  O    0.004104   0.012419  -0.032330   0.010626   0.035167  -0.017081
    18  Cl  -0.000160  -0.000666  -0.000015  -0.000003   0.000000  -0.000007
    19  C   -0.006260  -0.009359  -0.017091   0.003355  -0.011746   0.015079
    20  C   -0.066842  -0.055836  -0.028500   0.008287  -0.012823  -0.000145
    21  H   -0.001761   0.002524   0.000182  -0.000012   0.000008   0.001864
    22  C   -0.000532  -0.007050   0.025348  -0.015930   0.020927  -0.039976
    23  H   -0.000017   0.000050   0.013553  -0.004702  -0.002199  -0.002446
    24  H    0.000028   0.000013   0.001498  -0.000057  -0.000059   0.000611
    25  H   -0.000043   0.000043  -0.003441   0.000327  -0.000233  -0.005755
    26  C    0.008900   0.000840   0.005662  -0.001692   0.001074   0.005042
    27  H    0.000395  -0.002897   0.000122   0.000292  -0.000002   0.000018
    28  H   -0.000011   0.000226  -0.000053  -0.000026  -0.000001   0.000038
    29  H   -0.000018   0.000473   0.000559  -0.000928  -0.000010  -0.000089
    30  C    0.439951   0.445322   0.000468   0.001325  -0.001208   0.005600
    31  H    0.451599  -0.006791   0.000010   0.000003   0.000000   0.000134
    32  H   -0.006791   0.454516   0.000059  -0.000033  -0.000001   0.000141
    33  O    0.000010   0.000059   8.059516   0.311937   0.299958  -0.015462
    34  H    0.000003  -0.000033   0.311937   0.362786  -0.026630  -0.006597
    35  H    0.000000  -0.000001   0.299958  -0.026630   0.358863  -0.000541
    36  O    0.000134   0.000141  -0.015462  -0.006597  -0.000541   8.140253
    37  H   -0.000002   0.000004  -0.001457  -0.000246  -0.000932   0.306894
    38  H   -0.000197   0.000258   0.012672  -0.002781  -0.010005   0.281534
              37         38
     1  C    0.000011  -0.004691
     2  C   -0.000366   0.003435
     3  C   -0.000500   0.008593
     4  C   -0.003667  -0.044872
     5  C    0.004118   0.053918
     6  C    0.000746  -0.002426
     7  H    0.000000   0.000000
     8  H    0.000000   0.000000
     9  H    0.000050  -0.000071
    10  H    0.000000   0.000001
    11  C    0.013518   0.034905
    12  C    0.001938  -0.017685
    13  C   -0.013292  -0.056888
    14  H    0.000486   0.002329
    15  C   -0.004209  -0.019024
    16  H    0.000005  -0.000023
    17  O   -0.008117  -0.137834
    18  Cl  -0.000010  -0.000025
    19  C   -0.005252  -0.022687
    20  C   -0.009130   0.082481
    21  H    0.000202   0.001021
    22  C    0.012734  -0.025521
    23  H    0.000284   0.001584
    24  H    0.000018   0.000030
    25  H   -0.000037   0.004102
    26  C    0.000408   0.008485
    27  H    0.000003  -0.000126
    28  H    0.000000  -0.000008
    29  H    0.000003   0.000288
    30  C    0.000246   0.009021
    31  H   -0.000002  -0.000197
    32  H    0.000004   0.000258
    33  O   -0.001457   0.012672
    34  H   -0.000246  -0.002781
    35  H   -0.000932  -0.010005
    36  O    0.306894   0.281534
    37  H    0.357929  -0.006849
    38  H   -0.006849   0.593021
 Mulliken charges:
               1
     1  C   -0.019487
     2  C   -0.194459
     3  C   -0.016478
     4  C   -0.131466
     5  C   -0.093821
     6  C   -0.016378
     7  H    0.163311
     8  H    0.172637
     9  H    0.192441
    10  H    0.162625
    11  C    0.089342
    12  C    0.037638
    13  C   -0.294772
    14  H    0.201102
    15  C    0.014825
    16  H    0.179349
    17  O   -0.861452
    18  Cl  -0.174897
    19  C    0.239315
    20  C    0.029905
    21  H    0.175889
    22  C   -0.500642
    23  H    0.191846
    24  H    0.173799
    25  H    0.175331
    26  C   -0.560578
    27  H    0.164733
    28  H    0.184515
    29  H    0.185588
    30  C   -0.288618
    31  H    0.191934
    32  H    0.215401
    33  O   -0.628332
    34  H    0.349293
    35  H    0.352495
    36  O   -0.670442
    37  H    0.354472
    38  H    0.254033
 Sum of Mulliken charges =   0.00000
 Mulliken charges with hydrogens summed into heavy atoms:
               1
     1  C    0.143824
     2  C   -0.021822
     3  C   -0.016478
     4  C   -0.131466
     5  C    0.098620
     6  C    0.146247
    11  C    0.089342
    12  C    0.037638
    13  C   -0.093670
    15  C    0.194175
    17  O   -0.861452
    18  Cl  -0.174897
    19  C    0.239315
    20  C    0.205794
    22  C    0.040334
    26  C   -0.025741
    30  C    0.118718
    33  O    0.073456
    36  O   -0.061937
 APT charges:
               1
     1  C   -0.008608
     2  C   -0.130527
     3  C    0.004593
     4  C   -0.045143
     5  C   -0.077212
     6  C   -0.023886
     7  H    0.042888
     8  H    0.078622
     9  H    0.072454
    10  H    0.047112
    11  C    0.442596
    12  C    0.324569
    13  C   -0.393156
    14  H    0.062418
    15  C    0.091789
    16  H    0.061160
    17  O   -0.941091
    18  Cl  -0.426131
    19  C    0.787254
    20  C   -0.624734
    21  H    0.057704
    22  C   -0.196455
    23  H    0.071954
    24  H   -0.000231
    25  H    0.028751
    26  C   -0.141443
    27  H    0.031842
    28  H    0.038038
    29  H    0.053246
    30  C    0.613987
    31  H    0.050100
    32  H    0.004707
    33  O   -0.690289
    34  H    0.396689
    35  H    0.321139
    36  O   -0.733339
    37  H    0.279272
    38  H    0.469361
 Sum of APT charges =   0.00000
 APT charges with hydrogens summed into heavy atoms:
               1
     1  C    0.034279
     2  C   -0.051905
     3  C    0.004593
     4  C   -0.045143
     5  C   -0.004759
     6  C    0.023226
    11  C    0.442596
    12  C    0.324569
    13  C   -0.330738
    15  C    0.152949
    17  O   -0.941091
    18  Cl  -0.426131
    19  C    0.787254
    20  C   -0.567030
    22  C   -0.095981
    26  C   -0.018317
    30  C    0.668795
    33  O    0.027539
    36  O    0.015294
 Electronic spatial extent (au):  <R**2>=           5926.5613
 Charge=              0.0000 electrons
 Dipole moment (field-independent basis, Debye):
    X=             -0.7608    Y=             -2.5682    Z=              4.4221  Tot=              5.1701
 Quadrupole moment (field-independent basis, Debye-Ang):
   XX=           -135.8781   YY=           -115.4906   ZZ=           -117.8988
   XY=            -11.9090   XZ=             10.8953   YZ=              7.2262
 Traceless Quadrupole moment (field-independent basis, Debye-Ang):
   XX=            -12.7889   YY=              7.5986   ZZ=              5.1904
   XY=            -11.9090   XZ=             10.8953   YZ=              7.2262
 Octapole moment (field-independent basis, Debye-Ang**2):
  XXX=             -5.4373  YYY=            -17.9077  ZZZ=            -21.8207  XYY=            -29.5080
  XXY=              2.1024  XXZ=             47.9234  XZZ=             23.9204  YZZ=            -21.1450
  YYZ=             14.6841  XYZ=             14.2584
 Hexadecapole moment (field-independent basis, Debye-Ang**3):
 XXXX=          -4925.3670 YYYY=          -1828.1397 ZZZZ=           -937.7923 XXXY=           -114.9548
 XXXZ=            103.2549 YYYX=            -77.8613 YYYZ=             59.3469 ZZZX=            -69.8333
 ZZZY=             65.7959 XXYY=          -1213.3377 XXZZ=           -977.1080 YYZZ=           -543.3783
 XXYZ=             54.0963 YYXZ=             27.9161 ZZXY=            -13.0663
 N-N= 1.612245141970D+03 E-N=-6.204344956573D+03  KE= 1.264437422236D+03
  Exact polarizability: 364.005 -10.821 285.639  35.234   4.623 197.433
 Approx polarizability: 314.983   2.073 277.059  17.108   6.828 203.031
 D2PCM: PCM CHGder 2nd derivatives, FixD1E=F FixD2E=F DoIter=F DoCFld=F I1PDM=0
[...]
 5221,-0.00113262,-0.00038939,0.00000034,0.00005468,0.00007434,-0.00011
 292,0.00022925,0.00005066,-0.00092634,0.00003926,-0.00150074,-0.000269
 32,-0.00032505,0.00047041,-0.00008160,0.00000911,0.00003413,-0.0003745
 0,0.00007812,-0.00039812,-0.00008496,-0.00006061,0.00016637,0.00007304
 ,-0.00014657,-0.00014301,0.00020870,-0.00007023,0.00002413,0.00131922,
 0.00041315,0.00089327,-0.00004689,-0.00000714,-0.00021793,-0.00006207,
 0.00008103,-0.00013884,-0.33080852,-0.12436985,0.16745734,0.35584879,-
 0.00002405,-0.00009170,-0.00005288,-0.00008272,-0.00003292,0.00002505,
 -0.00014334,-0.00044178,-0.00000759,0.00090342,-0.00056615,-0.00034531
 ,0.00103096,0.00061618,0.00026204,-0.00011818,-0.00035396,-0.00001541,
 -0.00003283,-0.00002554,-0.00000214,0.00002684,-0.00002102,-0.00000585
 ,0.00068633,-0.00004289,-0.00070066,0.00007339,-0.00007955,-0.00002967
 ,-0.00814117,-0.00025872,-0.00066588,-0.00008366,0.00018821,0.00004013
 ,0.00116821,0.00168703,-0.00065009,0.00001695,-0.00010686,0.00005301,-
 0.00017259,0.00002601,0.00023923,0.00011404,0.00004189,-0.00001060,0.0
 0572209,-0.00244361,-0.00062424,0.00027851,0.00002208,-0.00004581,0.00
 095132,0.00021852,0.00204807,-0.00011258,-0.00050542,-0.00028141,-0.00
 000163,-0.00001501,0.00005511,-0.00019465,-0.00039058,-0.00025198,0.00
 030164,0.00055733,0.00024699,-0.00012159,0.00008725,-0.00009897,0.0000
 7622,-0.00012759,0.00007522,-0.00011008,0.00020156,-0.00047315,-0.0000
 0090,-0.00004470,0.00007091,0.00006677,-0.00017085,-0.00009221,0.00004
 201,-0.00004377,-0.00007024,0.00065848,0.00046438,0.00053045,-0.000022
 29,0.00000526,-0.00020588,-0.00001871,0.00005282,-0.00007227,-0.172425
 05,-0.11984932,0.08392617,0.13482800,0.11402982,-0.00005585,0.00010683
 ,0.00003167,-0.00007425,0.00001947,-0.00000551,-0.00008367,-0.00000039
 ,0.00001093,-0.00052236,0.00008152,0.00017458,0.00045317,0.00036981,-0
 .00012007,-0.00031711,-0.00007529,-0.00005655,-0.00005013,0.00000613,0
 .00002243,-0.00002562,0.00000605,0.00001143,0.00076116,-0.00073192,0.0
 0007500,0.00000439,0.00003917,0.00004767,0.00339288,-0.00150240,-0.000
 33297,0.00010682,0.00010682,0.00003843,-0.00130837,-0.00049086,0.00019
 444,0.00001470,0.00000329,0.00005337,0.00015408,-0.00022497,-0.0001447
 3,-0.00011531,-0.00004745,0.00001433,-0.00248048,0.00026005,-0.0030280
 4,-0.00026159,-0.00007325,0.00001753,0.00018841,0.00133855,-0.00115682
 ,-0.00061052,-0.00036319,0.00000522,0.00000908,-0.00003235,-0.00000803
 ,0.00021917,0.00059764,-0.00015815,-0.00150824,0.00008957,-0.00090602,
 0.00003562,-0.00027884,0.00020777,0.00001380,-0.00024365,0.00015497,0.
 00017982,0.00024747,0.00001902,-0.00002250,-0.00006489,0.00000162,-0.0
 0003973,-0.00011831,0.00011377,-0.00001784,-0.00030655,-0.00029724,0.0
 0026083,-0.00013528,-0.00001320,-0.00000674,-0.00001533,0.00005110,0.0
 0000810,0.00001640,-0.00002392,0.16174623,0.05690477,-0.09405757,-0.17
 740068,-0.06377563,0.10492706,-0.00004017,-0.00003531,-0.00001332,-0.0
 0000158,0.00003714,0.00000198,-0.00002635,-0.00013523,-0.00000696,0.00
 028107,-0.00017610,-0.00002833,0.00009621,0.00013158,0.00004823,0.0000
 4511,-0.00003287,-0.00002543,0.00000595,-0.00000872,0.00000308,0.00000
 792,-0.00000333,0.00000426,0.00000423,-0.00002778,-0.00005815,-0.00000
 150,-0.00000670,0.00000583,-0.00156246,-0.00050477,-0.00015034,-0.0000
 6862,0.00005662,0.00002533,0.00006222,0.00045049,-0.00023967,0.0000001
 4,-0.00005357,0.00004642,0.00000897,-0.00001919,0.00002550,0.00001536,
 0.00000714,0.00000201,0.00186861,0.00027715,-0.00096202,0.00007501,0.0
 0001833,-0.00001091,0.00043402,0.00011868,0.00054146,-0.00023123,-0.00
 021892,-0.00009414,0.00001917,0.00000086,0.00004082,-0.00039557,-0.000
 03561,-0.00023195,0.00037424,-0.00013312,-0.00006906,-0.00003394,0.000
 03511,-0.00003623,0.00008280,0.00014472,-0.00000947,-0.00010427,-0.000
 00862,-0.00013854,-0.00001184,0.00000920,0.00002663,0.00001902,-0.0000
 3029,-0.00004528,0.00001162,-0.00001773,0.00004367,0.00027049,0.000090
 40,0.00019325,-0.00000905,-0.00000116,-0.00004598,-0.00001095,0.000013
 62,-0.00002420,-0.13600017,0.15089132,0.09098573,-0.02205631,0.0354702
 5,0.01818725,0.15992131,0.00002929,0.00000989,0.00000002,-0.00001058,-
 0.00004020,-0.00001186,0.00000943,0.00001902,0.00001267,0.00010061,0.0
 0001131,0.00005783,0.00016408,0.00006511,0.00004475,-0.00007479,-0.000
 04809,0.00000100,-0.00000600,-0.00000326,-0.00000153,0.00000287,-0.000
 00197,-0.00000043,0.00013365,-0.00009267,-0.00012108,0.00000772,-0.000
 01143,-0.00000612,-0.00017840,-0.00029652,-0.00004752,0.00000537,-0.00
 003775,-0.00000783,-0.00012381,0.00011935,-0.00001277,-0.00007007,-0.0
 0008840,0.00002685,-0.00006416,-0.00009234,-0.00004552,-0.00001405,0.0
 0000004,0.00000411,0.00033390,-0.00156482,-0.00025604,0.00004370,-0.00
 000446,-0.00000356,0.00007612,0.00003602,0.00007814,-0.00009417,0.0000
 5002,-0.00003520,0.00003071,-0.00005973,0.00005070,-0.00018561,0.00006
 176,0.00014973,-0.00003281,0.00038207,-0.00019707,0.00005690,-0.000056
 22,-0.00010205,0.00013804,-0.00023528,0.00016681,0.00006060,0.00003174
 ,-0.00004703,0.00000702,-0.00002299,-0.00000108,0.00000305,-0.00001721
 ,-0.00000034,0.00001626,-0.00003073,-0.00004952,-0.00001485,-0.0000385
 1,-0.00005580,-0.00000742,-0.00000225,0.00001470,0.00001742,-0.0000014
 1,0.00000256,0.19891504,-0.35109815,-0.15336912,-0.01197889,0.00991351
 ,0.00756713,-0.18655687,0.34029258,-0.00002441,-0.00001444,-0.00001413
 ,-0.00002365,0.00004668,0.00001044,-0.00004670,-0.00008571,-0.00003592
 ,-0.00008903,-0.00005483,0.00002320,-0.00003421,0.00000813,0.00001349,
 0.00002413,0.00002254,0.00000345,-0.00000732,0.00000648,0.00000831,-0.
 00000660,0.00000020,0.00000495,-0.00001731,0.00000134,-0.00002152,0.00
 000458,0.00000526,0.00000476,0.00032364,0.00000714,0.00002695,0.000024
 34,0.00011281,0.00003735,-0.00026360,0.00005696,-0.00019322,0.00000433
 ,-0.00001917,0.00006032,0.00015435,0.00002287,-0.00005720,-0.00002271,
 -0.00001791,0.00000878,-0.00079838,-0.00019917,0.00000721,-0.00012900,
 -0.00003729,0.00001101,0.00108685,0.00050402,-0.00006315,-0.00077419,-
 0.00046254,-0.00000023,0.00002770,0.00001960,0.00002506,-0.00030071,0.
 00043856,0.00024745,0.00000713,-0.00050305,-0.00147428,-0.00013376,-0.
 00021926,0.00039107,-0.00007533,0.00029493,-0.00011063,-0.00014774,-0.
 00003288,0.00000276,-0.00004173,0.00002271,0.00002699,0.00001189,-0.00
 001971,-0.00001882,0.00002659,-0.00005741,0.00001954,0.00044282,-0.000
 06491,0.00015359,-0.00002045,-0.00001254,0.00001120,-0.00002130,0.0000
 1992,-0.00004402,0.09671671,-0.12620845,-0.07576621,0.01233173,-0.0190
 4964,-0.00676995,-0.10848429,0.14518080,0.08608687,0.00007384,0.000179
 73,0.00000151,-0.00004720,-0.00013067,0.00003341,0.00004326,0.00067005
 ,0.00001048,-0.00164352,0.00047854,-0.00016210,-0.00020284,-0.00037641
 ,0.00000187,-0.00026218,0.00009710,0.00005178,-0.00003085,0.00002691,0
 .00000961,-0.00004471,0.00002726,0.00000151,0.00002697,-0.00020931,-0.
 00001205,-0.00001738,0.00005630,0.00002504,0.00785311,0.00396730,0.000
 72827,0.00023900,-0.00018574,-0.00011612,0.00027258,-0.00219418,0.0008
 0900,-0.00060052,0.00053452,0.00018483,-0.00000059,0.00018578,0.000089
 00,-0.00006152,-0.00003673,0.00000036,-0.01271044,0.00596195,0.0111519
 7,-0.00032381,-0.00006835,0.00002907,-0.00189225,-0.00061503,-0.001608
 92,0.00068610,0.00090325,0.00042441,-0.00015560,0.00001310,-0.00004147
 ,0.00013221,0.00038115,0.00043808,-0.00002523,0.00011659,0.00013516,0.
 00027144,-0.00009934,-0.00022372,0.00004955,-0.00027829,-0.00054128,0.
 00036156,0.00001056,0.00053530,0.00005454,0.00001701,-0.00014336,-0.00
 008418,0.00014019,0.00017721,-0.00010984,0.00001834,-0.00005209,-0.000
 93763,-0.00034488,-0.00074855,0.00002978,0.00001478,0.00014208,0.00006
 388,-0.00004703,0.00010079,0.00196934,-0.00111975,-0.00043945,-0.00120
 589,-0.00097013,0.00027811,-0.00161954,0.00276963,0.00024036,0.4134884
 5,-0.00015821,-0.00013185,0.00000951,0.00006398,0.00021603,-0.00000915
 ,-0.00004224,-0.00057562,0.00002811,0.00137441,-0.00027390,-0.00013178
 ,-0.00020449,0.00028426,0.00005216,0.00029059,-0.00000020,-0.00007469,
 0.00002134,-0.00001033,0.00000295,0.00002600,-0.00001955,0.00000493,-0
 .00008177,0.00012433,0.00010649,-0.00001410,0.00000530,0.00000439,-0.0
 0517262,-0.00335724,-0.00101770,-0.00013264,0.00023787,0.00004264,0.00
 063417,0.00053840,-0.00056272,0.00044316,0.00035287,-0.00003685,0.0000
 4280,0.00029322,0.00029159,0.00012148,0.00002508,-0.00001810,0.0113299
 1,0.00131779,-0.00679250,0.00008358,0.00007765,-0.00001577,-0.00001716
 ,-0.00054120,0.00101952,0.00059192,-0.00033381,-0.00021850,-0.00021668
 ,0.00019190,-0.00019594,-0.00012675,-0.00035179,-0.00058781,0.00008088
 ,0.00017582,0.00051123,0.00002154,0.00005435,-0.00014538,0.00002247,-0
 .00042925,-0.00029536,-0.00005890,0.00005389,-0.00025641,0.00000655,-0
 .00002532,0.00003576,0.00001544,-0.00003224,-0.00007378,0.00000158,0.0
 0008417,0.00008018,0.00016711,0.00043348,0.00045818,0.00005700,0.00000
 869,-0.00018187,-0.00006381,0.00003404,-0.00002753,-0.00062990,-0.0079
 7101,-0.00254926,-0.00211347,0.00110750,0.00200461,0.00422194,0.004635
 28,0.00041218,-0.09358354,0.09055574,0.00003039,-0.00006922,-0.0000017
 4,0.00011622,-0.00001308,-0.00001094,0.00012948,-0.00032358,0.00000768
 ,0.00161392,0.00004396,-0.00006316,0.00013956,0.00017074,0.00003530,0.
 00010976,-0.00007888,-0.00000417,0.00003182,-0.00002599,-0.00001778,0.
 00004784,-0.00002674,-0.00001684,-0.00007039,0.00019817,-0.00002824,0.
 00000850,-0.00004921,-0.00003713,-0.00513134,-0.00386592,-0.00094564,-
 0.00015597,-0.00014392,-0.00003450,0.00044204,0.00102206,0.00002562,0.
 00010100,-0.00006261,-0.00026820,-0.00030204,-0.00006125,0.00009032,0.
 00009706,0.00006458,-0.00003566,0.01451123,-0.00529073,-0.00581342,0.0
 0040997,0.00011070,-0.00002538,-0.00003346,-0.00060175,0.00172454,0.00
 060086,0.00064627,-0.00036161,0.00015023,-0.00035104,0.00001621,-0.000
 63729,0.00030281,-0.00071085,0.00010470,0.00033224,0.00022527,0.000151
 28,-0.00022904,-0.00046423,0.00026653,-0.00084248,-0.00139984,0.000103
 57,0.00003282,-0.00019041,0.00003423,-0.00005479,0.00002741,0.00001187
 ,-0.00004228,-0.00006279,0.00002689,0.00002585,0.00005503,-0.00049282,
 0.00010429,-0.00014307,-0.00000233,0.00001618,-0.00008833,0.00007446,-
 0.00002110,0.00007217,0.00021730,-0.00122390,0.00269510,0.00011028,0.0
 0115607,-0.00116684,-0.00050966,-0.00026506,-0.00378641,0.00645705,0.1
 8562615,0.60749372,0.00001504,-0.00000126,0.00000042,-0.00002125,-0.00
 002709,-0.00001063,-0.00000117,0.00007061,0.00000770,-0.00021722,-0.00
 003269,0.00004774,0.00003928,-0.00002066,-0.00001273,-0.00001681,0.000
 00198,-0.00000529,0.00000434,-0.00000467,-0.00000052,-0.00000128,0.000
 00362,0.00000306,0.00000514,-0.00000263,0.00001014,0.00000043,-0.00000
 693,0.00000104,0.00012294,0.00049048,0.00018649,-0.00004865,-0.0000445
 2,0.00001777,-0.00016942,0.00016861,-0.00012355,0.00005428,-0.00019943
 ,0.00016673,-0.00005380,-0.00008946,-0.00010724,-0.00001613,-0.0000086
 0,0.00002035,-0.00194884,0.00063014,0.00038893,0.00005309,0.00000274,-
 0.00000418,-0.00004761,0.00005512,-0.00016097,-0.00012426,-0.00012772,
 -0.00004995,-0.00000264,0.00001225,0.00000565,-0.00006545,0.00015820,-
 0.00009024,-0.00003750,0.00003364,0.00002069,0.00003414,-0.00004122,-0
 .00005864,0.00005202,-0.00014479,0.00019473,0.00003367,0.00000350,-0.0
 0003258,0.00000836,-0.00001485,0.00000383,0.00000714,-0.00000516,-0.00
 000623,0.00000533,-0.00000433,-0.00000087,0.00017883,-0.00000928,0.000
 09467,0.00000675,-0.00000528,0.00000463,-0.00001638,0.00001221,-0.0000
 2821,-0.00007813,-0.00004233,0.00029321,0.00010005,-0.00000770,0.00001
 146,-0.00012524,-0.00012628,-0.00077210,-0.12171464,-0.03701685,-0.205
 20335,0.11104771,0.00002851,0.00001362,-0.00000116,-0.00000412,-0.0000
 3492,0.00000428,0.00002794,0.00005709,0.00000056,-0.00007868,0.0000635
 1,0.00001272,0.00005245,-0.00002712,0.00000875,-0.00004103,-0.00002668
 ,0.00001567,-0.00000366,0.00000082,-0.00000318,-0.00000145,0.00000231,
 -0.00000266,-0.00000531,-0.00001528,-0.00004017,0.00000424,-0.00000600
 ,-0.00000885,0.00097221,0.00016210,-0.00018038,0.00002030,-0.00002996,
 -0.00000745,-0.00012459,-0.00001133,0.00004840,-0.00006664,-0.00000756
 ,0.00009026,0.00001464,-0.00004324,-0.00005830,-0.00003811,-0.00000634
 ,0.00001219,-0.00001657,-0.00028680,0.00054981,-0.00000585,-0.00001982
 ,0.00000223,-0.00000652,0.00009451,-0.00010340,-0.00008578,-0.00007223
 ,0.00007558,0.00005039,0.00005059,-0.00001400,0.00002117,-0.00007185,0
 .00009262,-0.00001289,0.00011094,0.00002201,-0.00000371,0.00004987,-0.
 00000180,-0.00009950,-0.00009045,-0.00016010,-0.00000562,-0.00000996,0
 .00004048,-0.00000365,0.00000864,-0.00000076,-0.00000225,0.00000718,0.
 00000856,-0.00000152,-0.00000801,-0.00001028,0.00004476,-0.00001666,-0
 .00002991,-0.00001548,-0.00000414,0.00004407,-0.00001018,-0.00000987,-
 0.00001043,0.00051195,-0.00021933,0.00128286,0.00004066,0.00010733,-0.
 00064591,-0.00098974,-0.00031931,-0.00183923,-0.02123267,-0.02310229,-
 0.08555976,0.02959822,0.02650161,-0.00001617,0.00001627,0.00000260,0.0
 0000272,0.00002473,0.00000136,-0.00001432,-0.00001368,0.00000027,-0.00
 003887,0.00009873,-0.00004651,-0.00004355,-0.00000029,0.00000419,-0.00
 001768,0.00001940,0.00000066,-0.00000773,0.00000717,0.00000461,-0.0000
 0670,-0.00000016,0.00000421,0.00001669,-0.00003001,-0.00000233,-0.0000
 0021,0.00001136,0.00000699,0.00092827,-0.00007849,-0.00013944,0.000032
 41,0.00005104,-0.00001153,0.00006182,-0.00042801,0.00007699,0.00017009
 ,0.00023046,-0.00012745,0.00006182,0.00012520,0.00007557,-0.00000036,-
 0.00001329,0.00000525,-0.00026672,0.00024785,0.00098835,-0.00011421,-0
 .00001650,0.00000364,-0.00022918,-0.00011078,-0.00016210,0.00010301,0.
 00010065,0.00005959,-0.00003988,-0.00000447,-0.00004865,-0.00014558,0.
 00023296,0.00008938,-0.00000232,-0.00000682,-0.00003403,0.00007882,-0.
 00005919,-0.00002894,0.00009501,-0.00016710,-0.00017628,0.00004514,0.0
 0001822,0.00008534,0.00000225,0.00000040,-0.00001753,-0.00001483,0.000
 02162,0.00002545,-0.00001332,0.00000677,-0.00000964,-0.00013451,-0.000
 03092,-0.00008074,0.00001366,0.00000319,0.00000619,0.00000537,-0.00000
 111,0.00001695,-0.00000688,0.00092355,0.00008153,0.00006487,-0.0002732
 8,-0.00016031,-0.00022109,-0.00098407,0.00013153,-0.15634796,-0.097456
 08,-0.43209452,0.17350030,0.10102773,0.45572415,-0.00011821,-0.0002549
 5,-0.00001307,0.00007492,0.00018855,0.00000713,-0.00007710,-0.00093374
 ,-0.00005085,0.00245079,-0.00093288,-0.00009899,0.00027780,0.00052015,
 0.00000938,0.00041282,-0.00015747,-0.00005626,0.00003971,-0.00003327,-
 0.00001360,0.00006350,-0.00003776,-0.00000471,-0.00003401,0.00032713,-
 0.00000691,0.00002277,-0.00007268,-0.00004311,-0.01471182,-0.00439803,
 0.00060248,-0.00021655,0.00025635,0.00012580,0.00005462,0.00303750,-0.
 00108987,-0.00009318,-0.00075634,0.00018882,-0.00005675,-0.00001875,-0
 .00011078,0.00015209,0.00006767,-0.00000828,0.00863914,-0.00302743,-0.
 00683487,0.00042150,0.00009681,-0.00002486,0.00320969,0.00073729,0.002
 42067,-0.00081222,-0.00155506,-0.00052418,0.00000868,0.00020664,0.0000
 0346,0.00015152,-0.00089172,-0.00053831,-0.00007559,-0.00031179,-0.000
 24068,-0.00051205,0.00022659,0.00058698,-0.00084247,0.00067330,-0.0005
 2791,-0.00058989,0.00003264,-0.00086273,-0.00009026,-0.00001119,0.0002
 1362,0.00012769,-0.00022519,-0.00027767,0.00014937,-0.00000860,0.00007
 953,0.00137558,0.00061111,0.00114246,-0.00002954,-0.00001413,-0.000268
 97,-0.00012074,0.00009370,-0.00017501,-0.00113896,0.00197759,0.0006741
 2,0.00259040,0.00036845,-0.00112412,-0.00130467,-0.00338265,0.00080739
 ,-0.28192524,0.12001526,0.18644062,0.01293788,-0.00853192,-0.01750019,
 0.26958879,0.00023060,0.00022986,-0.00000302,-0.00006483,-0.00029385,-
 0.00000753,0.00008156,0.00089635,-0.00005251,-0.00228766,0.00056101,0.
 00027829,0.00008694,-0.00052486,-0.00014059,-0.00041589,0.00009819,0.0
 0010228,-0.00002466,0.00001916,0.00000149,-0.00004135,0.00002738,-0.00
 000604,0.00006969,-0.00015579,-0.00001974,-0.00000275,0.00002082,0.000
 01764,0.00778904,0.00552780,0.00168265,0.00018178,-0.00040373,-0.00006
 169,-0.00120632,-0.00110439,0.00126787,-0.00058934,-0.00071469,-0.0000
 2652,-0.00002498,-0.00040282,-0.00035479,-0.00012420,-0.00003600,0.000
 01291,-0.00878926,-0.00797040,0.00212794,-0.00016345,-0.00008927,0.000
 02158,-0.00075843,0.00045710,-0.00166444,-0.00025192,0.00078840,0.0004
 8514,0.00028506,-0.00033748,0.00016266,-0.00015508,0.00062852,0.000190
 81,-0.00018015,-0.00034553,-0.00040555,0.00013856,-0.00022296,0.000030
 81,0.00028172,0.00002103,0.00001104,0.00021170,-0.00009025,0.00050702,
 0.00001104,0.00002535,-0.00008188,-0.00005332,0.00009996,0.00014295,-0
 .00004014,-0.00006784,-0.00008486,-0.00071163,-0.00071957,-0.00080616,
 -0.00001629,-0.00001145,0.00024156,0.00009901,-0.00004738,0.00008681,0
 .00112250,0.00157257,-0.00043958,0.00050812,-0.00371476,-0.00063882,-0
 .00297893,-0.00146400,0.00171502,0.10492200,-0.06365208,-0.09065057,0.
 00674241,-0.00279094,-0.00349305,-0.10388116,0.07418654,-0.00001854,0.
 00010918,0.00000720,-0.00016795,-0.00001982,-0.00002162,-0.00019235,0.
 00052542,0.00000294,-0.00237864,-0.00006960,0.00068002,-0.00019322,-0.
 00023736,-0.00009917,-0.00016663,0.00009334,0.00002408,-0.00003962,0.0
 0003084,0.00001797,-0.00006512,0.00003960,0.00001633,0.00005962,-0.000
 26727,0.00002534,-0.00001631,0.00006370,0.00004394,0.00757478,0.005141
 11,0.00090337,0.00018932,0.00012029,0.00007094,-0.00082668,-0.00117152
 ,-0.00007926,0.00007699,0.00002155,0.00024165,0.00032454,-0.00012250,-
 0.00016223,-0.00016357,-0.00008150,0.00002412,-0.00929470,0.00078638,-
 0.00156360,-0.00047488,-0.00013784,0.00002998,-0.00060436,0.00037163,-
 0.00369214,-0.00077907,-0.00031434,-0.00001037,-0.00012838,0.00027095,
 -0.00010095,0.00019151,-0.00017570,-0.00011169,-0.00020196,-0.00026910
 ,-0.00008302,0.00010597,0.00013379,0.00024045,-0.00092105,0.00017073,-
 0.00051356,0.00011636,-0.00007708,0.00035081,0.00000735,0.00002950,-0.
 00007813,-0.00004447,0.00010635,0.00013121,-0.00005862,-0.00002129,-0.
 00006473,0.00062708,-0.00025014,0.00008753,-0.00002975,-0.00001011,0.0
 0014894,-0.00004846,0.00000397,-0.00007117,0.00026855,-0.00127470,-0.0
 0203169,-0.00111330,-0.00092765,0.00223358,0.00122355,0.00226279,0.001
 03941,0.13838083,-0.08004341,-0.16469666,0.03168772,-0.01466106,-0.024
 25480,-0.16290656,0.08985087,0.19131498\\0.00000506,0.00000093,0.00001
 651,0.00000421,0.00000654,0.00001658,0.00000154,0.00000368,0.00000703,
 0.00000447,0.00000401,0.00000599,-0.00000471,0.00000152,0.00001002,0.0
 0000839,-0.00000234,0.00001696,0.00000099,0.00000476,0.00002461,-0.000
 00086,0.00000293,0.00001602,-0.00000074,0.00000136,0.00000873,0.000002
 55,-0.00000033,0.00001865,-0.00000930,0.00000471,0.00000055,0.00000315
 ,0.00000131,0.00000284,-0.00000639,0.00001116,-0.00000174,-0.00000102,
 -0.00000044,-0.00001050,-0.00000887,0.00000555,-0.00000357,-0.00000463
 ,0.00000567,-0.00000476,0.00000200,-0.00000051,-0.00000402,-0.00000483
 ,0.00000468,0.00000664,-0.00000198,-0.00000029,-0.00000297,0.00000056,
 -0.00001128,-0.00000928,-0.00000069,-0.00000461,-0.00001443,0.00000236
 ,-0.00000626,-0.00001327,0.00000325,-0.00000695,-0.00000471,0.00000572
 ,-0.00000985,-0.00000750,-0.00000120,-0.00000138,-0.00001173,0.0000113
 8,-0.00000812,-0.00000634,0.00000255,-0.00000806,0.00000051,0.00000872
 ,-0.00001262,0.00000102,0.00000434,-0.00000906,0.00000235,0.00000239,0
 .00000276,-0.00000878,0.00000018,-0.00000917,-0.00001099,0.00000396,-0
 .00000676,-0.00000415,-0.00000800,0.00000675,0.00000144,-0.00000134,0.
 00000677,0.00000255,-0.00000178,0.00000176,-0.00000674,-0.00000737,0.0
 0000511,-0.00001822,-0.00000684,0.00000989,-0.00000675,-0.00000720,0.0
 0000614,-0.00000855\\\@


 BULLDOZER: SOMEONE WHO SLEEPS THROUGH SPEECHES.
 Job cpu time:       3 days  7 hours 12 minutes 41.2 seconds.
 File lengths (MBytes):  RWF=   3079 Int=      0 D2E=      0 Chk=     44 Scr=      1
 Normal termination of Gaussian 09 at Tue Feb  8 19:12:31 2022.
