 Entering Gaussian System, Link 0=g09
 Input=prod_claisen_ma.com
 Output=prod_claisen_ma.log
 Initial command:
 /apps/applications/gaussian/G09.D01/2/default/g09/l1.exe "/nobackup/pmmass/Temp/Gau-252756.inp" -scrdir="/nobackup/pmmass/Temp/"
 Entering Link 1 = /apps/applications/gaussian/G09.D01/2/default/g09/l1.exe PID=    252757.
  
 Copyright (c) 1988,1990,1992,1993,1995,1998,2003,2009,2013,
            Gaussian, Inc.  All Rights Reserved.
  
 This is part of the Gaussian(R) 09 program.  It is based on
 the Gaussian(R) 03 system (copyright 2003, Gaussian, Inc.),
 the Gaussian(R) 98 system (copyright 1998, Gaussian, Inc.),
 the Gaussian(R) 94 system (copyright 1995, Gaussian, Inc.),
 the Gaussian 92(TM) system (copyright 1992, Gaussian, Inc.),
 the Gaussian 90(TM) system (copyright 1990, Gaussian, Inc.),
 the Gaussian 88(TM) system (copyright 1988, Gaussian, Inc.),
 the Gaussian 86(TM) system (copyright 1986, Carnegie Mellon
 University), and the Gaussian 82(TM) system (copyright 1983,
 Carnegie Mellon University). Gaussian is a federally registered
 trademark of Gaussian, Inc.
  
 This software contains proprietary and confidential information,
 including trade secrets, belonging to Gaussian, Inc.
  
 This software is provided under written license and may be
 used, copied, transmitted, or stored only in accord with that
 written license.
  
 The following legend is applicable only to US Government
 contracts under FAR:
  
                    RESTRICTED RIGHTS LEGEND
  
 Use, reproduction and disclosure by the US Government is
 subject to restrictions as set forth in subparagraphs (a)
 and (c) of the Commercial Computer Software - Restricted
 Rights clause in FAR 52.227-19.
  
 Gaussian, Inc.
 340 Quinnipiac St., Bldg. 40, Wallingford CT 06492
  
  
 ---------------------------------------------------------------
 Warning -- This program may not be used in any manner that
 competes with the business of Gaussian, Inc. or will provide
 assistance to any competitor of Gaussian, Inc.  The licensee
 of this program is prohibited from giving any competitor of
 Gaussian, Inc. access to this program.  By using this program,
 the user acknowledges that Gaussian, Inc. is engaged in the
 business of creating and licensing software in the field of
 computational chemistry and represents and warrants to the
 licensee that it is not a competitor of Gaussian, Inc. and that
 it will not use this program in any manner prohibited above.
 ---------------------------------------------------------------
  

 Cite this work as:
 Gaussian 09, Revision D.01,
 M. J. Frisch, G. W. Trucks, H. B. Schlegel, G. E. Scuseria, 
 M. A. Robb, J. R. Cheeseman, G. Scalmani, V. Barone, B. Mennucci, 
 G. A. Petersson, H. Nakatsuji, M. Caricato, X. Li, H. P. Hratchian, 
 A. F. Izmaylov, J. Bloino, G. Zheng, J. L. Sonnenberg, M. Hada, 
 M. Ehara, K. Toyota, R. Fukuda, J. Hasegawa, M. Ishida, T. Nakajima, 
 Y. Honda, O. Kitao, H. Nakai, T. Vreven, J. A. Montgomery, Jr., 
 J. E. Peralta, F. Ogliaro, M. Bearpark, J. J. Heyd, E. Brothers, 
 K. N. Kudin, V. N. Staroverov, T. Keith, R. Kobayashi, J. Normand, 
 K. Raghavachari, A. Rendell, J. C. Burant, S. S. Iyengar, J. Tomasi, 
 M. Cossi, N. Rega, J. M. Millam, M. Klene, J. E. Knox, J. B. Cross, 
 V. Bakken, C. Adamo, J. Jaramillo, R. Gomperts, R. E. Stratmann, 
 O. Yazyev, A. J. Austin, R. Cammi, C. Pomelli, J. W. Ochterski, 
 R. L. Martin, K. Morokuma, V. G. Zakrzewski, G. A. Voth, 
 P. Salvador, J. J. Dannenberg, S. Dapprich, A. D. Daniels, 
 O. Farkas, J. B. Foresman, J. V. Ortiz, J. Cioslowski, 
 and D. J. Fox, Gaussian, Inc., Wallingford CT, 2013.
 
 ******************************************
 Gaussian 09:  ES64L-G09RevD.01 24-Apr-2013
                 4-Feb-2022 
 ******************************************
 %nprocshared=8
 Will use up to    8 processors via shared memory.
 %mem=4GB
 %NoSave
 %chk="prod_claisen_ma.chk"
 -------------------------------------------
 #n wB97XD/Gen scrf(smd,solvent=toluene) opt
 -------------------------------------------
 1/14=-1,18=20,19=15,26=3,38=1/1,3;
 2/9=110,12=2,17=6,18=5,40=1/2;
 3/5=7,11=2,16=1,25=1,30=1,70=32201,71=1,72=13,74=-58/1,2,3;
 4//1;
 5/5=2,38=5,53=13/2;
 6/7=2,8=2,9=2,10=2,28=1/1;
 7//1,2,3,16;
 1/14=-1,18=20,19=15,26=3/3(2);
 2/9=110/2;
 99//99;
 2/9=110/2;
 3/5=7,6=1,11=2,16=1,25=1,30=1,70=32205,71=1,72=13,74=-58,82=7/1,2,3;
 4/5=5,16=3,69=1/1;
 5/5=2,38=5,53=13/2;
 7//1,2,3,16;
 1/14=-1,18=20,19=15,26=3/3(-5);
 2/9=110/2;
 6/7=2,8=2,9=2,10=2,19=2,28=1/1;
 99/9=1/99;
 ---------------------------------
 clasisen product in toluene - opt
 ---------------------------------
 Symbolic Z-matrix:
 Charge =  0 Multiplicity = 1
 C                     4.36984  -0.34326   0.06239 
 C                     3.40296   0.65682  -0.00373 
 C                     2.04396   0.32646  -0.05933 
 C                     1.6759   -1.03585  -0.04963 
 C                     2.65493  -2.03026   0.01872 
 C                     4.0019   -1.6903    0.0756 
 H                     5.42423  -0.06587   0.10465 
 H                     3.70013   1.70477  -0.01366 
 H                     2.32616  -3.07044   0.02527 
 H                     4.76412  -2.46831   0.1303 
 C                     0.2458   -1.45065  -0.10937 
 C                     0.97893   1.34296  -0.12817 
 C                    -0.82536  -0.3731   -0.15864 
 C                    -0.32131   1.03492  -0.18187 
 H                    -1.06391   1.834    -0.23607 
 O                    -0.07563  -2.61908  -0.10846 
 Cl                    1.46441   3.01907  -0.14056 
 C                    -4.12017  -0.019     0.06165 
 C                    -3.07598   0.25272   0.85891 
 H                    -3.10591   1.17718   1.44483 
 C                    -5.30427   0.90481  -0.02301 
 H                    -6.2294    0.37548   0.25588 
 H                    -5.18873   1.77597   0.63491 
 H                    -5.44409   1.26226  -1.05576 
 C                    -4.2054   -1.24399  -0.80913 
 H                    -3.3373   -1.90851  -0.71487 
 H                    -5.11019  -1.82295  -0.56443 
 H                    -4.29841  -0.95046  -1.86725 
 C                    -1.84238  -0.59949   0.99191 
 H                    -1.33589  -0.38708   1.94535 
 H                    -2.09185  -1.66959   0.99121 
 H                    -1.37498  -0.55496  -1.10091 
 

 GradGradGradGradGradGradGradGradGradGradGradGradGradGradGradGradGradGrad
 Berny optimization.
 Initialization pass.
                           ----------------------------
                           !    Initial Parameters    !
                           ! (Angstroms and Degrees)  !
 --------------------------                            --------------------------
 ! Name  Definition              Value          Derivative Info.                !
 --------------------------------------------------------------------------------
 ! R1    R(1,2)                  1.3926         estimate D2E/DX2                !
 ! R2    R(1,6)                  1.3964         estimate D2E/DX2                !
 ! R3    R(1,7)                  1.0911         estimate D2E/DX2                !
 ! R4    R(2,3)                  1.3997         estimate D2E/DX2                !
 ! R5    R(2,8)                  1.0893         estimate D2E/DX2                !
 ! R6    R(3,4)                  1.4112         estimate D2E/DX2                !
 ! R7    R(3,12)                 1.4739         estimate D2E/DX2                !
 ! R8    R(4,5)                  1.3971         estimate D2E/DX2                !
 ! R9    R(4,11)                 1.4902         estimate D2E/DX2                !
 ! R10   R(5,6)                  1.3904         estimate D2E/DX2                !
 ! R11   R(5,9)                  1.0909         estimate D2E/DX2                !
 ! R12   R(6,10)                 1.0905         estimate D2E/DX2                !
 ! R13   R(11,13)                1.5202         estimate D2E/DX2                !
 ! R14   R(11,16)                1.2118         estimate D2E/DX2                !
 ! R15   R(12,14)                1.3373         estimate D2E/DX2                !
 ! R16   R(12,17)                1.745          estimate D2E/DX2                !
 ! R17   R(13,14)                1.4957         estimate D2E/DX2                !
 ! R18   R(13,29)                1.5522         estimate D2E/DX2                !
 ! R19   R(13,32)                1.1059         estimate D2E/DX2                !
 ! R20   R(14,15)                1.0922         estimate D2E/DX2                !
 ! R21   R(18,19)                1.3416         estimate D2E/DX2                !
 ! R22   R(18,21)                1.5042         estimate D2E/DX2                !
 ! R23   R(18,25)                1.5054         estimate D2E/DX2                !
 ! R24   R(19,20)                1.0949         estimate D2E/DX2                !
 ! R25   R(19,29)                1.5052         estimate D2E/DX2                !
 ! R26   R(21,22)                1.1017         estimate D2E/DX2                !
 ! R27   R(21,23)                1.0978         estimate D2E/DX2                !
 ! R28   R(21,24)                1.1018         estimate D2E/DX2                !
 ! R29   R(25,26)                1.0973         estimate D2E/DX2                !
 ! R30   R(25,27)                1.1017         estimate D2E/DX2                !
 ! R31   R(25,28)                1.102          estimate D2E/DX2                !
 ! R32   R(29,30)                1.1003         estimate D2E/DX2                !
 ! R33   R(29,31)                1.0988         estimate D2E/DX2                !
 ! A1    A(2,1,6)              120.6795         estimate D2E/DX2                !
 ! A2    A(2,1,7)              119.354          estimate D2E/DX2                !
 ! A3    A(6,1,7)              119.9664         estimate D2E/DX2                !
 ! A4    A(1,2,3)              120.4309         estimate D2E/DX2                !
 ! A5    A(1,2,8)              120.1249         estimate D2E/DX2                !
 ! A6    A(3,2,8)              119.4442         estimate D2E/DX2                !
 ! A7    A(2,3,4)              118.7385         estimate D2E/DX2                !
 ! A8    A(2,3,12)             122.7298         estimate D2E/DX2                !
 ! A9    A(4,3,12)             118.5318         estimate D2E/DX2                !
 ! A10   A(3,4,5)              120.3091         estimate D2E/DX2                !
 ! A11   A(3,4,11)             121.2463         estimate D2E/DX2                !
 ! A12   A(5,4,11)             118.4445         estimate D2E/DX2                !
 ! A13   A(4,5,6)              120.4531         estimate D2E/DX2                !
 ! A14   A(4,5,9)              117.8885         estimate D2E/DX2                !
 ! A15   A(6,5,9)              121.6584         estimate D2E/DX2                !
 ! A16   A(1,6,5)              119.3885         estimate D2E/DX2                !
 ! A17   A(1,6,10)             120.2977         estimate D2E/DX2                !
 ! A18   A(5,6,10)             120.3138         estimate D2E/DX2                !
 ! A19   A(4,11,13)            118.6981         estimate D2E/DX2                !
 ! A20   A(4,11,16)            121.5258         estimate D2E/DX2                !
 ! A21   A(13,11,16)           119.7734         estimate D2E/DX2                !
 ! A22   A(3,12,14)            123.0649         estimate D2E/DX2                !
 ! A23   A(3,12,17)            117.499          estimate D2E/DX2                !
 ! A24   A(14,12,17)           119.436          estimate D2E/DX2                !
 ! A25   A(11,13,14)           115.4881         estimate D2E/DX2                !
 ! A26   A(11,13,29)           109.5283         estimate D2E/DX2                !
 ! A27   A(11,13,32)           105.1438         estimate D2E/DX2                !
 ! A28   A(14,13,29)           111.692          estimate D2E/DX2                !
 ! A29   A(14,13,32)           108.0023         estimate D2E/DX2                !
 ! A30   A(29,13,32)           106.3762         estimate D2E/DX2                !
 ! A31   A(12,14,13)           122.9477         estimate D2E/DX2                !
 ! A32   A(12,14,15)           119.6387         estimate D2E/DX2                !
 ! A33   A(13,14,15)           117.4111         estimate D2E/DX2                !
 ! A34   A(19,18,21)           121.45           estimate D2E/DX2                !
 ! A35   A(19,18,25)           123.5487         estimate D2E/DX2                !
 ! A36   A(21,18,25)           115.0011         estimate D2E/DX2                !
 ! A37   A(18,19,20)           117.8884         estimate D2E/DX2                !
 ! A38   A(18,19,29)           125.1501         estimate D2E/DX2                !
 ! A39   A(20,19,29)           116.9458         estimate D2E/DX2                !
 ! A40   A(18,21,22)           110.5904         estimate D2E/DX2                !
 ! A41   A(18,21,23)           111.7638         estimate D2E/DX2                !
 ! A42   A(18,21,24)           110.6037         estimate D2E/DX2                !
 ! A43   A(22,21,23)           108.5381         estimate D2E/DX2                !
 ! A44   A(22,21,24)           106.6539         estimate D2E/DX2                !
 ! A45   A(23,21,24)           108.5222         estimate D2E/DX2                !
 ! A46   A(18,25,26)           113.4733         estimate D2E/DX2                !
 ! A47   A(18,25,27)           110.222          estimate D2E/DX2                !
 ! A48   A(18,25,28)           110.0867         estimate D2E/DX2                !
 ! A49   A(26,25,27)           108.2038         estimate D2E/DX2                !
 ! A50   A(26,25,28)           108.0928         estimate D2E/DX2                !
 ! A51   A(27,25,28)           106.4948         estimate D2E/DX2                !
 ! A52   A(13,29,19)           112.8862         estimate D2E/DX2                !
 ! A53   A(13,29,30)           108.212          estimate D2E/DX2                !
 ! A54   A(13,29,31)           106.8776         estimate D2E/DX2                !
 ! A55   A(19,29,30)           110.1522         estimate D2E/DX2                !
 ! A56   A(19,29,31)           111.4233         estimate D2E/DX2                !
 ! A57   A(30,29,31)           107.0415         estimate D2E/DX2                !
 ! D1    D(6,1,2,3)             -0.058          estimate D2E/DX2                !
 ! D2    D(6,1,2,8)           -179.9909         estimate D2E/DX2                !
 ! D3    D(7,1,2,3)            179.9745         estimate D2E/DX2                !
 ! D4    D(7,1,2,8)              0.0415         estimate D2E/DX2                !
 ! D5    D(2,1,6,5)              0.1541         estimate D2E/DX2                !
 ! D6    D(2,1,6,10)          -179.8295         estimate D2E/DX2                !
 ! D7    D(7,1,6,5)           -179.8785         estimate D2E/DX2                !
 ! D8    D(7,1,6,10)             0.1379         estimate D2E/DX2                !
 ! D9    D(1,2,3,4)             -0.121          estimate D2E/DX2                !
 ! D10   D(1,2,3,12)           179.9002         estimate D2E/DX2                !
 ! D11   D(8,2,3,4)            179.8124         estimate D2E/DX2                !
 ! D12   D(8,2,3,12)            -0.1664         estimate D2E/DX2                !
 ! D13   D(2,3,4,5)              0.2051         estimate D2E/DX2                !
 ! D14   D(2,3,4,11)          -179.886          estimate D2E/DX2                !
 ! D15   D(12,3,4,5)          -179.8151         estimate D2E/DX2                !
 ! D16   D(12,3,4,11)            0.0937         estimate D2E/DX2                !
 ! D17   D(2,3,12,14)          179.9824         estimate D2E/DX2                !
 ! D18   D(2,3,12,17)            0.0512         estimate D2E/DX2                !
 ! D19   D(4,3,12,14)            0.0035         estimate D2E/DX2                !
 ! D20   D(4,3,12,17)         -179.9277         estimate D2E/DX2                !
 ! D21   D(3,4,5,6)             -0.1114         estimate D2E/DX2                !
 ! D22   D(3,4,5,9)            179.9117         estimate D2E/DX2                !
 ! D23   D(11,4,5,6)           179.9772         estimate D2E/DX2                !
 ! D24   D(11,4,5,9)             0.0003         estimate D2E/DX2                !
 ! D25   D(3,4,11,13)           -0.9956         estimate D2E/DX2                !
 ! D26   D(3,4,11,16)          179.6047         estimate D2E/DX2                !
 ! D27   D(5,4,11,13)          178.9149         estimate D2E/DX2                !
 ! D28   D(5,4,11,16)           -0.4848         estimate D2E/DX2                !
 ! D29   D(4,5,6,1)             -0.0689         estimate D2E/DX2                !
 ! D30   D(4,5,6,10)           179.9147         estimate D2E/DX2                !
 ! D31   D(9,5,6,1)            179.9071         estimate D2E/DX2                !
 ! D32   D(9,5,6,10)            -0.1093         estimate D2E/DX2                !
 ! D33   D(4,11,13,14)           1.7035         estimate D2E/DX2                !
 ! D34   D(4,11,13,29)        -125.4204         estimate D2E/DX2                !
 ! D35   D(4,11,13,32)         120.6318         estimate D2E/DX2                !
 ! D36   D(16,11,13,14)       -178.886          estimate D2E/DX2                !
 ! D37   D(16,11,13,29)         53.9901         estimate D2E/DX2                !
 ! D38   D(16,11,13,32)        -59.9577         estimate D2E/DX2                !
 ! D39   D(3,12,14,13)           0.8574         estimate D2E/DX2                !
 ! D40   D(3,12,14,15)        -179.7329         estimate D2E/DX2                !
 ! D41   D(17,12,14,13)       -179.2127         estimate D2E/DX2                !
 ! D42   D(17,12,14,15)          0.1971         estimate D2E/DX2                !
 ! D43   D(11,13,14,12)         -1.6873         estimate D2E/DX2                !
 ! D44   D(11,13,14,15)        178.8907         estimate D2E/DX2                !
 ! D45   D(29,13,14,12)        124.3399         estimate D2E/DX2                !
 ! D46   D(29,13,14,15)        -55.0821         estimate D2E/DX2                !
 ! D47   D(32,13,14,12)       -119.0243         estimate D2E/DX2                !
 ! D48   D(32,13,14,15)         61.5536         estimate D2E/DX2                !
 ! D49   D(11,13,29,19)       -168.769          estimate D2E/DX2                !
 ! D50   D(11,13,29,30)         69.0524         estimate D2E/DX2                !
 ! D51   D(11,13,29,31)        -45.9229         estimate D2E/DX2                !
 ! D52   D(14,13,29,19)         61.9983         estimate D2E/DX2                !
 ! D53   D(14,13,29,30)        -60.1803         estimate D2E/DX2                !
 ! D54   D(14,13,29,31)       -175.1556         estimate D2E/DX2                !
 ! D55   D(32,13,29,19)        -55.6193         estimate D2E/DX2                !
 ! D56   D(32,13,29,30)       -177.7979         estimate D2E/DX2                !
 ! D57   D(32,13,29,31)         67.2268         estimate D2E/DX2                !
 ! D58   D(21,18,19,20)         -0.5005         estimate D2E/DX2                !
 ! D59   D(21,18,19,29)       -179.0082         estimate D2E/DX2                !
 ! D60   D(25,18,19,20)        179.3065         estimate D2E/DX2                !
 ! D61   D(25,18,19,29)          0.7989         estimate D2E/DX2                !
 ! D62   D(19,18,21,22)       -121.4737         estimate D2E/DX2                !
 ! D63   D(19,18,21,23)         -0.4304         estimate D2E/DX2                !
 ! D64   D(19,18,21,24)        120.602          estimate D2E/DX2                !
 ! D65   D(25,18,21,22)         58.7038         estimate D2E/DX2                !
 ! D66   D(25,18,21,23)        179.7471         estimate D2E/DX2                !
 ! D67   D(25,18,21,24)        -59.2206         estimate D2E/DX2                !
 ! D68   D(19,18,25,26)          1.1851         estimate D2E/DX2                !
 ! D69   D(19,18,25,27)        122.7134         estimate D2E/DX2                !
 ! D70   D(19,18,25,28)       -120.1006         estimate D2E/DX2                !
 ! D71   D(21,18,25,26)       -178.9965         estimate D2E/DX2                !
 ! D72   D(21,18,25,27)        -57.4682         estimate D2E/DX2                !
 ! D73   D(21,18,25,28)         59.7178         estimate D2E/DX2                !
 ! D74   D(18,19,29,13)         80.4572         estimate D2E/DX2                !
 ! D75   D(18,19,29,30)       -158.4601         estimate D2E/DX2                !
 ! D76   D(18,19,29,31)        -39.8181         estimate D2E/DX2                !
 ! D77   D(20,19,29,13)        -98.0631         estimate D2E/DX2                !
 ! D78   D(20,19,29,30)         23.0196         estimate D2E/DX2                !
 ! D79   D(20,19,29,31)        141.6616         estimate D2E/DX2                !
 --------------------------------------------------------------------------------
 Trust Radius=3.00D-01 FncErr=1.00D-07 GrdErr=1.00D-06
 Number of steps in this run=    179 maximum allowed number of steps=    192.
 GradGradGradGradGradGradGradGradGradGradGradGradGradGradGradGradGradGrad

                          Input orientation:                          
 ---------------------------------------------------------------------
 Center     Atomic      Atomic             Coordinates (Angstroms)
 Number     Number       Type             X           Y           Z
 ---------------------------------------------------------------------
      1          6           0        4.369840   -0.343260    0.062390
      2          6           0        3.402960    0.656820   -0.003730
      3          6           0        2.043960    0.326460   -0.059330
      4          6           0        1.675900   -1.035850   -0.049630
      5          6           0        2.654930   -2.030260    0.018720
      6          6           0        4.001900   -1.690300    0.075600
      7          1           0        5.424230   -0.065870    0.104650
      8          1           0        3.700130    1.704770   -0.013660
      9          1           0        2.326160   -3.070440    0.025270
     10          1           0        4.764120   -2.468310    0.130300
     11          6           0        0.245800   -1.450650   -0.109370
     12          6           0        0.978930    1.342960   -0.128170
     13          6           0       -0.825360   -0.373100   -0.158640
     14          6           0       -0.321310    1.034920   -0.181870
     15          1           0       -1.063910    1.834000   -0.236070
     16          8           0       -0.075630   -2.619080   -0.108460
     17         17           0        1.464410    3.019070   -0.140560
     18          6           0       -4.120170   -0.019000    0.061650
     19          6           0       -3.075980    0.252720    0.858910
     20          1           0       -3.105910    1.177180    1.444830
     21          6           0       -5.304270    0.904810   -0.023010
     22          1           0       -6.229400    0.375480    0.255880
     23          1           0       -5.188730    1.775970    0.634910
     24          1           0       -5.444090    1.262260   -1.055760
     25          6           0       -4.205400   -1.243990   -0.809130
     26          1           0       -3.337300   -1.908510   -0.714870
     27          1           0       -5.110190   -1.822950   -0.564430
     28          1           0       -4.298410   -0.950460   -1.867250
     29          6           0       -1.842380   -0.599490    0.991910
     30          1           0       -1.335890   -0.387080    1.945350
     31          1           0       -2.091850   -1.669590    0.991210
     32          1           0       -1.374980   -0.554960   -1.100910
 ---------------------------------------------------------------------
                    Distance matrix (angstroms):
                    1          2          3          4          5
     1  C    0.000000
     2  C    1.392619   0.000000
     3  C    2.423439   1.399682   0.000000
     4  C    2.783800   2.418672   1.411188   0.000000
     5  C    2.405991   2.789346   2.435879   1.397148   0.000000
     6  C    1.396449   2.423633   2.814082   2.419559   1.390373
     7  H    1.091086   2.149316   3.406910   3.874873   3.396356
     8  H    2.156090   1.089315   2.155162   3.407316   3.878652
     9  H    3.408154   3.879795   3.409652   2.137289   1.090920
    10  H    2.162384   3.411328   3.904609   3.409020   2.157086
    11  C    4.273584   3.797400   2.528637   1.490240   2.481182
    12  C    3.791823   2.522339   1.473872   2.480055   3.769505
    13  C    5.199985   4.354701   2.955037   2.589869   3.858763
    14  C    4.895501   3.747650   2.472131   2.880004   4.277098
    15  H    5.861329   4.625220   3.458724   3.972072   5.369096
    16  O    4.997074   4.779443   3.629226   2.361765   2.796219
    17  Cl   4.448368   3.058909   2.755472   4.061450   5.190226
    18  C    8.496200   7.553707   6.174988   5.885643   7.067460
    19  C    7.511982   6.548596   5.202152   5.006618   6.225853
    20  H    7.753046   6.688385   5.432070   5.476917   6.746016
    21  C    9.754659   8.710782   7.371044   7.244974   8.483233
    22  H   10.625343   9.639964   8.279508   8.036103   9.207342
    23  H    9.807404   8.687778   7.409106   7.449703   8.740142
    24  H   10.007056   8.929928   7.611799   7.549031   8.808480
    25  C    8.666349   7.883457   6.487142   5.933789   6.954688
    26  H    7.902794   7.246913   5.863683   5.131886   6.038195
    27  H    9.615267   8.884670   7.487119   6.850953   7.789745
    28  H    8.901166   8.084996   6.717496   6.245271   7.285039
    29  C    6.286600   5.484816   4.131117   3.695066   4.818713
    30  H    6.008562   5.229277   3.993904   3.670385   4.726372
    31  H    6.661478   6.049382   4.710921   3.959913   4.858780
    32  H    5.865240   5.049844   3.681160   3.262562   4.435116
                    6          7          8          9         10
     6  C    0.000000
     7  H    2.159315   0.000000
     8  H    3.409624   2.474204   0.000000
     9  H    2.171503   4.316455   4.969098   0.000000
    10  H    1.090537   2.491610   4.308990   2.513412   0.000000
    11  C    3.768280   5.364658   4.679555   2.640028   4.637703
    12  C    4.287253   4.669015   2.747535   4.616998   5.377755
    13  C    5.009224   6.262674   4.981829   4.152294   5.976260
    14  C    5.116958   5.857052   4.080315   4.889375   6.183176
    15  H    6.179018   6.769162   4.770979   5.967781   7.253277
    16  O    4.186020   6.067352   5.741170   2.447489   4.847981
    17  Cl   5.353853   5.025650   2.596523   6.152418   6.408806
    18  C    8.292253   9.544612   8.008380   7.132165   9.215988
    19  C    7.381415   8.539554   6.984661   6.396989   8.330789
    20  H    7.785769   8.723792   6.980525   7.040228   8.772398
    21  C    9.661735  10.773079   9.039870   8.603976  10.619507
    22  H   10.439322  11.662965  10.021738   9.226329  11.356073
    23  H    9.838472  10.784640   8.912774   8.962864  10.831794
    24  H    9.961140  11.010489   9.214041   8.962014  10.933044
    25  C    8.266905   9.744369   8.474985   6.833258   9.101306
    26  H    7.384871   8.990625   7.941845   5.828608   8.164600
    27  H    9.135503  10.700888   9.506308   7.563285   9.919735
    28  H    8.556704   9.959951   8.629176   7.208389   9.403378
    29  C    6.015405   7.340000   6.086066   4.941327   6.919588
    30  H    5.803994   7.013599   5.794399   4.929274   6.695972
    31  H    6.162188   7.736237   6.778134   4.734367   6.955821
    32  H    5.619965   6.922560   5.660851   4.614581   6.547162
                   11         12         13         14         15
    11  C    0.000000
    12  C    2.888268   0.000000
    13  C    1.520173   2.490231   0.000000
    14  C    2.550476   1.337309   1.495703   0.000000
    15  H    3.538406   2.103796   2.221304   1.092209   0.000000
    16  O    1.211836   4.100030   2.368341   3.662986   4.563212
    17  Cl   4.632967   1.745047   4.092700   2.669710   2.793907
    18  C    4.597887   5.281268   3.321097   3.949859   3.586498
    19  C    3.856586   4.313380   2.548009   3.046845   2.783497
    20  H    4.533761   4.380380   3.189889   3.228063   2.725179
    21  C    6.029836   6.299336   4.659623   4.987189   4.346199
    22  H    6.737683   7.283099   5.471366   5.960874   5.389952
    23  H    6.363894   6.229753   4.928207   4.990798   4.216173
    24  H    6.374197   6.490156   4.981154   5.201754   4.492745
    25  C    4.510605   5.833806   3.550529   4.546762   4.435243
    26  H    3.662632   5.435634   2.996117   4.247831   4.404990
    27  H    5.388164   6.876823   4.541641   5.589915   5.463834
    28  H    4.897977   6.011197   3.913409   4.753900   4.569021
    29  C    2.509539   3.603815   1.552207   2.522441   2.834753
    30  H    2.802641   3.556813   2.165089   2.752548   3.125022
    31  H    2.593033   4.445015   2.146401   3.438794   3.852015
    32  H    2.100557   3.176353   1.105906   2.117209   2.559657
                   16         17         18         19         20
    16  O    0.000000
    17  Cl   5.844783   0.000000
    18  C    4.811201   6.360683   0.000000
    19  C    4.264404   5.409877   1.341562   0.000000
    20  H    5.099696   5.176277   2.091114   1.094908   0.000000
    21  C    6.305853   7.092175   1.504222   2.483602   2.657353
    22  H    6.853395   8.144964   2.154574   3.212907   3.436934
    23  H    6.783278   6.812556   2.166187   2.614226   2.313581
    24  H    6.691976   7.186887   2.154761   3.208283   3.424511
    25  C    4.408720   7.125125   1.505365   2.509599   3.485868
    26  H    3.392806   6.904151   2.187720   2.686259   3.773503
    27  H    5.117473   8.176196   2.150895   3.236095   4.129775
    28  H    4.869241   7.207546   2.149428   3.220858   4.113245
    29  C    2.900166   5.031036   2.527979   1.505231   2.226702
    30  H    3.284542   4.877967   3.381719   2.148862   2.414622
    31  H    2.485146   5.992614   2.775358   2.163629   3.055845
    32  H    2.633222   4.664558   3.029004   2.717838   3.532311
                   21         22         23         24         25
    21  C    0.000000
    22  H    1.101742   0.000000
    23  H    1.097783   1.785506   0.000000
    24  H    1.101768   1.767340   1.785349   0.000000
    25  C    2.538275   2.802411   3.488889   2.806505   0.000000
    26  H    3.501773   3.810933   4.338789   3.822114   1.097301
    27  H    2.787737   2.599737   3.794313   3.141881   1.101689
    28  H    2.802678   3.161411   3.806165   2.620540   1.102011
    29  C    3.908665   4.553927   4.119262   4.542178   3.040228
    30  H    4.614267   5.232805   4.608732   5.348298   4.068850
    31  H    4.239790   4.673579   4.646450   4.901361   2.808817
    32  H    4.328062   5.125621   4.794893   4.456678   2.927657
                   26         27         28         29         30
    26  H    0.000000
    27  H    1.781317   0.000000
    28  H    1.780329   1.765663   0.000000
    29  C    2.619431   3.820685   3.785506   0.000000
    30  H    3.660213   4.754583   4.861053   1.100317   0.000000
    31  H    2.125779   3.399105   3.681963   1.098795   1.768245
    32  H    2.414917   3.980880   3.047973   2.144841   3.051133
                   31         32
    31  H    0.000000
    32  H    2.476544   0.000000
 Stoichiometry    C15H15ClO
 Framework group  C1[X(C15H15ClO)]
 Deg. of freedom    90
 Full point group                 C1      NOp   1
 Largest Abelian subgroup         C1      NOp   1
 Largest concise Abelian subgroup C1      NOp   1
                         Standard orientation:                         
 ---------------------------------------------------------------------
 Center     Atomic      Atomic             Coordinates (Angstroms)
 Number     Number       Type             X           Y           Z
 ---------------------------------------------------------------------
      1          6           0        4.369840   -0.343259    0.062390
      2          6           0        3.402960    0.656821   -0.003730
      3          6           0        2.043960    0.326461   -0.059330
      4          6           0        1.675900   -1.035848   -0.049630
      5          6           0        2.654930   -2.030259    0.018720
      6          6           0        4.001900   -1.690299    0.075600
      7          1           0        5.424230   -0.065869    0.104650
      8          1           0        3.700130    1.704771   -0.013660
      9          1           0        2.326160   -3.070439    0.025270
     10          1           0        4.764120   -2.468309    0.130300
     11          6           0        0.245800   -1.450648   -0.109370
     12          6           0        0.978930    1.342962   -0.128170
     13          6           0       -0.825360   -0.373098   -0.158640
     14          6           0       -0.321310    1.034922   -0.181870
     15          1           0       -1.063910    1.834002   -0.236070
     16          8           0       -0.075630   -2.619078   -0.108460
     17         17           0        1.464410    3.019072   -0.140560
     18          6           0       -4.120170   -0.018998    0.061650
     19          6           0       -3.075980    0.252722    0.858910
     20          1           0       -3.105910    1.177182    1.444830
     21          6           0       -5.304270    0.904812   -0.023010
     22          1           0       -6.229400    0.375482    0.255880
     23          1           0       -5.188730    1.775972    0.634910
     24          1           0       -5.444090    1.262262   -1.055760
     25          6           0       -4.205400   -1.243988   -0.809130
     26          1           0       -3.337300   -1.908508   -0.714870
     27          1           0       -5.110190   -1.822948   -0.564430
     28          1           0       -4.298410   -0.950458   -1.867250
     29          6           0       -1.842380   -0.599488    0.991910
     30          1           0       -1.335890   -0.387078    1.945350
     31          1           0       -2.091850   -1.669588    0.991210
     32          1           0       -1.374980   -0.554958   -1.100910
 ---------------------------------------------------------------------
 Rotational constants (GHZ):      0.7100980      0.2503065      0.1913464
 General basis read from cards:  (5D, 7F)
 There are   776 symmetry adapted cartesian basis functions of A   symmetry.
 There are   691 symmetry adapted basis functions of A   symmetry.
   691 basis functions,  1073 primitive gaussians,   776 cartesian basis functions
    65 alpha electrons       65 beta electrons
       nuclear repulsion energy      1235.5459904255 Hartrees.
 NAtoms=   32 NActive=   32 NUniq=   32 SFac= 1.00D+00 NAtFMM=   60 NAOKFM=F Big=F
 Integral buffers will be    131072 words long.
 Raffenetti 2 integral format.
 Two-electron integral symmetry is turned on.
 Nuclear repulsion after empirical dispersion term =     1235.5231331762 Hartrees.
 ------------------------------------------------------------------------------
 Polarizable Continuum Model (PCM)
 =================================
 Model                : PCM (using non-symmetric T matrix).
 Atomic radii         : SMD-Coulomb.
 Polarization charges : Total charges.
 Charge compensation  : None.
 Solution method      : On-the-fly selection.
 Cavity type          : VdW (van der Waals Surface) (Alpha=1.000).
 Cavity algorithm     : GePol (No added spheres)
                        Default sphere list used, NSphG=   32.
                        Lebedev-Laikov grids with approx.  5.0 points / Ang**2.
                        Smoothing algorithm: Karplus/York (Gamma=1.0000).
                        Polarization charges: spherical gaussians, with
                                              point-specific exponents (IZeta= 3).
                        Self-potential: point-specific (ISelfS= 7).
                        Self-field    : sphere-specific E.n sum rule (ISelfD= 2).
 1st derivatives      : Analytical E(r).r(x)/FMM algorithm (CHGder, D1EAlg=3).
                        Cavity 1st derivative terms included.
 Solvent              : Toluene, Eps=   2.374100 Eps(inf)=   2.238315
 ------------------------------------------------------------------------------
 ------------------------------------------------------------------------------
 Atomic radii for non-electrostatic terms: SMD-CDS.
 ------------------------------------------------------------------------------
 Nuclear repulsion after PCM non-electrostatic terms =     1235.5108133269 Hartrees.
 One-electron integrals computed using PRISM.
 NBasis=   691 RedAO= T EigKep=  1.17D-06  NBF=   691
 NBsUse=   686 1.00D-06 EigRej=  9.09D-07 NBFU=   686
 ExpMin= 3.17D-02 ExpMax= 6.95D+04 ExpMxC= 2.37D+03 IAcc=3 IRadAn=         5 AccDes= 0.00D+00
 Harris functional with IExCor= 4639 and IRadAn=       5 diagonalized for initial guess.
 HarFok:  IExCor= 4639 AccDes= 0.00D+00 IRadAn=         5 IDoV= 1 UseB2=F ITyADJ=14
 ICtDFT=  3500011 ScaDFX=  1.000000  1.000000  1.000000  1.000000
 FoFCou: FMM=F IPFlag=           0 FMFlag=      100000 FMFlg1=           0
         NFxFlg=           0 DoJE=T BraDBF=F KetDBF=T FulRan=T
         wScrn=  0.000000 ICntrl=     500 IOpCl=  0 I1Cent=   200000004 NGrid=           0
         NMat0=    1 NMatS0=      1 NMatT0=    0 NMatD0=    1 NMtDS0=    0 NMtDT0=    0
 Petite list used in FoFCou.
 Requested convergence on RMS density matrix=1.00D-08 within 128 cycles.
 Requested convergence on MAX density matrix=1.00D-06.
 Requested convergence on             energy=1.00D-06.
 No special actions if energy rises.
 Inv3:  Mode=1 IEnd=    20046675.
 Iteration    1 A*A^-1 deviation from unit magnitude is 5.00D-15 for   2579.
 Iteration    1 A*A^-1 deviation from orthogonality  is 1.88D-15 for   1971   1848.
 Iteration    1 A^-1*A deviation from unit magnitude is 5.66D-15 for   2579.
 Iteration    1 A^-1*A deviation from orthogonality  is 2.28D-13 for   1317   1275.
 Error on total polarization charges =  0.02806
 SCF Done:  E(RwB97XD) =  -1116.08649705     A.U. after   15 cycles
            NFock= 15  Conv=0.72D-08     -V/T= 2.0039
 SMD-CDS (non-electrostatic) energy       (kcal/mol) =      -7.73
 (included in total energy above)

 **********************************************************************

            Population analysis using the SCF density.

 **********************************************************************

 Orbital symmetries:
       Occupied  (A) (A) (A) (A) (A) (A) (A) (A) (A) (A) (A) (A)
                 (A) (A) (A) (A) (A) (A) (A) (A) (A) (A) (A) (A)
                 (A) (A) (A) (A) (A) (A) (A) (A) (A) (A) (A) (A)
                 (A) (A) (A) (A) (A) (A) (A) (A) (A) (A) (A) (A)
                 (A) (A) (A) (A) (A) (A) (A) (A) (A) (A) (A) (A)
                 (A) (A) (A) (A) (A)
       Virtual   (A) (A) (A) (A) (A) (A) (A) (A) (A) (A) (A) (A)
                 (A) (A) (A) (A) (A) (A) (A) (A) (A) (A) (A) (A)
                 (A) (A) (A) (A) (A) (A) (A) (A) (A) (A) (A) (A)
                 (A) (A) (A) (A) (A) (A) (A) (A) (A) (A) (A) (A)
                 (A) (A) (A) (A) (A) (A) (A) (A) (A) (A) (A) (A)
                 (A) (A) (A) (A) (A) (A) (A) (A) (A) (A) (A) (A)
                 (A) (A) (A) (A) (A) (A) (A) (A) (A) (A) (A) (A)
                 (A) (A) (A) (A) (A) (A) (A) (A) (A) (A) (A) (A)
                 (A) (A) (A) (A) (A) (A) (A) (A) (A) (A) (A) (A)
                 (A) (A) (A) (A) (A) (A) (A) (A) (A) (A) (A) (A)
                 (A) (A) (A) (A) (A) (A) (A) (A) (A) (A) (A) (A)
                 (A) (A) (A) (A) (A) (A) (A) (A) (A) (A) (A) (A)
                 (A) (A) (A) (A) (A) (A) (A) (A) (A) (A) (A) (A)
                 (A) (A) (A) (A) (A) (A) (A) (A) (A) (A) (A) (A)
                 (A) (A) (A) (A) (A) (A) (A) (A) (A) (A) (A) (A)
                 (A) (A) (A) (A) (A) (A) (A) (A) (A) (A) (A) (A)
                 (A) (A) (A) (A) (A) (A) (A) (A) (A) (A) (A) (A)
                 (A) (A) (A) (A) (A) (A) (A) (A) (A) (A) (A) (A)
                 (A) (A) (A) (A) (A) (A) (A) (A) (A) (A) (A) (A)
                 (A) (A) (A) (A) (A) (A) (A) (A) (A) (A) (A) (A)
                 (A) (A) (A) (A) (A) (A) (A) (A) (A) (A) (A) (A)
                 (A) (A) (A) (A) (A) (A) (A) (A) (A) (A) (A) (A)
                 (A) (A) (A) (A) (A) (A) (A) (A) (A) (A) (A) (A)
                 (A) (A) (A) (A) (A) (A) (A) (A) (A) (A) (A) (A)
                 (A) (A) (A) (A) (A) (A) (A) (A) (A) (A) (A) (A)
                 (A) (A) (A) (A) (A) (A) (A) (A) (A) (A) (A) (A)
                 (A) (A) (A) (A) (A) (A) (A) (A) (A) (A) (A) (A)
                 (A) (A) (A) (A) (A) (A) (A) (A) (A) (A) (A) (A)
                 (A) (A) (A) (A) (A) (A) (A) (A) (A) (A) (A) (A)
                 (A) (A) (A) (A) (A) (A) (A) (A) (A) (A) (A) (A)
                 (A) (A) (A) (A) (A) (A) (A) (A) (A) (A) (A) (A)
                 (A) (A) (A) (A) (A) (A) (A) (A) (A) (A) (A) (A)
                 (A) (A) (A) (A) (A) (A) (A) (A) (A) (A) (A) (A)
                 (A) (A) (A) (A) (A) (A) (A) (A) (A) (A) (A) (A)
                 (A) (A) (A) (A) (A) (A) (A) (A) (A) (A) (A) (A)
                 (A) (A) (A) (A) (A) (A) (A) (A) (A) (A) (A) (A)
                 (A) (A) (A) (A) (A) (A) (A) (A) (A) (A) (A) (A)
                 (A) (A) (A) (A) (A) (A) (A) (A) (A) (A) (A) (A)
                 (A) (A) (A) (A) (A) (A) (A) (A) (A) (A) (A) (A)
                 (A) (A) (A) (A) (A) (A) (A) (A) (A) (A) (A) (A)
                 (A) (A) (A) (A) (A) (A) (A) (A) (A) (A) (A) (A)
                 (A) (A) (A) (A) (A) (A) (A) (A) (A) (A) (A) (A)
                 (A) (A) (A) (A) (A) (A) (A) (A) (A) (A) (A) (A)
                 (A) (A) (A) (A) (A) (A) (A) (A) (A) (A) (A) (A)
                 (A) (A) (A) (A) (A) (A) (A) (A) (A) (A) (A) (A)
                 (A) (A) (A) (A) (A) (A) (A) (A) (A) (A) (A) (A)
                 (A) (A) (A) (A) (A) (A) (A) (A) (A) (A) (A) (A)
                 (A) (A) (A) (A) (A) (A) (A) (A) (A) (A) (A) (A)
                 (A) (A) (A) (A) (A) (A) (A) (A) (A) (A) (A) (A)
                 (A) (A) (A) (A) (A) (A) (A) (A) (A) (A) (A) (A)
                 (A) (A) (A) (A) (A) (A) (A) (A) (A) (A) (A) (A)
                 (A) (A) (A) (A) (A) (A) (A) (A) (A)
 The electronic state is 1-A.
 Alpha  occ. eigenvalues -- -101.70308 -19.23937 -10.37990 -10.35839 -10.32587
 Alpha  occ. eigenvalues --  -10.31027 -10.30817 -10.30701 -10.30555 -10.30257
 Alpha  occ. eigenvalues --  -10.30128 -10.30008 -10.29318 -10.29144 -10.27530
 Alpha  occ. eigenvalues --  -10.27497 -10.27476  -9.58852  -7.33489  -7.32642
 Alpha  occ. eigenvalues --   -7.32614  -1.15152  -1.00313  -0.96375  -0.93468
 Alpha  occ. eigenvalues --   -0.90746  -0.87178  -0.86422  -0.83211  -0.79369
 Alpha  occ. eigenvalues --   -0.78668  -0.74222  -0.72759  -0.70704  -0.67303
 Alpha  occ. eigenvalues --   -0.62356  -0.61392  -0.59685  -0.58842  -0.56810
 Alpha  occ. eigenvalues --   -0.54844  -0.53815  -0.53346  -0.52789  -0.52409
 Alpha  occ. eigenvalues --   -0.51726  -0.50954  -0.49897  -0.48824  -0.47932
 Alpha  occ. eigenvalues --   -0.46881  -0.46569  -0.45532  -0.45106  -0.44690
 Alpha  occ. eigenvalues --   -0.43921  -0.43325  -0.42530  -0.40829  -0.40019
 Alpha  occ. eigenvalues --   -0.37161  -0.34427  -0.34332  -0.31763  -0.30668
 Alpha virt. eigenvalues --   -0.01107   0.02072   0.04300   0.04808   0.05559
 Alpha virt. eigenvalues --    0.06024   0.06132   0.06436   0.07388   0.07676
 Alpha virt. eigenvalues --    0.07969   0.08093   0.08593   0.08864   0.09516
 Alpha virt. eigenvalues --    0.09935   0.10104   0.10221   0.10581   0.10631
 Alpha virt. eigenvalues --    0.10725   0.11177   0.12378   0.12493   0.12834
 Alpha virt. eigenvalues --    0.13347   0.13530   0.13731   0.14143   0.14700
 Alpha virt. eigenvalues --    0.14877   0.15051   0.15488   0.15737   0.16027
 Alpha virt. eigenvalues --    0.16186   0.16526   0.16711   0.16922   0.17352
 Alpha virt. eigenvalues --    0.17774   0.17885   0.18167   0.18703   0.18798
 Alpha virt. eigenvalues --    0.19209   0.19323   0.19621   0.19913   0.19984
 Alpha virt. eigenvalues --    0.20567   0.20845   0.21378   0.21651   0.22250
 Alpha virt. eigenvalues --    0.22444   0.22788   0.23265   0.23509   0.24047
 Alpha virt. eigenvalues --    0.24397   0.25058   0.25079   0.25393   0.25633
 Alpha virt. eigenvalues --    0.26008   0.26459   0.26583   0.26823   0.27188
 Alpha virt. eigenvalues --    0.28080   0.28106   0.28522   0.28602   0.29117
 Alpha virt. eigenvalues --    0.29427   0.29734   0.29957   0.30445   0.30617
 Alpha virt. eigenvalues --    0.30904   0.31168   0.32187   0.32984   0.33376
 Alpha virt. eigenvalues --    0.33950   0.34362   0.34778   0.35368   0.35620
 Alpha virt. eigenvalues --    0.36456   0.36838   0.37130   0.38225   0.38943
 Alpha virt. eigenvalues --    0.39571   0.40040   0.40151   0.40725   0.41621
 Alpha virt. eigenvalues --    0.42025   0.43104   0.43170   0.43601   0.44174
 Alpha virt. eigenvalues --    0.44747   0.45674   0.45828   0.46003   0.46724
 Alpha virt. eigenvalues --    0.46944   0.47349   0.47886   0.48251   0.48505
 Alpha virt. eigenvalues --    0.49172   0.49554   0.49806   0.50551   0.50703
 Alpha virt. eigenvalues --    0.51017   0.51457   0.51882   0.52116   0.52243
 Alpha virt. eigenvalues --    0.53028   0.53288   0.53599   0.54547   0.54760
 Alpha virt. eigenvalues --    0.55350   0.55482   0.55758   0.57113   0.57391
 Alpha virt. eigenvalues --    0.57435   0.58512   0.58935   0.59713   0.59990
 Alpha virt. eigenvalues --    0.60620   0.60948   0.61014   0.61509   0.61961
 Alpha virt. eigenvalues --    0.61997   0.62419   0.62736   0.63285   0.64093
 Alpha virt. eigenvalues --    0.64714   0.65133   0.65989   0.66293   0.66721
 Alpha virt. eigenvalues --    0.67227   0.67424   0.68028   0.68637   0.69403
 Alpha virt. eigenvalues --    0.69946   0.70572   0.71165   0.72188   0.72473
 Alpha virt. eigenvalues --    0.73315   0.73804   0.74767   0.75709   0.76360
 Alpha virt. eigenvalues --    0.76850   0.78109   0.78666   0.78911   0.79831
 Alpha virt. eigenvalues --    0.80153   0.80719   0.81888   0.82672   0.83367
 Alpha virt. eigenvalues --    0.83796   0.84085   0.84973   0.86038   0.86759
 Alpha virt. eigenvalues --    0.87840   0.87946   0.89438   0.90113   0.91201
 Alpha virt. eigenvalues --    0.91738   0.92516   0.93330   0.93578   0.95155
 Alpha virt. eigenvalues --    0.95484   0.96801   0.97548   0.98111   1.00709
 Alpha virt. eigenvalues --    1.01223   1.02073   1.03197   1.05342   1.06786
 Alpha virt. eigenvalues --    1.07141   1.09089   1.10571   1.11815   1.12284
 Alpha virt. eigenvalues --    1.12992   1.13628   1.15473   1.16177   1.17061
 Alpha virt. eigenvalues --    1.17682   1.18533   1.19527   1.20302   1.20408
 Alpha virt. eigenvalues --    1.21542   1.22612   1.23816   1.24446   1.25293
 Alpha virt. eigenvalues --    1.26664   1.26961   1.27619   1.28407   1.28812
 Alpha virt. eigenvalues --    1.30321   1.31829   1.34075   1.34422   1.35198
 Alpha virt. eigenvalues --    1.36384   1.37012   1.38326   1.38647   1.40300
 Alpha virt. eigenvalues --    1.40838   1.42285   1.42584   1.43554   1.44691
 Alpha virt. eigenvalues --    1.45641   1.46164   1.46946   1.48522   1.50104
 Alpha virt. eigenvalues --    1.51381   1.52254   1.53035   1.54441   1.55224
 Alpha virt. eigenvalues --    1.56211   1.56982   1.59052   1.61084   1.61985
 Alpha virt. eigenvalues --    1.62370   1.63116   1.65019   1.65675   1.66563
 Alpha virt. eigenvalues --    1.66947   1.67685   1.68589   1.68821   1.69553
 Alpha virt. eigenvalues --    1.70028   1.70853   1.71373   1.71832   1.72055
 Alpha virt. eigenvalues --    1.73195   1.73332   1.73921   1.74666   1.75220
 Alpha virt. eigenvalues --    1.76465   1.78074   1.78838   1.79058   1.80574
 Alpha virt. eigenvalues --    1.81761   1.82285   1.82641   1.83317   1.84432
 Alpha virt. eigenvalues --    1.85855   1.86328   1.87197   1.88459   1.89071
 Alpha virt. eigenvalues --    1.90440   1.91370   1.92910   1.93705   1.94435
 Alpha virt. eigenvalues --    1.95285   1.95751   1.96884   1.98535   2.00506
 Alpha virt. eigenvalues --    2.01275   2.01960   2.02736   2.03265   2.04365
 Alpha virt. eigenvalues --    2.06076   2.07504   2.08684   2.08790   2.09434
 Alpha virt. eigenvalues --    2.10190   2.12201   2.12250   2.12902   2.14648
 Alpha virt. eigenvalues --    2.14836   2.16305   2.17205   2.17521   2.18878
 Alpha virt. eigenvalues --    2.19892   2.21666   2.22622   2.22860   2.23924
 Alpha virt. eigenvalues --    2.24186   2.25144   2.26336   2.28416   2.29107
 Alpha virt. eigenvalues --    2.29734   2.30336   2.33078   2.33750   2.34571
 Alpha virt. eigenvalues --    2.36607   2.38233   2.39856   2.40057   2.42067
 Alpha virt. eigenvalues --    2.42336   2.43576   2.44237   2.44871   2.45721
 Alpha virt. eigenvalues --    2.46734   2.47730   2.48768   2.48967   2.50226
 Alpha virt. eigenvalues --    2.50822   2.51044   2.53122   2.53873   2.54546
 Alpha virt. eigenvalues --    2.55497   2.56096   2.57385   2.58820   2.60022
 Alpha virt. eigenvalues --    2.60403   2.62349   2.64146   2.64589   2.64990
 Alpha virt. eigenvalues --    2.66101   2.66924   2.67745   2.68327   2.69255
 Alpha virt. eigenvalues --    2.70076   2.71104   2.71161   2.71669   2.72830
 Alpha virt. eigenvalues --    2.73378   2.75256   2.75541   2.76332   2.76873
 Alpha virt. eigenvalues --    2.79017   2.80062   2.80480   2.80775   2.82631
 Alpha virt. eigenvalues --    2.83800   2.84802   2.85945   2.86891   2.87464
 Alpha virt. eigenvalues --    2.88316   2.89020   2.89646   2.91227   2.92446
 Alpha virt. eigenvalues --    2.92591   2.94721   2.95222   2.96274   2.96945
 Alpha virt. eigenvalues --    2.97587   2.98747   2.99113   3.00002   3.00961
 Alpha virt. eigenvalues --    3.01620   3.03467   3.03738   3.04902   3.05099
 Alpha virt. eigenvalues --    3.06597   3.07389   3.08333   3.09561   3.09702
 Alpha virt. eigenvalues --    3.10982   3.11481   3.11896   3.12168   3.13425
 Alpha virt. eigenvalues --    3.14466   3.15160   3.16811   3.17816   3.18681
 Alpha virt. eigenvalues --    3.20404   3.22239   3.22613   3.24064   3.24918
 Alpha virt. eigenvalues --    3.25214   3.25969   3.26384   3.26722   3.27903
 Alpha virt. eigenvalues --    3.28283   3.28582   3.29274   3.30104   3.30876
 Alpha virt. eigenvalues --    3.32185   3.33826   3.34980   3.35402   3.35617
 Alpha virt. eigenvalues --    3.36092   3.38324   3.38619   3.38797   3.39532
 Alpha virt. eigenvalues --    3.39595   3.41137   3.42418   3.42942   3.43292
 Alpha virt. eigenvalues --    3.43782   3.44688   3.45189   3.45928   3.47452
 Alpha virt. eigenvalues --    3.47913   3.48097   3.48814   3.50859   3.51613
 Alpha virt. eigenvalues --    3.52237   3.53439   3.53886   3.54707   3.56619
 Alpha virt. eigenvalues --    3.57205   3.57783   3.58667   3.59740   3.60052
 Alpha virt. eigenvalues --    3.61169   3.61755   3.63512   3.64768   3.65110
 Alpha virt. eigenvalues --    3.65952   3.67013   3.67358   3.68880   3.69492
 Alpha virt. eigenvalues --    3.70982   3.72149   3.73053   3.74534   3.75491
 Alpha virt. eigenvalues --    3.76544   3.77016   3.80036   3.81650   3.82746
 Alpha virt. eigenvalues --    3.83826   3.84141   3.85961   3.87092   3.88250
 Alpha virt. eigenvalues --    3.90400   3.92951   3.93518   3.94148   3.96868
 Alpha virt. eigenvalues --    3.97304   3.99581   4.00585   4.02356   4.05349
 Alpha virt. eigenvalues --    4.06093   4.08130   4.08324   4.10848   4.10992
 Alpha virt. eigenvalues --    4.12419   4.13473   4.15501   4.15845   4.16753
 Alpha virt. eigenvalues --    4.17228   4.19458   4.20010   4.22556   4.25291
 Alpha virt. eigenvalues --    4.25922   4.27615   4.28374   4.30388   4.31886
 Alpha virt. eigenvalues --    4.32751   4.33266   4.34501   4.34735   4.37684
 Alpha virt. eigenvalues --    4.38288   4.40397   4.43604   4.43930   4.44723
 Alpha virt. eigenvalues --    4.47409   4.48804   4.50311   4.53545   4.54536
 Alpha virt. eigenvalues --    4.55353   4.57716   4.58431   4.59533   4.60119
 Alpha virt. eigenvalues --    4.64891   4.66727   4.67318   4.72816   4.73000
 Alpha virt. eigenvalues --    4.76662   4.77487   4.79577   4.80310   4.83155
 Alpha virt. eigenvalues --    4.86294   4.88235   4.91372   4.91645   4.97960
 Alpha virt. eigenvalues --    4.99653   5.01204   5.03459   5.05741   5.08370
 Alpha virt. eigenvalues --    5.13493   5.18928   5.23751   5.23920   5.26696
 Alpha virt. eigenvalues --    5.30702   5.31491   5.35086   5.37615   5.39748
 Alpha virt. eigenvalues --    5.42506   5.47654   5.59127   5.65792   5.69669
 Alpha virt. eigenvalues --    5.73179   5.89229   5.95103   6.23091   6.51004
 Alpha virt. eigenvalues --    6.54195   6.75524   6.78366   6.96114   7.23956
 Alpha virt. eigenvalues --    7.29338  10.93200  11.03117  11.50466  22.37254
 Alpha virt. eigenvalues --   22.48149  22.51826  22.57956  22.68235  22.72998
 Alpha virt. eigenvalues --   22.73690  22.81434  22.85809  22.97342  23.05107
 Alpha virt. eigenvalues --   23.09308  23.16471  23.38281  23.75077  26.41475
 Alpha virt. eigenvalues --   44.31320
          Condensed to atoms (all electrons):
               1          2          3          4          5          6
     1  C    5.132316   0.310521  -0.111915   0.064188  -0.078921   0.369730
     2  C    0.310521   5.544134   0.205297  -0.151734  -0.055928  -0.031331
     3  C   -0.111915   0.205297   5.928729   0.424877  -0.094226  -0.013319
     4  C    0.064188  -0.151734   0.424877   6.681386   0.380097  -0.338220
     5  C   -0.078921  -0.055928  -0.094226   0.380097   5.432497   0.215266
     6  C    0.369730  -0.031331  -0.013319  -0.338220   0.215266   5.295274
     7  H    0.397795  -0.051703   0.016704  -0.010215   0.030136  -0.015543
     8  H   -0.046731   0.456555  -0.028534   0.017287  -0.010325   0.013152
     9  H    0.007714  -0.017615   0.032663  -0.021938   0.384451  -0.011645
    10  H   -0.013661   0.029839  -0.008601   0.011394  -0.053956   0.405167
    11  C   -0.043749   0.044518  -0.298974  -0.038555  -0.152411   0.186257
    12  C    0.022355  -0.181346   0.367739  -0.055743  -0.065166   0.022407
    13  C   -0.037544   0.052518  -0.211225  -0.636290   0.024922   0.080989
    14  C    0.136993  -0.023407  -0.270369   0.022972   0.070877  -0.120141
    15  H    0.001610   0.002269   0.007538  -0.005918   0.000296  -0.000777
    16  O   -0.006526   0.009054   0.001034  -0.132803   0.018036   0.023746
    17  Cl  -0.027638   0.033893  -0.082388   0.019448  -0.000296   0.008006
    18  C    0.007352   0.011999  -0.035433   0.150158  -0.005758  -0.015478
    19  C   -0.023528   0.010058   0.109586  -0.259906  -0.023428   0.042423
    20  H   -0.000063   0.000357  -0.000882  -0.001627  -0.000140   0.000068
    21  C    0.000194  -0.000499  -0.000499   0.000248   0.000340  -0.000391
    22  H    0.000001   0.000010   0.000117   0.000012  -0.000040  -0.000001
    23  H   -0.000006  -0.000054   0.000458  -0.000369   0.000012   0.000005
    24  H    0.000004   0.000021  -0.000660   0.000478   0.000039  -0.000006
    25  C   -0.001710  -0.000760   0.001884  -0.038546   0.003388   0.004300
    26  H    0.000096  -0.000590  -0.001037   0.003576   0.001361   0.000011
    27  H    0.000011   0.000060   0.000362   0.002331  -0.000448  -0.000053
    28  H   -0.000021   0.000014  -0.000225  -0.002649   0.000396   0.000026
    29  C    0.005995  -0.003154  -0.048434  -0.065258   0.059871  -0.026300
    30  H    0.001646  -0.003773  -0.001838   0.002937   0.002589  -0.000798
    31  H   -0.000148   0.001281   0.006345   0.018678  -0.007101  -0.001013
    32  H    0.000810  -0.005052   0.002913  -0.016004   0.006607   0.000997
               7          8          9         10         11         12
     1  C    0.397795  -0.046731   0.007714  -0.013661  -0.043749   0.022355
     2  C   -0.051703   0.456555  -0.017615   0.029839   0.044518  -0.181346
     3  C    0.016704  -0.028534   0.032663  -0.008601  -0.298974   0.367739
     4  C   -0.010215   0.017287  -0.021938   0.011394  -0.038555  -0.055743
     5  C    0.030136  -0.010325   0.384451  -0.053956  -0.152411  -0.065166
     6  C   -0.015543   0.013152  -0.011645   0.405167   0.186257   0.022407
     7  H    0.482651  -0.005103   0.000002  -0.005313   0.000726  -0.006110
     8  H   -0.005103   0.480356  -0.000005  -0.000004  -0.002173  -0.032919
     9  H    0.000002  -0.000005   0.458824  -0.004098  -0.025333  -0.000028
    10  H   -0.005313  -0.000004  -0.004098   0.481892  -0.009230   0.001061
    11  C    0.000726  -0.002173  -0.025333  -0.009230   6.033284  -0.536825
    12  C   -0.006110  -0.032919  -0.000028   0.001061  -0.536825   6.402217
    13  C   -0.000533  -0.007001  -0.003068  -0.001544   0.566701  -0.225591
    14  C   -0.001906  -0.014186  -0.001912   0.000166  -0.070866   0.071720
    15  H    0.000000   0.000028  -0.000003   0.000000   0.001482  -0.090911
    16  O   -0.000013  -0.000045   0.007648   0.000283   0.445051  -0.036334
    17  Cl   0.000322  -0.002849   0.000068  -0.000001   0.001772   0.250557
    18  C    0.000000   0.000010  -0.000260   0.000008   0.175272  -0.136779
    19  C    0.000017   0.000450   0.001171  -0.000049  -0.293837   0.377747
    20  H    0.000000   0.000000   0.000000   0.000000  -0.008701   0.008176
    21  C    0.000000  -0.000003   0.000002   0.000000   0.012755  -0.011091
    22  H    0.000000   0.000000   0.000000   0.000000   0.000576   0.000457
    23  H    0.000000   0.000000   0.000000   0.000000  -0.001244   0.002472
    24  H    0.000000   0.000000   0.000000   0.000000   0.002123  -0.004121
    25  C    0.000001   0.000001   0.000141  -0.000003  -0.067504   0.042709
    26  H    0.000000   0.000000  -0.000002   0.000000   0.015579  -0.002015
    27  H    0.000000   0.000000   0.000000   0.000000   0.003808  -0.001186
    28  H    0.000000   0.000000   0.000000   0.000000  -0.001494   0.000768
    29  C   -0.000069  -0.000793   0.000050   0.000131   0.089555  -0.379813
    30  H    0.000000   0.000001  -0.000003   0.000000   0.026679  -0.027032
    31  H    0.000000   0.000000   0.000002   0.000000  -0.016304   0.007888
    32  H    0.000000  -0.000001  -0.000050   0.000000   0.005391  -0.026847
              13         14         15         16         17         18
     1  C   -0.037544   0.136993   0.001610  -0.006526  -0.027638   0.007352
     2  C    0.052518  -0.023407   0.002269   0.009054   0.033893   0.011999
     3  C   -0.211225  -0.270369   0.007538   0.001034  -0.082388  -0.035433
     4  C   -0.636290   0.022972  -0.005918  -0.132803   0.019448   0.150158
     5  C    0.024922   0.070877   0.000296   0.018036  -0.000296  -0.005758
     6  C    0.080989  -0.120141  -0.000777   0.023746   0.008006  -0.015478
     7  H   -0.000533  -0.001906   0.000000  -0.000013   0.000322   0.000000
     8  H   -0.007001  -0.014186   0.000028  -0.000045  -0.002849   0.000010
     9  H   -0.003068  -0.001912  -0.000003   0.007648   0.000068  -0.000260
    10  H   -0.001544   0.000166   0.000000   0.000283  -0.000001   0.000008
    11  C    0.566701  -0.070866   0.001482   0.445051   0.001772   0.175272
    12  C   -0.225591   0.071720  -0.090911  -0.036334   0.250557  -0.136779
    13  C    6.000106   0.114673  -0.032035  -0.165658   0.035573  -0.048343
    14  C    0.114673   6.354353   0.458628  -0.001499  -0.125855   0.068992
    15  H   -0.032035   0.458628   0.453983  -0.000439  -0.010561   0.001751
    16  O   -0.165658  -0.001499  -0.000439   8.312501  -0.000178   0.027451
    17  Cl   0.035573  -0.125855  -0.010561  -0.000178  17.071497  -0.001336
    18  C   -0.048343   0.068992   0.001751   0.027451  -0.001336   6.208799
    19  C    0.055016  -0.303350  -0.021876  -0.058755   0.004756  -0.115880
    20  H   -0.011482   0.016174  -0.002883  -0.000124   0.000131  -0.033351
    21  C    0.000113   0.000433  -0.002669   0.002379   0.000063  -0.013928
    22  H    0.003252  -0.003124  -0.000017  -0.000002  -0.000001  -0.031226
    23  H   -0.000949   0.002992  -0.000106   0.000007   0.000004  -0.171962
    24  H   -0.000342   0.001439   0.000118   0.000004   0.000013  -0.005396
    25  C   -0.028120   0.004638  -0.001923  -0.008152   0.000228   0.046011
    26  H   -0.025086  -0.002976   0.000045   0.004457  -0.000001  -0.044521
    27  H    0.030205  -0.007417  -0.000006  -0.000082  -0.000002  -0.008643
    28  H   -0.030133   0.006070   0.000023   0.000094   0.000005  -0.076231
    29  C    0.115519  -0.071858   0.037529   0.016776   0.001419  -0.063951
    30  H   -0.014075   0.012725   0.001093   0.003526  -0.000154   0.005786
    31  H   -0.090058   0.000920  -0.000327  -0.000030  -0.000019   0.022427
    32  H    0.406379  -0.016165  -0.001651   0.003853   0.000022  -0.012558
              19         20         21         22         23         24
     1  C   -0.023528  -0.000063   0.000194   0.000001  -0.000006   0.000004
     2  C    0.010058   0.000357  -0.000499   0.000010  -0.000054   0.000021
     3  C    0.109586  -0.000882  -0.000499   0.000117   0.000458  -0.000660
     4  C   -0.259906  -0.001627   0.000248   0.000012  -0.000369   0.000478
     5  C   -0.023428  -0.000140   0.000340  -0.000040   0.000012   0.000039
     6  C    0.042423   0.000068  -0.000391  -0.000001   0.000005  -0.000006
     7  H    0.000017   0.000000   0.000000   0.000000   0.000000   0.000000
     8  H    0.000450   0.000000  -0.000003   0.000000   0.000000   0.000000
     9  H    0.001171   0.000000   0.000002   0.000000   0.000000   0.000000
    10  H   -0.000049   0.000000   0.000000   0.000000   0.000000   0.000000
    11  C   -0.293837  -0.008701   0.012755   0.000576  -0.001244   0.002123
    12  C    0.377747   0.008176  -0.011091   0.000457   0.002472  -0.004121
    13  C    0.055016  -0.011482   0.000113   0.003252  -0.000949  -0.000342
    14  C   -0.303350   0.016174   0.000433  -0.003124   0.002992   0.001439
    15  H   -0.021876  -0.002883  -0.002669  -0.000017  -0.000106   0.000118
    16  O   -0.058755  -0.000124   0.002379  -0.000002   0.000007   0.000004
    17  Cl   0.004756   0.000131   0.000063  -0.000001   0.000004   0.000013
    18  C   -0.115880  -0.033351  -0.013928  -0.031226  -0.171962  -0.005396
    19  C    6.501640   0.409613  -0.045095  -0.017670   0.079576  -0.066941
    20  H    0.409613   0.492891   0.006451  -0.000434   0.000080   0.000898
    21  C   -0.045095   0.006451   5.194735   0.427940   0.464301   0.428724
    22  H   -0.017670  -0.000434   0.427940   0.537902  -0.018821  -0.034927
    23  H    0.079576   0.000080   0.464301  -0.018821   0.529388  -0.020445
    24  H   -0.066941   0.000898   0.428724  -0.034927  -0.020445   0.541227
    25  C    0.120153  -0.008829  -0.043818   0.001256  -0.009862   0.000912
    26  H    0.009986   0.000216  -0.024747  -0.000076  -0.000182   0.000015
    27  H   -0.043119  -0.000303  -0.008491   0.003319  -0.000116  -0.000656
    28  H   -0.001479  -0.000003   0.025088  -0.000561  -0.000119   0.003430
    29  C   -0.050682  -0.031188   0.003500  -0.013663   0.008574   0.012921
    30  H   -0.073159  -0.003709   0.000586   0.000032  -0.000072  -0.000013
    31  H   -0.047342   0.000635   0.002169   0.000082  -0.000013  -0.000023
    32  H   -0.015410   0.000865   0.000990  -0.000010  -0.000035   0.000069
              25         26         27         28         29         30
     1  C   -0.001710   0.000096   0.000011  -0.000021   0.005995   0.001646
     2  C   -0.000760  -0.000590   0.000060   0.000014  -0.003154  -0.003773
     3  C    0.001884  -0.001037   0.000362  -0.000225  -0.048434  -0.001838
     4  C   -0.038546   0.003576   0.002331  -0.002649  -0.065258   0.002937
     5  C    0.003388   0.001361  -0.000448   0.000396   0.059871   0.002589
     6  C    0.004300   0.000011  -0.000053   0.000026  -0.026300  -0.000798
     7  H    0.000001   0.000000   0.000000   0.000000  -0.000069   0.000000
     8  H    0.000001   0.000000   0.000000   0.000000  -0.000793   0.000001
     9  H    0.000141  -0.000002   0.000000   0.000000   0.000050  -0.000003
    10  H   -0.000003   0.000000   0.000000   0.000000   0.000131   0.000000
    11  C   -0.067504   0.015579   0.003808  -0.001494   0.089555   0.026679
    12  C    0.042709  -0.002015  -0.001186   0.000768  -0.379813  -0.027032
    13  C   -0.028120  -0.025086   0.030205  -0.030133   0.115519  -0.014075
    14  C    0.004638  -0.002976  -0.007417   0.006070  -0.071858   0.012725
    15  H   -0.001923   0.000045  -0.000006   0.000023   0.037529   0.001093
    16  O   -0.008152   0.004457  -0.000082   0.000094   0.016776   0.003526
    17  Cl   0.000228  -0.000001  -0.000002   0.000005   0.001419  -0.000154
    18  C    0.046011  -0.044521  -0.008643  -0.076231  -0.063951   0.005786
    19  C    0.120153   0.009986  -0.043119  -0.001479  -0.050682  -0.073159
    20  H   -0.008829   0.000216  -0.000303  -0.000003  -0.031188  -0.003709
    21  C   -0.043818  -0.024747  -0.008491   0.025088   0.003500   0.000586
    22  H    0.001256  -0.000076   0.003319  -0.000561  -0.013663   0.000032
    23  H   -0.009862  -0.000182  -0.000116  -0.000119   0.008574  -0.000072
    24  H    0.000912   0.000015  -0.000656   0.003430   0.012921  -0.000013
    25  C    5.180753   0.410800   0.403860   0.460765  -0.042067   0.005715
    26  H    0.410800   0.496977  -0.017457  -0.020308   0.040266   0.000805
    27  H    0.403860  -0.017457   0.529697  -0.025341  -0.010105   0.000035
    28  H    0.460765  -0.020308  -0.025341   0.515770  -0.009833  -0.000068
    29  C   -0.042067   0.040266  -0.010105  -0.009833   5.998512   0.408876
    30  H    0.005715   0.000805   0.000035  -0.000068   0.408876   0.499934
    31  H   -0.010448  -0.003365   0.000795   0.000274   0.469905  -0.004563
    32  H    0.011166  -0.000089   0.000137  -0.000769  -0.033155   0.003422
              31         32
     1  C   -0.000148   0.000810
     2  C    0.001281  -0.005052
     3  C    0.006345   0.002913
     4  C    0.018678  -0.016004
     5  C   -0.007101   0.006607
     6  C   -0.001013   0.000997
     7  H    0.000000   0.000000
     8  H    0.000000  -0.000001
     9  H    0.000002  -0.000050
    10  H    0.000000   0.000000
    11  C   -0.016304   0.005391
    12  C    0.007888  -0.026847
    13  C   -0.090058   0.406379
    14  C    0.000920  -0.016165
    15  H   -0.000327  -0.001651
    16  O   -0.000030   0.003853
    17  Cl  -0.000019   0.000022
    18  C    0.022427  -0.012558
    19  C   -0.047342  -0.015410
    20  H    0.000635   0.000865
    21  C    0.002169   0.000990
    22  H    0.000082  -0.000010
    23  H   -0.000013  -0.000035
    24  H   -0.000023   0.000069
    25  C   -0.010448   0.011166
    26  H   -0.003365  -0.000089
    27  H    0.000795   0.000137
    28  H    0.000274  -0.000769
    29  C    0.469905  -0.033155
    30  H   -0.004563   0.003422
    31  H    0.464106   0.000098
    32  H    0.000098   0.529414
 Mulliken charges:
               1
     1  C   -0.067173
     2  C   -0.185453
     3  C    0.102314
     4  C   -0.024294
     5  C   -0.083036
     6  C   -0.092809
     7  H    0.168155
     8  H    0.182831
     9  H    0.193225
    10  H    0.166520
    11  C   -0.044332
    12  C    0.241583
    13  C    0.083109
    14  C   -0.309735
    15  H    0.205711
    16  O   -0.465262
    17  Cl  -0.176499
    18  C    0.095015
    19  C   -0.260688
    20  H    0.167165
    21  C   -0.419782
    22  H    0.145616
    23  H    0.136487
    24  H    0.141095
    25  C   -0.436941
    26  H    0.158262
    27  H    0.148804
    28  H    0.156509
    29  C   -0.419078
    30  H    0.152869
    31  H    0.185149
    32  H    0.154660
 Sum of Mulliken charges =   0.00000
 Mulliken charges with hydrogens summed into heavy atoms:
               1
     1  C    0.100983
     2  C   -0.002622
     3  C    0.102314
     4  C   -0.024294
     5  C    0.110189
     6  C    0.073711
    11  C   -0.044332
    12  C    0.241583
    13  C    0.237769
    14  C   -0.104024
    16  O   -0.465262
    17  Cl  -0.176499
    18  C    0.095015
    19  C   -0.093523
    21  C    0.003417
    25  C    0.026635
    29  C   -0.081059
 Electronic spatial extent (au):  <R**2>=           5534.6940
 Charge=              0.0000 electrons
 Dipole moment (field-independent basis, Debye):
    X=              0.0925    Y=              0.8442    Z=             -0.2094  Tot=              0.8746
 Quadrupole moment (field-independent basis, Debye-Ang):
   XX=            -87.2326   YY=           -115.8322   ZZ=           -109.3831
   XY=             -4.9013   XZ=              2.8854   YZ=              0.3674
 Traceless Quadrupole moment (field-independent basis, Debye-Ang):
   XX=             16.9167   YY=            -11.6829   ZZ=             -5.2338
   XY=             -4.9013   XZ=              2.8854   YZ=              0.3674
 Octapole moment (field-independent basis, Debye-Ang**2):
  XXX=             39.4037  YYY=             16.2914  ZZZ=             -3.0179  XYY=             10.1005
  XXY=            -13.5299  XXZ=             -7.9567  XZZ=            -11.2716  YZZ=              2.3892
  YYZ=              3.3470  XYZ=             -2.8562
 Hexadecapole moment (field-independent basis, Debye-Ang**3):
 XXXX=          -4995.8845 YYYY=          -1779.4180 ZZZZ=           -261.4174 XXXY=            -10.0892
 XXXZ=             59.2946 YYYX=            -33.2924 YYYZ=             -5.0532 ZZZX=             12.9955
 ZZZY=              2.1866 XXYY=          -1142.1978 XXZZ=          -1028.1623 YYZZ=           -342.0212
 XXYZ=              3.9942 YYXZ=             -2.3691 ZZXY=              6.2428
 N-N= 1.235510813327D+03 E-N=-5.089118302635D+03  KE= 1.111791379572D+03
 D1PCM: PCM CHGder 1st derivatives, ID1Alg=3 FixD1E=F DoIter=F DoCFld=F I1PDM=0.
 Calling FoFJK, ICntrl=      2127 FMM=F ISym2X=0 I1Cent= 0 IOpClX= 0 NMat=1 NMatS=1 NMatT=0.
 ***** Axes restored to original set *****
 -------------------------------------------------------------------
 Center     Atomic                   Forces (Hartrees/Bohr)
 Number     Number              X              Y              Z
 -------------------------------------------------------------------
      1        6          -0.002256847    0.000144755    0.000136601
      2        6          -0.000328958   -0.002705694   -0.000171561
      3        6           0.001697401   -0.001388051    0.000474779
      4        6           0.002011689   -0.000329676   -0.000415711
      5        6           0.001664386    0.002571878    0.000394469
      6        6          -0.002138711    0.001000207   -0.000032041
      7        1          -0.005406835   -0.001533635   -0.000154458
      8        1          -0.000754562   -0.006041757    0.000194538
      9        1           0.002801027    0.005494828   -0.000006433
     10        1          -0.003952736    0.004115525   -0.000405644
     11        6           0.002271610    0.002637873    0.001611239
     12        6          -0.007317307   -0.006738687   -0.000623822
     13        6          -0.000882031    0.000073743   -0.004640015
     14        6           0.007258000    0.005373847    0.000192815
     15        1           0.003643349   -0.005193862    0.000253337
     16        8           0.000688582    0.000390093   -0.000970566
     17       17          -0.001210347   -0.000142407   -0.000190566
     18        6           0.005590415    0.001036773    0.004979976
     19        6          -0.006837637    0.000945705   -0.003154551
     20        1           0.000474181   -0.005048380   -0.003134632
     21        6          -0.001272847    0.000517369   -0.000254800
     22        1           0.003914660    0.002683853   -0.001084151
     23        1          -0.000892764   -0.003777596   -0.003048725
     24        1           0.000415525   -0.001188846    0.004616985
     25        6          -0.000444641   -0.000964296   -0.001490109
     26        1          -0.005100560    0.003072851   -0.000612531
     27        1           0.004098481    0.002293838   -0.001233731
     28        1           0.000533878   -0.001633344    0.004595162
     29        6           0.000434205   -0.001948992    0.003314083
     30        1          -0.002896619   -0.000909943   -0.004155903
     31        1           0.001080789    0.005879453    0.000460442
     32        1           0.003115225    0.001312574    0.004555525
 -------------------------------------------------------------------
 Cartesian Forces:  Max     0.007317307 RMS     0.002988738

 GradGradGradGradGradGradGradGradGradGradGradGradGradGradGradGradGradGrad
 Berny optimization.
 FormGI is forming the generalized inverse of G from B-inverse, IUseBI=4.
 GSVD:  received Info=                   1 from GESDD.
 Internal  Forces:  Max     0.012035365 RMS     0.002668672
 Search for a local minimum.
 Step number   1 out of a maximum of  179
 All quantities printed in internal units (Hartrees-Bohrs-Radians)
 Mixed Optimization -- RFO/linear search
 Second derivative matrix not updated -- first step.
 ITU=  0
     Eigenvalues ---    0.00230   0.00645   0.00695   0.00697   0.00710
     Eigenvalues ---    0.00721   0.01303   0.01397   0.01486   0.01573
     Eigenvalues ---    0.01687   0.01787   0.01876   0.02132   0.02141
     Eigenvalues ---    0.02158   0.02168   0.02171   0.02186   0.02201
     Eigenvalues ---    0.02862   0.04058   0.04082   0.05423   0.05478
     Eigenvalues ---    0.06431   0.06884   0.07082   0.07326   0.07382
     Eigenvalues ---    0.09281   0.12842   0.15997   0.15999   0.16000
     Eigenvalues ---    0.16000   0.16000   0.16000   0.16000   0.16000
     Eigenvalues ---    0.16000   0.16000   0.16000   0.16000   0.17178
     Eigenvalues ---    0.19672   0.21965   0.22000   0.22001   0.22582
     Eigenvalues ---    0.24225   0.24499   0.24998   0.25000   0.25000
     Eigenvalues ---    0.25000   0.25000   0.27464   0.29797   0.30972
     Eigenvalues ---    0.31821   0.31835   0.31871   0.31938   0.32978
     Eigenvalues ---    0.33037   0.33461   0.33487   0.33490   0.33496
     Eigenvalues ---    0.33647   0.33816   0.33928   0.33982   0.34252
     Eigenvalues ---    0.34559   0.34661   0.34687   0.34707   0.34751
     Eigenvalues ---    0.34892   0.39773   0.42130   0.44668   0.45992
     Eigenvalues ---    0.46525   0.46924   0.56050   0.56856   0.99094
 RFO step:  Lambda=-3.40605455D-03 EMin= 2.30000000D-03
 Linear search not attempted -- first point.
 Iteration  1 RMS(Cart)=  0.07880304 RMS(Int)=  0.00098573
 Iteration  2 RMS(Cart)=  0.00248645 RMS(Int)=  0.00002803
 Iteration  3 RMS(Cart)=  0.00000118 RMS(Int)=  0.00002803
 Iteration  4 RMS(Cart)=  0.00000000 RMS(Int)=  0.00002803
 Variable       Old X    -DE/DX   Delta X   Delta X   Delta X     New X
                                 (Linear)    (Quad)   (Total)
    R1        2.63167  -0.00855   0.00000  -0.01832  -0.01832   2.61335
    R2        2.63891  -0.00837   0.00000  -0.01827  -0.01827   2.62063
    R3        2.06185  -0.00562   0.00000  -0.01605  -0.01605   2.04581
    R4        2.64502  -0.00680   0.00000  -0.01468  -0.01469   2.63033
    R5        2.05851  -0.00602   0.00000  -0.01708  -0.01708   2.04142
    R6        2.66676  -0.00649   0.00000  -0.01460  -0.01460   2.65216
    R7        2.78522  -0.00393   0.00000  -0.01223  -0.01225   2.77297
    R8        2.64023  -0.00637   0.00000  -0.01351  -0.01351   2.62671
    R9        2.81614  -0.00407   0.00000  -0.01109  -0.01108   2.80506
   R10        2.62742  -0.00882   0.00000  -0.01862  -0.01862   2.60880
   R11        2.06154  -0.00608   0.00000  -0.01736  -0.01736   2.04418
   R12        2.06082  -0.00572   0.00000  -0.01630  -0.01630   2.04451
   R13        2.87271  -0.00176   0.00000  -0.00434  -0.00432   2.86839
   R14        2.29004  -0.00056   0.00000  -0.00056  -0.00056   2.28947
   R15        2.52715  -0.01204   0.00000  -0.02128  -0.02129   2.50586
   R16        3.29766  -0.00047   0.00000  -0.00150  -0.00150   3.29616
   R17        2.82647  -0.00388   0.00000  -0.01153  -0.01153   2.81494
   R18        2.93325   0.00041   0.00000   0.00148   0.00148   2.93472
   R19        2.08986  -0.00564   0.00000  -0.01691  -0.01691   2.07295
   R20        2.06398  -0.00629   0.00000  -0.01802  -0.01802   2.04596
   R21        2.53518  -0.00965   0.00000  -0.01688  -0.01688   2.51831
   R22        2.84257  -0.00281   0.00000  -0.00870  -0.00870   2.83387
   R23        2.84473  -0.00296   0.00000  -0.00919  -0.00919   2.83554
   R24        2.06908  -0.00595   0.00000  -0.01721  -0.01721   2.05186
   R25        2.84447  -0.00158   0.00000  -0.00490  -0.00490   2.83957
   R26        2.08199  -0.00484   0.00000  -0.01432  -0.01432   2.06767
   R27        2.07451  -0.00490   0.00000  -0.01431  -0.01431   2.06020
   R28        2.08204  -0.00479   0.00000  -0.01417  -0.01417   2.06787
   R29        2.07360  -0.00596   0.00000  -0.01735  -0.01735   2.05625
   R30        2.08189  -0.00485   0.00000  -0.01433  -0.01433   2.06756
   R31        2.08250  -0.00489   0.00000  -0.01446  -0.01446   2.06804
   R32        2.07930  -0.00511   0.00000  -0.01504  -0.01504   2.06426
   R33        2.07642  -0.00596   0.00000  -0.01745  -0.01745   2.05897
    A1        2.10626   0.00011   0.00000  -0.00068  -0.00068   2.10558
    A2        2.08312   0.00006   0.00000   0.00103   0.00102   2.08414
    A3        2.09381  -0.00017   0.00000  -0.00035  -0.00035   2.09346
    A4        2.10192   0.00071   0.00000   0.00287   0.00287   2.10478
    A5        2.09657  -0.00131   0.00000  -0.00728  -0.00728   2.08930
    A6        2.08469   0.00060   0.00000   0.00441   0.00441   2.08911
    A7        2.07238  -0.00076   0.00000  -0.00163  -0.00163   2.07075
    A8        2.14204   0.00042   0.00000   0.00201   0.00202   2.14405
    A9        2.06877   0.00034   0.00000  -0.00038  -0.00039   2.06838
   A10        2.09979  -0.00085   0.00000  -0.00332  -0.00333   2.09646
   A11        2.11615  -0.00045   0.00000  -0.00056  -0.00055   2.11560
   A12        2.06725   0.00130   0.00000   0.00387   0.00386   2.07111
   A13        2.10230   0.00073   0.00000   0.00344   0.00344   2.10575
   A14        2.05754   0.00068   0.00000   0.00467   0.00467   2.06221
   A15        2.12334  -0.00141   0.00000  -0.00811  -0.00811   2.11523
   A16        2.08372   0.00006   0.00000  -0.00068  -0.00068   2.08305
   A17        2.09959  -0.00008   0.00000   0.00000   0.00000   2.09959
   A18        2.09987   0.00003   0.00000   0.00068   0.00068   2.10055
   A19        2.07167  -0.00106   0.00000  -0.00015  -0.00025   2.07142
   A20        2.12103  -0.00006   0.00000  -0.00213  -0.00227   2.11876
   A21        2.09044   0.00113   0.00000   0.00255   0.00241   2.09285
   A22        2.14789   0.00123   0.00000   0.00256   0.00253   2.15042
   A23        2.05074   0.00125   0.00000   0.00608   0.00609   2.05684
   A24        2.08455  -0.00248   0.00000  -0.00864  -0.00863   2.07592
   A25        2.01565  -0.00076   0.00000  -0.00448  -0.00448   2.01117
   A26        1.91163   0.00070   0.00000   0.00232   0.00228   1.91391
   A27        1.83511   0.00024   0.00000   0.00482   0.00478   1.83988
   A28        1.94939  -0.00035   0.00000  -0.00538  -0.00538   1.94401
   A29        1.88500  -0.00017   0.00000  -0.00466  -0.00465   1.88035
   A30        1.85662   0.00045   0.00000   0.00910   0.00908   1.86570
   A31        2.14584   0.00070   0.00000   0.00269   0.00268   2.14852
   A32        2.08809   0.00054   0.00000   0.00411   0.00411   2.09220
   A33        2.04921  -0.00124   0.00000  -0.00681  -0.00681   2.04240
   A34        2.11970  -0.00164   0.00000  -0.00649  -0.00649   2.11322
   A35        2.15633   0.00279   0.00000   0.01100   0.01099   2.16733
   A36        2.00715  -0.00114   0.00000  -0.00450  -0.00450   2.00264
   A37        2.05754  -0.00182   0.00000  -0.00748  -0.00751   2.05003
   A38        2.18428   0.00433   0.00000   0.01943   0.01940   2.20368
   A39        2.04109  -0.00249   0.00000  -0.01162  -0.01165   2.02944
[...]
 Alpha virt. eigenvalues --    4.49066   4.50844   4.51927   4.54661   4.55976
 Alpha virt. eigenvalues --    4.57160   4.58516   4.59835   4.61737   4.61979
 Alpha virt. eigenvalues --    4.66411   4.68508   4.70062   4.73682   4.75804
 Alpha virt. eigenvalues --    4.77160   4.78801   4.81754   4.82110   4.85287
 Alpha virt. eigenvalues --    4.87930   4.88919   4.92532   4.93025   4.98901
 Alpha virt. eigenvalues --    5.01097   5.02764   5.03744   5.05962   5.09459
 Alpha virt. eigenvalues --    5.14751   5.18478   5.22993   5.24597   5.27254
 Alpha virt. eigenvalues --    5.30984   5.33987   5.35748   5.38949   5.41862
 Alpha virt. eigenvalues --    5.45633   5.49679   5.60085   5.63696   5.70351
 Alpha virt. eigenvalues --    5.74166   5.90611   5.94749   6.23929   6.51218
 Alpha virt. eigenvalues --    6.54091   6.75215   6.79168   6.96635   7.23592
 Alpha virt. eigenvalues --    7.28673  10.93352  11.02973  11.50619  22.38088
 Alpha virt. eigenvalues --   22.50417  22.55698  22.60966  22.70418  22.74877
 Alpha virt. eigenvalues --   22.77994  22.85395  22.87805  23.00322  23.09968
 Alpha virt. eigenvalues --   23.14611  23.20822  23.41280  23.77879  26.41072
 Alpha virt. eigenvalues --   44.30443
          Condensed to atoms (all electrons):
               1          2          3          4          5          6
     1  C    5.020619   0.377269  -0.072661  -0.031720  -0.166082   0.512715
     2  C    0.377269   5.553750   0.151825  -0.110202   0.019001  -0.139795
     3  C   -0.072661   0.151825   6.192767   0.507589  -0.106925  -0.013377
     4  C   -0.031720  -0.110202   0.507589   6.289026   0.280566  -0.109709
     5  C   -0.166082   0.019001  -0.106925   0.280566   5.443698   0.320597
     6  C    0.512715  -0.139795  -0.013377  -0.109709   0.320597   5.090258
     7  H    0.406346  -0.059963   0.016994  -0.005310   0.032107  -0.019173
     8  H   -0.038213   0.448083  -0.033829   0.021449  -0.012403   0.010177
     9  H    0.009102  -0.018697   0.031346  -0.026068   0.386823  -0.016141
    10  H   -0.019430   0.037310  -0.012434   0.008421  -0.055574   0.410705
    11  C    0.056672  -0.069904  -0.351285   0.320708  -0.183465   0.053009
    12  C    0.000316  -0.160724   0.352704  -0.106718  -0.043839   0.032728
    13  C    0.000385   0.071307  -0.286414  -0.585983   0.050351  -0.014794
    14  C    0.013022   0.057470  -0.448423  -0.218861   0.092168  -0.023094
    15  H    0.001302   0.001500   0.001115  -0.004295  -0.000881  -0.000162
    16  O   -0.004364   0.005224  -0.015607  -0.110789   0.023965   0.009462
    17  Cl  -0.019660   0.016534  -0.066282   0.036325   0.002096  -0.001016
    18  C   -0.000924   0.012997  -0.053336   0.082765   0.009613  -0.003575
    19  C    0.001473  -0.010577   0.158907  -0.095624  -0.051763   0.011811
    20  H   -0.000001   0.000876  -0.002570  -0.002375  -0.000027  -0.000008
    21  C    0.000115  -0.000973  -0.001792  -0.003176   0.001770  -0.000355
    22  H    0.000000   0.000003   0.000185  -0.000012  -0.000019  -0.000001
    23  H    0.000001  -0.000045   0.000819  -0.000453  -0.000030   0.000000
    24  H    0.000000   0.000025  -0.000962   0.000400   0.000049  -0.000001
    25  C   -0.000060  -0.002943   0.000676  -0.022511   0.002954   0.001877
    26  H   -0.000002  -0.000318  -0.000291   0.003816   0.000350   0.000108
    27  H    0.000004   0.000047   0.000189   0.002303  -0.000281  -0.000029
    28  H   -0.000006  -0.000065  -0.000435  -0.002426   0.000490   0.000025
    29  C    0.006735   0.002038  -0.053738  -0.065173   0.055422  -0.022794
    30  H    0.000327  -0.005211  -0.004263   0.003842   0.006126   0.000682
    31  H   -0.000314   0.001812   0.007041   0.014989  -0.005569  -0.000888
    32  H    0.000273  -0.004692   0.001549  -0.005935   0.005724   0.001251
               7          8          9         10         11         12
     1  C    0.406346  -0.038213   0.009102  -0.019430   0.056672   0.000316
     2  C   -0.059963   0.448083  -0.018697   0.037310  -0.069904  -0.160724
     3  C    0.016994  -0.033829   0.031346  -0.012434  -0.351285   0.352704
     4  C   -0.005310   0.021449  -0.026068   0.008421   0.320708  -0.106718
     5  C    0.032107  -0.012403   0.386823  -0.055574  -0.183465  -0.043839
     6  C   -0.019173   0.010177  -0.016141   0.410705   0.053009   0.032728
     7  H    0.483818  -0.005457   0.000012  -0.005661   0.000656  -0.008239
     8  H   -0.005457   0.480892  -0.000007   0.000008  -0.003411  -0.026955
     9  H    0.000012  -0.000007   0.461294  -0.004475  -0.017444  -0.001177
    10  H   -0.005661   0.000008  -0.004475   0.482576  -0.005516   0.000153
    11  C    0.000656  -0.003411  -0.017444  -0.005516   6.066050  -0.539043
    12  C   -0.008239  -0.026955  -0.001177   0.000153  -0.539043   6.309093
    13  C   -0.000442  -0.006666  -0.000881  -0.001199   0.509254  -0.333656
    14  C   -0.002045  -0.011052  -0.002232  -0.000323  -0.218816   0.402128
    15  H    0.000000   0.000027  -0.000002   0.000000   0.008622  -0.098364
    16  O   -0.000004  -0.000041   0.008445   0.000200   0.411877  -0.023955
    17  Cl   0.000326  -0.003009   0.000063   0.000004  -0.004811   0.279660
    18  C    0.000001   0.000037  -0.000255   0.000004   0.084276  -0.047091
    19  C    0.000020   0.000315   0.001151  -0.000008  -0.078057   0.185497
    20  H    0.000000   0.000000   0.000000   0.000000  -0.004213   0.001190
    21  C    0.000000  -0.000003  -0.000002   0.000000   0.016586  -0.018954
    22  H    0.000000   0.000000   0.000000   0.000000   0.000377   0.000636
    23  H    0.000000   0.000000   0.000000   0.000000  -0.000509   0.001910
    24  H    0.000000   0.000000   0.000000   0.000000   0.001612  -0.004129
    25  C    0.000000  -0.000001   0.000118  -0.000002  -0.054362   0.018367
    26  H    0.000000   0.000000  -0.000001   0.000000   0.004628   0.001574
    27  H    0.000000   0.000000   0.000000   0.000000   0.006623  -0.001228
    28  H    0.000000   0.000000   0.000000   0.000000  -0.002518   0.000282
    29  C   -0.000109  -0.000431   0.000766   0.000240  -0.034569  -0.288650
    30  H    0.000000  -0.000001  -0.000001   0.000000   0.003194  -0.013606
    31  H    0.000000   0.000000  -0.000003   0.000000  -0.017517   0.008451
    32  H    0.000000  -0.000002  -0.000028   0.000000  -0.025044  -0.006867
              13         14         15         16         17         18
     1  C    0.000385   0.013022   0.001302  -0.004364  -0.019660  -0.000924
     2  C    0.071307   0.057470   0.001500   0.005224   0.016534   0.012997
     3  C   -0.286414  -0.448423   0.001115  -0.015607  -0.066282  -0.053336
     4  C   -0.585983  -0.218861  -0.004295  -0.110789   0.036325   0.082765
     5  C    0.050351   0.092168  -0.000881   0.023965   0.002096   0.009613
     6  C   -0.014794  -0.023094  -0.000162   0.009462  -0.001016  -0.003575
     7  H   -0.000442  -0.002045   0.000000  -0.000004   0.000326   0.000001
     8  H   -0.006666  -0.011052   0.000027  -0.000041  -0.003009   0.000037
     9  H   -0.000881  -0.002232  -0.000002   0.008445   0.000063  -0.000255
    10  H   -0.001199  -0.000323   0.000000   0.000200   0.000004   0.000004
    11  C    0.509254  -0.218816   0.008622   0.411877  -0.004811   0.084276
    12  C   -0.333656   0.402128  -0.098364  -0.023955   0.279660  -0.047091
    13  C    6.097615   0.203469  -0.023491  -0.133504   0.027337  -0.040940
    14  C    0.203469   6.375952   0.458984   0.004574  -0.153838   0.057288
    15  H   -0.023491   0.458984   0.454842  -0.000636  -0.011670   0.001719
    16  O   -0.133504   0.004574  -0.000636   8.289305   0.000096   0.016643
    17  Cl   0.027337  -0.153838  -0.011670   0.000096  17.070339  -0.001628
    18  C   -0.040940   0.057288   0.001719   0.016643  -0.001628   5.936080
    19  C   -0.008706  -0.281083  -0.018873  -0.031708   0.008232   0.219055
    20  H   -0.003441   0.012749  -0.004096  -0.000041   0.000208  -0.024263
    21  C    0.017083  -0.005723  -0.002256   0.002433   0.000131   0.003245
    22  H   -0.000529  -0.002684  -0.000017   0.000001  -0.000001  -0.033804
    23  H    0.001189   0.002029  -0.000082   0.000002   0.000005  -0.155529
    24  H    0.003561   0.000234   0.000104   0.000008   0.000012  -0.023084
    25  C   -0.028301   0.022785  -0.000938  -0.004295   0.000061   0.071194
    26  H   -0.021862   0.000180  -0.000014   0.001864   0.000001  -0.057495
    27  H    0.016594  -0.010152  -0.000001   0.000006  -0.000003  -0.016644
    28  H   -0.018456   0.009449   0.000041   0.000113   0.000007  -0.073941
    29  C    0.160945  -0.096186   0.028662  -0.002538  -0.000258  -0.128668
    30  H   -0.015823   0.006278   0.000606   0.003855  -0.000079  -0.004576
    31  H   -0.104325  -0.004885  -0.000277   0.001353  -0.000051   0.030231
    32  H    0.423660  -0.031003  -0.003397   0.002411  -0.000115  -0.012001
              19         20         21         22         23         24
     1  C    0.001473  -0.000001   0.000115   0.000000   0.000001   0.000000
     2  C   -0.010577   0.000876  -0.000973   0.000003  -0.000045   0.000025
     3  C    0.158907  -0.002570  -0.001792   0.000185   0.000819  -0.000962
     4  C   -0.095624  -0.002375  -0.003176  -0.000012  -0.000453   0.000400
     5  C   -0.051763  -0.000027   0.001770  -0.000019  -0.000030   0.000049
     6  C    0.011811  -0.000008  -0.000355  -0.000001   0.000000  -0.000001
     7  H    0.000020   0.000000   0.000000   0.000000   0.000000   0.000000
     8  H    0.000315   0.000000  -0.000003   0.000000   0.000000   0.000000
     9  H    0.001151   0.000000  -0.000002   0.000000   0.000000   0.000000
    10  H   -0.000008   0.000000   0.000000   0.000000   0.000000   0.000000
    11  C   -0.078057  -0.004213   0.016586   0.000377  -0.000509   0.001612
    12  C    0.185497   0.001190  -0.018954   0.000636   0.001910  -0.004129
    13  C   -0.008706  -0.003441   0.017083  -0.000529   0.001189   0.003561
    14  C   -0.281083   0.012749  -0.005723  -0.002684   0.002029   0.000234
    15  H   -0.018873  -0.004096  -0.002256  -0.000017  -0.000082   0.000104
    16  O   -0.031708  -0.000041   0.002433   0.000001   0.000002   0.000008
    17  Cl   0.008232   0.000208   0.000131  -0.000001   0.000005   0.000012
    18  C    0.219055  -0.024263   0.003245  -0.033804  -0.155529  -0.023084
    19  C    5.989317   0.398443  -0.039845  -0.013149   0.067550  -0.054734
    20  H    0.398443   0.494297   0.004511  -0.000459  -0.000126   0.000984
    21  C   -0.039845   0.004511   5.175462   0.429582   0.463242   0.430818
    22  H   -0.013149  -0.000459   0.429582   0.535171  -0.019009  -0.034728
    23  H    0.067550  -0.000126   0.463242  -0.019009   0.529056  -0.020705
    24  H   -0.054734   0.000984   0.430818  -0.034728  -0.020705   0.541212
    25  C    0.048806  -0.012331  -0.040627   0.000452  -0.015054   0.009000
    26  H    0.019129   0.000232  -0.026581  -0.000102  -0.000196  -0.000007
    27  H   -0.029172  -0.000341  -0.002647   0.003532  -0.000089  -0.001032
    28  H   -0.008215   0.000022   0.021160  -0.000236  -0.000133   0.003237
    29  C    0.049511  -0.026018  -0.002646  -0.011645   0.010500   0.008123
    30  H   -0.053413  -0.003822  -0.000379   0.000038  -0.000087  -0.000015
    31  H   -0.035095   0.000987   0.001634   0.000064  -0.000002  -0.000024
    32  H   -0.007706   0.000935  -0.000230  -0.000007  -0.000043   0.000060
              25         26         27         28         29         30
     1  C   -0.000060  -0.000002   0.000004  -0.000006   0.006735   0.000327
     2  C   -0.002943  -0.000318   0.000047  -0.000065   0.002038  -0.005211
     3  C    0.000676  -0.000291   0.000189  -0.000435  -0.053738  -0.004263
     4  C   -0.022511   0.003816   0.002303  -0.002426  -0.065173   0.003842
     5  C    0.002954   0.000350  -0.000281   0.000490   0.055422   0.006126
     6  C    0.001877   0.000108  -0.000029   0.000025  -0.022794   0.000682
     7  H    0.000000   0.000000   0.000000   0.000000  -0.000109   0.000000
     8  H   -0.000001   0.000000   0.000000   0.000000  -0.000431  -0.000001
     9  H    0.000118  -0.000001   0.000000   0.000000   0.000766  -0.000001
    10  H   -0.000002   0.000000   0.000000   0.000000   0.000240   0.000000
    11  C   -0.054362   0.004628   0.006623  -0.002518  -0.034569   0.003194
    12  C    0.018367   0.001574  -0.001228   0.000282  -0.288650  -0.013606
    13  C   -0.028301  -0.021862   0.016594  -0.018456   0.160945  -0.015823
    14  C    0.022785   0.000180  -0.010152   0.009449  -0.096186   0.006278
    15  H   -0.000938  -0.000014  -0.000001   0.000041   0.028662   0.000606
    16  O   -0.004295   0.001864   0.000006   0.000113  -0.002538   0.003855
    17  Cl   0.000061   0.000001  -0.000003   0.000007  -0.000258  -0.000079
    18  C    0.071194  -0.057495  -0.016644  -0.073941  -0.128668  -0.004576
    19  C    0.048806   0.019129  -0.029172  -0.008215   0.049511  -0.053413
    20  H   -0.012331   0.000232  -0.000341   0.000022  -0.026018  -0.003822
    21  C   -0.040627  -0.026581  -0.002647   0.021160  -0.002646  -0.000379
    22  H    0.000452  -0.000102   0.003532  -0.000236  -0.011645   0.000038
    23  H   -0.015054  -0.000196  -0.000089  -0.000133   0.010500  -0.000087
    24  H    0.009000  -0.000007  -0.001032   0.003237   0.008123  -0.000015
    25  C    5.158133   0.419055   0.401581   0.463010  -0.002721   0.008627
    26  H    0.419055   0.504838  -0.017655  -0.020607   0.039546   0.000917
    27  H    0.401581  -0.017655   0.536254  -0.027473  -0.005821   0.000049
    28  H    0.463010  -0.020607  -0.027473   0.513164  -0.012890  -0.000081
    29  C   -0.002721   0.039546  -0.005821  -0.012890   5.931668   0.415147
    30  H    0.008627   0.000917   0.000049  -0.000081   0.415147   0.498805
    31  H   -0.016833  -0.002854   0.000631   0.000295   0.477643  -0.006226
    32  H    0.008709   0.000944   0.000047  -0.000733  -0.022392   0.003161
              31         32
     1  C   -0.000314   0.000273
     2  C    0.001812  -0.004692
     3  C    0.007041   0.001549
     4  C    0.014989  -0.005935
     5  C   -0.005569   0.005724
     6  C   -0.000888   0.001251
     7  H    0.000000   0.000000
     8  H    0.000000  -0.000002
     9  H   -0.000003  -0.000028
    10  H    0.000000   0.000000
    11  C   -0.017517  -0.025044
    12  C    0.008451  -0.006867
    13  C   -0.104325   0.423660
    14  C   -0.004885  -0.031003
    15  H   -0.000277  -0.003397
    16  O    0.001353   0.002411
    17  Cl  -0.000051  -0.000115
    18  C    0.030231  -0.012001
    19  C   -0.035095  -0.007706
    20  H    0.000987   0.000935
    21  C    0.001634  -0.000230
    22  H    0.000064  -0.000007
    23  H   -0.000002  -0.000043
    24  H   -0.000024   0.000060
    25  C   -0.016833   0.008709
    26  H   -0.002854   0.000944
    27  H    0.000631   0.000047
    28  H    0.000295  -0.000733
    29  C    0.477643  -0.022392
    30  H   -0.006226   0.003161
    31  H    0.468365  -0.000419
    32  H   -0.000419   0.522247
 Mulliken charges:
               1
     1  C   -0.053239
     2  C   -0.172963
     3  C    0.100921
     4  C   -0.064860
     5  C   -0.107013
     6  C   -0.090494
     7  H    0.166123
     8  H    0.180491
     9  H    0.188294
    10  H    0.165000
    11  C    0.066340
    12  C    0.128506
    13  C    0.046664
    14  C   -0.208359
    15  H    0.211928
    16  O   -0.454354
    17  Cl  -0.179013
    18  C    0.152604
    19  C   -0.341489
    20  H    0.168696
    21  C   -0.421583
    22  H    0.146363
    23  H    0.135790
    24  H    0.139983
    25  C   -0.434425
    26  H    0.150803
    27  H    0.144708
    28  H    0.156920
    29  C   -0.409699
    30  H    0.155928
    31  H    0.181784
    32  H    0.149645
 Sum of Mulliken charges =   0.00000
 Mulliken charges with hydrogens summed into heavy atoms:
               1
     1  C    0.112884
     2  C    0.007529
     3  C    0.100921
     4  C   -0.064860
     5  C    0.081281
     6  C    0.074506
    11  C    0.066340
    12  C    0.128506
    13  C    0.196309
    14  C    0.003569
    16  O   -0.454354
    17  Cl  -0.179013
    18  C    0.152604
    19  C   -0.172792
    21  C    0.000552
    25  C    0.018006
    29  C   -0.071987
 Electronic spatial extent (au):  <R**2>=           5498.7666
 Charge=              0.0000 electrons
 Dipole moment (field-independent basis, Debye):
    X=             -0.0660    Y=              0.8831    Z=              0.5269  Tot=              1.0305
 Quadrupole moment (field-independent basis, Debye-Ang):
   XX=            -86.5464   YY=           -115.9897   ZZ=           -109.5705
   XY=             -4.4206   XZ=              4.1293   YZ=             -1.5631
 Traceless Quadrupole moment (field-independent basis, Debye-Ang):
   XX=             17.4891   YY=            -11.9542   ZZ=             -5.5349
   XY=             -4.4206   XZ=              4.1293   YZ=             -1.5631
 Octapole moment (field-independent basis, Debye-Ang**2):
  XXX=             30.3575  YYY=             17.0806  ZZZ=             -6.9791  XYY=              8.6962
  XXY=            -13.7236  XXZ=              3.1419  XZZ=             -8.9164  YZZ=              3.2632
  YYZ=              9.8597  XYZ=             -1.5893
 Hexadecapole moment (field-independent basis, Debye-Ang**3):
 XXXX=          -4926.5837 YYYY=          -1777.3522 ZZZZ=           -277.8779 XXXY=             -7.8835
 XXXZ=             90.9821 YYYX=            -31.1850 YYYZ=            -20.9658 ZZZX=              8.8384
 ZZZY=              6.0395 XXYY=          -1134.2041 XXZZ=          -1006.7271 YYZZ=           -345.9367
 XXYZ=             -2.9299 YYXZ=              3.0253 ZZXY=              5.5937
 N-N= 1.239409372622D+03 E-N=-5.097215306770D+03  KE= 1.112188975431D+03
 1\1\GINC-D12S0B4\FOpt\RwB97XD\Gen\C15H15Cl1O1\PMMASS\04-Feb-2022\0\\#n
  wB97XD/Gen scrf(smd,solvent=toluene) opt\\clasisen product in toluene
  - opt\\0,1\C,4.310979488,-0.2977116421,0.3710749985\C,3.3483326254,0.
 6784551123,0.1825573844\C,2.0243850345,0.3292818756,-0.0703115446\C,1.
 6874500496,-1.0331527282,-0.1352149321\C,2.6662864338,-2.0032041032,0.
 0504768155\C,3.975085307,-1.6429820304,0.3070846334\H,5.3344866161,-0.
 004036107,0.5682134278\H,3.6288523256,1.7209516141,0.23139105\H,2.3768
 849854,-3.0441204039,-0.0119239744\H,4.7315658242,-2.4029518724,0.4539
 818419\C,0.2953597752,-1.4635240296,-0.4166042248\C,0.9645871176,1.322
 7028985,-0.2821560417\C,-0.7934927986,-0.4115345923,-0.437950821\C,-0.
 3089210403,0.9983923469,-0.4651886519\H,-1.0522649489,1.771231411,-0.6
 138547246\O,0.0148096398,-2.6279503462,-0.6025715298\Cl,1.4179672449,3
 .0094654407,-0.2930170585\C,-4.1036541544,-0.0226457604,0.1289236638\C
 ,-2.9535268327,0.2318909139,0.7519581662\H,-2.8625108611,1.1770576625,
 1.2796647917\C,-5.2437125206,0.9527602742,0.1695734359\H,-6.1286112068
 ,0.4946473503,0.6215387322\H,-4.9955295989,1.8498781582,0.7376140258\H
 ,-5.5305682112,1.2550238975,-0.8422888916\C,-4.376716023,-1.2686022895
 ,-0.6613461357\H,-3.5584784963,-1.9866431616,-0.6411466318\H,-5.275039
 7165,-1.7672186435,-0.285981909\H,-4.5751117314,-1.0171852164,-1.70767
 96959\C,-1.7406489133,-0.6518221157,0.7737302951\H,-1.1755883971,-0.47
 57710523,1.692393889\H,-2.0139693188,-1.70680399,0.7620960688\H,-1.386
 5776969,-0.5996088711,-1.3383064527\\Version=ES64L-G09RevD.01\State=1-
 A\HF=-1116.0885866\RMSD=3.584e-09\RMSF=1.258e-05\Dipole=-0.0285485,0.3
 466694,0.2082598\Quadrupole=12.9539657,-8.8907573,-4.0632084,-3.248194
 4,3.2237368,-1.2045991\PG=C01 [X(C15H15Cl1O1)]\\@


 MICHAEL FARADAY, ASKED BY A POLITICIAN WHAT GOOD
 HIS ELECTRICAL DISCOVERIES WERE, REPLIED 
 "AT PRESENT I DO NOT KNOW, BUT ONE DAY YOU WILL BE
 ABLE TO TAX THEM."
 Job cpu time:       1 days  6 hours  6 minutes 52.1 seconds.
 File lengths (MBytes):  RWF=    394 Int=      0 D2E=      0 Chk=     33 Scr=      1
 Normal termination of Gaussian 09 at Fri Feb  4 17:41:03 2022.
