 Entering Gaussian System, Link 0=g09
 Input=prod_claisen_ma_freq.com
 Output=prod_claisen_ma_freq.log
 Initial command:
 /apps/applications/gaussian/G09.D01/2/default/g09/l1.exe "/nobackup/pmmass/Temp/Gau-164224.inp" -scrdir="/nobackup/pmmass/Temp/"
 Entering Link 1 = /apps/applications/gaussian/G09.D01/2/default/g09/l1.exe PID=    164225.
  
 Copyright (c) 1988,1990,1992,1993,1995,1998,2003,2009,2013,
            Gaussian, Inc.  All Rights Reserved.
  
 This is part of the Gaussian(R) 09 program.  It is based on
 the Gaussian(R) 03 system (copyright 2003, Gaussian, Inc.),
 the Gaussian(R) 98 system (copyright 1998, Gaussian, Inc.),
 the Gaussian(R) 94 system (copyright 1995, Gaussian, Inc.),
 the Gaussian 92(TM) system (copyright 1992, Gaussian, Inc.),
 the Gaussian 90(TM) system (copyright 1990, Gaussian, Inc.),
 the Gaussian 88(TM) system (copyright 1988, Gaussian, Inc.),
 the Gaussian 86(TM) system (copyright 1986, Carnegie Mellon
 University), and the Gaussian 82(TM) system (copyright 1983,
 Carnegie Mellon University). Gaussian is a federally registered
 trademark of Gaussian, Inc.
  
 This software contains proprietary and confidential information,
 including trade secrets, belonging to Gaussian, Inc.
  
 This software is provided under written license and may be
 used, copied, transmitted, or stored only in accord with that
 written license.
  
 The following legend is applicable only to US Government
 contracts under FAR:
  
                    RESTRICTED RIGHTS LEGEND
  
 Use, reproduction and disclosure by the US Government is
 subject to restrictions as set forth in subparagraphs (a)
 and (c) of the Commercial Computer Software - Restricted
 Rights clause in FAR 52.227-19.
  
 Gaussian, Inc.
 340 Quinnipiac St., Bldg. 40, Wallingford CT 06492
  
  
 ---------------------------------------------------------------
 Warning -- This program may not be used in any manner that
 competes with the business of Gaussian, Inc. or will provide
 assistance to any competitor of Gaussian, Inc.  The licensee
 of this program is prohibited from giving any competitor of
 Gaussian, Inc. access to this program.  By using this program,
 the user acknowledges that Gaussian, Inc. is engaged in the
 business of creating and licensing software in the field of
 computational chemistry and represents and warrants to the
 licensee that it is not a competitor of Gaussian, Inc. and that
 it will not use this program in any manner prohibited above.
 ---------------------------------------------------------------
  

 Cite this work as:
 Gaussian 09, Revision D.01,
 M. J. Frisch, G. W. Trucks, H. B. Schlegel, G. E. Scuseria, 
 M. A. Robb, J. R. Cheeseman, G. Scalmani, V. Barone, B. Mennucci, 
 G. A. Petersson, H. Nakatsuji, M. Caricato, X. Li, H. P. Hratchian, 
 A. F. Izmaylov, J. Bloino, G. Zheng, J. L. Sonnenberg, M. Hada, 
 M. Ehara, K. Toyota, R. Fukuda, J. Hasegawa, M. Ishida, T. Nakajima, 
 Y. Honda, O. Kitao, H. Nakai, T. Vreven, J. A. Montgomery, Jr., 
 J. E. Peralta, F. Ogliaro, M. Bearpark, J. J. Heyd, E. Brothers, 
 K. N. Kudin, V. N. Staroverov, T. Keith, R. Kobayashi, J. Normand, 
 K. Raghavachari, A. Rendell, J. C. Burant, S. S. Iyengar, J. Tomasi, 
 M. Cossi, N. Rega, J. M. Millam, M. Klene, J. E. Knox, J. B. Cross, 
 V. Bakken, C. Adamo, J. Jaramillo, R. Gomperts, R. E. Stratmann, 
 O. Yazyev, A. J. Austin, R. Cammi, C. Pomelli, J. W. Ochterski, 
 R. L. Martin, K. Morokuma, V. G. Zakrzewski, G. A. Voth, 
 P. Salvador, J. J. Dannenberg, S. Dapprich, A. D. Daniels, 
 O. Farkas, J. B. Foresman, J. V. Ortiz, J. Cioslowski, 
 and D. J. Fox, Gaussian, Inc., Wallingford CT, 2013.
 
 ******************************************
 Gaussian 09:  ES64L-G09RevD.01 24-Apr-2013
                 7-Feb-2022 
 ******************************************
 %nprocshared=8
 Will use up to    8 processors via shared memory.
 %mem=4GB
 %NoSave
 %chk="prod_claisen_ma_freq.chk"
 --------------------------------------------
 #n wB97XD/Gen scrf(smd,solvent=toluene) freq
 --------------------------------------------
 1/10=4,30=1,38=1/1,3;
 2/12=2,17=6,18=5,40=1/2;
 3/5=7,11=2,16=1,25=1,30=1,70=32201,71=2,72=13,74=-58,140=1/1,2,3;
 4//1;
 5/5=2,38=5,53=13,98=1/2;
 8/6=4,10=90,11=11/1;
 11/6=1,8=1,9=11,15=111,16=1/1,2,10;
 10/6=1/2;
 6/7=2,8=2,9=2,10=2,18=1,28=1/1;
 7/8=1,10=1,25=1/1,2,3,16;
 1/10=4,30=1/3;
 99//99;
 ----------------------------------
 clasisen product in toluene - freq
 ----------------------------------
 Symbolic Z-matrix:
 Charge =  0 Multiplicity = 1
 C                     4.31241  -0.30158   0.38706 
 C                     3.34969   0.67561   0.20433 
 C                     2.02279   0.32789  -0.03466 
 C                     1.6829   -1.03417  -0.09158 
 C                     2.66179  -2.00528   0.08815 
 C                     3.9736   -1.64647   0.33098 
 H                     5.33826  -0.00902   0.57338 
 H                     3.63246   1.71778   0.24684 
 H                     2.37001  -3.0459    0.03215 
 H                     4.73014  -2.40726   0.4733 
 C                     0.28744  -1.46307  -0.35815 
 C                     0.96273   1.32243  -0.23984 
 C                    -0.79975  -0.40924  -0.37278 
 C                    -0.31303   0.99973  -0.40957 
 H                    -1.05643   1.77335  -0.55383 
 O                     0.00312  -2.62764  -0.53736 
 Cl                    1.41889   3.00835  -0.26093 
 C                    -4.10367  -0.01256   0.22432 
 C                    -2.9472    0.24212   0.83545 
 H                    -2.84952   1.18895   1.35896 
 C                    -5.2416    0.96498   0.27245 
 H                    -6.12293   0.51      0.73445 
 H                    -4.98645   1.86363   0.83496 
 H                    -5.53759   1.26423  -0.73768 
 C                    -4.38642  -1.26078  -0.55894 
 H                    -3.56927  -1.98018  -0.54405 
 H                    -5.28197  -1.75651  -0.17327 
 H                    -4.59437  -1.01266  -1.6042 
 C                    -1.7357   -0.64365   0.84873 
 H                    -1.16158  -0.46539   1.76133 
 H                    -2.01093  -1.69818   0.84339 
 H                    -1.40174  -0.5994   -1.26676 
 

 GradGradGradGradGradGradGradGradGradGradGradGradGradGradGradGradGradGrad
 Berny optimization.
 Initialization pass.
 Trust Radius=3.00D-01 FncErr=1.00D-07 GrdErr=1.00D-07
 Number of steps in this run=      2 maximum allowed number of steps=      2.
 GradGradGradGradGradGradGradGradGradGradGradGradGradGradGradGradGradGrad

                          Input orientation:                          
 ---------------------------------------------------------------------
 Center     Atomic      Atomic             Coordinates (Angstroms)
 Number     Number       Type             X           Y           Z
 ---------------------------------------------------------------------
      1          6           0        4.312410   -0.301580    0.387060
      2          6           0        3.349690    0.675610    0.204330
      3          6           0        2.022790    0.327890   -0.034660
      4          6           0        1.682900   -1.034170   -0.091580
      5          6           0        2.661790   -2.005280    0.088150
      6          6           0        3.973600   -1.646470    0.330980
      7          1           0        5.338260   -0.009020    0.573380
      8          1           0        3.632460    1.717780    0.246840
      9          1           0        2.370010   -3.045900    0.032150
     10          1           0        4.730140   -2.407260    0.473300
     11          6           0        0.287440   -1.463070   -0.358150
     12          6           0        0.962730    1.322430   -0.239840
     13          6           0       -0.799750   -0.409240   -0.372780
     14          6           0       -0.313030    0.999730   -0.409570
     15          1           0       -1.056430    1.773350   -0.553830
     16          8           0        0.003120   -2.627640   -0.537360
     17         17           0        1.418890    3.008350   -0.260930
     18          6           0       -4.103670   -0.012560    0.224320
     19          6           0       -2.947200    0.242120    0.835450
     20          1           0       -2.849520    1.188950    1.358960
     21          6           0       -5.241600    0.964980    0.272450
     22          1           0       -6.122930    0.510000    0.734450
     23          1           0       -4.986450    1.863630    0.834960
     24          1           0       -5.537590    1.264230   -0.737680
     25          6           0       -4.386420   -1.260780   -0.558940
     26          1           0       -3.569270   -1.980180   -0.544050
     27          1           0       -5.281970   -1.756510   -0.173270
     28          1           0       -4.594370   -1.012660   -1.604200
     29          6           0       -1.735700   -0.643650    0.848730
     30          1           0       -1.161580   -0.465390    1.761330
     31          1           0       -2.010930   -1.698180    0.843390
     32          1           0       -1.401740   -0.599400   -1.266760
 ---------------------------------------------------------------------
                    Distance matrix (angstroms):
                    1          2          3          4          5
     1  C    0.000000
     2  C    1.383879   0.000000
     3  C    2.411730   1.392368   0.000000
     4  C    2.771301   2.406055   1.404981   0.000000
     5  C    2.390918   2.770176   2.422207   1.390533   0.000000
     6  C    1.388044   2.407771   2.799545   2.408480   1.381505
     7  H    1.082901   2.135258   3.387560   3.854187   3.374017
     8  H    2.135371   1.080687   2.145245   3.389475   3.850787
     9  H    3.380854   3.852149   3.392268   2.129433   1.082202
    10  H    2.148447   3.388521   3.881857   3.389710   2.141962
    11  C    4.254971   3.777262   2.514682   1.484023   2.476028
    12  C    3.775019   2.512616   1.467970   2.468641   3.750738
    13  C    5.169442   4.327564   2.936736   2.575493   3.839539
    14  C    4.870598   3.727928   2.459264   2.867334   4.257624
    15  H    5.832242   4.603665   3.441001   3.949655   5.339976
    16  O    4.983481   4.760367   3.614821   2.357865   2.801271
    17  Cl   4.443871   3.063679   2.756947   4.054670   5.177175
    18  C    8.422614   7.485089   6.141375   5.884545   7.054142
    19  C    7.293737   6.343268   5.046310   4.891434   6.088516
    20  H    7.379669   6.326681   5.140331   5.252538   6.495583
    21  C    9.638279   8.596432   7.298737   7.216496   8.445116
    22  H   10.472615   9.488887   8.183975   7.999861   9.160548
    23  H    9.558114   8.443951   7.228014   7.330481   8.603590
    24  H   10.036897   8.956428   7.650511   7.604970   8.865750
    25  C    8.802535   8.011216   6.623950   6.091504   7.116900
    26  H    8.112062   7.448846   6.071063   5.355834   6.263100
    27  H    9.720232   8.975709   7.597595   7.002704   7.951953
    28  H    9.154315   8.320404   6.931619   6.456981   7.516728
    29  C    6.075342   5.293098   3.981271   3.567004   4.665880
    30  H    5.646239   4.906902   3.741001   3.442071   4.448477
    31  H    6.491792   5.897417   4.598568   3.867746   4.743312
    32  H    5.956117   5.134768   3.755708   3.329426   4.508276
                    6          7          8          9         10
     6  C    0.000000
     7  H    2.145297   0.000000
     8  H    3.382548   2.449126   0.000000
     9  H    2.149233   4.280897   4.932800   0.000000
    10  H    1.082317   2.476163   4.274592   2.484489   0.000000
    11  C    3.754505   5.337864   4.655425   2.644765   4.617400
    12  C    4.266795   4.645358   2.742374   4.597469   5.349069
    13  C    4.981053   6.223388   4.955061   4.142864   5.940338
    14  C    5.091757   5.824161   4.063664   4.874520   6.149846
    15  H    6.146483   6.733462   4.757084   5.942141   7.212273
    16  O    4.181079   6.046043   5.715746   2.470112   4.838876
    17  Cl   5.342682   5.016179   2.612143   6.135509   6.390016
    18  C    8.241561   9.448381   7.927313   7.151686   9.156024
    19  C    7.191574   8.293407   6.768749   6.303102   8.129694
    20  H    7.459981   8.312160   6.597919   6.851122   8.436135
    21  C    9.578257  10.628860   8.905970   8.607062  10.528435
    22  H   10.332138  11.474066   9.841958   9.234050  11.241340
    23  H    9.636249  10.496422   8.640183   8.880625  10.619954
    24  H   10.003846  11.028334   9.233894   9.038805  10.971444
    25  C    8.416095   9.870079   8.592062   7.013229   9.246167
    26  H    7.600785   9.191203   8.134207   6.061585   8.372431
    27  H    9.269949  10.788906   9.576755   7.762572  10.054048
    28  H    8.806631  10.217939   8.863542   7.437358   9.654398
    29  C    5.819778   7.107706   5.895402   4.826434   6.712552
    30  H    5.459938   6.623248   5.481125   4.703320   6.335791
    31  H    6.006649   7.545645   6.623632   4.654793   6.788357
    32  H    5.704683   7.011581   5.744865   4.679597   6.625415
                   11         12         13         14         15
    11  C    0.000000
    12  C    2.868628   0.000000
    13  C    1.514184   2.474407   0.000000
    14  C    2.535467   1.326841   1.491123   0.000000
    15  H    3.509799   2.092588   2.205077   1.082563   0.000000
    16  O    1.212096   4.075834   2.364949   3.643363   4.526768
    17  Cl   4.613375   1.746669   4.076125   2.656350   2.781766
    18  C    4.661019   5.259853   3.380794   3.974355   3.616720
    19  C    3.846459   4.196531   2.548653   3.010465   2.801745
    20  H    4.452212   4.136089   3.123250   3.097948   2.686161
    21  C    6.071521   6.235697   4.694128   4.975657   4.341872
    22  H    6.795559   7.198323   5.514273   5.941679   5.378210
    23  H    6.348572   6.069665   4.914573   4.912844   4.169166
    24  H    6.443072   6.519616   5.037934   5.241531   4.513734
    25  C    4.682543   5.948799   3.691067   4.660979   4.504976
    26  H    3.895661   5.615942   3.188640   4.415999   4.517018
    27  H    5.580199   6.962800   4.684574   5.687096   5.519051
    28  H    5.058417   6.180250   4.034805   4.879214   4.624084
    29  C    2.494214   3.511692   1.556611   2.511575   2.875843
    30  H    2.754491   3.422525   2.165294   2.753075   3.222263
    31  H    2.604127   4.374943   2.146484   3.425126   3.861970
    32  H    2.103527   3.215387   1.094419   2.115959   2.501490
                   16         17         18         19         20
    16  O    0.000000
    17  Cl   5.817663   0.000000
    18  C    4.927933   6.313480   0.000000
    19  C    4.338723   5.283637   1.332578   0.000000
    20  H    5.128347   4.914630   2.074591   1.086320   0.000000
    21  C    6.408572   6.987273   1.500928   2.470580   2.636800
    22  H    6.999341   8.006971   2.147257   3.188608   3.400911
    23  H    6.852049   6.598465   2.161544   2.605347   2.301356
    24  H    6.773939   7.187618   2.147502   3.198369   3.409881
    25  C    4.597481   7.212205   1.500499   2.504872   3.470098
    26  H    3.630595   7.060264   2.178877   2.688607   3.766015
    27  H    5.368762   8.222719   2.141922   3.234685   4.115857
    28  H    4.988309   7.357458   2.141138   3.199927   4.083124
    29  C    2.980093   4.951756   2.528922   1.500832   2.204394
    30  H    3.363901   4.776529   3.350127   2.132197   2.397474
    31  H    2.612808   5.927446   2.757557   2.154398   3.050339
    32  H    2.572822   4.688657   3.141357   2.741512   3.491227
                   21         22         23         24         25
    21  C    0.000000
    22  H    1.094163   0.000000
    23  H    1.090454   1.770312   0.000000
    24  H    1.094314   1.754609   1.770941   0.000000
    25  C    2.525183   2.797139   3.473461   2.780794   0.000000
    26  H    3.483867   3.789029   4.322608   3.799733   1.088803
    27  H    2.758043   2.582293   3.769519   3.083629   1.093846
    28  H    2.802103   3.181866   3.791606   2.612422   1.094246
    29  C    3.900144   4.537814   4.105365   4.539942   3.064099
    30  H    4.572667   5.159541   4.572978   5.327861   4.051653
    31  H    4.225591   4.668669   4.641151   4.869598   2.792991
    32  H    4.422779   5.246451   4.830516   4.567089   3.137953
                   26         27         28         29         30
    26  H    0.000000
    27  H    1.766592   0.000000
    28  H    1.763758   1.753188   0.000000
    29  C    2.662354   3.854734   3.784842   0.000000
    30  H    3.661466   4.731520   4.838424   1.092808   0.000000
    31  H    2.105454   3.425887   3.624196   1.089869   1.756070
    32  H    2.669653   4.194140   3.236902   2.142145   3.040553
                   31         32
    31  H    0.000000
    32  H    2.455843   0.000000
 Stoichiometry    C15H15ClO
 Framework group  C1[X(C15H15ClO)]
 Deg. of freedom    90
 Full point group                 C1      NOp   1
 Largest Abelian subgroup         C1      NOp   1
 Largest concise Abelian subgroup C1      NOp   1
                         Standard orientation:                         
 ---------------------------------------------------------------------
 Center     Atomic      Atomic             Coordinates (Angstroms)
 Number     Number       Type             X           Y           Z
 ---------------------------------------------------------------------
      1          6           0        4.312410   -0.301579    0.387060
      2          6           0        3.349689    0.675611    0.204330
      3          6           0        2.022789    0.327890   -0.034660
      4          6           0        1.682900   -1.034170   -0.091580
      5          6           0        2.661790   -2.005279    0.088150
      6          6           0        3.973600   -1.646469    0.330980
      7          1           0        5.338260   -0.009018    0.573380
      8          1           0        3.632459    1.717781    0.246840
      9          1           0        2.370011   -3.045899    0.032150
     10          1           0        4.730140   -2.407259    0.473300
     11          6           0        0.287440   -1.463070   -0.358150
     12          6           0        0.962729    1.322430   -0.239840
     13          6           0       -0.799750   -0.409241   -0.372780
     14          6           0       -0.313031    0.999730   -0.409570
     15          1           0       -1.056431    1.773349   -0.553830
     16          8           0        0.003120   -2.627640   -0.537360
     17         17           0        1.418889    3.008350   -0.260930
     18          6           0       -4.103670   -0.012562    0.224320
     19          6           0       -2.947201    0.242119    0.835450
     20          1           0       -2.849521    1.188949    1.358960
     21          6           0       -5.241601    0.964978    0.272450
     22          1           0       -6.122931    0.509998    0.734450
     23          1           0       -4.986451    1.863628    0.834960
     24          1           0       -5.537591    1.264228   -0.737680
     25          6           0       -4.386420   -1.260782   -0.558940
     26          1           0       -3.569270   -1.980181   -0.544050
     27          1           0       -5.281970   -1.756512   -0.173270
     28          1           0       -4.594370   -1.012662   -1.604200
     29          6           0       -1.735700   -0.643651    0.848730
     30          1           0       -1.161580   -0.465391    1.761330
     31          1           0       -2.010930   -1.698181    0.843390
     32          1           0       -1.401740   -0.599401   -1.266760
 ---------------------------------------------------------------------
 Rotational constants (GHZ):      0.7056169      0.2523687      0.1932647
 General basis read from cards:  (5D, 7F)
 There are   776 symmetry adapted cartesian basis functions of A   symmetry.
 There are   691 symmetry adapted basis functions of A   symmetry.
   691 basis functions,  1073 primitive gaussians,   776 cartesian basis functions
    65 alpha electrons       65 beta electrons
       nuclear repulsion energy      1239.4445396956 Hartrees.
 NAtoms=   32 NActive=   32 NUniq=   32 SFac= 1.00D+00 NAtFMM=   60 NAOKFM=F Big=F
 Integral buffers will be    131072 words long.
 Raffenetti 2 integral format.
 Two-electron integral symmetry is turned on.
 Nuclear repulsion after empirical dispersion term =     1239.4216665593 Hartrees.
 Force inversion solution in PCM.
 ------------------------------------------------------------------------------
 Polarizable Continuum Model (PCM)
 =================================
 Model                : PCM (using non-symmetric T matrix).
 Atomic radii         : SMD-Coulomb.
 Polarization charges : Total charges.
 Charge compensation  : None.
 Solution method      : Matrix inversion.
 Cavity type          : VdW (van der Waals Surface) (Alpha=1.000).
 Cavity algorithm     : GePol (No added spheres)
                        Default sphere list used, NSphG=   32.
                        Lebedev-Laikov grids with approx.  5.0 points / Ang**2.
                        Smoothing algorithm: Karplus/York (Gamma=1.0000).
                        Polarization charges: spherical gaussians, with
                                              point-specific exponents (IZeta= 3).
                        Self-potential: point-specific (ISelfS= 7).
                        Self-field    : sphere-specific E.n sum rule (ISelfD= 2).
 1st derivatives      : Analytical E(r).r(x)/FMM algorithm (CHGder, D1EAlg=3).
                        Cavity 1st derivative terms included.
 2nd derivatives      : Analytical E(r).r(xy)/FMM algorithm (CHGder, D2EAlg=3).
                        Cavity 2nd derivative terms included.
 Solvent              : Toluene, Eps=   2.374100 Eps(inf)=   2.238315
 ------------------------------------------------------------------------------
 ------------------------------------------------------------------------------
 Atomic radii for non-electrostatic terms: SMD-CDS.
 ------------------------------------------------------------------------------
 Nuclear repulsion after PCM non-electrostatic terms =     1239.4090008616 Hartrees.
 One-electron integrals computed using PRISM.
 NBasis=   691 RedAO= T EigKep=  1.10D-06  NBF=   691
 NBsUse=   686 1.00D-06 EigRej=  8.39D-07 NBFU=   686
 ExpMin= 3.17D-02 ExpMax= 6.95D+04 ExpMxC= 2.37D+03 IAcc=3 IRadAn=         5 AccDes= 0.00D+00
 Harris functional with IExCor= 4639 and IRadAn=       5 diagonalized for initial guess.
 HarFok:  IExCor= 4639 AccDes= 0.00D+00 IRadAn=         5 IDoV= 1 UseB2=F ITyADJ=14
 ICtDFT=  3500011 ScaDFX=  1.000000  1.000000  1.000000  1.000000
 FoFCou: FMM=F IPFlag=           0 FMFlag=      100000 FMFlg1=           0
         NFxFlg=           0 DoJE=T BraDBF=F KetDBF=T FulRan=T
         wScrn=  0.000000 ICntrl=     500 IOpCl=  0 I1Cent=   200000004 NGrid=           0
         NMat0=    1 NMatS0=      1 NMatT0=    0 NMatD0=    1 NMtDS0=    0 NMtDT0=    0
 Petite list used in FoFCou.
 Requested convergence on RMS density matrix=1.00D-08 within 128 cycles.
 Requested convergence on MAX density matrix=1.00D-06.
 Requested convergence on             energy=1.00D-06.
 No special actions if energy rises.
 Inv3:  Mode=1 IEnd=    19845552.
 Iteration    1 A*A^-1 deviation from unit magnitude is 5.66D-15 for   2562.
 Iteration    1 A*A^-1 deviation from orthogonality  is 2.47D-15 for   1617    202.
 Iteration    1 A^-1*A deviation from unit magnitude is 6.00D-15 for   2562.
 Iteration    1 A^-1*A deviation from orthogonality  is 4.23D-13 for   1382   1371.
 Error on total polarization charges =  0.02752
 SCF Done:  E(RwB97XD) =  -1116.08858659     A.U. after   15 cycles
            NFock= 15  Conv=0.74D-08     -V/T= 2.0035
 SMD-CDS (non-electrostatic) energy       (kcal/mol) =      -7.95
 (included in total energy above)
 DoSCS=F DFT=T ScalE2(SS,OS)=  1.000000  1.000000
 Range of M.O.s used for correlation:     1   686
 NBasis=   691 NAE=    65 NBE=    65 NFC=     0 NFV=     0
 NROrb=    686 NOA=    65 NOB=    65 NVA=   621 NVB=   621

 **** Warning!!: The largest alpha MO coefficient is  0.16178940D+03

 Symmetrizing basis deriv contribution to polar:
 IMax=3 JMax=2 DiffMx= 0.00D+00
 G2DrvN: will do    33 centers at a time, making    1 passes.
 Calling FoFCou, ICntrl=  3107 FMM=F I1Cent=   0 AccDes= 0.00D+00.
 NEqPCM:  Using equilibrium solvation (IEInf=0, Eps=   2.3741, EpsInf=   2.2383)
 G2PCM: DoFxE=T DoFxN=T DoGrad=T DoDP/DQ/DG/TGxP=FFFF NFrqRd=   0 IEInf=0 SqF1=F DoCFld=F IF1Alg=4.
 End of G2Drv F.D. properties file   721 does not exist.
 End of G2Drv F.D. properties file   722 does not exist.
 End of G2Drv F.D. properties file   788 does not exist.
          IDoAtm=11111111111111111111111111111111
 NEqPCM:  Using equilibrium solvation (IEInf=0, Eps=   2.3741, EpsInf=   2.2383)
          Differentiating once with respect to electric field.
                with respect to dipole field.
          Differentiating once with respect to nuclear coordinates.
          There are    99 degrees of freedom in the 1st order CPHF.  IDoFFX=6 NUNeed=     3.
     97 vectors produced by pass  0 Test12= 4.08D-14 1.01D-09 XBig12= 1.29D+02 4.51D+00.
 AX will form    97 AO Fock derivatives at one time.
     96 vectors produced by pass  1 Test12= 4.08D-14 1.01D-09 XBig12= 9.78D+00 3.54D-01.
     96 vectors produced by pass  2 Test12= 4.08D-14 1.01D-09 XBig12= 3.70D-01 1.02D-01.
     96 vectors produced by pass  3 Test12= 4.08D-14 1.01D-09 XBig12= 6.90D-03 9.59D-03.
     96 vectors produced by pass  4 Test12= 4.08D-14 1.01D-09 XBig12= 9.68D-05 9.22D-04.
     96 vectors produced by pass  5 Test12= 4.08D-14 1.01D-09 XBig12= 8.37D-07 8.62D-05.
     96 vectors produced by pass  6 Test12= 4.08D-14 1.01D-09 XBig12= 6.54D-09 5.26D-06.
     52 vectors produced by pass  7 Test12= 4.08D-14 1.01D-09 XBig12= 4.85D-11 4.03D-07.
     32 vectors produced by pass  8 Test12= 4.08D-14 1.01D-09 XBig12= 2.34D-12 1.63D-07.
     32 vectors produced by pass  9 Test12= 4.08D-14 1.01D-09 XBig12= 2.45D-13 4.28D-08.
     32 vectors produced by pass 10 Test12= 4.08D-14 1.01D-09 XBig12= 3.80D-14 1.76D-08.
     32 vectors produced by pass 11 Test12= 4.08D-14 1.01D-09 XBig12= 2.33D-13 5.44D-08.
     32 vectors produced by pass 12 Test12= 4.08D-14 1.01D-09 XBig12= 3.26D-13 4.74D-08.
     28 vectors produced by pass 13 Test12= 4.08D-14 1.01D-09 XBig12= 3.32D-14 1.31D-08.
     28 vectors produced by pass 14 Test12= 4.08D-14 1.01D-09 XBig12= 1.23D-13 2.53D-08.
     28 vectors produced by pass 15 Test12= 4.08D-14 1.01D-09 XBig12= 9.65D-14 2.34D-08.
     21 vectors produced by pass 16 Test12= 4.08D-14 1.01D-09 XBig12= 2.62D-14 1.15D-08.
     21 vectors produced by pass 17 Test12= 4.08D-14 1.01D-09 XBig12= 6.80D-14 1.69D-08.
     21 vectors produced by pass 18 Test12= 4.08D-14 1.01D-09 XBig12= 4.94D-14 1.49D-08.
     20 vectors produced by pass 19 Test12= 4.08D-14 1.01D-09 XBig12= 3.73D-14 1.32D-08.
     20 vectors produced by pass 20 Test12= 4.08D-14 1.01D-09 XBig12= 4.24D-14 1.22D-08.
     20 vectors produced by pass 21 Test12= 4.08D-14 1.01D-09 XBig12= 4.02D-14 1.24D-08.
     12 vectors produced by pass 22 Test12= 4.08D-14 1.01D-09 XBig12= 2.16D-14 8.43D-09.
     12 vectors produced by pass 23 Test12= 4.08D-14 1.01D-09 XBig12= 2.65D-14 8.95D-09.
     12 vectors produced by pass 24 Test12= 4.08D-14 1.01D-09 XBig12= 4.29D-14 1.17D-08.
      9 vectors produced by pass 25 Test12= 4.08D-14 1.01D-09 XBig12= 1.12D-14 5.44D-09.
      9 vectors produced by pass 26 Test12= 4.08D-14 1.01D-09 XBig12= 1.86D-14 7.12D-09.
      9 vectors produced by pass 27 Test12= 4.08D-14 1.01D-09 XBig12= 1.52D-14 7.01D-09.
      8 vectors produced by pass 28 Test12= 4.08D-14 1.01D-09 XBig12= 9.37D-15 6.27D-09.
      8 vectors produced by pass 29 Test12= 4.08D-14 1.01D-09 XBig12= 3.09D-14 8.92D-09.
      8 vectors produced by pass 30 Test12= 4.08D-14 1.01D-09 XBig12= 1.62D-14 9.03D-09.
      8 vectors produced by pass 31 Test12= 4.08D-14 1.01D-09 XBig12= 1.39D-14 6.60D-09.
      8 vectors produced by pass 32 Test12= 4.08D-14 1.01D-09 XBig12= 3.05D-14 9.34D-09.
      8 vectors produced by pass 33 Test12= 4.08D-14 1.01D-09 XBig12= 8.81D-15 5.25D-09.
      8 vectors produced by pass 34 Test12= 4.08D-14 1.01D-09 XBig12= 1.61D-14 6.46D-09.
      7 vectors produced by pass 35 Test12= 4.08D-14 1.01D-09 XBig12= 9.31D-15 5.50D-09.
      7 vectors produced by pass 36 Test12= 4.08D-14 1.01D-09 XBig12= 1.94D-14 6.87D-09.
      7 vectors produced by pass 37 Test12= 4.08D-14 1.01D-09 XBig12= 5.03D-14 1.29D-08.
      7 vectors produced by pass 38 Test12= 4.08D-14 1.01D-09 XBig12= 1.79D-14 6.89D-09.
      7 vectors produced by pass 39 Test12= 4.08D-14 1.01D-09 XBig12= 9.95D-15 6.24D-09.
      7 vectors produced by pass 40 Test12= 4.08D-14 1.01D-09 XBig12= 1.20D-14 5.40D-09.
      7 vectors produced by pass 41 Test12= 4.08D-14 1.01D-09 XBig12= 1.59D-14 7.53D-09.
      7 vectors produced by pass 42 Test12= 4.08D-14 1.01D-09 XBig12= 1.88D-14 7.75D-09.
      7 vectors produced by pass 43 Test12= 4.08D-14 1.01D-09 XBig12= 1.53D-14 5.51D-09.
      5 vectors produced by pass 44 Test12= 4.08D-14 1.01D-09 XBig12= 1.06D-14 4.81D-09.
      5 vectors produced by pass 45 Test12= 4.08D-14 1.01D-09 XBig12= 1.04D-14 5.58D-09.
      5 vectors produced by pass 46 Test12= 4.08D-14 1.01D-09 XBig12= 1.22D-14 7.20D-09.
      5 vectors produced by pass 47 Test12= 4.08D-14 1.01D-09 XBig12= 1.78D-14 7.19D-09.
      3 vectors produced by pass 48 Test12= 4.08D-14 1.01D-09 XBig12= 4.83D-15 3.39D-09.
      2 vectors produced by pass 49 Test12= 4.08D-14 1.01D-09 XBig12= 2.43D-15 2.46D-09.
 InvSVY:  IOpt=1 It=  1 EMax= 1.78D-14
 Solved reduced A of dimension  1299 with    99 vectors.
 Isotropic polarizability for W=    0.000000      228.83 Bohr**3.
 End of Minotr F.D. properties file   721 does not exist.
 End of Minotr F.D. properties file   722 does not exist.
 End of Minotr F.D. properties file   788 does not exist.

 **********************************************************************

            Population analysis using the SCF density.

 **********************************************************************

 Orbital symmetries:
       Occupied  (A) (A) (A) (A) (A) (A) (A) (A) (A) (A) (A) (A)
                 (A) (A) (A) (A) (A) (A) (A) (A) (A) (A) (A) (A)
                 (A) (A) (A) (A) (A) (A) (A) (A) (A) (A) (A) (A)
                 (A) (A) (A) (A) (A) (A) (A) (A) (A) (A) (A) (A)
                 (A) (A) (A) (A) (A) (A) (A) (A) (A) (A) (A) (A)
                 (A) (A) (A) (A) (A)
       Virtual   (A) (A) (A) (A) (A) (A) (A) (A) (A) (A) (A) (A)
                 (A) (A) (A) (A) (A) (A) (A) (A) (A) (A) (A) (A)
                 (A) (A) (A) (A) (A) (A) (A) (A) (A) (A) (A) (A)
                 (A) (A) (A) (A) (A) (A) (A) (A) (A) (A) (A) (A)
                 (A) (A) (A) (A) (A) (A) (A) (A) (A) (A) (A) (A)
                 (A) (A) (A) (A) (A) (A) (A) (A) (A) (A) (A) (A)
                 (A) (A) (A) (A) (A) (A) (A) (A) (A) (A) (A) (A)
                 (A) (A) (A) (A) (A) (A) (A) (A) (A) (A) (A) (A)
                 (A) (A) (A) (A) (A) (A) (A) (A) (A) (A) (A) (A)
                 (A) (A) (A) (A) (A) (A) (A) (A) (A) (A) (A) (A)
                 (A) (A) (A) (A) (A) (A) (A) (A) (A) (A) (A) (A)
                 (A) (A) (A) (A) (A) (A) (A) (A) (A) (A) (A) (A)
                 (A) (A) (A) (A) (A) (A) (A) (A) (A) (A) (A) (A)
                 (A) (A) (A) (A) (A) (A) (A) (A) (A) (A) (A) (A)
                 (A) (A) (A) (A) (A) (A) (A) (A) (A) (A) (A) (A)
                 (A) (A) (A) (A) (A) (A) (A) (A) (A) (A) (A) (A)
                 (A) (A) (A) (A) (A) (A) (A) (A) (A) (A) (A) (A)
                 (A) (A) (A) (A) (A) (A) (A) (A) (A) (A) (A) (A)
                 (A) (A) (A) (A) (A) (A) (A) (A) (A) (A) (A) (A)
                 (A) (A) (A) (A) (A) (A) (A) (A) (A) (A) (A) (A)
                 (A) (A) (A) (A) (A) (A) (A) (A) (A) (A) (A) (A)
                 (A) (A) (A) (A) (A) (A) (A) (A) (A) (A) (A) (A)
                 (A) (A) (A) (A) (A) (A) (A) (A) (A) (A) (A) (A)
                 (A) (A) (A) (A) (A) (A) (A) (A) (A) (A) (A) (A)
                 (A) (A) (A) (A) (A) (A) (A) (A) (A) (A) (A) (A)
                 (A) (A) (A) (A) (A) (A) (A) (A) (A) (A) (A) (A)
                 (A) (A) (A) (A) (A) (A) (A) (A) (A) (A) (A) (A)
                 (A) (A) (A) (A) (A) (A) (A) (A) (A) (A) (A) (A)
                 (A) (A) (A) (A) (A) (A) (A) (A) (A) (A) (A) (A)
                 (A) (A) (A) (A) (A) (A) (A) (A) (A) (A) (A) (A)
                 (A) (A) (A) (A) (A) (A) (A) (A) (A) (A) (A) (A)
                 (A) (A) (A) (A) (A) (A) (A) (A) (A) (A) (A) (A)
                 (A) (A) (A) (A) (A) (A) (A) (A) (A) (A) (A) (A)
                 (A) (A) (A) (A) (A) (A) (A) (A) (A) (A) (A) (A)
                 (A) (A) (A) (A) (A) (A) (A) (A) (A) (A) (A) (A)
                 (A) (A) (A) (A) (A) (A) (A) (A) (A) (A) (A) (A)
                 (A) (A) (A) (A) (A) (A) (A) (A) (A) (A) (A) (A)
                 (A) (A) (A) (A) (A) (A) (A) (A) (A) (A) (A) (A)
                 (A) (A) (A) (A) (A) (A) (A) (A) (A) (A) (A) (A)
                 (A) (A) (A) (A) (A) (A) (A) (A) (A) (A) (A) (A)
                 (A) (A) (A) (A) (A) (A) (A) (A) (A) (A) (A) (A)
                 (A) (A) (A) (A) (A) (A) (A) (A) (A) (A) (A) (A)
                 (A) (A) (A) (A) (A) (A) (A) (A) (A) (A) (A) (A)
                 (A) (A) (A) (A) (A) (A) (A) (A) (A) (A) (A) (A)
                 (A) (A) (A) (A) (A) (A) (A) (A) (A) (A) (A) (A)
                 (A) (A) (A) (A) (A) (A) (A) (A) (A) (A) (A) (A)
                 (A) (A) (A) (A) (A) (A) (A) (A) (A) (A) (A) (A)
                 (A) (A) (A) (A) (A) (A) (A) (A) (A) (A) (A) (A)
                 (A) (A) (A) (A) (A) (A) (A) (A) (A) (A) (A) (A)
                 (A) (A) (A) (A) (A) (A) (A) (A) (A) (A) (A) (A)
                 (A) (A) (A) (A) (A) (A) (A) (A) (A) (A) (A) (A)
                 (A) (A) (A) (A) (A) (A) (A) (A) (A)
 The electronic state is 1-A.
 Alpha  occ. eigenvalues -- -101.70231 -19.23897 -10.37816 -10.35624 -10.32351
 Alpha  occ. eigenvalues --  -10.30770 -10.30598 -10.30370 -10.30203 -10.29951
 Alpha  occ. eigenvalues --  -10.29805 -10.29649 -10.29192 -10.29170 -10.27290
 Alpha  occ. eigenvalues --  -10.27228 -10.27190  -9.58776  -7.33412  -7.32566
 Alpha  occ. eigenvalues --   -7.32539  -1.15079  -1.00538  -0.96627  -0.93670
 Alpha  occ. eigenvalues --   -0.91017  -0.87396  -0.86634  -0.83466  -0.79565
 Alpha  occ. eigenvalues --   -0.78878  -0.74377  -0.72970  -0.71076  -0.67560
 Alpha  occ. eigenvalues --   -0.62531  -0.61513  -0.59823  -0.59065  -0.56900
 Alpha  occ. eigenvalues --   -0.55000  -0.54104  -0.53392  -0.52796  -0.52442
 Alpha  occ. eigenvalues --   -0.51889  -0.51265  -0.50100  -0.49069  -0.48088
 Alpha  occ. eigenvalues --   -0.46868  -0.46682  -0.45608  -0.45125  -0.44800
 Alpha  occ. eigenvalues --   -0.43933  -0.43331  -0.42810  -0.40910  -0.39984
 Alpha  occ. eigenvalues --   -0.37265  -0.34517  -0.34239  -0.32049  -0.30695
 Alpha virt. eigenvalues --   -0.01022   0.02267   0.04259   0.04790   0.05555
 Alpha virt. eigenvalues --    0.06115   0.06180   0.06468   0.07365   0.07674
 Alpha virt. eigenvalues --    0.08022   0.08139   0.08520   0.08970   0.09557
 Alpha virt. eigenvalues --    0.09948   0.10086   0.10295   0.10648   0.10783
 Alpha virt. eigenvalues --    0.10974   0.11184   0.12340   0.12467   0.12802
 Alpha virt. eigenvalues --    0.13272   0.13556   0.13806   0.14206   0.14633
 Alpha virt. eigenvalues --    0.14908   0.15040   0.15277   0.15604   0.16013
 Alpha virt. eigenvalues --    0.16198   0.16362   0.16775   0.16975   0.17637
 Alpha virt. eigenvalues --    0.17934   0.18069   0.18228   0.18638   0.18800
 Alpha virt. eigenvalues --    0.19109   0.19452   0.19547   0.19707   0.20190
 Alpha virt. eigenvalues --    0.20328   0.20676   0.21415   0.21868   0.22061
 Alpha virt. eigenvalues --    0.22432   0.22998   0.23233   0.23879   0.24142
 Alpha virt. eigenvalues --    0.24401   0.24864   0.24950   0.25215   0.25747
 Alpha virt. eigenvalues --    0.26472   0.26663   0.26977   0.27199   0.27466
 Alpha virt. eigenvalues --    0.27800   0.28304   0.28523   0.28868   0.29144
 Alpha virt. eigenvalues --    0.29753   0.29915   0.30020   0.30646   0.30841
 Alpha virt. eigenvalues --    0.31057   0.31642   0.32419   0.32795   0.33523
 Alpha virt. eigenvalues --    0.33850   0.34674   0.34829   0.35499   0.36061
 Alpha virt. eigenvalues --    0.36141   0.36768   0.36963   0.37776   0.38995
 Alpha virt. eigenvalues --    0.39270   0.39799   0.40177   0.40469   0.41589
 Alpha virt. eigenvalues --    0.41768   0.42852   0.43375   0.43827   0.44206
 Alpha virt. eigenvalues --    0.44441   0.45854   0.45976   0.46147   0.46767
 Alpha virt. eigenvalues --    0.47112   0.47757   0.47839   0.48101   0.48337
 Alpha virt. eigenvalues --    0.49060   0.49450   0.49677   0.50571   0.50619
 Alpha virt. eigenvalues --    0.50905   0.51337   0.51963   0.52388   0.52752
 Alpha virt. eigenvalues --    0.53445   0.53599   0.53872   0.54367   0.55285
 Alpha virt. eigenvalues --    0.55436   0.55567   0.56118   0.56884   0.57095
 Alpha virt. eigenvalues --    0.57718   0.58863   0.59198   0.59756   0.59884
 Alpha virt. eigenvalues --    0.60571   0.60963   0.61466   0.61729   0.62129
 Alpha virt. eigenvalues --    0.62774   0.63041   0.63413   0.63665   0.64387
 Alpha virt. eigenvalues --    0.64551   0.65255   0.65360   0.66155   0.66352
 Alpha virt. eigenvalues --    0.67195   0.67612   0.67964   0.68454   0.69301
 Alpha virt. eigenvalues --    0.70020   0.70875   0.71803   0.72546   0.73069
 Alpha virt. eigenvalues --    0.73934   0.74646   0.74935   0.75492   0.75954
 Alpha virt. eigenvalues --    0.76748   0.78318   0.78896   0.79233   0.80208
 Alpha virt. eigenvalues --    0.80283   0.81478   0.82032   0.83260   0.83442
 Alpha virt. eigenvalues --    0.83499   0.84370   0.85182   0.86622   0.86791
 Alpha virt. eigenvalues --    0.87948   0.88203   0.89833   0.90224   0.90676
 Alpha virt. eigenvalues --    0.92105   0.92410   0.94002   0.94445   0.94849
 Alpha virt. eigenvalues --    0.95806   0.97258   0.97471   0.98102   0.99619
 Alpha virt. eigenvalues --    1.00959   1.02960   1.03517   1.06203   1.07054
 Alpha virt. eigenvalues --    1.07324   1.09425   1.10033   1.10750   1.12304
 Alpha virt. eigenvalues --    1.12450   1.13460   1.15200   1.15777   1.17686
 Alpha virt. eigenvalues --    1.18075   1.18328   1.19347   1.19775   1.21421
 Alpha virt. eigenvalues --    1.22062   1.23295   1.24395   1.24887   1.25791
 Alpha virt. eigenvalues --    1.26600   1.27676   1.27798   1.28603   1.29523
 Alpha virt. eigenvalues --    1.30944   1.32567   1.34015   1.34611   1.35967
 Alpha virt. eigenvalues --    1.36728   1.37518   1.38256   1.38960   1.39776
 Alpha virt. eigenvalues --    1.40886   1.41330   1.43458   1.43813   1.43888
 Alpha virt. eigenvalues --    1.45526   1.46572   1.48146   1.48452   1.50058
 Alpha virt. eigenvalues --    1.51570   1.52525   1.53074   1.54620   1.55720
 Alpha virt. eigenvalues --    1.56411   1.57267   1.59516   1.61251   1.61663
 Alpha virt. eigenvalues --    1.63045   1.63599   1.64877   1.65104   1.66282
 Alpha virt. eigenvalues --    1.67014   1.67949   1.68167   1.69252   1.69593
 Alpha virt. eigenvalues --    1.70357   1.70786   1.70959   1.71705   1.72293
 Alpha virt. eigenvalues --    1.73219   1.73443   1.74135   1.74855   1.75396
 Alpha virt. eigenvalues --    1.76932   1.78359   1.79109   1.79545   1.79840
 Alpha virt. eigenvalues --    1.81381   1.82367   1.82954   1.83809   1.85004
 Alpha virt. eigenvalues --    1.86062   1.86765   1.87272   1.88505   1.89171
 Alpha virt. eigenvalues --    1.90900   1.91737   1.92954   1.94371   1.94642
 Alpha virt. eigenvalues --    1.95983   1.96457   1.97851   1.98810   2.00827
 Alpha virt. eigenvalues --    2.01351   2.01618   2.03177   2.04449   2.04928
 Alpha virt. eigenvalues --    2.06861   2.07967   2.08885   2.08989   2.10082
 Alpha virt. eigenvalues --    2.10756   2.12385   2.12682   2.13212   2.14311
 Alpha virt. eigenvalues --    2.15256   2.15483   2.16764   2.18039   2.18870
 Alpha virt. eigenvalues --    2.19887   2.22512   2.23067   2.23893   2.24419
 Alpha virt. eigenvalues --    2.25390   2.26469   2.27018   2.28880   2.30005
 Alpha virt. eigenvalues --    2.30377   2.31666   2.33622   2.34234   2.35461
 Alpha virt. eigenvalues --    2.37170   2.38569   2.39637   2.40496   2.42198
 Alpha virt. eigenvalues --    2.42512   2.43924   2.44795   2.44926   2.45713
 Alpha virt. eigenvalues --    2.46871   2.47892   2.49133   2.49671   2.50342
 Alpha virt. eigenvalues --    2.50883   2.51773   2.53047   2.54277   2.54815
 Alpha virt. eigenvalues --    2.55723   2.56770   2.58470   2.58715   2.60324
 Alpha virt. eigenvalues --    2.61829   2.62697   2.64099   2.65249   2.65505
 Alpha virt. eigenvalues --    2.66128   2.67355   2.68290   2.68331   2.69331
 Alpha virt. eigenvalues --    2.70601   2.71604   2.71824   2.72471   2.73704
 Alpha virt. eigenvalues --    2.74212   2.75032   2.75448   2.76230   2.77192
 Alpha virt. eigenvalues --    2.79277   2.80052   2.81203   2.81807   2.83944
 Alpha virt. eigenvalues --    2.84473   2.85125   2.86506   2.87511   2.88038
 Alpha virt. eigenvalues --    2.88311   2.89766   2.90219   2.91989   2.92320
 Alpha virt. eigenvalues --    2.93771   2.95195   2.95903   2.97254   2.97915
 Alpha virt. eigenvalues --    2.98667   2.99187   2.99953   3.00463   3.02102
 Alpha virt. eigenvalues --    3.02712   3.03322   3.04798   3.05353   3.05544
 Alpha virt. eigenvalues --    3.07043   3.08019   3.08833   3.09855   3.10203
 Alpha virt. eigenvalues --    3.10932   3.11977   3.13072   3.13158   3.13706
 Alpha virt. eigenvalues --    3.14646   3.15932   3.16411   3.18574   3.20418
 Alpha virt. eigenvalues --    3.21193   3.22378   3.23320   3.24132   3.25262
 Alpha virt. eigenvalues --    3.25618   3.26255   3.26920   3.27666   3.28490
 Alpha virt. eigenvalues --    3.28874   3.29785   3.29949   3.30523   3.31438
 Alpha virt. eigenvalues --    3.32447   3.34625   3.34832   3.35244   3.36552
 Alpha virt. eigenvalues --    3.36915   3.38769   3.39348   3.39933   3.40131
 Alpha virt. eigenvalues --    3.40367   3.41517   3.42647   3.43266   3.43567
 Alpha virt. eigenvalues --    3.44293   3.44812   3.45339   3.46965   3.47561
 Alpha virt. eigenvalues --    3.47703   3.48902   3.49569   3.50759   3.51431
 Alpha virt. eigenvalues --    3.52506   3.53665   3.54367   3.54681   3.56779
 Alpha virt. eigenvalues --    3.57494   3.58069   3.59707   3.60280   3.61050
 Alpha virt. eigenvalues --    3.61611   3.62316   3.63578   3.64693   3.65249
 Alpha virt. eigenvalues --    3.66154   3.67765   3.68416   3.68771   3.71008
 Alpha virt. eigenvalues --    3.71868   3.73373   3.74056   3.75311   3.77178
 Alpha virt. eigenvalues --    3.77455   3.77754   3.81097   3.82148   3.83343
 Alpha virt. eigenvalues --    3.84627   3.85004   3.86764   3.87798   3.89212
 Alpha virt. eigenvalues --    3.91012   3.94086   3.94223   3.95013   3.96890
 Alpha virt. eigenvalues --    3.98327   3.99935   4.02566   4.02820   4.05959
 Alpha virt. eigenvalues --    4.06383   4.08937   4.09593   4.11092   4.12437
 Alpha virt. eigenvalues --    4.13002   4.14757   4.15744   4.16989   4.17901
 Alpha virt. eigenvalues --    4.18460   4.19836   4.21018   4.24463   4.26073
 Alpha virt. eigenvalues --    4.26204   4.29011   4.29499   4.30993   4.32298
 Alpha virt. eigenvalues --    4.33696   4.34553   4.34904   4.36207   4.39807
 Alpha virt. eigenvalues --    4.41296   4.42310   4.45887   4.46162   4.46634
 Alpha virt. eigenvalues --    4.49066   4.50844   4.51928   4.54661   4.55976
 Alpha virt. eigenvalues --    4.57160   4.58516   4.59835   4.61737   4.61979
 Alpha virt. eigenvalues --    4.66411   4.68508   4.70062   4.73682   4.75803
 Alpha virt. eigenvalues --    4.77160   4.78801   4.81754   4.82110   4.85287
 Alpha virt. eigenvalues --    4.87930   4.88919   4.92532   4.93025   4.98901
 Alpha virt. eigenvalues --    5.01097   5.02764   5.03744   5.05962   5.09459
 Alpha virt. eigenvalues --    5.14751   5.18478   5.22993   5.24597   5.27254
 Alpha virt. eigenvalues --    5.30984   5.33987   5.35748   5.38949   5.41863
 Alpha virt. eigenvalues --    5.45633   5.49679   5.60085   5.63696   5.70351
 Alpha virt. eigenvalues --    5.74165   5.90611   5.94749   6.23929   6.51218
 Alpha virt. eigenvalues --    6.54091   6.75214   6.79168   6.96635   7.23592
 Alpha virt. eigenvalues --    7.28673  10.93352  11.02973  11.50618  22.38087
 Alpha virt. eigenvalues --   22.50417  22.55699  22.60966  22.70417  22.74877
 Alpha virt. eigenvalues --   22.77995  22.85395  22.87805  23.00323  23.09968
 Alpha virt. eigenvalues --   23.14610  23.20821  23.41280  23.77879  26.41070
 Alpha virt. eigenvalues --   44.30443
          Condensed to atoms (all electrons):
               1          2          3          4          5          6
     1  C    5.020610   0.377274  -0.072655  -0.031718  -0.166078   0.512718
     2  C    0.377274   5.553746   0.151822  -0.110193   0.019006  -0.139808
     3  C   -0.072655   0.151822   6.192783   0.507565  -0.106933  -0.013360
     4  C   -0.031718  -0.110193   0.507565   6.289013   0.280562  -0.109698
     5  C   -0.166078   0.019006  -0.106933   0.280562   5.443692   0.320607
     6  C    0.512718  -0.139808  -0.013360  -0.109698   0.320607   5.090249
     7  H    0.406348  -0.059965   0.016995  -0.005309   0.032106  -0.019173
     8  H   -0.038212   0.448083  -0.033832   0.021448  -0.012403   0.010177
     9  H    0.009101  -0.018698   0.031346  -0.026067   0.386821  -0.016141
    10  H   -0.019431   0.037310  -0.012435   0.008422  -0.055573   0.410705
    11  C    0.056681  -0.069899  -0.351285   0.320708  -0.183475   0.052990
    12  C    0.000302  -0.160732   0.352710  -0.106713  -0.043836   0.032735
    13  C    0.000392   0.071306  -0.286429  -0.585956   0.050354  -0.014806
    14  C    0.013009   0.057474  -0.448428  -0.218882   0.092176  -0.023085
    15  H    0.001302   0.001500   0.001115  -0.004296  -0.000881  -0.000162
    16  O   -0.004364   0.005223  -0.015606  -0.110785   0.023966   0.009460
    17  Cl  -0.019664   0.016528  -0.066267   0.036331   0.002095  -0.001019
    18  C   -0.000925   0.012995  -0.053334   0.082754   0.009616  -0.003573
    19  C    0.001475  -0.010574   0.158900  -0.095601  -0.051768   0.011807
    20  H   -0.000001   0.000876  -0.002570  -0.002374  -0.000027  -0.000008
    21  C    0.000115  -0.000973  -0.001792  -0.003176   0.001771  -0.000355
    22  H    0.000000   0.000003   0.000185  -0.000012  -0.000019  -0.000001
    23  H    0.000001  -0.000045   0.000818  -0.000453  -0.000030   0.000000
    24  H    0.000000   0.000025  -0.000962   0.000400   0.000049  -0.000001
    25  C   -0.000060  -0.002942   0.000675  -0.022508   0.002953   0.001876
    26  H   -0.000002  -0.000318  -0.000291   0.003816   0.000350   0.000108
    27  H    0.000004   0.000047   0.000189   0.002303  -0.000281  -0.000029
    28  H   -0.000006  -0.000065  -0.000435  -0.002426   0.000490   0.000025
    29  C    0.006733   0.002039  -0.053736  -0.065182   0.055423  -0.022793
    30  H    0.000327  -0.005211  -0.004263   0.003841   0.006126   0.000682
    31  H   -0.000314   0.001812   0.007041   0.014988  -0.005568  -0.000888
    32  H    0.000273  -0.004692   0.001549  -0.005935   0.005724   0.001251
               7          8          9         10         11         12
     1  C    0.406348  -0.038212   0.009101  -0.019431   0.056681   0.000302
     2  C   -0.059965   0.448083  -0.018698   0.037310  -0.069899  -0.160732
     3  C    0.016995  -0.033832   0.031346  -0.012435  -0.351285   0.352710
     4  C   -0.005309   0.021448  -0.026067   0.008422   0.320708  -0.106713
     5  C    0.032106  -0.012403   0.386821  -0.055573  -0.183475  -0.043836
     6  C   -0.019173   0.010177  -0.016141   0.410705   0.052990   0.032735
     7  H    0.483817  -0.005458   0.000012  -0.005661   0.000656  -0.008239
     8  H   -0.005458   0.480894  -0.000007   0.000008  -0.003411  -0.026954
     9  H    0.000012  -0.000007   0.461295  -0.004475  -0.017443  -0.001177
    10  H   -0.005661   0.000008  -0.004475   0.482577  -0.005515   0.000153
    11  C    0.000656  -0.003411  -0.017443  -0.005515   6.066048  -0.539041
    12  C   -0.008239  -0.026954  -0.001177   0.000153  -0.539041   6.309096
    13  C   -0.000442  -0.006666  -0.000881  -0.001199   0.509274  -0.333675
    14  C   -0.002045  -0.011051  -0.002232  -0.000323  -0.218820   0.402132
    15  H    0.000000   0.000027  -0.000002   0.000000   0.008622  -0.098364
    16  O   -0.000004  -0.000041   0.008446   0.000200   0.411870  -0.023954
    17  Cl   0.000326  -0.003009   0.000063   0.000004  -0.004810   0.279657
    18  C    0.000001   0.000037  -0.000255   0.000004   0.084263  -0.047082
    19  C    0.000020   0.000315   0.001151  -0.000008  -0.078036   0.185480
    20  H    0.000000   0.000000   0.000000   0.000000  -0.004213   0.001190
    21  C    0.000000  -0.000003  -0.000002   0.000000   0.016585  -0.018953
    22  H    0.000000   0.000000   0.000000   0.000000   0.000377   0.000636
    23  H    0.000000   0.000000   0.000000   0.000000  -0.000509   0.001910
    24  H    0.000000   0.000000   0.000000   0.000000   0.001612  -0.004129
    25  C    0.000000  -0.000001   0.000118  -0.000002  -0.054358   0.018366
    26  H    0.000000   0.000000  -0.000001   0.000000   0.004630   0.001574
    27  H    0.000000   0.000000   0.000000   0.000000   0.006624  -0.001228
    28  H    0.000000   0.000000   0.000000   0.000000  -0.002519   0.000282
    29  C   -0.000109  -0.000431   0.000766   0.000240  -0.034585  -0.288634
    30  H    0.000000  -0.000001  -0.000001   0.000000   0.003194  -0.013606
    31  H    0.000000   0.000000  -0.000003   0.000000  -0.017518   0.008452
    32  H    0.000000  -0.000002  -0.000028   0.000000  -0.025044  -0.006866
              13         14         15         16         17         18
     1  C    0.000392   0.013009   0.001302  -0.004364  -0.019664  -0.000925
     2  C    0.071306   0.057474   0.001500   0.005223   0.016528   0.012995
     3  C   -0.286429  -0.448428   0.001115  -0.015606  -0.066267  -0.053334
     4  C   -0.585956  -0.218882  -0.004296  -0.110785   0.036331   0.082754
     5  C    0.050354   0.092176  -0.000881   0.023966   0.002095   0.009616
     6  C   -0.014806  -0.023085  -0.000162   0.009460  -0.001019  -0.003573
     7  H   -0.000442  -0.002045   0.000000  -0.000004   0.000326   0.000001
     8  H   -0.006666  -0.011051   0.000027  -0.000041  -0.003009   0.000037
     9  H   -0.000881  -0.002232  -0.000002   0.008446   0.000063  -0.000255
    10  H   -0.001199  -0.000323   0.000000   0.000200   0.000004   0.000004
    11  C    0.509274  -0.218820   0.008622   0.411870  -0.004810   0.084263
    12  C   -0.333675   0.402132  -0.098364  -0.023954   0.279657  -0.047082
    13  C    6.097584   0.203505  -0.023488  -0.133505   0.027335  -0.040925
    14  C    0.203505   6.375920   0.458983   0.004575  -0.153843   0.057275
    15  H   -0.023488   0.458983   0.454841  -0.000636  -0.011670   0.001718
    16  O   -0.133505   0.004575  -0.000636   8.289303   0.000096   0.016642
    17  Cl   0.027335  -0.153843  -0.011670   0.000096  17.070340  -0.001628
    18  C   -0.040925   0.057275   0.001718   0.016642  -0.001628   5.936042
    19  C   -0.008738  -0.281055  -0.018872  -0.031704   0.008232   0.219127
    20  H   -0.003442   0.012749  -0.004096  -0.000041   0.000208  -0.024263
    21  C    0.017083  -0.005723  -0.002256   0.002433   0.000131   0.003236
    22  H   -0.000529  -0.002684  -0.000017   0.000001  -0.000001  -0.033803
    23  H    0.001188   0.002029  -0.000082   0.000002   0.000005  -0.155530
    24  H    0.003560   0.000234   0.000104   0.000008   0.000012  -0.023089
    25  C   -0.028305   0.022787  -0.000938  -0.004295   0.000061   0.071207
    26  H   -0.021862   0.000178  -0.000014   0.001864   0.000001  -0.057492
    27  H    0.016594  -0.010152  -0.000001   0.000006  -0.000003  -0.016646
    28  H   -0.018456   0.009449   0.000041   0.000113   0.000007  -0.073942
    29  C    0.160957  -0.096187   0.028661  -0.002539  -0.000257  -0.128691
    30  H   -0.015823   0.006279   0.000606   0.003855  -0.000079  -0.004577
    31  H   -0.104323  -0.004885  -0.000277   0.001354  -0.000051   0.030228
    32  H    0.423661  -0.031002  -0.003397   0.002411  -0.000115  -0.012000
              19         20         21         22         23         24
     1  C    0.001475  -0.000001   0.000115   0.000000   0.000001   0.000000
     2  C   -0.010574   0.000876  -0.000973   0.000003  -0.000045   0.000025
     3  C    0.158900  -0.002570  -0.001792   0.000185   0.000818  -0.000962
     4  C   -0.095601  -0.002374  -0.003176  -0.000012  -0.000453   0.000400
     5  C   -0.051768  -0.000027   0.001771  -0.000019  -0.000030   0.000049
     6  C    0.011807  -0.000008  -0.000355  -0.000001   0.000000  -0.000001
     7  H    0.000020   0.000000   0.000000   0.000000   0.000000   0.000000
     8  H    0.000315   0.000000  -0.000003   0.000000   0.000000   0.000000
     9  H    0.001151   0.000000  -0.000002   0.000000   0.000000   0.000000
    10  H   -0.000008   0.000000   0.000000   0.000000   0.000000   0.000000
    11  C   -0.078036  -0.004213   0.016585   0.000377  -0.000509   0.001612
    12  C    0.185480   0.001190  -0.018953   0.000636   0.001910  -0.004129
    13  C   -0.008738  -0.003442   0.017083  -0.000529   0.001188   0.003560
    14  C   -0.281055   0.012749  -0.005723  -0.002684   0.002029   0.000234
    15  H   -0.018872  -0.004096  -0.002256  -0.000017  -0.000082   0.000104
    16  O   -0.031704  -0.000041   0.002433   0.000001   0.000002   0.000008
    17  Cl   0.008232   0.000208   0.000131  -0.000001   0.000005   0.000012
    18  C    0.219127  -0.024263   0.003236  -0.033803  -0.155530  -0.023089
    19  C    5.989202   0.398446  -0.039844  -0.013152   0.067548  -0.054729
    20  H    0.398446   0.494295   0.004510  -0.000459  -0.000126   0.000984
    21  C   -0.039844   0.004510   5.175470   0.429581   0.463243   0.430818
    22  H   -0.013152  -0.000459   0.429581   0.535171  -0.019010  -0.034727
    23  H    0.067548  -0.000126   0.463243  -0.019010   0.529057  -0.020705
    24  H   -0.054729   0.000984   0.430818  -0.034727  -0.020705   0.541212
    25  C    0.048787  -0.012331  -0.040623   0.000453  -0.015055   0.009001
    26  H    0.019128   0.000232  -0.026582  -0.000102  -0.000196  -0.000007
    27  H   -0.029171  -0.000341  -0.002647   0.003532  -0.000089  -0.001032
    28  H   -0.008215   0.000022   0.021160  -0.000236  -0.000133   0.003237
    29  C    0.049550  -0.026018  -0.002649  -0.011644   0.010502   0.008121
    30  H   -0.053412  -0.003822  -0.000379   0.000038  -0.000087  -0.000015
    31  H   -0.035089   0.000987   0.001633   0.000064  -0.000002  -0.000024
    32  H   -0.007707   0.000935  -0.000230  -0.000007  -0.000043   0.000060
              25         26         27         28         29         30
     1  C   -0.000060  -0.000002   0.000004  -0.000006   0.006733   0.000327
     2  C   -0.002942  -0.000318   0.000047  -0.000065   0.002039  -0.005211
     3  C    0.000675  -0.000291   0.000189  -0.000435  -0.053736  -0.004263
     4  C   -0.022508   0.003816   0.002303  -0.002426  -0.065182   0.003841
     5  C    0.002953   0.000350  -0.000281   0.000490   0.055423   0.006126
     6  C    0.001876   0.000108  -0.000029   0.000025  -0.022793   0.000682
     7  H    0.000000   0.000000   0.000000   0.000000  -0.000109   0.000000
     8  H   -0.000001   0.000000   0.000000   0.000000  -0.000431  -0.000001
     9  H    0.000118  -0.000001   0.000000   0.000000   0.000766  -0.000001
    10  H   -0.000002   0.000000   0.000000   0.000000   0.000240   0.000000
    11  C   -0.054358   0.004630   0.006624  -0.002519  -0.034585   0.003194
    12  C    0.018366   0.001574  -0.001228   0.000282  -0.288634  -0.013606
    13  C   -0.028305  -0.021862   0.016594  -0.018456   0.160957  -0.015823
    14  C    0.022787   0.000178  -0.010152   0.009449  -0.096187   0.006279
    15  H   -0.000938  -0.000014  -0.000001   0.000041   0.028661   0.000606
    16  O   -0.004295   0.001864   0.000006   0.000113  -0.002539   0.003855
    17  Cl   0.000061   0.000001  -0.000003   0.000007  -0.000257  -0.000079
    18  C    0.071207  -0.057492  -0.016646  -0.073942  -0.128691  -0.004577
    19  C    0.048787   0.019128  -0.029171  -0.008215   0.049550  -0.053412
    20  H   -0.012331   0.000232  -0.000341   0.000022  -0.026018  -0.003822
    21  C   -0.040623  -0.026582  -0.002647   0.021160  -0.002649  -0.000379
    22  H    0.000453  -0.000102   0.003532  -0.000236  -0.011644   0.000038
    23  H   -0.015055  -0.000196  -0.000089  -0.000133   0.010502  -0.000087
    24  H    0.009001  -0.000007  -0.001032   0.003237   0.008121  -0.000015
    25  C    5.158124   0.419054   0.401581   0.463011  -0.002717   0.008627
    26  H    0.419054   0.504838  -0.017655  -0.020607   0.039547   0.000917
    27  H    0.401581  -0.017655   0.536254  -0.027473  -0.005822   0.000049
    28  H    0.463011  -0.020607  -0.027473   0.513164  -0.012889  -0.000081
    29  C   -0.002717   0.039547  -0.005822  -0.012889   5.931646   0.415147
    30  H    0.008627   0.000917   0.000049  -0.000081   0.415147   0.498806
    31  H   -0.016832  -0.002854   0.000631   0.000295   0.477640  -0.006226
    32  H    0.008709   0.000944   0.000047  -0.000733  -0.022394   0.003161
              31         32
     1  C   -0.000314   0.000273
     2  C    0.001812  -0.004692
     3  C    0.007041   0.001549
     4  C    0.014988  -0.005935
     5  C   -0.005568   0.005724
     6  C   -0.000888   0.001251
     7  H    0.000000   0.000000
     8  H    0.000000  -0.000002
     9  H   -0.000003  -0.000028
    10  H    0.000000   0.000000
    11  C   -0.017518  -0.025044
    12  C    0.008452  -0.006866
    13  C   -0.104323   0.423661
    14  C   -0.004885  -0.031002
    15  H   -0.000277  -0.003397
    16  O    0.001354   0.002411
    17  Cl  -0.000051  -0.000115
    18  C    0.030228  -0.012000
    19  C   -0.035089  -0.007707
    20  H    0.000987   0.000935
    21  C    0.001633  -0.000230
    22  H    0.000064  -0.000007
    23  H   -0.000002  -0.000043
    24  H   -0.000024   0.000060
    25  C   -0.016832   0.008709
    26  H   -0.002854   0.000944
    27  H    0.000631   0.000047
    28  H    0.000295  -0.000733
    29  C    0.477640  -0.022394
    30  H   -0.006226   0.003161
    31  H    0.468363  -0.000419
    32  H   -0.000419   0.522246
 Mulliken charges:
               1
     1  C   -0.053236
     2  C   -0.172956
     3  C    0.100918
     4  C   -0.064868
     5  C   -0.107014
     6  C   -0.090493
     7  H    0.166123
     8  H    0.180491
     9  H    0.188293
    10  H    0.164999
    11  C    0.066347
    12  C    0.128505
    13  C    0.046656
    14  C   -0.208358
    15  H    0.211929
    16  O   -0.454352
    17  Cl  -0.179014
    18  C    0.152607
    19  C   -0.341496
    20  H    0.168698
    21  C   -0.421584
    22  H    0.146363
    23  H    0.135790
    24  H    0.139983
    25  C   -0.434426
    26  H    0.150803
    27  H    0.144708
    28  H    0.156920
    29  C   -0.409694
    30  H    0.155927
    31  H    0.181786
    32  H    0.149646
 Sum of Mulliken charges =   0.00000
 Mulliken charges with hydrogens summed into heavy atoms:
               1
     1  C    0.112887
     2  C    0.007535
     3  C    0.100918
     4  C   -0.064868
     5  C    0.081279
     6  C    0.074507
    11  C    0.066347
    12  C    0.128505
    13  C    0.196302
    14  C    0.003570
    16  O   -0.454352
    17  Cl  -0.179014
    18  C    0.152607
    19  C   -0.172798
    21  C    0.000551
    25  C    0.018006
    29  C   -0.071982
 APT charges:
               1
     1  C    0.081577
     2  C   -0.193559
     3  C    0.134018
     4  C   -0.330807
     5  C   -0.028310
     6  C   -0.121516
     7  H    0.051086
     8  H    0.086074
     9  H    0.088866
    10  H    0.051751
    11  C    1.087581
    12  C    0.391984
    13  C   -0.171454
    14  C   -0.134344
    15  H    0.075509
    16  O   -0.871928
    17  Cl  -0.363897
    18  C    0.173766
    19  C   -0.141245
    20  H    0.006667
    21  C    0.032035
    22  H   -0.025968
    23  H   -0.009243
    24  H   -0.023054
    25  C   -0.003971
    26  H    0.004864
    27  H   -0.012662
    28  H   -0.002919
    29  C    0.184516
    30  H   -0.015451
    31  H   -0.021038
    32  H    0.021071
 Sum of APT charges =   0.00000
 APT charges with hydrogens summed into heavy atoms:
               1
     1  C    0.132663
     2  C   -0.107486
     3  C    0.134018
     4  C   -0.330807
     5  C    0.060556
     6  C   -0.069764
    11  C    1.087581
    12  C    0.391984
    13  C   -0.150383
    14  C   -0.058835
    16  O   -0.871928
    17  Cl  -0.363897
    18  C    0.173766
    19  C   -0.134577
    21  C   -0.026230
    25  C   -0.014689
    29  C    0.148027
 Electronic spatial extent (au):  <R**2>=           5498.7700
 Charge=              0.0000 electrons
 Dipole moment (field-independent basis, Debye):
    X=             -0.0660    Y=              0.8831    Z=              0.5269  Tot=              1.0304
 Quadrupole moment (field-independent basis, Debye-Ang):
   XX=            -86.5464   YY=           -115.9898   ZZ=           -109.5704
   XY=             -4.4206   XZ=              4.1292   YZ=             -1.5631
 Traceless Quadrupole moment (field-independent basis, Debye-Ang):
   XX=             17.4891   YY=            -11.9542   ZZ=             -5.5349
   XY=             -4.4206   XZ=              4.1292   YZ=             -1.5631
 Octapole moment (field-independent basis, Debye-Ang**2):
  XXX=             30.3576  YYY=             17.0801  ZZZ=             -6.9790  XYY=              8.6957
  XXY=            -13.7238  XXZ=              3.1420  XZZ=             -8.9166  YZZ=              3.2632
  YYZ=              9.8596  XYZ=             -1.5893
 Hexadecapole moment (field-independent basis, Debye-Ang**3):
 XXXX=          -4926.5891 YYYY=          -1777.3557 ZZZZ=           -277.8775 XXXY=             -7.8824
 XXXZ=             90.9788 YYYX=            -31.1846 YYYZ=            -20.9658 ZZZX=              8.8380
 ZZZY=              6.0395 XXYY=          -1134.2055 XXZZ=          -1006.7270 YYZZ=           -345.9370
 XXYZ=             -2.9293 YYXZ=              3.0252 ZZXY=              5.5936
 N-N= 1.239409000862D+03 E-N=-5.097214568434D+03  KE= 1.112188979717D+03
  Exact polarizability: 313.160   0.034 231.784  23.119   3.764 141.541
 Approx polarizability: 256.551   7.897 227.627  20.941   4.274 155.328
 D2PCM: PCM CHGder 2nd derivatives, FixD1E=F FixD2E=F DoIter=F DoCFld=F I1PDM=0
 Calling FoFJK, ICntrl=    100127 FMM=F ISym2X=0 I1Cent= 0 IOpClX= 0 NMat=1 NMatS=1 NMatT=0.
 Full mass-weighted force constant matrix:
 Low frequencies ---   -0.0011   -0.0010   -0.0009    7.2433   10.4098   16.5659
 Low frequencies ---   31.4983   43.6224   72.1770
 Diagonal vibrational polarizability:
       22.0889739      13.0704986      77.4917990
 Harmonic frequencies (cm**-1), IR intensities (KM/Mole), Raman scattering
 activities (A**4/AMU), depolarization ratios for plane and unpolarized
 incident light, reduced masses (AMU), force constants (mDyne/A),
 and normal coordinates:
                      1                      2                      3
                      A                      A                      A
 Frequencies --     27.3676                43.0070                71.5094
 Red. masses --      5.3870                 4.7618                 3.6088
 Frc consts  --      0.0024                 0.0052                 0.0109
 IR Inten    --      1.5649                 0.8726                 0.4013
  Atom  AN      X      Y      Z        X      Y      Z        X      Y      Z
     1   6    -0.06   0.04   0.22    -0.03  -0.08   0.09     0.05   0.02  -0.01
     2   6    -0.06   0.02   0.14     0.01  -0.04   0.06     0.04   0.01  -0.01
     3   6    -0.03   0.00   0.02     0.01   0.01   0.01     0.04   0.00   0.00
     4   6     0.00  -0.01  -0.01    -0.03   0.02  -0.02     0.05   0.00   0.01
     5   6     0.00   0.01   0.06    -0.08  -0.01   0.00     0.05   0.01   0.01
     6   6    -0.03   0.03   0.17    -0.07  -0.07   0.06     0.06   0.02   0.00
     7   1    -0.08   0.05   0.31    -0.02  -0.12   0.14     0.05   0.02  -0.02
     8   1    -0.08   0.03   0.17     0.05  -0.05   0.09     0.04   0.01  -0.01
     9   1     0.02   0.00   0.02    -0.11   0.00  -0.02     0.06   0.01   0.02
    10   1    -0.03   0.04   0.23    -0.11  -0.09   0.08     0.06   0.02   0.00
    11   6     0.03  -0.03  -0.14    -0.04   0.08  -0.08     0.05  -0.01   0.01
    12   6    -0.03  -0.02  -0.06     0.05   0.05  -0.02     0.04   0.00   0.00
    13   6     0.00  -0.05  -0.12    -0.01   0.11  -0.03     0.04  -0.01  -0.08
    14   6    -0.02  -0.04  -0.13     0.04   0.10  -0.03     0.05  -0.01  -0.03
    15   1    -0.02  -0.06  -0.19     0.07   0.12  -0.04     0.05   0.00  -0.04
    16   8     0.07  -0.02  -0.23    -0.07   0.10  -0.15     0.05  -0.02   0.08
    17  17    -0.05  -0.02  -0.09     0.13   0.03  -0.03     0.03   0.00   0.05
    18   6     0.05   0.04   0.09    -0.03  -0.10   0.05    -0.12   0.00  -0.01
    19   6     0.09  -0.03   0.03    -0.03   0.04  -0.03    -0.03   0.01  -0.17
    20   1     0.16  -0.05   0.06    -0.07   0.09  -0.11     0.06   0.05  -0.27
    21   6     0.09   0.08   0.21    -0.11  -0.19   0.00    -0.08   0.05   0.07
    22   1     0.10   0.09   0.24    -0.06  -0.22   0.06    -0.03   0.11   0.21
    23   1     0.16   0.04   0.25    -0.17  -0.12  -0.09     0.03   0.08  -0.02
    24   1     0.03   0.15   0.25    -0.16  -0.30  -0.02    -0.20  -0.01   0.09
    25   6    -0.04   0.09   0.05     0.03  -0.19   0.16    -0.27  -0.05   0.13
    26   1    -0.07   0.06  -0.02     0.08  -0.14   0.21    -0.28  -0.07   0.06
    27   1    -0.04   0.10   0.07     0.07  -0.21   0.21    -0.23   0.00   0.29
    28   1    -0.08   0.14   0.07     0.00  -0.29   0.14    -0.41  -0.11   0.14
    29   6     0.06  -0.07  -0.07     0.03   0.12   0.00    -0.07  -0.03  -0.17
    30   1     0.12  -0.12  -0.10     0.04   0.20  -0.02    -0.12  -0.11  -0.12
    31   1     0.03  -0.06  -0.10     0.09   0.10   0.05    -0.10  -0.02  -0.25
    32   1    -0.03  -0.07  -0.09    -0.04   0.14  -0.01     0.13   0.00  -0.14
                      4                      5                      6
                      A                      A                      A
 Frequencies --     87.9106               111.6436               115.0540
 Red. masses --      3.2920                 4.7943                 4.2841
 Frc consts  --      0.0150                 0.0352                 0.0334
 IR Inten    --      0.1147                 0.1574                 1.5349
  Atom  AN      X      Y      Z        X      Y      Z        X      Y      Z
     1   6    -0.03   0.01   0.01     0.00   0.02   0.10    -0.03   0.00   0.13
     2   6    -0.04   0.00   0.04    -0.01   0.02   0.19    -0.05   0.00   0.21
     3   6    -0.03  -0.01   0.01     0.01   0.01   0.09    -0.02  -0.01   0.05
     4   6    -0.01  -0.02  -0.04     0.03   0.01  -0.04     0.01  -0.01  -0.09
     5   6     0.01  -0.01  -0.07     0.05   0.01  -0.17     0.04  -0.01  -0.21
     6   6     0.00   0.01  -0.05     0.04   0.02  -0.12     0.02   0.00  -0.13
     7   1    -0.03   0.02   0.04    -0.01   0.02   0.17    -0.05   0.00   0.25
     8   1    -0.06   0.01   0.09    -0.04   0.02   0.32    -0.08   0.00   0.37
     9   1     0.03  -0.01  -0.11     0.08   0.01  -0.31     0.07  -0.01  -0.35
    10   1     0.01   0.02  -0.08     0.06   0.01  -0.24     0.05   0.00  -0.24
    11   6    -0.01  -0.03  -0.03     0.01   0.02   0.01    -0.01  -0.02   0.02
    12   6    -0.03  -0.02  -0.01     0.00   0.01   0.10     0.00  -0.01  -0.01
    13   6    -0.01  -0.04  -0.04    -0.01   0.01   0.15     0.01   0.00  -0.07
    14   6    -0.02  -0.04  -0.08    -0.01   0.01   0.20     0.01  -0.01  -0.13
    15   1    -0.02  -0.05  -0.12    -0.01   0.02   0.20     0.03  -0.02  -0.23
    16   8     0.00  -0.03  -0.02     0.02   0.03  -0.06    -0.04  -0.05   0.24
    17  17    -0.07  -0.01   0.08     0.05   0.00  -0.15     0.00  -0.01  -0.02
    18   6     0.06   0.03   0.01    -0.05  -0.02   0.00     0.01   0.02  -0.01
    19   6     0.07   0.08  -0.03    -0.05  -0.09   0.04     0.01   0.07  -0.03
    20   1     0.12   0.15  -0.16    -0.02  -0.08   0.01    -0.02   0.06   0.00
    21   6     0.11   0.10  -0.19     0.04   0.09  -0.12    -0.07  -0.08   0.11
    22   1     0.07   0.22  -0.15    -0.04   0.19  -0.19     0.00  -0.18   0.16
    23   1     0.14   0.18  -0.34     0.09   0.08  -0.13    -0.11  -0.08   0.13
    24   1     0.18  -0.07  -0.26     0.17   0.08  -0.16    -0.19  -0.06   0.15
    25   6     0.03  -0.09   0.21    -0.12  -0.03   0.04     0.08   0.04  -0.06
    26   1     0.00  -0.11   0.34    -0.17  -0.09   0.07     0.12   0.09  -0.10
    27   1     0.00   0.01   0.28    -0.16   0.04   0.05     0.11  -0.03  -0.08
    28   1     0.05  -0.25   0.17    -0.10  -0.05   0.03     0.06   0.08  -0.05
    29   6     0.06   0.06   0.03    -0.07  -0.12   0.07     0.03   0.09  -0.04
    30   1     0.10   0.14  -0.01    -0.14  -0.20   0.12     0.06   0.16  -0.07
    31   1     0.05   0.06   0.14    -0.08  -0.11  -0.06     0.03   0.09   0.05
    32   1    -0.06  -0.08   0.01     0.02   0.09   0.11     0.00  -0.06  -0.06
                      7                      8                      9
                      A                      A                      A
 Frequencies --    177.9474               182.1075               209.7918
 Red. masses --      1.6428                 1.6775                 3.3758
 Frc consts  --      0.0306                 0.0328                 0.0875
 IR Inten    --      0.9803                 0.8373                 5.3068
  Atom  AN      X      Y      Z        X      Y      Z        X      Y      Z
     1   6     0.03   0.01  -0.05    -0.03  -0.01   0.05    -0.02  -0.01  -0.13
     2   6     0.00   0.00   0.03     0.00   0.00  -0.03    -0.04   0.01   0.07
     3   6     0.00  -0.01   0.07     0.00   0.01  -0.08    -0.07   0.02   0.17
     4   6     0.01  -0.01   0.08     0.00   0.02  -0.09    -0.07   0.02   0.18
     5   6     0.02   0.00   0.03    -0.02   0.01  -0.03    -0.07   0.01   0.09
     6   6     0.04   0.01  -0.05    -0.04  -0.01   0.05    -0.03   0.00  -0.12
     7   1     0.03   0.02  -0.11    -0.04  -0.02   0.12     0.01  -0.02  -0.30
     8   1    -0.01   0.00   0.02     0.01   0.00  -0.03    -0.03   0.00   0.07
     9   1     0.04  -0.01   0.02    -0.04   0.01  -0.02    -0.09   0.02   0.09
    10   1     0.05   0.01  -0.11    -0.06  -0.01   0.13    -0.01  -0.01  -0.28
    11   6     0.01  -0.01   0.02    -0.01   0.02  -0.02    -0.03   0.03   0.03
    12   6    -0.01  -0.02   0.04     0.01   0.02  -0.04    -0.03   0.03   0.07
    13   6     0.00  -0.02   0.02     0.00   0.02  -0.01    -0.01   0.03  -0.11
    14   6     0.00  -0.03   0.00     0.00   0.03   0.02    -0.01   0.04  -0.11
    15   1     0.01  -0.03  -0.05    -0.01   0.03   0.08     0.01   0.03  -0.27
    16   8     0.04   0.00  -0.09    -0.04   0.00   0.09    -0.03   0.03   0.04
    17  17    -0.02  -0.02  -0.02     0.02   0.02   0.01     0.05   0.01  -0.02
    18   6    -0.02   0.04  -0.02     0.02  -0.04   0.01     0.03  -0.07   0.02
    19   6    -0.01   0.06  -0.03     0.02  -0.07   0.02     0.05  -0.08   0.00
    20   1    -0.02   0.07  -0.04     0.03  -0.07   0.03     0.07  -0.09   0.00
    21   6    -0.06  -0.02   0.02     0.06   0.01   0.01     0.10   0.01   0.02
    22   1     0.11   0.05   0.42     0.12   0.14   0.25    -0.01   0.01  -0.19
    23   1     0.03   0.16  -0.31     0.19   0.12  -0.22     0.09  -0.11   0.20
    24   1    -0.39  -0.34   0.03    -0.11  -0.19   0.00     0.28   0.20   0.02
    25   6     0.02   0.03  -0.02    -0.01  -0.02  -0.01    -0.01  -0.04   0.00
    26   1    -0.08  -0.08   0.24    -0.20  -0.22   0.33    -0.12  -0.17   0.19
    27   1    -0.16   0.18  -0.23    -0.28   0.23  -0.31    -0.17   0.11  -0.17
    28   1     0.34   0.00  -0.09     0.43  -0.03  -0.11     0.25  -0.04  -0.05
    29   6    -0.02   0.05   0.02     0.01  -0.06  -0.02     0.04  -0.05  -0.09
    30   1    -0.03   0.09   0.02     0.02  -0.11  -0.01     0.08  -0.11  -0.10
    31   1    -0.03   0.05   0.08     0.03  -0.06  -0.09     0.07  -0.06  -0.15
    32   1     0.00  -0.04   0.03     0.00   0.05  -0.02     0.00   0.00  -0.11
                     10                     11                     12
                      A                      A                      A
 Frequencies --    216.4971               226.0060               296.8660
 Red. masses --      1.5890                 3.7591                 3.0223
 Frc consts  --      0.0439                 0.1131                 0.1569
 IR Inten    --      0.5678                 0.9633                 0.7002
  Atom  AN      X      Y      Z        X      Y      Z        X      Y      Z
     1   6     0.01   0.06   0.02    -0.06   0.16  -0.02    -0.02   0.04  -0.01
     2   6    -0.01   0.03  -0.02    -0.12   0.08  -0.03    -0.04   0.01  -0.03
     3   6     0.00  -0.01  -0.03    -0.09  -0.01  -0.02    -0.03  -0.02   0.00
     4   6     0.02  -0.01  -0.03    -0.04  -0.02  -0.01    -0.01  -0.03  -0.02
     5   6     0.05   0.01  -0.01     0.02   0.05   0.01     0.01  -0.01   0.00
     6   6     0.03   0.05   0.02     0.00   0.14   0.00     0.00   0.03   0.03
     7   1    -0.01   0.08   0.04    -0.08   0.22  -0.03    -0.03   0.06  -0.01
     8   1    -0.04   0.03  -0.02    -0.19   0.10  -0.05    -0.07   0.02  -0.04
     9   1     0.08   0.00  -0.01     0.10   0.03   0.03     0.05  -0.02   0.01
    10   1     0.05   0.07   0.04     0.04   0.19   0.02     0.01   0.05   0.06
    11   6     0.01  -0.02  -0.01    -0.04  -0.03  -0.01    -0.01  -0.02  -0.02
    12   6     0.00  -0.03  -0.04    -0.07  -0.02  -0.02    -0.02  -0.01   0.10
    13   6    -0.01  -0.02   0.00    -0.04  -0.02   0.00     0.02   0.00  -0.02
    14   6    -0.01  -0.02  -0.04    -0.07   0.01  -0.02    -0.02   0.01   0.18
    15   1     0.00  -0.02  -0.03    -0.08   0.00  -0.02    -0.04   0.01   0.28
    16   8     0.02  -0.02  -0.03    -0.05  -0.02   0.00    -0.07  -0.01   0.01
    17  17     0.05  -0.05   0.02     0.18  -0.10   0.04    -0.01  -0.02  -0.03
    18   6    -0.06   0.00   0.04     0.02   0.00  -0.02     0.06   0.09  -0.02
    19   6    -0.05   0.03   0.02     0.00  -0.03   0.03     0.09   0.11  -0.11
    20   1    -0.06   0.03   0.02     0.00  -0.04   0.05     0.20   0.12  -0.15
    21   6    -0.06   0.00  -0.01     0.03   0.01  -0.02    -0.03  -0.03   0.03
    22   1    -0.20  -0.11  -0.39     0.14   0.12   0.30    -0.01  -0.19  -0.09
    23   1    -0.22  -0.15   0.30     0.15   0.15  -0.30    -0.15  -0.09   0.19
    24   1     0.23   0.27  -0.02    -0.20  -0.25  -0.02    -0.01   0.10   0.06
    25   6    -0.02   0.01   0.02     0.01   0.00  -0.02     0.16   0.00   0.09
    26   1    -0.15  -0.12   0.31     0.13   0.13  -0.27     0.17   0.02   0.26
    27   1    -0.23   0.19  -0.25     0.19  -0.16   0.20     0.13   0.02   0.04
    28   1     0.35  -0.01  -0.06    -0.31   0.03   0.05     0.28  -0.13   0.04
    29   6    -0.02   0.05   0.02    -0.01  -0.04   0.02    -0.07  -0.08  -0.15
    30   1    -0.01   0.09   0.01     0.01  -0.04   0.01    -0.10  -0.31  -0.08
    31   1    -0.01   0.04   0.08    -0.01  -0.04   0.02    -0.22  -0.03  -0.32
    32   1    -0.02  -0.04   0.02    -0.06  -0.03   0.01     0.10   0.12  -0.11
                     13                     14                     15
                      A                      A                      A
 Frequencies --    320.8217               336.8281               370.0161
 Red. masses --      3.2798                 5.5810                10.2972
 Frc consts  --      0.1989                 0.3731                 0.8306
 IR Inten    --      5.7826                 9.6410                 0.1574
  Atom  AN      X      Y      Z        X      Y      Z        X      Y      Z
     1   6    -0.01  -0.05   0.00    -0.14  -0.06  -0.01     0.02  -0.05   0.02
     2   6     0.03   0.00   0.02    -0.07   0.00  -0.03     0.14   0.06  -0.02
     3   6     0.01   0.05   0.00    -0.08   0.08  -0.03     0.10   0.10   0.01
     4   6     0.00   0.06   0.00    -0.06   0.08  -0.03     0.03   0.20  -0.02
     5   6    -0.05   0.02   0.00    -0.14   0.02  -0.06    -0.10   0.09  -0.07
     6   6    -0.04  -0.04  -0.02    -0.16  -0.05  -0.02    -0.10  -0.03   0.01
     7   1     0.00  -0.08  -0.01    -0.13  -0.10   0.02     0.05  -0.17   0.06
     8   1     0.07  -0.02   0.03     0.01  -0.02  -0.03     0.24   0.04  -0.04
     9   1    -0.11   0.04  -0.01    -0.24   0.05  -0.09    -0.22   0.13  -0.13
    10   1    -0.07  -0.06  -0.03    -0.18  -0.07   0.01    -0.18  -0.09   0.05
    11   6     0.03   0.01  -0.01     0.05  -0.06   0.03     0.04   0.29   0.01
    12   6    -0.01   0.02  -0.03    -0.08   0.08   0.02    -0.06  -0.12   0.04
    13   6    -0.03  -0.04  -0.07     0.01  -0.12   0.09    -0.10   0.10  -0.04
    14   6    -0.01  -0.02  -0.06    -0.06  -0.04   0.07    -0.09   0.02   0.01
    15   1    -0.01  -0.03  -0.10    -0.15  -0.12   0.10     0.02   0.13   0.04
    16   8     0.17  -0.03   0.03     0.31  -0.13   0.01     0.19   0.26   0.08
    17  17     0.03   0.02   0.01     0.09   0.07   0.01    -0.08  -0.35   0.00
    18   6    -0.05   0.07   0.14     0.04   0.02  -0.12     0.00  -0.02  -0.06
    19   6    -0.04  -0.01   0.16     0.04   0.06  -0.16    -0.02   0.00  -0.05
    20   1     0.05  -0.06   0.25     0.03   0.11  -0.25    -0.04   0.01  -0.06
    21   6    -0.13  -0.01  -0.11     0.03   0.00   0.08     0.07   0.05   0.06
    22   1    -0.14   0.01  -0.11     0.08  -0.12   0.05     0.06   0.11   0.11
    23   1    -0.27   0.15  -0.29     0.06  -0.13   0.28     0.22  -0.02   0.12
    24   1    -0.04  -0.28  -0.21    -0.05   0.23   0.17     0.01   0.18   0.12
    25   6     0.09   0.09   0.08    -0.01  -0.04  -0.01     0.06  -0.07  -0.01
    26   1     0.16   0.17   0.03    -0.05  -0.08   0.09     0.11  -0.02   0.07
    27   1     0.15  -0.04   0.04    -0.05   0.04   0.01     0.08  -0.11   0.00
    28   1     0.07   0.12   0.09     0.03  -0.15  -0.05     0.08  -0.16  -0.03
    29   6    -0.08  -0.11  -0.08     0.01   0.03   0.09    -0.03   0.03  -0.03
    30   1    -0.04  -0.35  -0.06    -0.05   0.19   0.09    -0.01   0.08  -0.05
    31   1    -0.16  -0.09  -0.26    -0.02   0.03   0.27     0.02   0.02   0.00
    32   1     0.01  -0.04  -0.10    -0.02  -0.13   0.11    -0.07   0.03  -0.05
                     16                     17                     18
                      A                      A                      A
 Frequencies --    401.1281               416.6359               435.8714
 Red. masses --      2.7960                 3.4203                 3.0019
 Frc consts  --      0.2651                 0.3498                 0.3360
 IR Inten    --      2.2698                 4.9685                 0.8291
  Atom  AN      X      Y      Z        X      Y      Z        X      Y      Z
     1   6     0.02   0.00   0.04     0.02   0.00  -0.02     0.02   0.01  -0.12
     2   6     0.01  -0.01   0.04     0.02  -0.01  -0.12    -0.03   0.01   0.17
     3   6     0.02   0.00  -0.06    -0.02  -0.01   0.14     0.02  -0.01  -0.07
     4   6     0.00  -0.01   0.05     0.00  -0.02  -0.04     0.01   0.00  -0.15
     5   6     0.01   0.00   0.04     0.04   0.00  -0.12    -0.04   0.01   0.17
     6   6     0.04   0.00  -0.06     0.00   0.00   0.14     0.00   0.01  -0.04
     7   1     0.01   0.00   0.09     0.03   0.01  -0.07     0.04   0.01  -0.22
     8   1     0.00  -0.01   0.08     0.04  -0.01  -0.29    -0.10   0.01   0.44
[...]
 00002844,-0.00002912,-0.00000901,0.00000116,0.00002081,-0.00000214,-0.
 00000577,-0.00000108,-0.00000063,0.00000134,-0.00000253,0.00000071,0.0
 0000826,-0.00000093,0.00000501,-0.00000760,0.00000228,-0.00000078,0.00
 025256,-0.00014472,0.00002336,-0.00000351,0.00005397,-0.00000307,0.000
 02162,-0.00001937,0.00006355,-0.00000768,0.00007878,-0.00005177,0.0000
 0271,0.00001026,-0.00000393,-0.00011349,0.00009041,-0.00004827,-0.0000
 3903,-0.00008440,-0.00000018,-0.00709789,-0.00418872,-0.00102959,0.001
 49023,-0.00123818,0.00048482,-0.00013463,-0.00005583,-0.00049029,0.000
 34158,0.00097575,-0.00001194,0.00049347,-0.00021063,0.00015970,0.00012
 639,0.00009800,-0.00028905,0.00003166,0.00003020,0.00001519,-0.2237733
 2,-0.09447302,0.08059908,-0.01790607,-0.01141603,0.00886362,0.24145630
 ,0.00000494,-0.00000952,0.00000214,-0.00002555,0.00001503,0.00000127,0
 .00003538,-0.00002252,0.00000467,-0.00001576,0.00005035,-0.00006418,-0
 .00001940,-0.00001679,-0.00000085,-0.00000381,0.00001504,0.00000570,-0
 .00000356,-0.00000035,-0.00000198,0.00000261,-0.00000124,-0.00000116,0
 .00000392,0.00000176,-0.00000297,-0.00000355,0.00000143,-0.00000297,0.
 00003422,-0.00033463,0.00011192,0.00000435,0.00007200,-0.00000727,-0.0
 0036234,0.00037280,0.00003945,0.00006312,0.00005986,0.00004218,0.00003
 889,0.00004227,-0.00003114,0.00003826,0.00020490,0.00005984,-0.0000189
 4,-0.00004453,-0.00000531,-0.02377753,-0.01272249,0.00955484,0.0013637
 7,-0.00313222,-0.00187677,-0.00002069,0.00063404,-0.00194700,-0.000400
 47,0.00084197,0.00028605,0.00059533,-0.00048869,-0.00045382,0.00011632
 ,0.00049258,-0.00014729,-0.00002998,-0.00001050,0.00001595,-0.09528879
 ,-0.10070830,0.04270967,0.01670848,0.01071502,-0.00866387,0.10726935,0
 .10849562,0.00000069,-0.00000136,-0.00000066,0.00000105,-0.00000207,0.
 00000394,0.00000244,-0.00000430,-0.00000301,0.00001887,0.00000785,-0.0
 0001975,-0.00000350,0.00000452,0.00000148,0.00000142,0.00000294,0.0000
 0218,0.00000113,0.00000028,-0.00000002,-0.00000006,0.00000048,-0.00000
 088,-0.00000168,0.00000076,-0.00000084,0.00000091,-0.00000058,-0.00000
 028,-0.00005361,-0.00005002,0.00004713,-0.00001809,-0.00000491,0.00000
 280,-0.00011808,0.00009957,-0.00008635,0.00002848,0.00000386,0.0000033
 5,0.00001011,-0.00000166,-0.00001913,0.00002831,0.00003482,0.00001719,
 0.00000726,0.00001174,-0.00000215,-0.01754931,-0.01052901,0.00613860,0
 .00047910,-0.00216295,-0.00122933,-0.00000860,0.00044294,-0.00153393,-
 0.00038858,0.00061025,0.00037613,0.00021764,0.00013035,-0.00002470,-0.
 00014370,0.00020831,-0.00005476,0.00016127,0.00009029,-0.00010771,0.07
 948284,0.04263079,-0.07741027,-0.00204681,-0.00130728,-0.00018372,-0.0
 8605522,-0.04353647,0.08491789,-0.00000290,0.00000595,0.00000092,0.000
 01229,-0.00000632,0.00000849,-0.00001291,0.00001261,-0.00000973,0.0000
 1271,-0.00001326,-0.00004279,0.00000817,0.00000567,0.00000537,-0.00000
 110,-0.00000697,0.00000524,0.00000171,0.00000002,-0.00000161,-0.000000
 69,0.00000038,-0.00000317,0.00000043,-0.00000035,-0.00000588,0.0000018
 7,-0.00000072,-0.00000176,-0.00000558,0.00007811,0.00002059,0.00000719
 ,-0.00002071,0.00000509,0.00010393,0.00006140,-0.00017876,-0.00002144,
 -0.00000153,0.00010808,-0.00000753,-0.00001996,-0.00003655,-0.00003110
 ,-0.00003977,0.00008613,0.00001111,0.00001616,-0.00000612,-0.00375429,
 -0.00024140,-0.00859870,0.00028537,-0.00060051,-0.00027802,-0.00046074
 ,-0.00044712,0.00032601,-0.00004177,0.00042078,0.00046908,0.00008757,0
 .00000398,0.00013824,-0.00011906,-0.00007807,0.00002276,0.00034676,0.0
 0019188,0.00010036,-0.05318616,0.01440710,-0.04627368,-0.00399785,0.00
 501291,-0.02390547,0.00524381,-0.00629315,0.02617047,0.05520482,0.0000
 0168,-0.00000553,0.00000065,-0.00001192,0.00000784,-0.00000312,0.00001
 405,-0.00001657,0.00000042,0.00000240,0.00000844,-0.00000601,-0.000005
 91,-0.00000424,-0.00000039,0.00000050,0.00000590,-0.00000159,-0.000001
 49,0.00000017,0.00000039,0.00000105,-0.00000034,-0.00000064,-0.0000000
 6,0.00000058,0.00000217,-0.00000128,0.00000060,0.00000029,0.00005166,-
 0.00011595,0.00005139,-0.00000354,0.00004164,0.00000728,-0.00008312,-0
 .00008739,0.00003765,0.00002314,0.00001379,0.00001934,-0.00002496,0.00
 002811,-0.00004738,0.00002442,0.00007166,-0.00003722,-0.00000885,-0.00
 002212,0.00000136,-0.00585980,0.00695157,-0.02915260,0.00017660,-0.003
 30455,-0.00101672,-0.00134383,-0.00112132,0.00154936,-0.00045870,0.000
 80908,0.00010835,-0.00004040,-0.00005502,0.00008685,-0.00020000,0.0001
 9175,0.00032870,0.00027825,-0.00050404,0.00029839,0.01360654,-0.060835
 18,0.05821449,0.00212619,-0.00498504,0.01946640,0.00325113,-0.00394945
 ,0.01363344,-0.01183059,0.06604552,0.00000183,-0.00000782,0.00000434,-
 0.00002294,0.00001385,-0.00000256,0.00002549,-0.00001399,0.00000328,-0
 .00003516,0.00003885,-0.00003867,-0.00001540,-0.00002085,-0.00000051,-
 0.00000598,0.00000993,0.00000322,-0.00000403,-0.00000069,-0.00000309,0
 .00000119,-0.00000190,-0.00000246,0.00000585,0.00000022,-0.00000401,-0
 .00000390,0.00000118,-0.00000341,0.00004320,-0.00017559,0.00003153,0.0
 0001827,0.00006793,0.00000828,-0.00021051,0.00010350,-0.00012748,-0.00
 001277,0.00004600,0.00007979,0.00000298,0.00003088,-0.00005475,-0.0000
 3667,0.00008373,0.00005824,-0.00002373,-0.00005612,-0.00000420,-0.0053
 1274,0.00233482,-0.01621708,0.00152635,-0.00208678,-0.00031958,-0.0007
 5741,-0.00063875,0.00062750,-0.00032386,0.00048626,0.00050739,-0.00004
 885,0.00009346,-0.00000247,-0.00008016,-0.00011322,0.00044841,0.000506
 72,-0.00045454,0.00024496,-0.04594634,0.05994533,-0.28461672,0.0001925
 3,-0.00007727,0.00088837,-0.00212115,0.00302259,-0.01135735,0.05221475
 ,-0.06283073,0.31007925,-0.00010460,0.00032001,-0.00003294,0.00050968,
 -0.00016234,0.00027163,-0.00099868,0.00093518,-0.00000866,-0.00108935,
 0.00160049,-0.00264207,-0.00005978,-0.00031829,-0.00006132,-0.00020956
 ,-0.00014047,0.00016486,0.00002561,-0.00000011,-0.00002159,-0.00000270
 ,0.00000287,0.00003170,0.00004226,-0.00000469,-0.00005590,-0.00001662,
 -0.00002289,-0.00004543,-0.02298293,0.00823431,0.02154319,0.00301444,-
 0.00054455,0.00104364,-0.08015124,-0.00146238,0.03494163,-0.01293240,-
 0.01283906,0.00942040,0.00040702,0.00080047,-0.00039540,-0.00118621,-0
 .00599213,-0.00052988,0.00000827,0.00019510,-0.00046674,-0.02670017,0.
 01671930,-0.00416393,-0.16496034,0.06562088,-0.00635505,0.00338613,-0.
 00199998,-0.00294364,0.00113261,-0.00045054,-0.00415259,0.00020325,-0.
 00004885,0.00003164,0.00021917,0.00001196,0.00017033,-0.00107736,0.000
 40990,0.00008715,0.00023504,-0.00020890,0.00317066,-0.00125565,-0.0000
 8658,-0.00054446,-0.00013071,0.00004669,-0.00018296,0.00011588,0.00076
 843,0.00049151,0.48111362,0.00039871,-0.00060637,0.00006152,-0.0007310
 1,0.00029518,-0.00042051,0.00156748,-0.00142020,0.00109375,0.00250286,
 -0.00154597,0.00274452,-0.00054480,0.00088038,-0.00003469,0.00056832,0
 .00066004,-0.00009568,-0.00002281,0.00001138,0.00003779,0.00010705,0.0
 0001546,0.00002792,-0.00019831,0.00004105,0.00000954,0.00009387,0.0000
 2732,0.00003113,0.00664165,0.00690433,-0.01869492,0.00041784,-0.001632
 58,0.00058849,-0.00594402,-0.07309075,0.01210292,-0.02367737,-0.006083
 19,0.02512059,0.00083655,0.00037882,-0.00085196,0.00141198,-0.00422566
 ,0.00148455,-0.00074064,-0.00197298,-0.00205031,-0.00009031,0.00884016
 ,0.00401424,0.06580831,-0.14054434,-0.00905074,0.02280911,-0.01253655,
 0.00125468,-0.00028679,0.00209907,-0.00544282,0.00060291,-0.00001143,0
 .00042640,-0.00022399,0.00032188,0.00018597,-0.00112994,0.00076606,-0.
 00011151,-0.00162004,-0.00088544,0.00144659,-0.00119444,-0.00004132,-0
 .00082044,0.00037163,-0.00091061,-0.00030730,-0.00032540,0.00030160,0.
 00006083,0.02054558,0.58074779,0.00017250,-0.00080511,0.00002922,-0.00
 131527,0.00025211,-0.00022578,0.00184351,-0.00111290,0.00062902,-0.000
 36551,0.00108220,-0.00200495,-0.00096812,-0.00022893,-0.00003471,0.000
 25167,0.00058423,0.00017803,-0.00004104,-0.00001854,-0.00000566,-0.000
 03109,-0.00003288,0.00000973,0.00011160,0.00002724,0.00001873,-0.00008
 080,0.00001867,-0.00004689,0.00763631,-0.01268026,-0.00163987,-0.00379
 148,-0.00028410,-0.00095685,0.02678273,0.00823165,-0.11333566,0.005048
 61,0.00900077,-0.00114259,-0.00007961,-0.00035027,0.00051878,0.0013405
 8,0.00600397,0.00108717,-0.00032794,-0.00100890,-0.00033682,-0.0109923
 1,0.00924617,0.00367139,-0.01230325,-0.00393129,-0.07793188,0.01002500
 ,-0.00724116,0.00245757,-0.00527727,-0.00548475,0.00815126,-0.00193578
 ,0.00141148,-0.00037666,0.00015223,0.00019825,-0.00001122,0.00167924,-
 0.00085092,0.00007981,0.00095394,0.00217173,-0.00558382,-0.00087104,0.
 00053145,0.00021872,0.00003399,0.00078145,0.00051573,-0.00077697,-0.00
 055179,-0.00020039,0.08560124,0.03167840,0.48845829,0.00000984,0.00002
 440,0.00000404,0.00004695,-0.00002700,-0.00000050,-0.00014807,0.000009
 11,-0.00004219,-0.00019965,0.00000591,0.00017796,-0.00003457,0.0000475
 6,-0.00006546,0.00000236,0.00001024,-0.00000587,0.00000409,0.00000054,
 0.00000162,0.00000405,0.00000372,0.00000089,0.00000005,-0.00000409,0.0
 0000026,0.00000639,-0.00000258,0.00000692,0.00158025,-0.00048436,0.000
 66822,-0.00000752,0.00000128,-0.00036784,0.00840356,0.00304237,0.01853
 008,0.00149384,0.00097900,-0.00000660,-0.00005622,-0.00003943,-0.00000
 042,0.00001318,0.00024374,-0.00034929,-0.00000100,0.00008873,0.0000692
 3,-0.00189706,0.00397860,0.00032767,-0.01657128,-0.00560884,-0.0227675
 0,0.00103623,-0.00013497,0.00074576,-0.00110688,-0.00095508,0.00051791
 ,-0.00042068,0.00032375,-0.00003036,0.00004916,0.00007737,0.00002979,-
 0.00000598,0.00004279,-0.00004460,0.00020091,0.00050717,-0.00030478,0.
 00006863,0.00017122,0.00021392,-0.00005019,-0.00007771,-0.00000451,-0.
 00021987,-0.00001388,-0.00009021,-0.12040751,-0.02379706,-0.11734214,0
 .13492644,-0.00002635,0.00003413,-0.00000458,0.00006589,-0.00004645,0.
 00000170,-0.00020984,0.00017147,-0.00002361,0.00007105,-0.00000302,0.0
 0016312,0.00006153,-0.00001616,0.00003700,0.00000259,-0.00006946,0.000
 00292,0.00000530,-0.00000186,0.00000044,-0.00001591,-0.00000077,0.0000
 0127,0.00000698,-0.00001648,-0.00001935,0.00000453,-0.00000301,-0.0000
 0790,-0.00004694,0.00004184,-0.00065839,-0.00010272,0.00005372,-0.0002
 5545,0.00171690,0.00003283,0.00535463,0.00111473,0.00031700,0.00100313
 ,0.00001072,0.00000196,0.00005304,0.00044659,-0.00019582,0.00002223,0.
 00008417,0.00012583,-0.00000765,0.00193644,-0.00263041,-0.00046325,0.0
 1292899,0.00288411,0.01828091,-0.00043626,0.00090298,0.00031140,0.0007
 8083,0.00083538,-0.00055065,0.00036749,-0.00025431,-0.00003047,-0.0000
 1863,-0.00003247,-0.00001299,-0.00005012,-0.00001384,0.00003209,-0.000
 07622,-0.00054939,-0.00043160,-0.00010438,0.00044824,0.00031708,-0.000
 03197,0.00015676,0.00000602,-0.00026330,0.00022511,0.00004673,-0.02502
 090,-0.05909359,-0.03996377,0.02304064,0.05931204,-0.00001249,0.000068
 02,-0.00000943,0.00010953,0.00000660,0.00004953,-0.00002404,0.00008547
 ,0.00001362,0.00024111,-0.00023907,-0.00035628,0.00017169,0.00001036,0
 .00009401,-0.00002237,-0.00007789,0.00002230,0.00000060,0.00000200,-0.
 00000463,0.00000717,0.00000341,-0.00001355,-0.00002321,-0.00000277,-0.
 00002890,0.00001109,0.00000184,-0.00001047,-0.00170613,0.00160870,-0.0
 0094106,0.00049873,0.00030380,0.00039673,-0.00866053,-0.00422479,-0.02
 370416,-0.00144671,-0.00150387,0.00068958,0.00001986,0.00007068,-0.000
 09851,0.00042215,-0.00118190,0.00022312,0.00010576,0.00009923,-0.00013
 789,0.00027786,0.00059328,0.00040747,0.00133614,-0.00136703,0.00158194
 ,0.00000348,0.00030334,0.00085767,0.00000167,-0.00006442,-0.00011319,-
 0.00001965,0.00000792,-0.00001294,-0.00001192,0.00000153,-0.00000124,-
 0.00004626,0.00003513,-0.00000974,0.00023558,0.00002313,0.00008585,0.0
 0000993,0.00008302,-0.00003144,-0.00005346,0.00004141,0.00001174,0.000
 03653,-0.00002899,-0.00000209,-0.11834830,-0.03715710,-0.22837197,0.12
 298421,0.04177556,0.25150764,0.00017204,-0.00028050,0.00003053,-0.0003
 8602,0.00015512,-0.00010005,0.00086740,-0.00063118,0.00034921,0.000756
 22,0.00014880,0.00020049,-0.00035783,0.00015848,-0.00002453,0.00017864
 ,0.00034377,0.00002127,-0.00001447,0.00000390,0.00000196,0.00003452,0.
 00000393,0.00000710,-0.00006058,0.00003743,-0.00000146,0.00000704,0.00
 000767,-0.00000469,-0.00199621,-0.00415698,-0.00015756,-0.00018846,0.0
 0000226,0.00011551,-0.00833933,-0.01761253,0.00253690,-0.00222486,0.00
 088614,0.00331556,0.00005553,-0.00005779,-0.00010558,0.00091793,0.0017
 0494,-0.00058033,-0.00025653,-0.00063619,-0.00039334,0.00093989,0.0003
 7089,0.00051842,0.00715624,0.02685534,0.00108226,-0.00325198,0.0027161
 1,-0.00038673,-0.00041556,-0.00057817,0.00068541,-0.00031319,0.0000225
 5,-0.00002564,0.00008971,-0.00008341,-0.00004536,0.00010826,0.00005579
 ,0.00003425,-0.00144874,0.00028200,-0.00061529,-0.00132947,-0.00035959
 ,-0.00167108,-0.00021807,0.00007428,-0.00003090,0.00048806,-0.00039804
 ,0.00003278,-0.06365023,-0.06702204,-0.00462069,-0.00464015,-0.0156342
 7,0.00044245,0.07644581,0.00000456,0.00009362,-0.00000209,0.00006783,0
 .00000901,0.00002260,-0.00003940,-0.00000208,-0.00005497,-0.00025085,-
 0.00003314,-0.00008476,0.00007574,-0.00004559,0.00000448,-0.00009101,-
 0.00000642,-0.00000209,-0.00000643,0.00000359,-0.00000596,0.00001370,-
 0.00000325,-0.00000983,-0.00000360,0.00001571,-0.00000311,-0.00000667,
 0.00000040,0.00000968,0.00078289,-0.00118909,-0.00034090,0.00047333,-0
 .00009284,0.00030302,-0.00301537,-0.00527340,0.00032484,-0.00072582,0.
 00061242,0.00105467,0.00006785,0.00000265,-0.00016400,0.00142251,0.000
 69455,-0.00076824,-0.00007676,-0.00015084,-0.00007546,-0.00137724,0.00
 022562,-0.00173066,-0.00212552,-0.01727623,-0.00215747,0.00211118,-0.0
 0104751,0.00117488,0.00030184,0.00022118,-0.00021689,0.00013516,-0.000
 05842,0.00003436,-0.00002579,0.00011336,0.00008399,-0.00002117,-0.0000
 1187,0.00007752,-0.00037541,-0.00017145,0.00021016,-0.00054068,0.00095
 592,0.00014230,-0.00040224,0.00028107,-0.00003110,-0.00006535,0.000271
 70,0.00008491,-0.06882963,-0.29920398,-0.00164137,-0.00079739,-0.00319
 769,-0.00010821,0.07318372,0.32394322,-0.00013002,0.00021841,-0.000024
 07,0.00032754,-0.00011371,0.00007399,-0.00062082,0.00046608,-0.0003205
 8,-0.00067747,-0.00012007,-0.00010740,0.00025645,-0.00014359,0.0000086
 5,-0.00013489,-0.00025434,-0.00002652,0.00001141,-0.00000202,-0.000001
 88,-0.00002403,0.00000026,-0.00001142,0.00004380,-0.00002145,0.0000221
 9,-0.00001155,-0.00000629,0.00000956,0.00111730,0.00241948,0.00099946,
 0.00046019,0.00054714,0.00031904,0.01097925,0.02564944,-0.00387674,0.0
 0334655,-0.00136974,-0.00362268,-0.00018689,-0.00008296,0.00005984,-0.
 00144823,-0.00096210,-0.00044593,0.00032485,0.00068664,0.00041837,-0.0
 0053309,0.00007945,-0.00002161,0.00241525,-0.00109335,-0.00066776,0.00
 041166,-0.00044357,0.00071143,-0.00004304,-0.00020041,0.00005140,-0.00
 004420,0.00000206,0.00001653,0.00001292,-0.00001650,0.00000037,0.00001
 944,0.00003469,0.00002510,-0.00124921,0.00061777,-0.00016234,-0.001161
 98,-0.00029608,-0.00076847,0.00004551,0.00000859,-0.00000591,0.0003577
 8,-0.00018186,0.00002722,-0.00625846,-0.00344860,-0.04586553,-0.006580
 74,-0.02601375,0.00100793,0.00000449,0.00378459,0.05086713,-0.00006691
 ,0.00011962,-0.00000639,0.00019540,-0.00008340,-0.00014846,-0.00011024
 ,0.00061156,-0.00032903,-0.00226841,0.00286803,0.00220524,-0.00056136,
 -0.00055230,-0.00026628,-0.00017783,0.00012685,-0.00024920,-0.00001100
 ,-0.00000371,0.00002151,-0.00000766,-0.00001745,-0.00003953,-0.0000029
 1,0.00002951,0.00006306,-0.00011145,-0.00001825,0.00005919,-0.01760367
 ,-0.00257681,-0.02058941,0.00219725,-0.00097943,0.00043055,-0.12119906
 ,-0.02034654,-0.12749157,-0.00895434,-0.00571018,-0.00786644,0.0004406
 0,-0.00000672,0.00048724,0.00229543,-0.00225438,0.00232235,-0.00049018
 ,-0.00044769,0.00030433,-0.00012986,-0.00017430,0.00005611,0.00173409,
 0.00056982,0.00064071,0.00006756,-0.00011099,-0.00003284,-0.00001124,0
 .00002150,0.00002820,0.00003684,-0.00002381,-0.00000187,0.00001011,-0.
 00003380,-0.00001361,0.00003244,-0.00002707,0.00001611,-0.00030446,0.0
 0011485,-0.00017631,-0.00002747,-0.00029806,0.00021610,0.00007436,-0.0
 0005868,-0.00000640,-0.00006871,-0.00003971,-0.00001162,0.00750305,0.0
 0286512,0.01948715,-0.00207929,-0.00060754,0.00345952,0.00087437,0.000
 13601,-0.00102979,0.13872455,0.00022243,-0.00025526,0.00005300,-0.0004
 2381,0.00020212,0.00011298,0.00102869,-0.00082655,-0.00040621,0.002177
 24,-0.00181945,-0.00151155,0.00010057,0.00053194,-0.00005945,0.0002302
 6,0.00031510,0.00024766,-0.00001297,0.00001216,-0.00004051,0.00008260,
 0.00000395,0.00001572,-0.00005468,0.00004484,-0.00009066,0.00007542,0.
 00002018,0.00000026,0.01124679,0.00357804,0.01916923,0.00056884,-0.002
 58502,0.00027541,-0.02268070,-0.05575857,-0.03744634,-0.02073965,-0.00
 735270,-0.02536431,0.00050942,0.00088293,0.00068481,0.00022734,-0.0000
 2695,-0.00185432,-0.00135207,-0.00170965,0.00141692,0.00011283,0.00026
 639,0.00009754,-0.00002835,-0.00041354,-0.00081014,0.00003212,0.000031
 20,-0.00005194,-0.00004200,-0.00010971,-0.00000402,-0.00003882,0.00000
 898,0.00001399,0.00001324,-0.00001252,-0.00000655,0.00003384,0.0000042
 7,-0.00000677,-0.00012848,0.00022045,-0.00004324,0.00013563,-0.0000862
 2,0.00015425,0.00005582,-0.00010067,0.00001978,0.00003755,0.00003168,0
 .00000723,0.00192113,0.00151446,0.00496719,-0.00065575,0.00058136,0.00
 083163,0.00043754,0.00031979,0.00025582,0.02690796,0.06248699,-0.00000
 606,0.00001275,0.00000046,0.00002188,0.00000323,-0.00000839,-0.0000028
 6,0.00013460,0.00011823,0.00046552,0.00025485,-0.00050826,0.00005206,-
 0.00009924,0.00011992,-0.00001094,-0.00000068,0.00004479,-0.00000131,0
 .00000041,-0.00000171,0.00000074,-0.00000082,-0.00002037,-0.00000066,0
 .00001890,-0.00001907,-0.00000246,-0.00000363,-0.00001844,0.00031839,-
 0.00224040,-0.00074291,0.00076592,0.00002006,-0.00020022,-0.12435585,-
 0.03621245,-0.21167190,0.00127355,0.00026388,0.00278994,-0.00028479,-0
 .00040381,0.00043499,0.00111662,0.00067128,0.00133421,0.00008497,0.000
 13867,-0.00031817,0.00046969,-0.00014088,0.00042809,-0.00204569,0.0003
 5812,0.00115357,-0.00013329,0.00006239,0.00012854,0.00009809,0.0000884
 2,-0.00013525,0.00000032,0.00000690,0.00000929,-0.00001870,0.00003989,
 0.00001337,-0.00003699,0.00004877,-0.00002651,0.00023896,-0.00009147,0
 .00027678,0.00027922,0.00035417,-0.00012251,-0.00013991,0.00005536,0.0
 0000259,0.00004333,0.00005211,-0.00005497,-0.00976029,-0.00388324,-0.0
 2795221,0.00372453,0.00103414,-0.00310163,-0.00061533,0.00008510,0.001
 31063,0.12846136,0.03937260,0.23673713\\-0.00000352,0.00001552,0.00000
 613,-0.00000571,0.00001076,-0.00000259,0.00000135,0.00000291,-0.000001
 06,0.00002699,0.00001179,0.00001503,0.00000196,0.00000998,0.00001131,0
 .00000199,0.00002652,0.00000916,-0.00000087,0.00001979,0.00000185,-0.0
 0000514,0.00001507,-0.00000316,0.00000197,0.00001060,0.00001264,0.0000
 1097,0.00001797,0.00001756,-0.00001840,-0.00003089,0.00000817,0.000009
 36,0.00003110,-0.00000658,0.00001902,0.00001601,-0.00002260,-0.0000288
 6,-0.00003320,-0.00000988,-0.00000165,0.00000230,-0.00000924,0.0000122
 5,0.00001880,0.00001280,-0.00001341,-0.00000370,-0.00001028,-0.0000117
 2,-0.00000092,-0.00002085,0.00001877,0.00000222,0.00000525,-0.00000560
 ,-0.00000499,-0.00001227,-0.00000244,-0.00001274,0.00000728,-0.0000055
 2,-0.00001450,-0.00001383,-0.00000876,-0.00001402,-0.00001419,-0.00000
 186,-0.00002124,-0.00001765,-0.00000448,-0.00003062,0.00000912,0.00000
 337,-0.00000721,0.00000347,0.00000811,-0.00001455,-0.00000284,0.000008
 09,-0.00001817,0.00000358,-0.00001223,-0.00000682,0.00001541,-0.000001
 15,0.00000711,-0.00000234,0.00000679,0.00000438,-0.00000099,0.00000032
 ,-0.00000928,0.00001158\\\@


 ... THE UNIVERSE IS NOT ONLY QUEERER THAN WE SUPPOSE,
 BUT QUEERER THAN WE CAN SUPPOSE ... 

                                   -- J. B. S. HALDANE
 Job cpu time:       1 days 22 hours 41 minutes 46.5 seconds.
 File lengths (MBytes):  RWF=   2051 Int=      0 D2E=      0 Chk=     36 Scr=      1
 Normal termination of Gaussian 09 at Mon Feb  7 19:40:56 2022.
