 Entering Gaussian System, Link 0=g09
 Input=sm_claisen_ma.com
 Output=sm_claisen_ma.log
 Initial command:
 /apps/applications/gaussian/G09.D01/2/default/g09/l1.exe "/nobackup/pmmass/Temp/Gau-107223.inp" -scrdir="/nobackup/pmmass/Temp/"
 Entering Link 1 = /apps/applications/gaussian/G09.D01/2/default/g09/l1.exe PID=    107224.
  
 Copyright (c) 1988,1990,1992,1993,1995,1998,2003,2009,2013,
            Gaussian, Inc.  All Rights Reserved.
  
 This is part of the Gaussian(R) 09 program.  It is based on
 the Gaussian(R) 03 system (copyright 2003, Gaussian, Inc.),
 the Gaussian(R) 98 system (copyright 1998, Gaussian, Inc.),
 the Gaussian(R) 94 system (copyright 1995, Gaussian, Inc.),
 the Gaussian 92(TM) system (copyright 1992, Gaussian, Inc.),
 the Gaussian 90(TM) system (copyright 1990, Gaussian, Inc.),
 the Gaussian 88(TM) system (copyright 1988, Gaussian, Inc.),
 the Gaussian 86(TM) system (copyright 1986, Carnegie Mellon
 University), and the Gaussian 82(TM) system (copyright 1983,
 Carnegie Mellon University). Gaussian is a federally registered
 trademark of Gaussian, Inc.
  
 This software contains proprietary and confidential information,
 including trade secrets, belonging to Gaussian, Inc.
  
 This software is provided under written license and may be
 used, copied, transmitted, or stored only in accord with that
 written license.
  
 The following legend is applicable only to US Government
 contracts under FAR:
  
                    RESTRICTED RIGHTS LEGEND
  
 Use, reproduction and disclosure by the US Government is
 subject to restrictions as set forth in subparagraphs (a)
 and (c) of the Commercial Computer Software - Restricted
 Rights clause in FAR 52.227-19.
  
 Gaussian, Inc.
 340 Quinnipiac St., Bldg. 40, Wallingford CT 06492
  
  
 ---------------------------------------------------------------
 Warning -- This program may not be used in any manner that
 competes with the business of Gaussian, Inc. or will provide
 assistance to any competitor of Gaussian, Inc.  The licensee
 of this program is prohibited from giving any competitor of
 Gaussian, Inc. access to this program.  By using this program,
 the user acknowledges that Gaussian, Inc. is engaged in the
 business of creating and licensing software in the field of
 computational chemistry and represents and warrants to the
 licensee that it is not a competitor of Gaussian, Inc. and that
 it will not use this program in any manner prohibited above.
 ---------------------------------------------------------------
  

 Cite this work as:
 Gaussian 09, Revision D.01,
 M. J. Frisch, G. W. Trucks, H. B. Schlegel, G. E. Scuseria, 
 M. A. Robb, J. R. Cheeseman, G. Scalmani, V. Barone, B. Mennucci, 
 G. A. Petersson, H. Nakatsuji, M. Caricato, X. Li, H. P. Hratchian, 
 A. F. Izmaylov, J. Bloino, G. Zheng, J. L. Sonnenberg, M. Hada, 
 M. Ehara, K. Toyota, R. Fukuda, J. Hasegawa, M. Ishida, T. Nakajima, 
 Y. Honda, O. Kitao, H. Nakai, T. Vreven, J. A. Montgomery, Jr., 
 J. E. Peralta, F. Ogliaro, M. Bearpark, J. J. Heyd, E. Brothers, 
 K. N. Kudin, V. N. Staroverov, T. Keith, R. Kobayashi, J. Normand, 
 K. Raghavachari, A. Rendell, J. C. Burant, S. S. Iyengar, J. Tomasi, 
 M. Cossi, N. Rega, J. M. Millam, M. Klene, J. E. Knox, J. B. Cross, 
 V. Bakken, C. Adamo, J. Jaramillo, R. Gomperts, R. E. Stratmann, 
 O. Yazyev, A. J. Austin, R. Cammi, C. Pomelli, J. W. Ochterski, 
 R. L. Martin, K. Morokuma, V. G. Zakrzewski, G. A. Voth, 
 P. Salvador, J. J. Dannenberg, S. Dapprich, A. D. Daniels, 
 O. Farkas, J. B. Foresman, J. V. Ortiz, J. Cioslowski, 
 and D. J. Fox, Gaussian, Inc., Wallingford CT, 2013.
 
 ******************************************
 Gaussian 09:  ES64L-G09RevD.01 24-Apr-2013
                 2-Feb-2022 
 ******************************************
 %nprocshared=8
 Will use up to    8 processors via shared memory.
 %mem=4GB
 %NoSave
 %chk="sm_claisen_ma.chk"
 ------------------------------------------------
 #n wB97XD/Gen scrf(smd,solvent=toluene) opt test
 ------------------------------------------------
 1/14=-1,18=20,19=15,26=3,38=1/1,3;
 2/9=110,12=2,17=6,18=5,40=1/2;
 3/5=7,11=2,16=1,25=1,30=1,70=32201,71=1,72=13,74=-58/1,2,3;
 4//1;
 5/5=2,38=5,53=13/2;
 6/7=2,8=2,9=2,10=2,28=1/1;
 7//1,2,3,16;
 1/14=-1,18=20,19=15,26=3/3(2);
 2/9=110/2;
 99//99;
 2/9=110/2;
 3/5=7,6=1,11=2,16=1,25=1,30=1,70=32205,71=1,72=13,74=-58,82=7/1,2,3;
 4/5=5,16=3,69=1/1;
 5/5=2,38=5,53=13/2;
 7//1,2,3,16;
 1/14=-1,18=20,19=15,26=3/3(-5);
 2/9=110/2;
 6/7=2,8=2,9=2,10=2,19=2,28=1/1;
 99/9=1/99;
 ---------------------------------------
 starting material claisen toluene - opt
 ---------------------------------------
 Symbolic Z-matrix:
 Charge =  0 Multiplicity = 1
 C                    -2.83435   2.49668   0.15394 
 C                    -3.01462   1.13664   0.06932 
 C                    -1.89961   0.2586    0.01402 
 C                    -0.5866    0.81314   0.0467 
 C                    -0.4325    2.22192   0.13131 
 C                    -1.53136   3.04642   0.18484 
 H                    -3.70231   3.15631   0.19558 
 H                    -4.01745   0.71124   0.04404 
 H                     0.57711   2.62974   0.15372 
 H                    -1.39979   4.12737   0.24997 
 C                     0.55941  -0.05279  -0.00362 
 C                    -2.02733  -1.15987  -0.07494 
 C                     0.38098  -1.41784  -0.07604 
 H                     1.23285  -2.09235  -0.07931 
 C                    -0.92238  -1.96748  -0.11886 
 H                    -1.04824  -3.04859  -0.17887 
 O                     1.74621   0.59001   0.06119 
 Cl                   -3.61409  -1.88526  -0.12109 
 C                     3.00012   0.01584  -0.32964 
 C                     3.4894   -1.00038   0.68178 
 H                     4.33543  -1.61121   0.34826 
 C                     2.9378   -0.56205  -1.74574 
 H                     3.95595  -0.81311  -2.07367 
 H                     2.32502  -1.46772  -1.8183 
 H                     2.52906   0.1943   -2.43057 
 C                     3.95702   1.20976  -0.31385 
 H                     3.93285   1.68398   0.67608 
 H                     4.98322   0.88045  -0.52487 
 H                     3.65189   1.9431   -1.07389 
 C                     3.00938  -1.13492   1.91549 
 H                     3.43401  -1.85878   2.61313 
 H                     2.16811  -0.5274    2.25946 
 

 GradGradGradGradGradGradGradGradGradGradGradGradGradGradGradGradGradGrad
 Berny optimization.
 Initialization pass.
                           ----------------------------
                           !    Initial Parameters    !
                           ! (Angstroms and Degrees)  !
 --------------------------                            --------------------------
 ! Name  Definition              Value          Derivative Info.                !
 --------------------------------------------------------------------------------
 ! R1    R(1,2)                  1.3745         estimate D2E/DX2                !
 ! R2    R(1,6)                  1.4146         estimate D2E/DX2                !
 ! R3    R(1,7)                  1.091          estimate D2E/DX2                !
 ! R4    R(2,3)                  1.4203         estimate D2E/DX2                !
 ! R5    R(2,8)                  1.0896         estimate D2E/DX2                !
 ! R6    R(3,4)                  1.4257         estimate D2E/DX2                !
 ! R7    R(3,12)                 1.427          estimate D2E/DX2                !
 ! R8    R(4,5)                  1.4197         estimate D2E/DX2                !
 ! R9    R(4,11)                 1.4373         estimate D2E/DX2                !
 ! R10   R(5,6)                  1.3748         estimate D2E/DX2                !
 ! R11   R(5,9)                  1.0891         estimate D2E/DX2                !
 ! R12   R(6,10)                 1.0909         estimate D2E/DX2                !
 ! R13   R(11,13)                1.3786         estimate D2E/DX2                !
 ! R14   R(11,17)                1.3513         estimate D2E/DX2                !
 ! R15   R(12,15)                1.3693         estimate D2E/DX2                !
 ! R16   R(12,18)                1.7453         estimate D2E/DX2                !
 ! R17   R(13,14)                1.0866         estimate D2E/DX2                !
 ! R18   R(13,15)                1.4152         estimate D2E/DX2                !
 ! R19   R(15,16)                1.0901         estimate D2E/DX2                !
 ! R20   R(17,19)                1.4334         estimate D2E/DX2                !
 ! R21   R(19,20)                1.5149         estimate D2E/DX2                !
 ! R22   R(19,22)                1.5307         estimate D2E/DX2                !
 ! R23   R(19,26)                1.5301         estimate D2E/DX2                !
 ! R24   R(20,21)                1.0955         estimate D2E/DX2                !
 ! R25   R(20,30)                1.3306         estimate D2E/DX2                !
 ! R26   R(22,23)                1.0987         estimate D2E/DX2                !
 ! R27   R(22,24)                1.0959         estimate D2E/DX2                !
 ! R28   R(22,25)                1.0991         estimate D2E/DX2                !
 ! R29   R(26,27)                1.0979         estimate D2E/DX2                !
 ! R30   R(26,28)                1.0982         estimate D2E/DX2                !
 ! R31   R(26,29)                1.0993         estimate D2E/DX2                !
 ! R32   R(30,31)                1.0913         estimate D2E/DX2                !
 ! R33   R(30,32)                1.0932         estimate D2E/DX2                !
 ! A1    A(2,1,6)              120.4431         estimate D2E/DX2                !
 ! A2    A(2,1,7)              119.7529         estimate D2E/DX2                !
 ! A3    A(6,1,7)              119.8039         estimate D2E/DX2                !
 ! A4    A(1,2,3)              120.7386         estimate D2E/DX2                !
 ! A5    A(1,2,8)              120.5589         estimate D2E/DX2                !
 ! A6    A(3,2,8)              118.7025         estimate D2E/DX2                !
 ! A7    A(2,3,4)              118.7935         estimate D2E/DX2                !
 ! A8    A(2,3,12)             123.1396         estimate D2E/DX2                !
 ! A9    A(4,3,12)             118.0669         estimate D2E/DX2                !
 ! A10   A(3,4,5)              119.1634         estimate D2E/DX2                !
 ! A11   A(3,4,11)             119.9467         estimate D2E/DX2                !
 ! A12   A(5,4,11)             120.8899         estimate D2E/DX2                !
 ! A13   A(4,5,6)              120.7078         estimate D2E/DX2                !
 ! A14   A(4,5,9)              118.2567         estimate D2E/DX2                !
 ! A15   A(6,5,9)              121.0355         estimate D2E/DX2                !
 ! A16   A(1,6,5)              120.1534         estimate D2E/DX2                !
 ! A17   A(1,6,10)             119.8347         estimate D2E/DX2                !
 ! A18   A(5,6,10)             120.0119         estimate D2E/DX2                !
 ! A19   A(4,11,13)            119.6841         estimate D2E/DX2                !
 ! A20   A(4,11,17)            114.3325         estimate D2E/DX2                !
 ! A21   A(13,11,17)           125.9615         estimate D2E/DX2                !
 ! A22   A(3,12,15)            121.0671         estimate D2E/DX2                !
 ! A23   A(3,12,18)            119.7464         estimate D2E/DX2                !
 ! A24   A(15,12,18)           119.1859         estimate D2E/DX2                !
 ! A25   A(11,13,14)           120.8881         estimate D2E/DX2                !
 ! A26   A(11,13,15)           120.3567         estimate D2E/DX2                !
 ! A27   A(14,13,15)           118.7417         estimate D2E/DX2                !
 ! A28   A(12,15,13)           120.873          estimate D2E/DX2                !
 ! A29   A(12,15,16)           119.5732         estimate D2E/DX2                !
 ! A30   A(13,15,16)           119.5517         estimate D2E/DX2                !
 ! A31   A(11,17,19)           124.3798         estimate D2E/DX2                !
 ! A32   A(17,19,20)           111.6652         estimate D2E/DX2                !
 ! A33   A(17,19,22)           111.5825         estimate D2E/DX2                !
 ! A34   A(17,19,26)           103.3967         estimate D2E/DX2                !
 ! A35   A(20,19,22)           112.181          estimate D2E/DX2                !
 ! A36   A(20,19,26)           108.3328         estimate D2E/DX2                !
 ! A37   A(22,19,26)           109.2429         estimate D2E/DX2                !
 ! A38   A(19,20,21)           114.8465         estimate D2E/DX2                !
 ! A39   A(19,20,30)           124.7722         estimate D2E/DX2                !
 ! A40   A(21,20,30)           120.2977         estimate D2E/DX2                !
 ! A41   A(19,22,23)           108.9443         estimate D2E/DX2                !
 ! A42   A(19,22,24)           113.3287         estimate D2E/DX2                !
 ! A43   A(19,22,25)           109.375          estimate D2E/DX2                !
 ! A44   A(23,22,24)           108.0322         estimate D2E/DX2                !
 ! A45   A(23,22,25)           108.4137         estimate D2E/DX2                !
 ! A46   A(24,22,25)           108.6321         estimate D2E/DX2                !
 ! A47   A(19,26,27)           109.4238         estimate D2E/DX2                !
 ! A48   A(19,26,28)           110.3899         estimate D2E/DX2                !
 ! A49   A(19,26,29)           109.8637         estimate D2E/DX2                !
 ! A50   A(27,26,28)           108.8649         estimate D2E/DX2                !
 ! A51   A(27,26,29)           109.2155         estimate D2E/DX2                !
 ! A52   A(28,26,29)           109.0591         estimate D2E/DX2                !
 ! A53   A(20,30,31)           121.2921         estimate D2E/DX2                !
 ! A54   A(20,30,32)           120.8733         estimate D2E/DX2                !
 ! A55   A(31,30,32)           117.8323         estimate D2E/DX2                !
 ! D1    D(6,1,2,3)              0.1236         estimate D2E/DX2                !
 ! D2    D(6,1,2,8)           -179.9175         estimate D2E/DX2                !
 ! D3    D(7,1,2,3)           -179.9952         estimate D2E/DX2                !
 ! D4    D(7,1,2,8)             -0.0363         estimate D2E/DX2                !
 ! D5    D(2,1,6,5)             -0.0488         estimate D2E/DX2                !
 ! D6    D(2,1,6,10)           179.8697         estimate D2E/DX2                !
 ! D7    D(7,1,6,5)           -179.9299         estimate D2E/DX2                !
 ! D8    D(7,1,6,10)            -0.0115         estimate D2E/DX2                !
 ! D9    D(1,2,3,4)             -0.0526         estimate D2E/DX2                !
 ! D10   D(1,2,3,12)          -179.9678         estimate D2E/DX2                !
 ! D11   D(8,2,3,4)            179.9877         estimate D2E/DX2                !
 ! D12   D(8,2,3,12)             0.0724         estimate D2E/DX2                !
 ! D13   D(2,3,4,5)             -0.0901         estimate D2E/DX2                !
 ! D14   D(2,3,4,11)           179.804          estimate D2E/DX2                !
 ! D15   D(12,3,4,5)           179.8295         estimate D2E/DX2                !
 ! D16   D(12,3,4,11)           -0.2764         estimate D2E/DX2                !
 ! D17   D(2,3,12,15)         -179.6607         estimate D2E/DX2                !
 ! D18   D(2,3,12,18)            0.036          estimate D2E/DX2                !
 ! D19   D(4,3,12,15)            0.4235         estimate D2E/DX2                !
 ! D20   D(4,3,12,18)         -179.8798         estimate D2E/DX2                !
 ! D21   D(3,4,5,6)              0.1654         estimate D2E/DX2                !
 ! D22   D(3,4,5,9)           -179.9045         estimate D2E/DX2                !
 ! D23   D(11,4,5,6)          -179.7277         estimate D2E/DX2                !
 ! D24   D(11,4,5,9)             0.2024         estimate D2E/DX2                !
 ! D25   D(3,4,11,13)           -0.3508         estimate D2E/DX2                !
 ! D26   D(3,4,11,17)         -178.7454         estimate D2E/DX2                !
 ! D27   D(5,4,11,13)          179.5414         estimate D2E/DX2                !
 ! D28   D(5,4,11,17)            1.1468         estimate D2E/DX2                !
 ! D29   D(4,5,6,1)             -0.0971         estimate D2E/DX2                !
 ! D30   D(4,5,6,10)           179.9846         estimate D2E/DX2                !
 ! D31   D(9,5,6,1)            179.9748         estimate D2E/DX2                !
 ! D32   D(9,5,6,10)             0.0565         estimate D2E/DX2                !
 ! D33   D(4,11,13,14)        -177.8038         estimate D2E/DX2                !
 ! D34   D(4,11,13,15)           0.8407         estimate D2E/DX2                !
 ! D35   D(17,11,13,14)          0.3889         estimate D2E/DX2                !
 ! D36   D(17,11,13,15)        179.0334         estimate D2E/DX2                !
 ! D37   D(4,11,17,19)        -162.1288         estimate D2E/DX2                !
 ! D38   D(13,11,17,19)         19.5943         estimate D2E/DX2                !
 ! D39   D(3,12,15,13)           0.0557         estimate D2E/DX2                !
 ! D40   D(3,12,15,16)         179.5202         estimate D2E/DX2                !
 ! D41   D(18,12,15,13)       -179.6426         estimate D2E/DX2                !
 ! D42   D(18,12,15,16)         -0.1782         estimate D2E/DX2                !
 ! D43   D(11,13,15,12)         -0.7059         estimate D2E/DX2                !
 ! D44   D(11,13,15,16)        179.8295         estimate D2E/DX2                !
 ! D45   D(14,13,15,12)        177.9674         estimate D2E/DX2                !
 ! D46   D(14,13,15,16)         -1.4971         estimate D2E/DX2                !
 ! D47   D(11,17,19,20)        -73.9634         estimate D2E/DX2                !
 ! D48   D(11,17,19,22)         52.4779         estimate D2E/DX2                !
 ! D49   D(11,17,19,26)        169.7715         estimate D2E/DX2                !
 ! D50   D(17,19,20,21)        168.6323         estimate D2E/DX2                !
 ! D51   D(17,19,20,30)        -14.6985         estimate D2E/DX2                !
 ! D52   D(22,19,20,21)         42.5185         estimate D2E/DX2                !
 ! D53   D(22,19,20,30)       -140.8123         estimate D2E/DX2                !
 ! D54   D(26,19,20,21)        -78.1478         estimate D2E/DX2                !
 ! D55   D(26,19,20,30)         98.5214         estimate D2E/DX2                !
 ! D56   D(17,19,22,23)        169.2547         estimate D2E/DX2                !
 ! D57   D(17,19,22,24)        -70.4509         estimate D2E/DX2                !
 ! D58   D(17,19,22,25)         50.9136         estimate D2E/DX2                !
 ! D59   D(20,19,22,23)        -64.5866         estimate D2E/DX2                !
 ! D60   D(20,19,22,24)         55.7078         estimate D2E/DX2                !
 ! D61   D(20,19,22,25)        177.0723         estimate D2E/DX2                !
 ! D62   D(26,19,22,23)         55.552          estimate D2E/DX2                !
 ! D63   D(26,19,22,24)        175.8464         estimate D2E/DX2                !
 ! D64   D(26,19,22,25)        -62.7891         estimate D2E/DX2                !
 ! D65   D(17,19,26,27)         55.8387         estimate D2E/DX2                !
 ! D66   D(17,19,26,28)        175.6298         estimate D2E/DX2                !
 ! D67   D(17,19,26,29)        -64.0592         estimate D2E/DX2                !
 ! D68   D(20,19,26,27)        -62.7631         estimate D2E/DX2                !
 ! D69   D(20,19,26,28)         57.028          estimate D2E/DX2                !
 ! D70   D(20,19,26,29)        177.339          estimate D2E/DX2                !
 ! D71   D(22,19,26,27)        174.7625         estimate D2E/DX2                !
 ! D72   D(22,19,26,28)        -65.4464         estimate D2E/DX2                !
 ! D73   D(22,19,26,29)         54.8646         estimate D2E/DX2                !
 ! D74   D(19,20,30,31)       -177.3111         estimate D2E/DX2                !
 ! D75   D(19,20,30,32)          3.252          estimate D2E/DX2                !
 ! D76   D(21,20,30,31)         -0.8119         estimate D2E/DX2                !
 ! D77   D(21,20,30,32)        179.7511         estimate D2E/DX2                !
 --------------------------------------------------------------------------------
 Trust Radius=3.00D-01 FncErr=1.00D-07 GrdErr=1.00D-06
 Number of steps in this run=    175 maximum allowed number of steps=    192.
 GradGradGradGradGradGradGradGradGradGradGradGradGradGradGradGradGradGrad

                          Input orientation:                          
 ---------------------------------------------------------------------
 Center     Atomic      Atomic             Coordinates (Angstroms)
 Number     Number       Type             X           Y           Z
 ---------------------------------------------------------------------
      1          6           0       -2.834350    2.496680    0.153940
      2          6           0       -3.014620    1.136640    0.069320
      3          6           0       -1.899610    0.258600    0.014020
      4          6           0       -0.586600    0.813140    0.046700
      5          6           0       -0.432500    2.221920    0.131310
      6          6           0       -1.531360    3.046420    0.184840
      7          1           0       -3.702310    3.156310    0.195580
      8          1           0       -4.017450    0.711240    0.044040
      9          1           0        0.577110    2.629740    0.153720
     10          1           0       -1.399790    4.127370    0.249970
     11          6           0        0.559410   -0.052790   -0.003620
     12          6           0       -2.027330   -1.159870   -0.074940
     13          6           0        0.380980   -1.417840   -0.076040
     14          1           0        1.232850   -2.092350   -0.079310
     15          6           0       -0.922380   -1.967480   -0.118860
     16          1           0       -1.048240   -3.048590   -0.178870
     17          8           0        1.746210    0.590010    0.061190
     18         17           0       -3.614090   -1.885260   -0.121090
     19          6           0        3.000120    0.015840   -0.329640
     20          6           0        3.489400   -1.000380    0.681780
     21          1           0        4.335430   -1.611210    0.348260
     22          6           0        2.937800   -0.562050   -1.745740
     23          1           0        3.955950   -0.813110   -2.073670
     24          1           0        2.325020   -1.467720   -1.818300
     25          1           0        2.529060    0.194300   -2.430570
     26          6           0        3.957020    1.209760   -0.313850
     27          1           0        3.932850    1.683980    0.676080
     28          1           0        4.983220    0.880450   -0.524870
     29          1           0        3.651890    1.943100   -1.073890
     30          6           0        3.009380   -1.134920    1.915490
     31          1           0        3.434010   -1.858780    2.613130
     32          1           0        2.168110   -0.527400    2.259460
 ---------------------------------------------------------------------
                    Distance matrix (angstroms):
                    1          2          3          4          5
     1  C    0.000000
     2  C    1.374542   0.000000
     3  C    2.429469   1.420303   0.000000
     4  C    2.810371   2.449581   1.425685   0.000000
     5  C    2.417620   2.801610   2.453731   1.419707   0.000000
     6  C    1.414550   2.420881   2.817220   2.428826   1.374831
     7  H    1.090963   2.137271   3.417516   3.901315   3.401305
     8  H    2.144668   1.089620   2.165879   3.432364   3.891226
     9  H    3.414054   3.890629   3.431612   2.160025   1.089097
    10  H    2.174013   3.403642   3.908052   3.418584   2.140203
    11  C    4.247615   3.767460   2.478720   1.437256   2.485236
    12  C    3.751536   2.503899   1.426984   2.446072   3.744666
    13  C    5.070967   4.251658   2.831899   2.434861   3.735317
    14  H    6.136425   5.337553   3.917650   3.430474   4.629328
    15  C    4.864029   3.748125   2.434762   2.805710   4.225357
    16  H    5.835321   4.630810   3.420459   3.895761   5.315414
    17  O    4.962411   4.792116   3.661156   2.343502   2.723018
    18  Cl   4.459264   3.086665   2.748424   4.058967   5.201456
    19  C    6.358416   6.131269   4.917763   3.693491   4.106354
    20  C    7.245541   6.873444   5.574259   4.506213   5.105637
    21  H    8.265486   7.851861   6.517947   5.494979   6.121528
    22  C    6.803112   6.450682   5.212558   4.186333   4.757387
    23  H    7.875603   7.548694   6.308296   5.270239   5.773373
    24  H    6.798919   6.233583   4.917832   4.142231   5.001834
    25  H    6.383323   6.153848   5.058979   4.028296   4.409684
    26  C    6.928037   6.982545   5.942417   4.575127   4.526646
    27  H    6.835796   6.995361   6.040498   4.645418   4.431979
    28  H    8.011703   8.023973   6.931843   5.599475   5.617841
    29  H    6.624600   6.811730   5.902562   4.527398   4.267609
    30  C    7.102166   6.697530   5.445702   4.496486   5.128178
    31  H    8.019351   7.551711   6.299696   5.467268   6.145034
    32  H    6.213122   5.867404   4.712339   3.779124   4.341769
                    6          7          8          9         10
     6  C    0.000000
     7  H    2.173756   0.000000
     8  H    3.413727   2.469948   0.000000
     9  H    2.149474   4.311898   4.980226   0.000000
    10  H    1.090874   2.499503   4.308654   2.481994   0.000000
    11  C    3.743252   5.338564   4.640438   2.687199   4.623474
    12  C    4.243389   4.637688   2.734188   4.603970   5.334255
    13  C    4.863612   6.137580   4.888107   4.058837   5.833248
    14  H    5.841026   7.209702   5.953233   4.773095   6.761962
    15  C    5.059870   5.837817   4.096527   4.843264   6.124635
    16  H    6.124936   6.759074   4.796063   5.915726   7.197353
    17  O    4.097768   6.024145   5.764960   2.352840   4.737707
    18  Cl   5.362166   5.052276   2.632827   6.166596   6.418141
    19  C    5.475711   7.420308   7.061835   3.596816   6.049780
    20  C    6.467733   8.320766   7.725876   4.683807   7.098201
    21  H    7.492626   9.346541   8.675075   5.669962   8.113797
    22  C    6.059834   7.854043   7.293839   4.400946   6.692399
    23  H    7.078659   8.919346   8.389484   5.313289   7.647980
    24  H    6.265915   7.859139   6.960108   4.871676   7.032566
    25  H    5.609097   7.382421   7.017672   4.052164   6.171726
    26  C    5.808987   7.919212   7.998048   3.695775   6.125827
    27  H    5.652889   7.790655   8.034486   3.525381   5.881222
    28  H    6.901802   9.007609   9.020219   4.788977   7.203172
    29  H    5.446815   7.560932   7.847676   3.381238   5.660664
    30  C    6.410700   8.149818   7.502464   4.815853   7.064449
    31  H    7.390026   9.051118   8.290325   5.861517   8.048860
    32  H    5.546379   7.231262   6.686065   4.114967   6.199584
                   11         12         13         14         15
    11  C    0.000000
    12  C    2.814593   0.000000
    13  C    1.378566   2.422087   0.000000
    14  H    2.149199   3.390916   1.086580   0.000000
    15  C    2.423844   1.369335   1.415163   2.159207   0.000000
    16  H    3.404419   2.129949   2.170850   2.475415   1.090065
    17  O    1.351254   4.161756   2.431902   2.734654   3.700614
    18  Cl   4.559589   1.745316   4.022573   4.851542   2.692966
    19  C    2.463344   5.169373   2.996606   2.762313   4.400454
    20  C    3.154765   5.570671   3.226583   2.619862   4.586950
    21  H    4.100100   6.392771   3.981846   3.168646   5.290529
    22  C    2.991833   5.272711   3.171372   2.832960   4.418480
    23  H    4.049652   6.317816   4.139642   3.609598   5.380702
    24  H    2.900426   4.698620   2.610986   2.146412   3.699117
    25  H    3.135388   5.305041   3.571702   3.526663   4.682919
    26  C    3.637860   6.440859   4.443973   4.287195   5.825926
    27  H    3.854667   6.646447   4.775223   4.703327   6.126855
    28  H    4.551124   7.315269   5.163739   4.806385   6.568992
    29  H    3.833078   6.548272   4.794838   4.808929   6.093329
    30  C    3.294896   5.415799   3.309792   2.837597   4.504495
    31  H    4.286293   6.127025   4.092317   3.485526   5.143318
    32  H    2.816860   4.842640   3.072666   2.965405   4.157086
                   16         17         18         19         20
    16  H    0.000000
    17  O    4.594126   0.000000
    18  Cl   2.817847   5.907030   0.000000
    19  C    5.079634   1.433426   6.885161   0.000000
    20  C    5.052332   2.439915   7.203276   1.514948   0.000000
    21  H    5.597127   3.410548   7.968078   2.211310   1.095498
    22  C    4.952421   2.451963   6.878781   1.530745   2.527696
    23  H    5.799100   3.377769   7.890981   2.154625   2.800936
    24  H    4.070106   2.846358   6.190952   2.207446   2.797246
    25  H    5.327623   2.641649   6.884516   2.160475   3.469328
    26  C    6.573005   2.326462   8.181565   1.530148   2.468738
    27  H    6.923830   2.521161   8.386373   2.159664   2.720748
    28  H    7.206635   3.302432   9.040239   2.172177   2.687940
    29  H    6.914423   2.598245   8.267928   2.166343   3.431159
    30  C    4.951036   2.830090   6.970009   2.522884   1.330624
    31  H    5.413084   3.918882   7.559919   3.516014   2.114245
    32  H    4.758861   2.501798   6.398800   2.773227   2.111538
                   21         22         23         24         25
    21  H    0.000000
    22  C    2.727442   0.000000
    23  H    2.578122   1.098726   0.000000
    24  H    2.959108   1.095903   1.775855   0.000000
    25  H    3.774220   1.099148   1.782770   1.782924   0.000000
    26  C    2.922235   2.495682   2.681226   3.477886   2.747860
    27  H    3.335838   3.449636   3.714447   4.329002   3.720356
    28  H    2.718521   2.784793   2.514401   3.775300   3.182043
    29  H    3.888812   2.690183   2.947661   3.734759   2.481860
    30  C    2.107480   3.706469   4.112536   3.810550   4.570095
    31  H    2.450201   4.574656   4.830315   4.584796   5.520234
    32  H    3.086196   4.078633   4.696171   4.187714   4.758941
                   26         27         28         29         30
    26  C    0.000000
    27  H    1.097921   0.000000
    28  H    1.098208   1.786398   0.000000
    29  H    1.099342   1.791222   1.789717   0.000000
    30  C    3.371276   3.214830   3.730029   4.338596   0.000000
    31  H    4.272785   4.068434   4.444151   5.300555   1.091323
    32  H    3.583273   3.242160   4.202306   4.406381   1.093221
                   31         32
    31  H    0.000000
    32  H    1.870871   0.000000
 Stoichiometry    C15H15ClO
 Framework group  C1[X(C15H15ClO)]
 Deg. of freedom    90
 Full point group                 C1      NOp   1
 Largest Abelian subgroup         C1      NOp   1
 Largest concise Abelian subgroup C1      NOp   1
                         Standard orientation:                         
 ---------------------------------------------------------------------
 Center     Atomic      Atomic             Coordinates (Angstroms)
 Number     Number       Type             X           Y           Z
 ---------------------------------------------------------------------
      1          6           0       -2.834350    2.496680    0.153940
      2          6           0       -3.014620    1.136640    0.069320
      3          6           0       -1.899610    0.258600    0.014020
      4          6           0       -0.586600    0.813140    0.046700
      5          6           0       -0.432500    2.221920    0.131310
      6          6           0       -1.531360    3.046420    0.184840
      7          1           0       -3.702310    3.156310    0.195580
      8          1           0       -4.017450    0.711240    0.044040
      9          1           0        0.577110    2.629740    0.153720
     10          1           0       -1.399790    4.127370    0.249970
     11          6           0        0.559410   -0.052790   -0.003620
     12          6           0       -2.027330   -1.159870   -0.074940
     13          6           0        0.380980   -1.417840   -0.076040
     14          1           0        1.232850   -2.092350   -0.079310
     15          6           0       -0.922380   -1.967480   -0.118860
     16          1           0       -1.048240   -3.048590   -0.178870
     17          8           0        1.746210    0.590010    0.061190
     18         17           0       -3.614090   -1.885260   -0.121090
     19          6           0        3.000120    0.015840   -0.329640
     20          6           0        3.489400   -1.000380    0.681780
     21          1           0        4.335430   -1.611210    0.348260
     22          6           0        2.937800   -0.562050   -1.745740
     23          1           0        3.955950   -0.813110   -2.073670
     24          1           0        2.325020   -1.467720   -1.818300
     25          1           0        2.529060    0.194300   -2.430570
     26          6           0        3.957020    1.209760   -0.313850
     27          1           0        3.932850    1.683980    0.676080
     28          1           0        4.983220    0.880450   -0.524870
     29          1           0        3.651890    1.943100   -1.073890
     30          6           0        3.009380   -1.134920    1.915490
     31          1           0        3.434010   -1.858780    2.613130
     32          1           0        2.168110   -0.527400    2.259460
 ---------------------------------------------------------------------
 Rotational constants (GHZ):      0.7041103      0.2844619      0.2238408
 General basis read from cards:  (5D, 7F)
 There are   776 symmetry adapted cartesian basis functions of A   symmetry.
 There are   691 symmetry adapted basis functions of A   symmetry.
   691 basis functions,  1073 primitive gaussians,   776 cartesian basis functions
    65 alpha electrons       65 beta electrons
       nuclear repulsion energy      1274.2302832284 Hartrees.
 NAtoms=   32 NActive=   32 NUniq=   32 SFac= 1.00D+00 NAtFMM=   60 NAOKFM=F Big=F
 Integral buffers will be    131072 words long.
 Raffenetti 2 integral format.
 Two-electron integral symmetry is turned on.
 Nuclear repulsion after empirical dispersion term =     1274.2062674673 Hartrees.
 ------------------------------------------------------------------------------
 Polarizable Continuum Model (PCM)
 =================================
 Model                : PCM (using non-symmetric T matrix).
 Atomic radii         : SMD-Coulomb.
 Polarization charges : Total charges.
 Charge compensation  : None.
 Solution method      : On-the-fly selection.
 Cavity type          : VdW (van der Waals Surface) (Alpha=1.000).
 Cavity algorithm     : GePol (No added spheres)
                        Default sphere list used, NSphG=   32.
                        Lebedev-Laikov grids with approx.  5.0 points / Ang**2.
                        Smoothing algorithm: Karplus/York (Gamma=1.0000).
                        Polarization charges: spherical gaussians, with
                                              point-specific exponents (IZeta= 3).
                        Self-potential: point-specific (ISelfS= 7).
                        Self-field    : sphere-specific E.n sum rule (ISelfD= 2).
 1st derivatives      : Analytical E(r).r(x)/FMM algorithm (CHGder, D1EAlg=3).
                        Cavity 1st derivative terms included.
 Solvent              : Toluene, Eps=   2.374100 Eps(inf)=   2.238315
 ------------------------------------------------------------------------------
 ------------------------------------------------------------------------------
 Atomic radii for non-electrostatic terms: SMD-CDS.
 ------------------------------------------------------------------------------
 Nuclear repulsion after PCM non-electrostatic terms =     1274.1958617786 Hartrees.
 One-electron integrals computed using PRISM.
 NBasis=   691 RedAO= T EigKep=  1.47D-06  NBF=   691
 NBsUse=   686 1.00D-06 EigRej=  7.14D-07 NBFU=   686
 ExpMin= 3.17D-02 ExpMax= 6.95D+04 ExpMxC= 2.37D+03 IAcc=3 IRadAn=         5 AccDes= 0.00D+00
 Harris functional with IExCor= 4639 and IRadAn=       5 diagonalized for initial guess.
 HarFok:  IExCor= 4639 AccDes= 0.00D+00 IRadAn=         5 IDoV= 1 UseB2=F ITyADJ=14
 ICtDFT=  3500011 ScaDFX=  1.000000  1.000000  1.000000  1.000000
 FoFCou: FMM=F IPFlag=           0 FMFlag=      100000 FMFlg1=           0
         NFxFlg=           0 DoJE=T BraDBF=F KetDBF=T FulRan=T
         wScrn=  0.000000 ICntrl=     500 IOpCl=  0 I1Cent=   200000004 NGrid=           0
         NMat0=    1 NMatS0=      1 NMatT0=    0 NMatD0=    1 NMtDS0=    0 NMtDT0=    0
 Petite list used in FoFCou.
 Requested convergence on RMS density matrix=1.00D-08 within 128 cycles.
 Requested convergence on MAX density matrix=1.00D-06.
 Requested convergence on             energy=1.00D-06.
 No special actions if energy rises.
 Inv3:  Mode=1 IEnd=    17714700.
 Iteration    1 A*A^-1 deviation from unit magnitude is 3.77D-15 for   2405.
 Iteration    1 A*A^-1 deviation from orthogonality  is 2.19D-15 for   2122   1038.
 Iteration    1 A^-1*A deviation from unit magnitude is 3.66D-15 for   2405.
 Iteration    1 A^-1*A deviation from orthogonality  is 3.69D-15 for   2005   1584.
 Error on total polarization charges =  0.03013
 SCF Done:  E(RwB97XD) =  -1116.07847362     A.U. after   15 cycles
            NFock= 15  Conv=0.56D-08     -V/T= 2.0039
 SMD-CDS (non-electrostatic) energy       (kcal/mol) =      -6.53
 (included in total energy above)

 **********************************************************************

            Population analysis using the SCF density.

 **********************************************************************

 Orbital symmetries:
       Occupied  (A) (A) (A) (A) (A) (A) (A) (A) (A) (A) (A) (A)
                 (A) (A) (A) (A) (A) (A) (A) (A) (A) (A) (A) (A)
                 (A) (A) (A) (A) (A) (A) (A) (A) (A) (A) (A) (A)
                 (A) (A) (A) (A) (A) (A) (A) (A) (A) (A) (A) (A)
                 (A) (A) (A) (A) (A) (A) (A) (A) (A) (A) (A) (A)
                 (A) (A) (A) (A) (A)
       Virtual   (A) (A) (A) (A) (A) (A) (A) (A) (A) (A) (A) (A)
                 (A) (A) (A) (A) (A) (A) (A) (A) (A) (A) (A) (A)
                 (A) (A) (A) (A) (A) (A) (A) (A) (A) (A) (A) (A)
                 (A) (A) (A) (A) (A) (A) (A) (A) (A) (A) (A) (A)
                 (A) (A) (A) (A) (A) (A) (A) (A) (A) (A) (A) (A)
                 (A) (A) (A) (A) (A) (A) (A) (A) (A) (A) (A) (A)
                 (A) (A) (A) (A) (A) (A) (A) (A) (A) (A) (A) (A)
                 (A) (A) (A) (A) (A) (A) (A) (A) (A) (A) (A) (A)
                 (A) (A) (A) (A) (A) (A) (A) (A) (A) (A) (A) (A)
                 (A) (A) (A) (A) (A) (A) (A) (A) (A) (A) (A) (A)
                 (A) (A) (A) (A) (A) (A) (A) (A) (A) (A) (A) (A)
                 (A) (A) (A) (A) (A) (A) (A) (A) (A) (A) (A) (A)
                 (A) (A) (A) (A) (A) (A) (A) (A) (A) (A) (A) (A)
                 (A) (A) (A) (A) (A) (A) (A) (A) (A) (A) (A) (A)
                 (A) (A) (A) (A) (A) (A) (A) (A) (A) (A) (A) (A)
                 (A) (A) (A) (A) (A) (A) (A) (A) (A) (A) (A) (A)
                 (A) (A) (A) (A) (A) (A) (A) (A) (A) (A) (A) (A)
                 (A) (A) (A) (A) (A) (A) (A) (A) (A) (A) (A) (A)
                 (A) (A) (A) (A) (A) (A) (A) (A) (A) (A) (A) (A)
                 (A) (A) (A) (A) (A) (A) (A) (A) (A) (A) (A) (A)
                 (A) (A) (A) (A) (A) (A) (A) (A) (A) (A) (A) (A)
                 (A) (A) (A) (A) (A) (A) (A) (A) (A) (A) (A) (A)
                 (A) (A) (A) (A) (A) (A) (A) (A) (A) (A) (A) (A)
                 (A) (A) (A) (A) (A) (A) (A) (A) (A) (A) (A) (A)
                 (A) (A) (A) (A) (A) (A) (A) (A) (A) (A) (A) (A)
                 (A) (A) (A) (A) (A) (A) (A) (A) (A) (A) (A) (A)
                 (A) (A) (A) (A) (A) (A) (A) (A) (A) (A) (A) (A)
                 (A) (A) (A) (A) (A) (A) (A) (A) (A) (A) (A) (A)
                 (A) (A) (A) (A) (A) (A) (A) (A) (A) (A) (A) (A)
                 (A) (A) (A) (A) (A) (A) (A) (A) (A) (A) (A) (A)
                 (A) (A) (A) (A) (A) (A) (A) (A) (A) (A) (A) (A)
                 (A) (A) (A) (A) (A) (A) (A) (A) (A) (A) (A) (A)
                 (A) (A) (A) (A) (A) (A) (A) (A) (A) (A) (A) (A)
                 (A) (A) (A) (A) (A) (A) (A) (A) (A) (A) (A) (A)
                 (A) (A) (A) (A) (A) (A) (A) (A) (A) (A) (A) (A)
                 (A) (A) (A) (A) (A) (A) (A) (A) (A) (A) (A) (A)
                 (A) (A) (A) (A) (A) (A) (A) (A) (A) (A) (A) (A)
                 (A) (A) (A) (A) (A) (A) (A) (A) (A) (A) (A) (A)
                 (A) (A) (A) (A) (A) (A) (A) (A) (A) (A) (A) (A)
                 (A) (A) (A) (A) (A) (A) (A) (A) (A) (A) (A) (A)
                 (A) (A) (A) (A) (A) (A) (A) (A) (A) (A) (A) (A)
                 (A) (A) (A) (A) (A) (A) (A) (A) (A) (A) (A) (A)
                 (A) (A) (A) (A) (A) (A) (A) (A) (A) (A) (A) (A)
                 (A) (A) (A) (A) (A) (A) (A) (A) (A) (A) (A) (A)
                 (A) (A) (A) (A) (A) (A) (A) (A) (A) (A) (A) (A)
                 (A) (A) (A) (A) (A) (A) (A) (A) (A) (A) (A) (A)
                 (A) (A) (A) (A) (A) (A) (A) (A) (A) (A) (A) (A)
                 (A) (A) (A) (A) (A) (A) (A) (A) (A) (A) (A) (A)
                 (A) (A) (A) (A) (A) (A) (A) (A) (A) (A) (A) (A)
                 (A) (A) (A) (A) (A) (A) (A) (A) (A) (A) (A) (A)
                 (A) (A) (A) (A) (A) (A) (A) (A) (A) (A) (A) (A)
                 (A) (A) (A) (A) (A) (A) (A) (A) (A)
 The electronic state is 1-A.
 Alpha  occ. eigenvalues -- -101.69589 -19.28240 -10.36233 -10.35765 -10.34391
 Alpha  occ. eigenvalues --  -10.31099 -10.30514 -10.29992 -10.29279 -10.29245
 Alpha  occ. eigenvalues --  -10.29175 -10.29164 -10.29089 -10.28925 -10.28110
 Alpha  occ. eigenvalues --  -10.27943 -10.27798  -9.58121  -7.32756  -7.31911
 Alpha  occ. eigenvalues --   -7.31890  -1.17679  -0.99774  -0.95569  -0.93155
 Alpha  occ. eigenvalues --   -0.91020  -0.85967  -0.84847  -0.84764  -0.81226
 Alpha  occ. eigenvalues --   -0.78948  -0.73447  -0.72183  -0.70910  -0.68987
 Alpha  occ. eigenvalues --   -0.64726  -0.61345  -0.60342  -0.58931  -0.57671
 Alpha  occ. eigenvalues --   -0.56315  -0.55228  -0.52984  -0.52252  -0.51752
 Alpha  occ. eigenvalues --   -0.51466  -0.50286  -0.49993  -0.48724  -0.48053
 Alpha  occ. eigenvalues --   -0.47177  -0.46562  -0.46082  -0.45157  -0.44138
 Alpha  occ. eigenvalues --   -0.43317  -0.42604  -0.42310  -0.40000  -0.39384
 Alpha  occ. eigenvalues --   -0.38445  -0.34727  -0.34595  -0.32645  -0.27785
 Alpha virt. eigenvalues --    0.01450   0.03877   0.04106   0.04884   0.05289
 Alpha virt. eigenvalues --    0.05873   0.06051   0.06385   0.06681   0.07482
 Alpha virt. eigenvalues --    0.08238   0.08305   0.08676   0.08925   0.09071
 Alpha virt. eigenvalues --    0.09703   0.10350   0.10730   0.10919   0.11162
 Alpha virt. eigenvalues --    0.11545   0.11845   0.12257   0.12560   0.13277
 Alpha virt. eigenvalues --    0.13643   0.13793   0.13815   0.14078   0.14334
 Alpha virt. eigenvalues --    0.15056   0.15438   0.15491   0.15862   0.16287
 Alpha virt. eigenvalues --    0.16645   0.16895   0.17107   0.17191   0.17540
 Alpha virt. eigenvalues --    0.17840   0.18141   0.18382   0.18507   0.18863
 Alpha virt. eigenvalues --    0.19203   0.19558   0.19667   0.20007   0.20224
 Alpha virt. eigenvalues --    0.20595   0.21150   0.21474   0.21799   0.21892
 Alpha virt. eigenvalues --    0.22199   0.22540   0.22843   0.23447   0.23505
 Alpha virt. eigenvalues --    0.23920   0.24394   0.24505   0.25265   0.25587
 Alpha virt. eigenvalues --    0.25913   0.26333   0.26390   0.27176   0.27297
 Alpha virt. eigenvalues --    0.27850   0.28185   0.28733   0.29103   0.29389
 Alpha virt. eigenvalues --    0.29948   0.30213   0.30558   0.30926   0.31431
 Alpha virt. eigenvalues --    0.32241   0.32330   0.32880   0.32997   0.33636
 Alpha virt. eigenvalues --    0.33993   0.35101   0.35683   0.35844   0.36258
 Alpha virt. eigenvalues --    0.37046   0.37239   0.37504   0.38663   0.40127
 Alpha virt. eigenvalues --    0.40638   0.41189   0.41685   0.42467   0.42514
 Alpha virt. eigenvalues --    0.43039   0.43725   0.44440   0.45378   0.45585
 Alpha virt. eigenvalues --    0.45978   0.46438   0.46644   0.47185   0.47441
 Alpha virt. eigenvalues --    0.47735   0.48122   0.48666   0.49277   0.49491
 Alpha virt. eigenvalues --    0.50109   0.50621   0.50926   0.51361   0.51574
 Alpha virt. eigenvalues --    0.51621   0.51830   0.52758   0.52965   0.53118
 Alpha virt. eigenvalues --    0.53406   0.53977   0.54449   0.55348   0.56116
 Alpha virt. eigenvalues --    0.56386   0.56813   0.56941   0.57317   0.57658
 Alpha virt. eigenvalues --    0.58099   0.58528   0.58829   0.58994   0.59937
 Alpha virt. eigenvalues --    0.60745   0.60788   0.60979   0.61601   0.62381
 Alpha virt. eigenvalues --    0.62557   0.64004   0.64104   0.64583   0.64894
 Alpha virt. eigenvalues --    0.65583   0.66427   0.66601   0.67253   0.67869
 Alpha virt. eigenvalues --    0.68081   0.68730   0.69252   0.69634   0.70244
 Alpha virt. eigenvalues --    0.70651   0.71196   0.72046   0.72211   0.72904
 Alpha virt. eigenvalues --    0.73225   0.75084   0.75508   0.76209   0.76700
 Alpha virt. eigenvalues --    0.77733   0.78743   0.80031   0.80527   0.80846
 Alpha virt. eigenvalues --    0.81044   0.81596   0.82213   0.83291   0.84050
 Alpha virt. eigenvalues --    0.84670   0.85367   0.85903   0.86979   0.88506
 Alpha virt. eigenvalues --    0.88720   0.89584   0.90548   0.91637   0.92121
 Alpha virt. eigenvalues --    0.93561   0.94383   0.95207   0.95859   0.97211
 Alpha virt. eigenvalues --    0.97490   0.98786   0.99145   1.00653   1.02647
 Alpha virt. eigenvalues --    1.03101   1.03549   1.05287   1.06193   1.06306
 Alpha virt. eigenvalues --    1.07802   1.09034   1.11113   1.11784   1.12561
 Alpha virt. eigenvalues --    1.13907   1.15593   1.16377   1.17543   1.19064
 Alpha virt. eigenvalues --    1.19534   1.19917   1.20578   1.20814   1.23552
 Alpha virt. eigenvalues --    1.24011   1.24717   1.25949   1.26080   1.26261
 Alpha virt. eigenvalues --    1.28179   1.28703   1.29923   1.30181   1.30816
 Alpha virt. eigenvalues --    1.31331   1.33833   1.34856   1.34937   1.35405
 Alpha virt. eigenvalues --    1.37398   1.37819   1.38246   1.39130   1.40105
 Alpha virt. eigenvalues --    1.40477   1.41791   1.42287   1.43067   1.45176
 Alpha virt. eigenvalues --    1.45906   1.46630   1.47337   1.49128   1.50623
 Alpha virt. eigenvalues --    1.50982   1.52329   1.53899   1.54778   1.56131
 Alpha virt. eigenvalues --    1.57996   1.60940   1.61109   1.61314   1.62766
 Alpha virt. eigenvalues --    1.63335   1.64216   1.64876   1.65382   1.65808
 Alpha virt. eigenvalues --    1.67291   1.68771   1.68976   1.69894   1.70443
 Alpha virt. eigenvalues --    1.71762   1.71828   1.72793   1.73270   1.74344
 Alpha virt. eigenvalues --    1.75034   1.75859   1.76453   1.77606   1.78437
 Alpha virt. eigenvalues --    1.79072   1.79491   1.80806   1.81110   1.81606
 Alpha virt. eigenvalues --    1.81798   1.82541   1.83052   1.83503   1.84060
 Alpha virt. eigenvalues --    1.85438   1.86297   1.87990   1.88519   1.89069
 Alpha virt. eigenvalues --    1.90883   1.92384   1.93184   1.93824   1.94535
 Alpha virt. eigenvalues --    1.95970   1.96090   1.96837   1.97770   1.99362
 Alpha virt. eigenvalues --    2.00144   2.01263   2.01816   2.04435   2.05903
 Alpha virt. eigenvalues --    2.06356   2.06789   2.08086   2.09933   2.10401
 Alpha virt. eigenvalues --    2.11051   2.12079   2.13200   2.13311   2.15096
 Alpha virt. eigenvalues --    2.17402   2.18023   2.18135   2.19624   2.20654
 Alpha virt. eigenvalues --    2.23323   2.23724   2.24621   2.25422   2.26147
 Alpha virt. eigenvalues --    2.26981   2.27756   2.28531   2.29498   2.29933
 Alpha virt. eigenvalues --    2.31914   2.33192   2.33495   2.34272   2.35856
 Alpha virt. eigenvalues --    2.37503   2.39531   2.40160   2.41580   2.42502
 Alpha virt. eigenvalues --    2.43167   2.43369   2.44216   2.45419   2.46711
 Alpha virt. eigenvalues --    2.46881   2.47400   2.48637   2.48935   2.50626
 Alpha virt. eigenvalues --    2.51137   2.51270   2.52224   2.52889   2.54905
 Alpha virt. eigenvalues --    2.55234   2.56669   2.56856   2.58784   2.61117
 Alpha virt. eigenvalues --    2.61561   2.63191   2.63667   2.64380   2.66967
 Alpha virt. eigenvalues --    2.67551   2.68175   2.69043   2.69588   2.69977
 Alpha virt. eigenvalues --    2.70689   2.71600   2.72036   2.72763   2.73426
 Alpha virt. eigenvalues --    2.74604   2.75339   2.76569   2.77754   2.78925
 Alpha virt. eigenvalues --    2.79378   2.80767   2.81903   2.82732   2.82938
 Alpha virt. eigenvalues --    2.83290   2.85752   2.86210   2.87750   2.87991
 Alpha virt. eigenvalues --    2.88593   2.89644   2.90251   2.91248   2.91338
 Alpha virt. eigenvalues --    2.91765   2.93832   2.94656   2.95188   2.96685
 Alpha virt. eigenvalues --    2.98762   2.99592   2.99987   3.01131   3.01964
 Alpha virt. eigenvalues --    3.02742   3.03471   3.03933   3.04730   3.05545
 Alpha virt. eigenvalues --    3.06415   3.07407   3.07807   3.08939   3.09601
 Alpha virt. eigenvalues --    3.10764   3.10940   3.11988   3.13084   3.13704
 Alpha virt. eigenvalues --    3.14231   3.16405   3.17352   3.18265   3.19261
 Alpha virt. eigenvalues --    3.21114   3.22031   3.22511   3.24473   3.24549
 Alpha virt. eigenvalues --    3.25478   3.26323   3.26604   3.27655   3.28686
 Alpha virt. eigenvalues --    3.29256   3.29968   3.30552   3.31174   3.31884
 Alpha virt. eigenvalues --    3.33300   3.34166   3.35205   3.35501   3.35910
 Alpha virt. eigenvalues --    3.36757   3.37364   3.38668   3.39406   3.40211
 Alpha virt. eigenvalues --    3.41484   3.41935   3.42338   3.42420   3.43137
 Alpha virt. eigenvalues --    3.43687   3.45811   3.45835   3.46407   3.46912
 Alpha virt. eigenvalues --    3.47319   3.48394   3.49373   3.49490   3.50258
 Alpha virt. eigenvalues --    3.50662   3.52039   3.53037   3.54824   3.56092
 Alpha virt. eigenvalues --    3.56248   3.57171   3.58073   3.58454   3.59912
 Alpha virt. eigenvalues --    3.60222   3.61069   3.61961   3.62750   3.63871
 Alpha virt. eigenvalues --    3.64452   3.65212   3.65542   3.67472   3.68936
 Alpha virt. eigenvalues --    3.69990   3.71140   3.73333   3.74019   3.74709
 Alpha virt. eigenvalues --    3.74902   3.75095   3.76626   3.79257   3.80523
 Alpha virt. eigenvalues --    3.83213   3.83649   3.84636   3.85864   3.89320
 Alpha virt. eigenvalues --    3.92268   3.93680   3.94902   3.97124   3.99993
 Alpha virt. eigenvalues --    4.02121   4.02720   4.05283   4.06782   4.08792
 Alpha virt. eigenvalues --    4.09579   4.10934   4.11688   4.13138   4.13376
 Alpha virt. eigenvalues --    4.15619   4.16903   4.17780   4.18113   4.19360
 Alpha virt. eigenvalues --    4.21544   4.22677   4.24037   4.25277   4.25390
 Alpha virt. eigenvalues --    4.26943   4.28213   4.29901   4.30133   4.31621
 Alpha virt. eigenvalues --    4.33704   4.34347   4.35241   4.36241   4.38414
 Alpha virt. eigenvalues --    4.40789   4.41290   4.43196   4.45098   4.46248
 Alpha virt. eigenvalues --    4.47683   4.49327   4.52509   4.53824   4.55095
 Alpha virt. eigenvalues --    4.57033   4.58425   4.59688   4.59963   4.62059
 Alpha virt. eigenvalues --    4.65332   4.67628   4.72122   4.74935   4.79393
 Alpha virt. eigenvalues --    4.81171   4.81650   4.82995   4.85697   4.86809
 Alpha virt. eigenvalues --    4.88345   4.89462   4.91644   4.92986   4.93572
 Alpha virt. eigenvalues --    5.02396   5.04355   5.06825   5.07262   5.11582
 Alpha virt. eigenvalues --    5.15977   5.19204   5.22474   5.24012   5.26842
 Alpha virt. eigenvalues --    5.33037   5.34317   5.37655   5.42620   5.46354
 Alpha virt. eigenvalues --    5.48323   5.55732   5.71677   5.73571   5.83173
 Alpha virt. eigenvalues --    5.88348   5.98792   6.16002   6.20170   6.53782
 Alpha virt. eigenvalues --    6.74392   6.82523   7.01490   7.14306   7.49713
 Alpha virt. eigenvalues --    7.67964  10.93655  11.03385  11.52048  22.35246
 Alpha virt. eigenvalues --   22.44821  22.53847  22.55292  22.71721  22.77912
 Alpha virt. eigenvalues --   22.80660  22.86275  22.88457  22.92391  22.97328
 Alpha virt. eigenvalues --   23.07206  23.09465  23.28586  23.79684  26.43354
 Alpha virt. eigenvalues --   44.83741
          Condensed to atoms (all electrons):
               1          2          3          4          5          6
     1  C    5.045216   0.377942  -0.049759  -0.002490  -0.145024   0.434260
     2  C    0.377942   5.511482   0.174815  -0.051609  -0.038612  -0.086624
     3  C   -0.049759   0.174815   5.774160   0.122994  -0.079135   0.038558
     4  C   -0.002490  -0.051609   0.122994   5.620835   0.373125  -0.134011
     5  C   -0.145024  -0.038612  -0.079135   0.373125   5.590843   0.369259
     6  C    0.434260  -0.086624   0.038558  -0.134011   0.369259   5.036188
     7  H    0.401736  -0.052017   0.014498  -0.013877   0.038859  -0.022136
     8  H   -0.036398   0.457267  -0.042076   0.004559  -0.011719   0.013022
     9  H    0.006783  -0.016091   0.031906  -0.011040   0.404240  -0.031352
    10  H   -0.021298   0.034495  -0.011451   0.008982  -0.068326   0.420366
    11  C    0.056353  -0.027786  -0.115423   0.152106  -0.166992  -0.010604
    12  C    0.002002  -0.163541   0.392088   0.055766  -0.047742   0.039391
    13  C    0.017862   0.012441  -0.326482   0.055620   0.075713  -0.064576
    14  H    0.000457  -0.001239  -0.006654  -0.005282  -0.004154   0.000472
    15  C   -0.015177   0.043733   0.127367  -0.229784   0.022346   0.006004
    16  H    0.001247  -0.005670   0.031957  -0.007890  -0.003605   0.000762
    17  O    0.002034  -0.009063   0.023616  -0.042734   0.011445   0.011710
    18  Cl  -0.028882   0.042585  -0.154081   0.052669   0.017683  -0.006301
    19  C    0.006861  -0.009790  -0.017755   0.043367  -0.098709  -0.000611
    20  C   -0.004229   0.006249   0.001487   0.000573   0.039997   0.005934
    21  H    0.000011  -0.000050  -0.000476   0.001414   0.000085  -0.000011
    22  C   -0.002569  -0.002463   0.030266   0.030839  -0.009013   0.003266
    23  H   -0.000027  -0.000008   0.000383   0.000018   0.000218  -0.000252
    24  H   -0.000020   0.000194  -0.001442  -0.007719   0.002392   0.000228
    25  H   -0.000309  -0.000147   0.000279   0.006283  -0.001810   0.000698
    26  C    0.001225   0.004230  -0.007088  -0.044887   0.004561  -0.003331
    27  H    0.000059  -0.000044   0.000952   0.001258  -0.005041  -0.000574
    28  H   -0.000045   0.000074  -0.000315  -0.002308   0.001484  -0.000035
    29  H   -0.000103  -0.000008  -0.000210   0.000595   0.002071  -0.000437
    30  C    0.001069  -0.002689   0.008557   0.003785  -0.012368  -0.000182
    31  H   -0.000028   0.000064  -0.000206   0.001082  -0.000458  -0.000009
    32  H   -0.000118   0.000131  -0.000342   0.005535  -0.002150  -0.000442
               7          8          9         10         11         12
     1  C    0.401736  -0.036398   0.006783  -0.021298   0.056353   0.002002
     2  C   -0.052017   0.457267  -0.016091   0.034495  -0.027786  -0.163541
     3  C    0.014498  -0.042076   0.031906  -0.011451  -0.115423   0.392088
     4  C   -0.013877   0.004559  -0.011040   0.008982   0.152106   0.055766
     5  C    0.038859  -0.011719   0.404240  -0.068326  -0.166992  -0.047742
     6  C   -0.022136   0.013022  -0.031352   0.420366  -0.010604   0.039391
     7  H    0.488535  -0.005461   0.000005  -0.005139  -0.004084  -0.002532
     8  H   -0.005461   0.485714  -0.000011  -0.000015  -0.007616  -0.015494
     9  H    0.000005  -0.000011   0.460527  -0.005093  -0.029680   0.003048
    10  H   -0.005139  -0.000015  -0.005093   0.490425  -0.002100  -0.000852
    11  C   -0.004084  -0.007616  -0.029680  -0.002100   6.154998  -0.378367
    12  C   -0.002532  -0.015494   0.003048  -0.000852  -0.378367   5.564438
    13  C   -0.000917  -0.008617  -0.003675   0.000013   0.482574  -0.243114
    14  H    0.000000  -0.000001  -0.000013   0.000000  -0.084196   0.004048
    15  C    0.000017  -0.006896   0.000548  -0.000671  -0.085904   0.424545
    16  H    0.000000   0.000024  -0.000002   0.000000   0.020959  -0.041752
    17  O    0.000027  -0.000144  -0.000207   0.000361   0.142921  -0.001143
    18  Cl   0.000280   0.000208   0.000064   0.000004  -0.028763   0.241290
    19  C   -0.000136  -0.000208  -0.005620  -0.000367  -0.324132   0.030590
    20  C    0.000007  -0.000029   0.001246   0.000146   0.087583  -0.010435
    21  H    0.000000   0.000000   0.000000   0.000000  -0.009362  -0.000177
    22  C    0.000008   0.000107   0.001991   0.000172  -0.004622   0.014082
    23  H    0.000000   0.000000   0.000007   0.000000   0.033176  -0.001358
    24  H    0.000000   0.000000  -0.000019   0.000000  -0.023493   0.001449
    25  H    0.000000   0.000000  -0.000013   0.000001  -0.014640   0.001275
    26  C    0.000015  -0.000014  -0.000897  -0.000131   0.041055  -0.006841
    27  H    0.000000   0.000000  -0.000301   0.000000   0.000748   0.000120
    28  H    0.000000   0.000000  -0.000001   0.000000   0.012526  -0.000414
    29  H    0.000000   0.000000  -0.000121   0.000002  -0.006505  -0.000189
    30  C   -0.000006   0.000057  -0.000379  -0.000036   0.012324   0.012066
    31  H    0.000000   0.000000   0.000001   0.000000  -0.002181   0.000150
    32  H    0.000000   0.000000  -0.000056   0.000000   0.005375  -0.000521
              13         14         15         16         17         18
     1  C    0.017862   0.000457  -0.015177   0.001247   0.002034  -0.028882
     2  C    0.012441  -0.001239   0.043733  -0.005670  -0.009063   0.042585
     3  C   -0.326482  -0.006654   0.127367   0.031957   0.023616  -0.154081
     4  C    0.055620  -0.005282  -0.229784  -0.007890  -0.042734   0.052669
     5  C    0.075713  -0.004154   0.022346  -0.003605   0.011445   0.017683
     6  C   -0.064576   0.000472   0.006004   0.000762   0.011710  -0.006301
     7  H   -0.000917   0.000000   0.000017   0.000000   0.000027   0.000280
     8  H   -0.008617  -0.000001  -0.006896   0.000024  -0.000144   0.000208
     9  H   -0.003675  -0.000013   0.000548  -0.000002  -0.000207   0.000064
    10  H    0.000013   0.000000  -0.000671   0.000000   0.000361   0.000004
    11  C    0.482574  -0.084196  -0.085904   0.020959   0.142921  -0.028763
    12  C   -0.243114   0.004048   0.424545  -0.041752  -0.001143   0.241290
    13  C    5.945131   0.466406   0.144171  -0.062953  -0.107321   0.063893
    14  H    0.466406   0.445230  -0.001059  -0.003813  -0.003305  -0.000265
    15  C    0.144171  -0.001059   5.461837   0.425834  -0.018765  -0.088330
    16  H   -0.062953  -0.003813   0.425834   0.479992  -0.000502  -0.009474
    17  O   -0.107321  -0.003305  -0.018765  -0.000502   8.455155  -0.000115
    18  Cl   0.063893  -0.000265  -0.088330  -0.009474  -0.000115  17.081526
    19  C    0.061924   0.036979  -0.063478  -0.002635   0.026039  -0.001327
    20  C   -0.079994  -0.033510   0.046265  -0.000321  -0.002376   0.000475
    21  H   -0.004146   0.000019  -0.001631  -0.000002   0.003368   0.000001
    22  C   -0.098895  -0.017862   0.000540   0.001298  -0.040592  -0.000288
    23  H   -0.001231   0.000481  -0.002017  -0.000002   0.012181   0.000000
    24  H    0.021457  -0.004440   0.003664   0.000087   0.000323  -0.000018
    25  H   -0.019324   0.000021   0.002421   0.000000  -0.023053   0.000002
    26  C    0.039229   0.006841   0.008663  -0.000149   0.001202   0.000050
    27  H   -0.003360   0.000002  -0.000536   0.000000  -0.007095   0.000000
    28  H    0.001222   0.000050   0.000477   0.000000   0.016481   0.000000
    29  H   -0.002433   0.000003   0.000244   0.000000  -0.013006   0.000000
    30  C   -0.049090  -0.007912  -0.013346   0.001095  -0.018172  -0.000621
    31  H   -0.001465   0.000242   0.000679  -0.000002   0.001541  -0.000002
    32  H   -0.006288  -0.000141  -0.002213  -0.000015  -0.009317   0.000001
              19         20         21         22         23         24
     1  C    0.006861  -0.004229   0.000011  -0.002569  -0.000027  -0.000020
     2  C   -0.009790   0.006249  -0.000050  -0.002463  -0.000008   0.000194
     3  C   -0.017755   0.001487  -0.000476   0.030266   0.000383  -0.001442
     4  C    0.043367   0.000573   0.001414   0.030839   0.000018  -0.007719
     5  C   -0.098709   0.039997   0.000085  -0.009013   0.000218   0.002392
     6  C   -0.000611   0.005934  -0.000011   0.003266  -0.000252   0.000228
     7  H   -0.000136   0.000007   0.000000   0.000008   0.000000   0.000000
     8  H   -0.000208  -0.000029   0.000000   0.000107   0.000000   0.000000
     9  H   -0.005620   0.001246   0.000000   0.001991   0.000007  -0.000019
    10  H   -0.000367   0.000146   0.000000   0.000172   0.000000   0.000000
    11  C   -0.324132   0.087583  -0.009362  -0.004622   0.033176  -0.023493
    12  C    0.030590  -0.010435  -0.000177   0.014082  -0.001358   0.001449
    13  C    0.061924  -0.079994  -0.004146  -0.098895  -0.001231   0.021457
    14  H    0.036979  -0.033510   0.000019  -0.017862   0.000481  -0.004440
    15  C   -0.063478   0.046265  -0.001631   0.000540  -0.002017   0.003664
    16  H   -0.002635  -0.000321  -0.000002   0.001298  -0.000002   0.000087
    17  O    0.026039  -0.002376   0.003368  -0.040592   0.012181   0.000323
    18  Cl  -0.001327   0.000475   0.000001  -0.000288   0.000000  -0.000018
    19  C    7.021477  -0.521806   0.000974   0.035234  -0.112027  -0.021468
    20  C   -0.521806   6.192154   0.358196  -0.047914   0.000903   0.011361
    21  H    0.000974   0.358196   0.472669   0.005645   0.001363  -0.000320
    22  C    0.035234  -0.047914   0.005645   5.427511   0.445160   0.416180
    23  H   -0.112027   0.000903   0.001363   0.445160   0.503853  -0.020264
    24  H   -0.021468   0.011361  -0.000320   0.416180  -0.020264   0.505264
    25  H   -0.044651   0.006944   0.000001   0.458356  -0.016488  -0.015235
    26  C   -0.055554  -0.137567  -0.011319  -0.163740  -0.002477  -0.028091
    27  H   -0.031140  -0.073071   0.000950   0.007111   0.000096  -0.000344
    28  H   -0.088568   0.008855  -0.000931  -0.026724   0.001050  -0.000022
    29  H   -0.084112   0.051485  -0.000074   0.003672   0.000539  -0.000014
    30  C    0.063396   0.295195   0.016820  -0.043417  -0.003244  -0.002457
    31  H    0.005788  -0.054102  -0.004015  -0.000181  -0.000013   0.000031
    32  H    0.006782  -0.073595   0.002269   0.002217  -0.000030   0.000035
              25         26         27         28         29         30
     1  C   -0.000309   0.001225   0.000059  -0.000045  -0.000103   0.001069
     2  C   -0.000147   0.004230  -0.000044   0.000074  -0.000008  -0.002689
     3  C    0.000279  -0.007088   0.000952  -0.000315  -0.000210   0.008557
     4  C    0.006283  -0.044887   0.001258  -0.002308   0.000595   0.003785
     5  C   -0.001810   0.004561  -0.005041   0.001484   0.002071  -0.012368
     6  C    0.000698  -0.003331  -0.000574  -0.000035  -0.000437  -0.000182
     7  H    0.000000   0.000015   0.000000   0.000000   0.000000  -0.000006
     8  H    0.000000  -0.000014   0.000000   0.000000   0.000000   0.000057
     9  H   -0.000013  -0.000897  -0.000301  -0.000001  -0.000121  -0.000379
    10  H    0.000001  -0.000131   0.000000   0.000000   0.000002  -0.000036
    11  C   -0.014640   0.041055   0.000748   0.012526  -0.006505   0.012324
    12  C    0.001275  -0.006841   0.000120  -0.000414  -0.000189   0.012066
    13  C   -0.019324   0.039229  -0.003360   0.001222  -0.002433  -0.049090
    14  H    0.000021   0.006841   0.000002   0.000050   0.000003  -0.007912
    15  C    0.002421   0.008663  -0.000536   0.000477   0.000244  -0.013346
    16  H    0.000000  -0.000149   0.000000   0.000000   0.000000   0.001095
    17  O   -0.023053   0.001202  -0.007095   0.016481  -0.013006  -0.018172
    18  Cl   0.000002   0.000050   0.000000   0.000000   0.000000  -0.000621
    19  C   -0.044651  -0.055554  -0.031140  -0.088568  -0.084112   0.063396
    20  C    0.006944  -0.137567  -0.073071   0.008855   0.051485   0.295195
    21  H    0.000001  -0.011319   0.000950  -0.000931  -0.000074   0.016820
    22  C    0.458356  -0.163740   0.007111  -0.026724   0.003672  -0.043417
    23  H   -0.016488  -0.002477   0.000096   0.001050   0.000539  -0.003244
    24  H   -0.015235  -0.028091  -0.000344  -0.000022  -0.000014  -0.002457
    25  H    0.491980  -0.001633  -0.000088   0.000853   0.001904   0.000283
    26  C   -0.001633   5.489092   0.465374   0.457386   0.422691   0.042208
    27  H   -0.000088   0.465374   0.499661  -0.017667  -0.018204   0.019787
    28  H    0.000853   0.457386  -0.017667   0.501725  -0.020114  -0.003872
    29  H    0.001904   0.422691  -0.018204  -0.020114   0.519905  -0.005456
    30  C    0.000283   0.042208   0.019787  -0.003872  -0.005456   5.180234
    31  H    0.000002   0.005456  -0.000080  -0.000001   0.000014   0.425572
    32  H    0.000043  -0.000936   0.000208  -0.000034   0.000053   0.442697
              31         32
     1  C   -0.000028  -0.000118
     2  C    0.000064   0.000131
     3  C   -0.000206  -0.000342
     4  C    0.001082   0.005535
     5  C   -0.000458  -0.002150
     6  C   -0.000009  -0.000442
     7  H    0.000000   0.000000
     8  H    0.000000   0.000000
     9  H    0.000001  -0.000056
    10  H    0.000000   0.000000
    11  C   -0.002181   0.005375
    12  C    0.000150  -0.000521
    13  C   -0.001465  -0.006288
    14  H    0.000242  -0.000141
    15  C    0.000679  -0.002213
    16  H   -0.000002  -0.000015
    17  O    0.001541  -0.009317
    18  Cl  -0.000002   0.000001
    19  C    0.005788   0.006782
    20  C   -0.054102  -0.073595
    21  H   -0.004015   0.002269
    22  C   -0.000181   0.002217
    23  H   -0.000013  -0.000030
    24  H    0.000031   0.000035
    25  H    0.000002   0.000043
    26  C    0.005456  -0.000936
    27  H   -0.000080   0.000208
    28  H   -0.000001  -0.000034
    29  H    0.000014   0.000053
    30  C    0.425572   0.442697
    31  H    0.471484  -0.015199
    32  H   -0.015199   0.463882
 Mulliken charges:
               1
     1  C   -0.048641
     2  C   -0.198254
     3  C    0.039010
     4  C    0.012224
     5  C   -0.259461
     6  C   -0.018630
     7  H    0.162319
     8  H    0.173740
     9  H    0.194204
    10  H    0.160513
    11  C    0.123755
    12  C    0.128123
    13  C   -0.303774
    14  H    0.212594
    15  C   -0.189548
    16  H    0.175531
    17  O   -0.411493
    18  Cl  -0.182265
    19  C    0.144682
    20  C   -0.076105
    21  H    0.168729
    22  C   -0.425376
    23  H    0.160007
    24  H    0.162702
    25  H    0.166044
    26  C   -0.524624
    27  H    0.161216
    28  H    0.158867
    29  H    0.147809
    30  C   -0.361898
    31  H    0.165835
    32  H    0.182167
 Sum of Mulliken charges =   0.00000
 Mulliken charges with hydrogens summed into heavy atoms:
               1
     1  C    0.113678
     2  C   -0.024514
     3  C    0.039010
     4  C    0.012224
     5  C   -0.065256
     6  C    0.141882
    11  C    0.123755
    12  C    0.128123
    13  C   -0.091180
    15  C   -0.014017
    17  O   -0.411493
    18  Cl  -0.182265
    19  C    0.144682
    20  C    0.092624
    22  C    0.063377
    26  C   -0.056732
    30  C   -0.013897
 Electronic spatial extent (au):  <R**2>=           4881.1936
 Charge=              0.0000 electrons
 Dipole moment (field-independent basis, Debye):
    X=              3.6949    Y=              0.4591    Z=             -0.6460  Tot=              3.7789
 Quadrupole moment (field-independent basis, Debye-Ang):
   XX=           -100.2160   YY=           -100.2957   ZZ=           -110.0586
   XY=             -8.3630   XZ=             -3.4041   YZ=             -0.0669
 Traceless Quadrupole moment (field-independent basis, Debye-Ang):
   XX=              3.3075   YY=              3.2277   ZZ=             -6.5352
   XY=             -8.3630   XZ=             -3.4041   YZ=             -0.0669
 Octapole moment (field-independent basis, Debye-Ang**2):
  XXX=             36.1423  YYY=             11.1568  ZZZ=              0.5976  XYY=              0.0603
  XXY=             11.4082  XXZ=            -11.4439  XZZ=             12.2215  YZZ=             -7.7318
  YYZ=              1.5921  XYZ=             -3.7327
 Hexadecapole moment (field-independent basis, Debye-Ang**3):
 XXXX=          -4249.0136 YYYY=          -1583.7039 ZZZZ=           -475.5939 XXXY=            -96.7233
 XXXZ=            -64.8637 YYYX=            -23.3499 YYYZ=             12.8360 ZZZX=              5.9050
 ZZZY=            -15.3189 XXYY=           -989.5583 XXZZ=           -843.3709 YYZZ=           -384.9277
 XXYZ=             -6.6449 YYXZ=              1.1745 ZZXY=              9.3709
 N-N= 1.274195861779D+03 E-N=-5.166733682998D+03  KE= 1.111756942595D+03
 D1PCM: PCM CHGder 1st derivatives, ID1Alg=3 FixD1E=F DoIter=F DoCFld=F I1PDM=0.
 Calling FoFJK, ICntrl=      2127 FMM=F ISym2X=0 I1Cent= 0 IOpClX= 0 NMat=1 NMatS=1 NMatT=0.
 ***** Axes restored to original set *****
 -------------------------------------------------------------------
 Center     Atomic                   Forces (Hartrees/Bohr)
 Number     Number              X              Y              Z
 -------------------------------------------------------------------
      1        6           0.000791488   -0.002854259   -0.000185249
      2        6           0.001538605    0.002933210    0.000117590
      3        6           0.000418107   -0.000335075    0.000202002
      4        6           0.000256353    0.000391701   -0.000232618
      5        6          -0.003003023    0.000560157    0.000185176
      6        6           0.001267789   -0.002230470   -0.000372934
      7        1           0.004534457   -0.003251622   -0.000198004
      8        1           0.005242829    0.003244046    0.000240609
      9        1          -0.005873955   -0.001326102   -0.000059614
     10        1          -0.000709475   -0.005612912   -0.000230765
     11        6          -0.004327792   -0.005294850   -0.000403655
     12        6           0.007576856    0.000809738    0.000129639
     13        6          -0.001252193    0.002497417    0.000055184
     14        1          -0.005541927    0.003256429    0.000233953
     15        6          -0.002628516    0.002758094    0.000418697
     16        1           0.001436272    0.005616574    0.000231704
     17        8          -0.003581260    0.000288738   -0.000599333
     18       17           0.001586592   -0.000415167   -0.000228273
     19        6           0.002472882   -0.002991452   -0.000262456
     20        6           0.000769544   -0.002333474    0.007058742
     21        1          -0.004779662    0.003260288    0.001858060
     22        6          -0.000008095   -0.000625397   -0.002818674
     23        1          -0.004866696    0.001097541    0.001100722
     24        1           0.003254243    0.004613990   -0.000020880
     25        1           0.002053732   -0.004175738    0.002593538
     26        6           0.000372340    0.002416102    0.000533567
     27        1           0.000952275   -0.001552926   -0.004852765
     28        1          -0.004618495    0.001984229    0.001091720
     29        1           0.002133204   -0.003056786    0.003614593
     30        6           0.001794294    0.000678044   -0.004890013
     31        1          -0.002407013    0.003873825   -0.003595956
     32        1           0.005146242   -0.004223894   -0.000714306
 -------------------------------------------------------------------
 Cartesian Forces:  Max     0.007576856 RMS     0.002864892

 GradGradGradGradGradGradGradGradGradGradGradGradGradGradGradGradGradGrad
 Berny optimization.
 FormGI is forming the generalized inverse of G from B-inverse, IUseBI=4.
 Internal  Forces:  Max     0.010203180 RMS     0.002844553
 Search for a local minimum.
 Step number   1 out of a maximum of  175
 All quantities printed in internal units (Hartrees-Bohrs-Radians)
 Mixed Optimization -- RFO/linear search
 Second derivative matrix not updated -- first step.
 ITU=  0
     Eigenvalues ---    0.00359   0.00367   0.00568   0.01250   0.01608
     Eigenvalues ---    0.01721   0.01743   0.01781   0.01957   0.02007
     Eigenvalues ---    0.02031   0.02036   0.02102   0.02131   0.02150
     Eigenvalues ---    0.02155   0.02176   0.02209   0.02277   0.02297
     Eigenvalues ---    0.02337   0.03006   0.03007   0.05007   0.05357
     Eigenvalues ---    0.05683   0.05771   0.05827   0.05949   0.07556
     Eigenvalues ---    0.15984   0.15996   0.15999   0.16000   0.16000
     Eigenvalues ---    0.16000   0.16000   0.16000   0.16000   0.16000
     Eigenvalues ---    0.16000   0.16000   0.16000   0.16000   0.16000
     Eigenvalues ---    0.16402   0.16949   0.22000   0.22004   0.22489
     Eigenvalues ---    0.22560   0.24487   0.24497   0.24988   0.24999
     Eigenvalues ---    0.25000   0.25000   0.29355   0.29410   0.30858
     Eigenvalues ---    0.30945   0.33755   0.33777   0.33823   0.33881
     Eigenvalues ---    0.33913   0.34139   0.34185   0.34443   0.34660
     Eigenvalues ---    0.34702   0.34712   0.34805   0.34857   0.34917
     Eigenvalues ---    0.35211   0.36949   0.38686   0.40121   0.40501
     Eigenvalues ---    0.40539   0.41823   0.42610   0.42910   0.47963
     Eigenvalues ---    0.48279   0.49503   0.50010   0.54756   0.59358
 RFO step:  Lambda=-3.56423436D-03 EMin= 3.59251802D-03
 Linear search not attempted -- first point.
 Iteration  1 RMS(Cart)=  0.04712869 RMS(Int)=  0.00051414
 Iteration  2 RMS(Cart)=  0.00110772 RMS(Int)=  0.00001374
 Iteration  3 RMS(Cart)=  0.00000068 RMS(Int)=  0.00001374
 Variable       Old X    -DE/DX   Delta X   Delta X   Delta X     New X
                                 (Linear)    (Quad)   (Total)
    R1        2.59751  -0.00910   0.00000  -0.01827  -0.01827   2.57924
    R2        2.67311  -0.00770   0.00000  -0.01817  -0.01817   2.65494
    R3        2.06162  -0.00558   0.00000  -0.01592  -0.01592   2.04570
    R4        2.68398  -0.00560   0.00000  -0.01282  -0.01282   2.67116
    R5        2.05908  -0.00611   0.00000  -0.01734  -0.01734   2.04175
    R6        2.69415  -0.00679   0.00000  -0.01499  -0.01500   2.67916
    R7        2.69661  -0.00575   0.00000  -0.01357  -0.01357   2.68304
    R8        2.68286  -0.00584   0.00000  -0.01336  -0.01336   2.66950
    R9        2.71602  -0.00592   0.00000  -0.01426  -0.01426   2.70176
   R10        2.59805  -0.00918   0.00000  -0.01845  -0.01845   2.57960
   R11        2.05809  -0.00593   0.00000  -0.01683  -0.01683   2.04127
   R12        2.06145  -0.00565   0.00000  -0.01612  -0.01612   2.04534
   R13        2.60511  -0.00885   0.00000  -0.01798  -0.01798   2.58713
   R14        2.55350  -0.00159   0.00000  -0.00288  -0.00288   2.55062
   R15        2.58767  -0.00983   0.00000  -0.01942  -0.01942   2.56824
   R16        3.29817  -0.00126   0.00000  -0.00404  -0.00404   3.29413
   R17        2.05334  -0.00637   0.00000  -0.01792  -0.01792   2.03542
   R18        2.67427  -0.00775   0.00000  -0.01840  -0.01839   2.65587
   R19        2.05992  -0.00575   0.00000  -0.01636  -0.01636   2.04356
   R20        2.70878   0.00226   0.00000   0.00553   0.00553   2.71431
   R21        2.86284  -0.00086   0.00000  -0.00275  -0.00275   2.86009
   R22        2.89269  -0.00112   0.00000  -0.00377  -0.00377   2.88892
   R23        2.89156  -0.00091   0.00000  -0.00307  -0.00307   2.88849
   R24        2.07019  -0.00607   0.00000  -0.01758  -0.01758   2.05261
   R25        2.51452  -0.01020   0.00000  -0.01709  -0.01709   2.49743
   R26        2.07629  -0.00509   0.00000  -0.01490  -0.01490   2.06139
   R27        2.07096  -0.00562   0.00000  -0.01628  -0.01628   2.05467
   R28        2.07709  -0.00526   0.00000  -0.01540  -0.01540   2.06169
   R29        2.07477  -0.00508   0.00000  -0.01483  -0.01483   2.05994
   R30        2.07531  -0.00511   0.00000  -0.01493  -0.01493   2.06038
   R31        2.07746  -0.00513   0.00000  -0.01504  -0.01504   2.06241
   R32        2.06230  -0.00580   0.00000  -0.01658  -0.01658   2.04572
   R33        2.06589  -0.00653   0.00000  -0.01878  -0.01878   2.04711
    A1        2.10213   0.00029   0.00000  -0.00007  -0.00006   2.10207
    A2        2.09008   0.00004   0.00000   0.00113   0.00113   2.09121
    A3        2.09097  -0.00032   0.00000  -0.00106  -0.00106   2.08991
    A4        2.10729   0.00058   0.00000   0.00282   0.00282   2.11011
    A5        2.10415  -0.00128   0.00000  -0.00744  -0.00744   2.09671
    A6        2.07175   0.00070   0.00000   0.00462   0.00462   2.07637
    A7        2.07334  -0.00097   0.00000  -0.00301  -0.00301   2.07033
    A8        2.14919   0.00168   0.00000   0.00498   0.00498   2.15418
    A9        2.06066  -0.00071   0.00000  -0.00198  -0.00198   2.05868
   A10        2.07979  -0.00059   0.00000  -0.00169  -0.00169   2.07810
   A11        2.09346  -0.00028   0.00000   0.00003   0.00002   2.09349
   A12        2.10993   0.00088   0.00000   0.00166   0.00167   2.11160
   A13        2.10675   0.00058   0.00000   0.00278   0.00277   2.10952
   A14        2.06397   0.00071   0.00000   0.00472   0.00472   2.06868
   A15        2.11247  -0.00129   0.00000  -0.00749  -0.00749   2.10498
   A16        2.09707   0.00012   0.00000  -0.00083  -0.00083   2.09624
   A17        2.09151  -0.00008   0.00000   0.00032   0.00032   2.09183
   A18        2.09460  -0.00005   0.00000   0.00051   0.00051   2.09511
   A19        2.08888  -0.00025   0.00000  -0.00046  -0.00046   2.08842
   A20        1.99548  -0.00202   0.00000  -0.00821  -0.00821   1.98727
   A21        2.19844   0.00227   0.00000   0.00874   0.00874   2.20718
   A22        2.11302   0.00013   0.00000   0.00043   0.00042   2.11344
   A23        2.08997   0.00164   0.00000   0.00651   0.00651   2.09648
   A24        2.08019  -0.00177   0.00000  -0.00692  -0.00693   2.07326
   A25        2.10989   0.00070   0.00000   0.00525   0.00525   2.11514
   A26        2.10062   0.00041   0.00000   0.00052   0.00052   2.10114
   A27        2.07243  -0.00111   0.00000  -0.00581  -0.00581   2.06663
   A28        2.10963   0.00069   0.00000   0.00143   0.00143   2.11107
   A29        2.08695   0.00044   0.00000   0.00412   0.00411   2.09106
   A30        2.08657  -0.00113   0.00000  -0.00552  -0.00552   2.08105
   A31        2.17084   0.00414   0.00000   0.01635   0.01635   2.18718
   A32        1.94892   0.00173   0.00000   0.01942   0.01941   1.96834
   A33        1.94748  -0.00030   0.00000  -0.00014  -0.00022   1.94726
   A34        1.80461  -0.00091   0.00000  -0.00856  -0.00854   1.79607
   A35        1.95793  -0.00058   0.00000  -0.00186  -0.00193   1.95599
   A36        1.89076  -0.00049   0.00000  -0.00571  -0.00569   1.88507
   A37        1.90665   0.00050   0.00000  -0.00444  -0.00447   1.90218
   A38        2.00445  -0.00172   0.00000  -0.00755  -0.00755   1.99690
   A39        2.17769   0.00359   0.00000   0.01606   0.01606   2.19375
   A40        2.09959  -0.00187   0.00000  -0.00852  -0.00852   2.09107
   A41        1.90144   0.00037   0.00000   0.00191   0.00190   1.90334
   A42        1.97796   0.00025   0.00000   0.00144   0.00143   1.97939
   A43        1.90895   0.00114   0.00000   0.00739   0.00738   1.91634
   A44        1.88552  -0.00043   0.00000  -0.00345  -0.00345   1.88207
   A45        1.89218  -0.00070   0.00000  -0.00403  -0.00404   1.88813
[...]
 Alpha virt. eigenvalues --    4.49536   4.50931   4.53694   4.55943   4.56531
 Alpha virt. eigenvalues --    4.58442   4.60290   4.61007   4.61964   4.63883
 Alpha virt. eigenvalues --    4.67842   4.69488   4.73365   4.75718   4.80586
 Alpha virt. eigenvalues --    4.83123   4.83877   4.84873   4.86900   4.87734
 Alpha virt. eigenvalues --    4.89960   4.90707   4.92769   4.93616   4.95433
 Alpha virt. eigenvalues --    5.03688   5.04703   5.08013   5.08085   5.13087
 Alpha virt. eigenvalues --    5.17422   5.19831   5.24037   5.26039   5.29338
 Alpha virt. eigenvalues --    5.33275   5.35527   5.37208   5.45067   5.49549
 Alpha virt. eigenvalues --    5.51317   5.55809   5.72957   5.73626   5.83834
 Alpha virt. eigenvalues --    5.89722   6.02254   6.19330   6.19945   6.52535
 Alpha virt. eigenvalues --    6.73877   6.85994   7.00213   7.16902   7.47730
 Alpha virt. eigenvalues --    7.66729  10.93755  11.03418  11.52564  22.34811
 Alpha virt. eigenvalues --   22.46532  22.57032  22.58886  22.74644  22.81657
 Alpha virt. eigenvalues --   22.85329  22.88159  22.91757  22.94873  23.01244
 Alpha virt. eigenvalues --   23.11392  23.14904  23.33072  23.84818  26.44851
 Alpha virt. eigenvalues --   44.83580
          Condensed to atoms (all electrons):
               1          2          3          4          5          6
     1  C    5.032613   0.392595  -0.061889  -0.001787  -0.139922   0.439660
     2  C    0.392595   5.516962   0.177343  -0.048482  -0.042547  -0.103462
     3  C   -0.061889   0.177343   5.798787   0.095317  -0.082794   0.051594
     4  C   -0.001787  -0.048482   0.095317   5.635093   0.360914  -0.144223
     5  C   -0.139922  -0.042547  -0.082794   0.360914   5.594243   0.360000
     6  C    0.439660  -0.103462   0.051594  -0.144223   0.360000   5.049331
     7  H    0.403571  -0.054739   0.015717  -0.015398   0.040980  -0.022036
     8  H   -0.037757   0.456373  -0.039607   0.006305  -0.012709   0.013428
     9  H    0.006006  -0.016566   0.034586  -0.014401   0.405736  -0.030491
    10  H   -0.021283   0.036946  -0.014237   0.010576  -0.066938   0.418934
    11  C    0.053471  -0.029574  -0.097923   0.182279  -0.166416  -0.018316
    12  C   -0.015066  -0.176205   0.370955   0.032099  -0.048330   0.056520
    13  C    0.025861   0.017356  -0.302833   0.108760   0.059846  -0.070724
    14  H    0.000488  -0.001362  -0.006670   0.002338  -0.004757   0.000494
    15  C   -0.015734   0.047266   0.125520  -0.231423   0.035258   0.003886
    16  H    0.001251  -0.005565   0.033255  -0.007692  -0.003573   0.000782
    17  O    0.003500  -0.006392   0.020743  -0.065865   0.016051   0.001982
    18  Cl  -0.026504   0.038269  -0.156185   0.055045   0.016347  -0.005971
    19  C   -0.002220  -0.009560  -0.022063   0.033225  -0.077489   0.021492
    20  C   -0.000446   0.005058  -0.001376  -0.001047   0.036808   0.000348
    21  H   -0.000003  -0.000024  -0.000421   0.001872   0.000146  -0.000002
    22  C    0.000621  -0.007369   0.042813   0.037222  -0.025666  -0.000091
    23  H   -0.000028   0.000104   0.000335   0.000708  -0.000272  -0.000524
    24  H   -0.000003   0.000219  -0.000236  -0.010391   0.002529   0.000284
    25  H   -0.000222  -0.000825   0.000707   0.009082  -0.002372   0.001343
    26  C    0.002057   0.004533  -0.007737  -0.043886   0.001571  -0.005572
    27  H    0.000048  -0.000082   0.000613   0.002073  -0.005570   0.000051
    28  H   -0.000037   0.000063  -0.000192  -0.002665   0.001720  -0.000092
    29  H   -0.000119   0.000084   0.000013   0.001349   0.001732  -0.001847
    30  C   -0.000635  -0.001304   0.002867  -0.005002  -0.000511   0.001611
    31  H   -0.000011   0.000023  -0.000130   0.000784  -0.000596  -0.000008
    32  H   -0.000145   0.000493   0.001269   0.001272  -0.002427  -0.000767
               7          8          9         10         11         12
     1  C    0.403571  -0.037757   0.006006  -0.021283   0.053471  -0.015066
     2  C   -0.054739   0.456373  -0.016566   0.036946  -0.029574  -0.176205
     3  C    0.015717  -0.039607   0.034586  -0.014237  -0.097923   0.370955
     4  C   -0.015398   0.006305  -0.014401   0.010576   0.182279   0.032099
     5  C    0.040980  -0.012709   0.405736  -0.066938  -0.166416  -0.048330
     6  C   -0.022036   0.013428  -0.030491   0.418934  -0.018316   0.056520
     7  H    0.489531  -0.005818   0.000007  -0.005414  -0.003793  -0.002477
     8  H   -0.005818   0.486558  -0.000012  -0.000004  -0.007565  -0.015207
     9  H    0.000007  -0.000012   0.463695  -0.005435  -0.030592   0.003750
    10  H   -0.005414  -0.000004  -0.005435   0.491266  -0.001623  -0.001136
    11  C   -0.003793  -0.007565  -0.030592  -0.001623   6.115586  -0.389775
    12  C   -0.002477  -0.015207   0.003750  -0.001136  -0.389775   5.668973
    13  C   -0.000977  -0.008537  -0.003970   0.000264   0.491380  -0.259202
    14  H    0.000000  -0.000001  -0.000010   0.000000  -0.081537   0.006746
    15  C    0.000030  -0.007263   0.000661  -0.000577  -0.083487   0.414084
    16  H    0.000000   0.000027  -0.000002   0.000000   0.022087  -0.046538
    17  O    0.000032  -0.000120  -0.000128   0.000276   0.131667  -0.004965
    18  Cl   0.000285   0.000009   0.000065   0.000001  -0.027123   0.245758
    19  C   -0.000117  -0.000291  -0.006106  -0.000651  -0.349209   0.063221
    20  C   -0.000002  -0.000022   0.001678   0.000163   0.096767  -0.019973
    21  H    0.000000   0.000000   0.000000   0.000000  -0.009807  -0.000029
    22  C    0.000013   0.000147   0.002362   0.000223   0.018744   0.005500
    23  H    0.000000   0.000000   0.000001   0.000000   0.028900  -0.001968
    24  H    0.000000   0.000000  -0.000001   0.000000  -0.023832   0.002394
    25  H    0.000000   0.000000   0.000036   0.000001  -0.011026   0.002121
    26  C    0.000018  -0.000013  -0.001181  -0.000133   0.046642  -0.006069
    27  H    0.000000   0.000000  -0.000394   0.000000   0.001360   0.000155
    28  H    0.000000   0.000000   0.000010   0.000000   0.013035  -0.000385
    29  H    0.000000   0.000000  -0.000146   0.000003  -0.003823  -0.000437
    30  C   -0.000004   0.000040  -0.000542  -0.000052   0.002662   0.012517
    31  H    0.000000   0.000000   0.000001   0.000000  -0.000665   0.000067
    32  H    0.000000   0.000000  -0.000040   0.000000   0.008549  -0.001447
              13         14         15         16         17         18
     1  C    0.025861   0.000488  -0.015734   0.001251   0.003500  -0.026504
     2  C    0.017356  -0.001362   0.047266  -0.005565  -0.006392   0.038269
     3  C   -0.302833  -0.006670   0.125520   0.033255   0.020743  -0.156185
     4  C    0.108760   0.002338  -0.231423  -0.007692  -0.065865   0.055045
     5  C    0.059846  -0.004757   0.035258  -0.003573   0.016051   0.016347
     6  C   -0.070724   0.000494   0.003886   0.000782   0.001982  -0.005971
     7  H   -0.000977   0.000000   0.000030   0.000000   0.000032   0.000285
     8  H   -0.008537  -0.000001  -0.007263   0.000027  -0.000120   0.000009
     9  H   -0.003970  -0.000010   0.000661  -0.000002  -0.000128   0.000065
    10  H    0.000264   0.000000  -0.000577   0.000000   0.000276   0.000001
    11  C    0.491380  -0.081537  -0.083487   0.022087   0.131667  -0.027123
    12  C   -0.259202   0.006746   0.414084  -0.046538  -0.004965   0.245758
    13  C    5.872005   0.464507   0.117637  -0.062514  -0.096436   0.062720
    14  H    0.464507   0.445354  -0.011573  -0.004252  -0.002052  -0.000292
    15  C    0.117637  -0.011573   5.461227   0.428922  -0.007313  -0.088463
    16  H   -0.062514  -0.004252   0.428922   0.480881  -0.000617  -0.010126
    17  O   -0.096436  -0.002052  -0.007313  -0.000617   8.499362  -0.000087
    18  Cl   0.062720  -0.000292  -0.088463  -0.010126  -0.000087  17.081149
    19  C    0.050452   0.030436  -0.058767  -0.003339   0.005950  -0.000881
    20  C   -0.050010  -0.027718   0.043706  -0.000087  -0.013679   0.000400
    21  H   -0.002256   0.000080  -0.001349  -0.000001   0.004211   0.000000
    22  C   -0.098700  -0.016903  -0.013802   0.001922  -0.033594  -0.000553
    23  H    0.000477   0.000558  -0.001298  -0.000002   0.009580   0.000001
    24  H    0.017130  -0.004976   0.004422   0.000088   0.007708  -0.000033
    25  H   -0.020626  -0.000029   0.000885   0.000002  -0.021629   0.000001
    26  C    0.032608   0.007159   0.008265  -0.000116  -0.008677   0.000017
    27  H   -0.003620   0.000002  -0.000658   0.000000  -0.009122   0.000000
    28  H    0.001463   0.000044   0.000602   0.000000   0.015813   0.000000
    29  H   -0.002097   0.000006   0.000173   0.000000  -0.009627  -0.000001
    30  C   -0.038418  -0.010971  -0.006829   0.000633  -0.009401  -0.000386
    31  H   -0.001630   0.000172   0.000480  -0.000002   0.002142  -0.000001
    32  H   -0.000875  -0.000689  -0.002068  -0.000008  -0.006039   0.000003
              19         20         21         22         23         24
     1  C   -0.002220  -0.000446  -0.000003   0.000621  -0.000028  -0.000003
     2  C   -0.009560   0.005058  -0.000024  -0.007369   0.000104   0.000219
     3  C   -0.022063  -0.001376  -0.000421   0.042813   0.000335  -0.000236
     4  C    0.033225  -0.001047   0.001872   0.037222   0.000708  -0.010391
     5  C   -0.077489   0.036808   0.000146  -0.025666  -0.000272   0.002529
     6  C    0.021492   0.000348  -0.000002  -0.000091  -0.000524   0.000284
     7  H   -0.000117  -0.000002   0.000000   0.000013   0.000000   0.000000
     8  H   -0.000291  -0.000022   0.000000   0.000147   0.000000   0.000000
     9  H   -0.006106   0.001678   0.000000   0.002362   0.000001  -0.000001
    10  H   -0.000651   0.000163   0.000000   0.000223   0.000000   0.000000
    11  C   -0.349209   0.096767  -0.009807   0.018744   0.028900  -0.023832
    12  C    0.063221  -0.019973  -0.000029   0.005500  -0.001968   0.002394
    13  C    0.050452  -0.050010  -0.002256  -0.098700   0.000477   0.017130
    14  H    0.030436  -0.027718   0.000080  -0.016903   0.000558  -0.004976
    15  C   -0.058767   0.043706  -0.001349  -0.013802  -0.001298   0.004422
    16  H   -0.003339  -0.000087  -0.000001   0.001922  -0.000002   0.000088
    17  O    0.005950  -0.013679   0.004211  -0.033594   0.009580   0.007708
    18  Cl  -0.000881   0.000400   0.000000  -0.000553   0.000001  -0.000033
    19  C    6.994206  -0.442743  -0.000287  -0.022837  -0.105546  -0.022034
    20  C   -0.442743   6.098195   0.356932  -0.041705   0.000508   0.013661
    21  H   -0.000287   0.356932   0.475641   0.005697   0.000877  -0.000209
    22  C   -0.022837  -0.041705   0.005697   5.500635   0.445718   0.414425
    23  H   -0.105546   0.000508   0.000877   0.445718   0.501122  -0.019423
    24  H   -0.022034   0.013661  -0.000209   0.414425  -0.019423   0.500752
    25  H   -0.049399   0.005554   0.000030   0.462808  -0.016275  -0.016170
    26  C   -0.024001  -0.151855  -0.012715  -0.176673  -0.002479  -0.026870
    27  H   -0.028053  -0.073916   0.001068   0.008691   0.000139  -0.000349
    28  H   -0.087725   0.014606  -0.001401  -0.028681   0.000678   0.000031
    29  H   -0.084499   0.046869  -0.000035   0.006686   0.000420  -0.000047
    30  C    0.041068   0.321162   0.018415  -0.044548  -0.003094  -0.005249
    31  H    0.004956  -0.050336  -0.004275  -0.000376  -0.000008   0.000016
    32  H    0.000989  -0.069442   0.002462   0.003650  -0.000036   0.000038
              25         26         27         28         29         30
     1  C   -0.000222   0.002057   0.000048  -0.000037  -0.000119  -0.000635
     2  C   -0.000825   0.004533  -0.000082   0.000063   0.000084  -0.001304
     3  C    0.000707  -0.007737   0.000613  -0.000192   0.000013   0.002867
     4  C    0.009082  -0.043886   0.002073  -0.002665   0.001349  -0.005002
     5  C   -0.002372   0.001571  -0.005570   0.001720   0.001732  -0.000511
     6  C    0.001343  -0.005572   0.000051  -0.000092  -0.001847   0.001611
     7  H    0.000000   0.000018   0.000000   0.000000   0.000000  -0.000004
     8  H    0.000000  -0.000013   0.000000   0.000000   0.000000   0.000040
     9  H    0.000036  -0.001181  -0.000394   0.000010  -0.000146  -0.000542
    10  H    0.000001  -0.000133   0.000000   0.000000   0.000003  -0.000052
    11  C   -0.011026   0.046642   0.001360   0.013035  -0.003823   0.002662
    12  C    0.002121  -0.006069   0.000155  -0.000385  -0.000437   0.012517
    13  C   -0.020626   0.032608  -0.003620   0.001463  -0.002097  -0.038418
    14  H   -0.000029   0.007159   0.000002   0.000044   0.000006  -0.010971
    15  C    0.000885   0.008265  -0.000658   0.000602   0.000173  -0.006829
    16  H    0.000002  -0.000116   0.000000   0.000000   0.000000   0.000633
    17  O   -0.021629  -0.008677  -0.009122   0.015813  -0.009627  -0.009401
    18  Cl   0.000001   0.000017   0.000000   0.000000  -0.000001  -0.000386
    19  C   -0.049399  -0.024001  -0.028053  -0.087725  -0.084499   0.041068
    20  C    0.005554  -0.151855  -0.073916   0.014606   0.046869   0.321162
    21  H    0.000030  -0.012715   0.001068  -0.001401  -0.000035   0.018415
    22  C    0.462808  -0.176673   0.008691  -0.028681   0.006686  -0.044548
    23  H   -0.016275  -0.002479   0.000139   0.000678   0.000420  -0.003094
    24  H   -0.016170  -0.026870  -0.000349   0.000031  -0.000047  -0.005249
    25  H    0.488518  -0.004738  -0.000091   0.000845   0.001656   0.000489
    26  C   -0.004738   5.495369   0.467927   0.452242   0.421844   0.049098
    27  H   -0.000091   0.467927   0.495605  -0.017854  -0.018785   0.017529
    28  H    0.000845   0.452242  -0.017854   0.502717  -0.020642  -0.002344
    29  H    0.001656   0.421844  -0.018785  -0.020642   0.519075  -0.005354
    30  C    0.000489   0.049098   0.017529  -0.002344  -0.005354   5.138745
    31  H    0.000004   0.005696  -0.000093   0.000016   0.000011   0.422537
    32  H    0.000035  -0.001110   0.000273  -0.000039   0.000042   0.438500
              31         32
     1  C   -0.000011  -0.000145
     2  C    0.000023   0.000493
     3  C   -0.000130   0.001269
     4  C    0.000784   0.001272
     5  C   -0.000596  -0.002427
     6  C   -0.000008  -0.000767
     7  H    0.000000   0.000000
     8  H    0.000000   0.000000
     9  H    0.000001  -0.000040
    10  H    0.000000   0.000000
    11  C   -0.000665   0.008549
    12  C    0.000067  -0.001447
    13  C   -0.001630  -0.000875
    14  H    0.000172  -0.000689
    15  C    0.000480  -0.002068
    16  H   -0.000002  -0.000008
    17  O    0.002142  -0.006039
    18  Cl  -0.000001   0.000003
    19  C    0.004956   0.000989
    20  C   -0.050336  -0.069442
    21  H   -0.004275   0.002462
    22  C   -0.000376   0.003650
    23  H   -0.000008  -0.000036
    24  H    0.000016   0.000038
    25  H    0.000004   0.000035
    26  C    0.005696  -0.001110
    27  H   -0.000093   0.000273
    28  H    0.000016  -0.000039
    29  H    0.000011   0.000042
    30  C    0.422537   0.438500
    31  H    0.471831  -0.015709
    32  H   -0.015709   0.465268
 Mulliken charges:
               1
     1  C   -0.037930
     2  C   -0.189627
     3  C    0.021858
     4  C    0.015948
     5  C   -0.250993
     6  C   -0.017614
     7  H    0.160592
     8  H    0.172038
     9  H    0.191424
    10  H    0.158828
    11  C    0.122956
    12  C    0.104348
    13  C   -0.299042
    14  H    0.215407
    15  C   -0.162421
    16  H    0.174584
    17  O   -0.423273
    18  Cl  -0.183468
    19  C    0.151821
    20  C   -0.098058
    21  H    0.165385
    22  C   -0.446381
    23  H    0.160828
    24  H    0.166124
    25  H    0.169287
    26  C   -0.521219
    27  H    0.163054
    28  H    0.158172
    29  H    0.147497
    30  C   -0.333227
    31  H    0.165102
    32  H    0.177998
 Sum of Mulliken charges =   0.00000
 Mulliken charges with hydrogens summed into heavy atoms:
               1
     1  C    0.122662
     2  C   -0.017589
     3  C    0.021858
     4  C    0.015948
     5  C   -0.059569
     6  C    0.141214
    11  C    0.122956
    12  C    0.104348
    13  C   -0.083635
    15  C    0.012163
    17  O   -0.423273
    18  Cl  -0.183468
    19  C    0.151821
    20  C    0.067327
    22  C    0.049859
    26  C   -0.052496
    30  C    0.009873
 Electronic spatial extent (au):  <R**2>=           4868.6368
 Charge=              0.0000 electrons
 Dipole moment (field-independent basis, Debye):
    X=              3.5971    Y=              0.5457    Z=             -0.8166  Tot=              3.7288
 Quadrupole moment (field-independent basis, Debye-Ang):
   XX=           -100.5600   YY=           -100.1912   ZZ=           -109.7154
   XY=             -8.0941   XZ=             -3.6709   YZ=             -0.3168
 Traceless Quadrupole moment (field-independent basis, Debye-Ang):
   XX=              2.9288   YY=              3.2977   ZZ=             -6.2265
   XY=             -8.0941   XZ=             -3.6709   YZ=             -0.3168
 Octapole moment (field-independent basis, Debye-Ang**2):
  XXX=             36.0517  YYY=             11.5867  ZZZ=             -0.5452  XYY=             -0.0276
  XXY=             12.6700  XXZ=            -12.6468  XZZ=             12.4423  YZZ=             -7.5797
  YYZ=              2.1727  XYZ=             -3.7415
 Hexadecapole moment (field-independent basis, Debye-Ang**3):
 XXXX=          -4249.4201 YYYY=          -1588.9359 ZZZZ=           -460.9716 XXXY=            -94.1433
 XXXZ=            -63.1410 YYYX=            -21.8775 YYYZ=             12.6805 ZZZX=              5.2531
 ZZZY=            -12.4288 XXYY=           -988.9606 XXZZ=           -834.2392 YYZZ=           -381.5818
 XXYZ=             -8.3361 YYXZ=              3.8221 ZZXY=              8.3380
 N-N= 1.277469463927D+03 E-N=-5.173637639787D+03  KE= 1.112178957256D+03

 Test job not archived.
 1\1\GINC-D12S4B4\FOpt\RwB97XD\Gen\C15H15Cl1O1\PMMASS\02-Feb-2022\0\\#n
  wB97XD/Gen scrf(smd,solvent=toluene) opt test\\starting material clai
 sen toluene - opt\\0,1\C,-2.8046188808,2.5100663494,0.0400750901\C,-2.
 9951496422,1.1594028749,-0.0263517049\C,-1.8962664784,0.2695213651,-0.
 0118559695\C,-0.5856273864,0.807864132,0.0732733802\C,-0.4230206052,2.
 2102593276,0.1374812039\C,-1.5056975137,3.0429841094,0.1217294122\H,-3
 .6587291161,3.1756181756,0.0284768212\H,-3.9959482095,0.755497495,-0.0
 89911313\H,0.5781758428,2.612093202,0.2015208785\H,-1.3649364685,4.115
 2082924,0.1735853915\C,0.5437568633,-0.0688072235,0.0935741031\C,-2.03
 20833999,-1.1419682325,-0.0846030179\C,0.3544587243,-1.423357263,0.039
 8232806\H,1.1905590151,-2.1032256058,0.0880355786\C,-0.9434476712,-1.9
 567908423,-0.0583031414\H,-1.0706169297,-3.0297487791,-0.1082878779\O,
 1.7356737868,0.5559165017,0.2078851273\Cl,-3.6163645731,-1.8610853666,
 -0.211431594\C,2.9780169914,0.0237767356,-0.2831118019\C,3.5642324397,
 -1.0063725323,0.6528481488\H,4.4251436015,-1.5317986684,0.2479796086\C
 ,2.8370846347,-0.5216172648,-1.7033318331\H,3.8300803728,-0.7071798855
 ,-2.1149211304\H,2.276618644,-1.452865757,-1.7513690156\H,2.338961629,
 0.2145597954,-2.3361696528\C,3.8997760717,1.2425361803,-0.2970172014\H
 ,3.9231741257,1.7044298048,0.6901897389\H,4.9160293208,0.949202242,-0.
 5637228425\H,3.546660079,1.9749588459,-1.0252181953\C,3.1580251434,-1.
 25938508,1.8850158818\H,3.6657274234,-1.9928951067,2.4992732632\H,2.30
 55421654,-0.7510478217,2.3204093831\\Version=ES64L-G09RevD.01\State=1-
 A\HF=-1116.0802094\RMSD=6.632e-09\RMSF=1.225e-05\Dipole=1.4238714,0.19
 80451,-0.2924017\Quadrupole=2.2084862,2.5264965,-4.7349827,-6.0588971,
 -2.4511143,-0.5004105\PG=C01 [X(C15H15Cl1O1)]\\@


 THE POLHOLDE ROLLS WITHOUT SLIPPING ON THE HERPOLHOLDE LYING IN
 THE INVARIABLE PLANE.
 H.GOLDSTEIN, "CLASSICAL MECHANICS", PG 161
 Job cpu time:       1 days 12 hours 15 minutes 36.3 seconds.
 File lengths (MBytes):  RWF=    447 Int=      0 D2E=      0 Chk=     33 Scr=      1
 Normal termination of Gaussian 09 at Wed Feb  2 19:45:02 2022.
