 Entering Gaussian System, Link 0=g09
 Input=sm_claisen_ma_freq.com
 Output=sm_claisen_ma_freq.log
 Initial command:
 /apps/applications/gaussian/G09.D01/2/default/g09/l1.exe "/nobackup/pmmass/Temp/Gau-116201.inp" -scrdir="/nobackup/pmmass/Temp/"
 Entering Link 1 = /apps/applications/gaussian/G09.D01/2/default/g09/l1.exe PID=    116202.
  
 Copyright (c) 1988,1990,1992,1993,1995,1998,2003,2009,2013,
            Gaussian, Inc.  All Rights Reserved.
  
 This is part of the Gaussian(R) 09 program.  It is based on
 the Gaussian(R) 03 system (copyright 2003, Gaussian, Inc.),
 the Gaussian(R) 98 system (copyright 1998, Gaussian, Inc.),
 the Gaussian(R) 94 system (copyright 1995, Gaussian, Inc.),
 the Gaussian 92(TM) system (copyright 1992, Gaussian, Inc.),
 the Gaussian 90(TM) system (copyright 1990, Gaussian, Inc.),
 the Gaussian 88(TM) system (copyright 1988, Gaussian, Inc.),
 the Gaussian 86(TM) system (copyright 1986, Carnegie Mellon
 University), and the Gaussian 82(TM) system (copyright 1983,
 Carnegie Mellon University). Gaussian is a federally registered
 trademark of Gaussian, Inc.
  
 This software contains proprietary and confidential information,
 including trade secrets, belonging to Gaussian, Inc.
  
 This software is provided under written license and may be
 used, copied, transmitted, or stored only in accord with that
 written license.
  
 The following legend is applicable only to US Government
 contracts under FAR:
  
                    RESTRICTED RIGHTS LEGEND
  
 Use, reproduction and disclosure by the US Government is
 subject to restrictions as set forth in subparagraphs (a)
 and (c) of the Commercial Computer Software - Restricted
 Rights clause in FAR 52.227-19.
  
 Gaussian, Inc.
 340 Quinnipiac St., Bldg. 40, Wallingford CT 06492
  
  
 ---------------------------------------------------------------
 Warning -- This program may not be used in any manner that
 competes with the business of Gaussian, Inc. or will provide
 assistance to any competitor of Gaussian, Inc.  The licensee
 of this program is prohibited from giving any competitor of
 Gaussian, Inc. access to this program.  By using this program,
 the user acknowledges that Gaussian, Inc. is engaged in the
 business of creating and licensing software in the field of
 computational chemistry and represents and warrants to the
 licensee that it is not a competitor of Gaussian, Inc. and that
 it will not use this program in any manner prohibited above.
 ---------------------------------------------------------------
  

 Cite this work as:
 Gaussian 09, Revision D.01,
 M. J. Frisch, G. W. Trucks, H. B. Schlegel, G. E. Scuseria, 
 M. A. Robb, J. R. Cheeseman, G. Scalmani, V. Barone, B. Mennucci, 
 G. A. Petersson, H. Nakatsuji, M. Caricato, X. Li, H. P. Hratchian, 
 A. F. Izmaylov, J. Bloino, G. Zheng, J. L. Sonnenberg, M. Hada, 
 M. Ehara, K. Toyota, R. Fukuda, J. Hasegawa, M. Ishida, T. Nakajima, 
 Y. Honda, O. Kitao, H. Nakai, T. Vreven, J. A. Montgomery, Jr., 
 J. E. Peralta, F. Ogliaro, M. Bearpark, J. J. Heyd, E. Brothers, 
 K. N. Kudin, V. N. Staroverov, T. Keith, R. Kobayashi, J. Normand, 
 K. Raghavachari, A. Rendell, J. C. Burant, S. S. Iyengar, J. Tomasi, 
 M. Cossi, N. Rega, J. M. Millam, M. Klene, J. E. Knox, J. B. Cross, 
 V. Bakken, C. Adamo, J. Jaramillo, R. Gomperts, R. E. Stratmann, 
 O. Yazyev, A. J. Austin, R. Cammi, C. Pomelli, J. W. Ochterski, 
 R. L. Martin, K. Morokuma, V. G. Zakrzewski, G. A. Voth, 
 P. Salvador, J. J. Dannenberg, S. Dapprich, A. D. Daniels, 
 O. Farkas, J. B. Foresman, J. V. Ortiz, J. Cioslowski, 
 and D. J. Fox, Gaussian, Inc., Wallingford CT, 2013.
 
 ******************************************
 Gaussian 09:  ES64L-G09RevD.01 24-Apr-2013
                 4-Feb-2022 
 ******************************************
 %nprocshared=8
 Will use up to    8 processors via shared memory.
 %mem=4GB
 %NoSave
 %chk="sm_claisen_ma.chk"
 --------------------------------------------
 #n wB97XD/Gen scrf(smd,solvent=toluene) freq
 --------------------------------------------
 1/10=4,30=1,38=1/1,3;
 2/12=2,17=6,18=5,40=1/2;
 3/5=7,11=2,16=1,25=1,30=1,70=32201,71=2,72=13,74=-58,140=1/1,2,3;
 4//1;
 5/5=2,38=5,53=13,98=1/2;
 8/6=4,10=90,11=11/1;
 11/6=1,8=1,9=11,15=111,16=1/1,2,10;
 10/6=1/2;
 6/7=2,8=2,9=2,10=2,18=1,28=1/1;
 7/8=1,10=1,25=1/1,2,3,16;
 1/10=4,30=1/3;
 99//99;
 ----------------------------------------
 starting material claisen toluene - freq
 ----------------------------------------
 Symbolic Z-matrix:
 Charge =  0 Multiplicity = 1
 C                    -2.82243   2.48669   0.15705 
 C                    -3.00477   1.13621   0.0679 
 C                    -1.89949   0.25463   0.03903 
 C                    -0.59112   0.80116   0.10459 
 C                    -0.43712   2.2032    0.19321 
 C                    -1.52581   3.02778   0.21929 
 H                    -3.68133   3.1458    0.17863 
 H                    -4.00385   0.72602   0.01943 
 H                     0.56239   2.61131   0.2421 
 H                    -1.39157   4.0998    0.28943 
 C                     0.54469  -0.06709   0.08108 
 C                    -2.02684  -1.15612  -0.05892 
 C                     0.36391  -1.4217    0.0045 
 H                     1.20576  -2.09599   0.01964 
 C                    -0.93207  -1.96297  -0.07425 
 H                    -1.05267  -3.03566  -0.14284 
 O                     1.73444   0.56432   0.18029 
 Cl                   -3.60845  -1.88465  -0.16345 
 C                     2.96878   0.05158  -0.34996 
 C                     3.58403  -0.99252   0.55126 
 H                     4.43902  -1.50318   0.11607 
 C                     2.79869  -0.46645  -1.77721 
 H                     3.78313  -0.63618  -2.21535 
 H                     2.24395  -1.40081  -1.83098 
 H                     2.28068   0.27838  -2.38341 
 C                     3.8812    1.27738  -0.3607 
 H                     3.9243    1.71966   0.63479 
 H                     4.89304   0.99719  -0.65672 
 H                     3.50596   2.02146  -1.06564 
 C                     3.20849  -1.27315   1.78717 
 H                     3.73562  -2.01487   2.37462 
 H                     2.36276  -0.78012   2.25233 
 

 GradGradGradGradGradGradGradGradGradGradGradGradGradGradGradGradGradGrad
 Berny optimization.
 Initialization pass.
 Trust Radius=3.00D-01 FncErr=1.00D-07 GrdErr=1.00D-07
 Number of steps in this run=      2 maximum allowed number of steps=      2.
 GradGradGradGradGradGradGradGradGradGradGradGradGradGradGradGradGradGrad

                          Input orientation:                          
 ---------------------------------------------------------------------
 Center     Atomic      Atomic             Coordinates (Angstroms)
 Number     Number       Type             X           Y           Z
 ---------------------------------------------------------------------
      1          6           0       -2.822430    2.486690    0.157050
      2          6           0       -3.004770    1.136210    0.067900
      3          6           0       -1.899490    0.254630    0.039030
      4          6           0       -0.591120    0.801160    0.104590
      5          6           0       -0.437120    2.203200    0.193210
      6          6           0       -1.525810    3.027780    0.219290
      7          1           0       -3.681330    3.145800    0.178630
      8          1           0       -4.003850    0.726020    0.019430
      9          1           0        0.562390    2.611310    0.242100
     10          1           0       -1.391570    4.099800    0.289430
     11          6           0        0.544690   -0.067090    0.081080
     12          6           0       -2.026840   -1.156120   -0.058920
     13          6           0        0.363910   -1.421700    0.004500
     14          1           0        1.205760   -2.095990    0.019640
     15          6           0       -0.932070   -1.962970   -0.074250
     16          1           0       -1.052670   -3.035660   -0.142840
     17          8           0        1.734440    0.564320    0.180290
     18         17           0       -3.608450   -1.884650   -0.163450
     19          6           0        2.968780    0.051580   -0.349960
     20          6           0        3.584030   -0.992520    0.551260
     21          1           0        4.439020   -1.503180    0.116070
     22          6           0        2.798690   -0.466450   -1.777210
     23          1           0        3.783130   -0.636180   -2.215350
     24          1           0        2.243950   -1.400810   -1.830980
     25          1           0        2.280680    0.278380   -2.383410
     26          6           0        3.881200    1.277380   -0.360700
     27          1           0        3.924300    1.719660    0.634790
     28          1           0        4.893040    0.997190   -0.656720
     29          1           0        3.505960    2.021460   -1.065640
     30          6           0        3.208490   -1.273150    1.787170
     31          1           0        3.735620   -2.014870    2.374620
     32          1           0        2.362760   -0.780120    2.252330
 ---------------------------------------------------------------------
                    Distance matrix (angstroms):
                    1          2          3          4          5
     1  C    0.000000
     2  C    1.365647   0.000000
     3  C    2.418231   1.414094   0.000000
     4  C    2.796875   2.437070   1.419445   0.000000
     5  C    2.402369   2.783343   2.441152   1.413254   0.000000
     6  C    1.406370   2.405884   2.804013   2.417569   1.365964
     7  H    1.082867   2.123310   3.399015   3.879719   3.378403
     8  H    2.124771   1.081095   2.156600   3.414619   3.864431
     9  H    3.388181   3.864052   3.414093   2.150846   1.080724
    10  H    2.160326   3.381472   3.886646   3.399399   2.125400
    11  C    4.226708   3.747902   2.465621   1.429851   2.476033
    12  C    3.734926   2.495437   1.419869   2.432894   3.725025
    13  C    5.044953   4.230240   2.816781   2.421406   3.717144
    14  H    6.102963   5.308296   3.894659   3.410201   4.605672
    15  C    4.840086   3.731114   2.422082   2.790814   4.203984
    16  H    5.806749   4.610814   3.402380   3.872394   5.285592
    17  O    4.945817   4.774914   3.649837   2.338814   2.720619
    18  Cl   4.452995   3.089263   2.745553   4.048420   5.186045
    19  C    6.302772   6.085584   4.888005   3.666248   4.065053
    20  C    7.300893   6.940995   5.646836   4.566035   5.148832
    21  H    8.285493   7.898019   6.578187   5.532849   6.125353
    22  C    6.637725   6.297071   5.088377   4.079071   4.634658
    23  H    7.682058   7.377681   6.178021   5.155786   5.627944
    24  H    6.688283   6.131173   4.837925   4.078324   4.926903
    25  H    6.113289   5.889039   4.831418   3.835450   4.210741
    26  C    6.831482   6.900740   5.884061   4.521607   4.451050
    27  H    6.806977   6.976660   6.034714   4.638294   4.410305
    28  H    7.899956   7.932200   6.868328   5.540219   5.530592
    29  H    6.462192   6.667697   5.793175   4.432227   4.143140
    30  C    7.291480   6.882260   5.610844   4.644445   5.283577
    31  H    8.257704   7.789937   6.508462   5.639480   6.321584
    32  H    6.476762   6.103641   4.912859   3.979779   4.580339
                    6          7          8          9         10
     6  C    0.000000
     7  H    2.159131   0.000000
     8  H    3.388027   2.446364   0.000000
     9  H    2.129448   4.277718   4.945144   0.000000
    10  H    1.082667   2.483021   4.275430   2.456787   0.000000
    11  C    3.726163   5.309560   4.617579   2.683294   4.599509
    12  C    4.222967   4.615223   2.730780   4.581294   5.305621
    13  C    4.838910   6.103798   4.867263   4.044875   5.800850
    14  H    5.809850   7.168353   5.924844   4.756268   6.723595
    15  C    5.034509   5.807057   4.083537   4.822606   6.091025
    16  H    6.092643   6.724853   4.783935   5.885989   7.156570
    17  O    4.086488   5.999551   5.742821   2.359595   4.720537
    18  Cl   5.349378   5.042594   2.646769   6.146058   6.397914
    19  C    5.420623   7.353745   7.014905   3.562789   5.984109
    20  C    6.510260   8.369588   7.798214   4.713118   7.124386
    21  H    7.491292   9.357190   8.732739   5.654482   8.088215
    22  C    5.907365   7.672309   7.136137   4.307117   6.532987
    23  H    6.894702   8.703601   8.215040   5.192150   7.448554
    24  H    6.166612   7.734283   6.854373   4.818964   6.926027
    25  H    5.368670   7.094484   6.743096   3.910037   5.935718
    26  C    5.712797   7.808568   7.913439   3.627291   6.015881
    27  H    5.620277   7.751617   8.013835   3.500241   5.834622
    28  H    6.789133   8.878860   8.926666   4.708268   7.072320
    29  H    5.289843   7.380345   7.697583   3.274555   5.490129
    30  C    6.585578   8.341711   7.690217   4.947536   7.229963
    31  H    7.599764   9.298711   8.541592   6.001547   8.247744
    32  H    5.809848   7.499607   6.912888   4.334069   6.462321
                   11         12         13         14         15
    11  C    0.000000
    12  C    2.796132   0.000000
    13  C    1.368764   2.406292   0.000000
    14  H    2.134765   3.367377   1.078706   0.000000
    15  C    2.408175   1.360060   1.406677   2.144021   0.000000
    16  H    3.378477   2.118660   2.152504   2.451507   1.081625
    17  O    1.350565   4.142990   2.419407   2.717087   3.682698
    18  Cl   4.540032   1.744469   4.002771   4.822324   2.679011
    19  C    2.464973   5.147763   3.013560   2.803016   4.398984
    20  C    3.211709   5.646322   3.294285   2.675151   4.661351
    21  H    4.150829   6.477532   4.077451   3.288570   5.394093
    22  C    2.948431   5.168550   3.164672   2.901981   4.365572
    23  H    4.010604   6.219026   4.151607   3.710669   5.345820
    24  H    2.884834   4.630304   2.627541   2.232915   3.672768
    25  H    3.034258   5.100566   3.502341   3.545100   4.547266
    26  C    3.624233   6.396712   4.448565   4.322298   5.809431
    27  H    3.862750   6.645857   4.789758   4.725257   6.135864
    28  H    4.537090   7.271784   5.176993   4.860171   6.560010
    29  H    3.800806   6.459286   4.782576   4.839643   6.046044
    30  C    3.385433   5.552515   3.360300   2.795023   4.591838
    31  H    4.385910   6.313914   4.163862   3.457268   5.271336
    32  H    2.920294   4.975122   3.075673   2.838145   4.203334
                   16         17         18         19         20
    16  H    0.000000
    17  O    4.564236   0.000000
    18  Cl   2.803080   5.887451   0.000000
    19  C    5.074053   1.437937   6.858843   0.000000
    20  C    5.114214   2.445885   7.282752   1.510257   0.000000
    21  H    5.707380   3.404913   8.061354   2.189993   1.086817
    22  C    4.909682   2.454979   6.757733   1.527851   2.513022
    23  H    5.782540   3.373043   7.772028   2.148455   2.796560
    24  H    4.048488   2.857716   6.104535   2.197325   2.763618
    25  H    5.207133   2.636797   6.654981   2.158666   3.453433
    26  C    6.556893   2.325877   8.132171   1.528140   2.464230
    27  H    6.927338   2.517314   8.388716   2.159917   2.734718
    28  H    7.202737   3.296167   8.990197   2.165885   2.670518
    29  H    6.870745   2.610341   8.166179   2.163605   3.421189
    30  C    4.998886   2.851523   7.116848   2.525806   1.321838
    31  H    5.505210   3.933450   7.771365   3.504511   2.095906
    32  H    4.742306   2.548657   6.535390   2.798374   2.104817
                   21         22         23         24         25
    21  H    0.000000
    22  C    2.711088   0.000000
    23  H    2.572431   1.090824   0.000000
    24  H    2.935952   1.087960   1.761100   0.000000
    25  H    3.752304   1.091139   1.766924   1.768108   0.000000
    26  C    2.875758   2.493847   2.666656   3.466268   2.766048
    27  H    3.304649   3.444389   3.700434   4.317514   3.726702
    28  H    2.656161   2.789990   2.515775   3.761246   3.212876
    29  H    3.832770   2.682584   2.908901   3.726976   2.505226
    30  C    2.087988   3.677432   4.093423   3.746684   4.545527
    31  H    2.420257   4.529143   4.792793   4.504356   5.478567
    32  H    3.065498   4.065171   4.690238   4.131924   4.755759
                   26         27         28         29         30
    26  C    0.000000
    27  H    1.090170   0.000000
    28  H    1.090850   1.768733   0.000000
    29  H    1.091513   1.776951   1.772099   0.000000
    30  C    3.401630   3.285921   3.736944   4.368234   0.000000
    31  H    4.282765   4.124236   4.427318   5.308492   1.083103
    32  H    3.656076   3.362104   4.245435   4.490510   1.083841
                   31         32
    31  H    0.000000
    32  H    1.850488   0.000000
 Stoichiometry    C15H15ClO
 Framework group  C1[X(C15H15ClO)]
 Deg. of freedom    90
 Full point group                 C1      NOp   1
 Largest Abelian subgroup         C1      NOp   1
 Largest concise Abelian subgroup C1      NOp   1
                         Standard orientation:                         
 ---------------------------------------------------------------------
 Center     Atomic      Atomic             Coordinates (Angstroms)
 Number     Number       Type             X           Y           Z
 ---------------------------------------------------------------------
      1          6           0        2.822427    2.486692   -0.157050
      2          6           0        3.004768    1.136212   -0.067900
      3          6           0        1.899489    0.254631   -0.039030
      4          6           0        0.591119    0.801160   -0.104590
      5          6           0        0.437117    2.203200   -0.193210
      6          6           0        1.525807    3.027781   -0.219290
      7          1           0        3.681327    3.145802   -0.178630
      8          1           0        4.003849    0.726023   -0.019430
      9          1           0       -0.562393    2.611309   -0.242100
     10          1           0        1.391566    4.099800   -0.289430
     11          6           0       -0.544691   -0.067091   -0.081080
     12          6           0        2.026840   -1.156119    0.058920
     13          6           0       -0.363910   -1.421701   -0.004500
     14          1           0       -1.205759   -2.095992   -0.019640
     15          6           0        0.932071   -1.962970    0.074250
     16          1           0        1.052672   -3.035660    0.142840
     17          8           0       -1.734441    0.564318   -0.180290
     18         17           0        3.608451   -1.884648    0.163450
     19          6           0       -2.968781    0.051577    0.349960
     20          6           0       -3.584030   -0.992524   -0.551260
     21          1           0       -4.439020   -1.503184   -0.116070
     22          6           0       -2.798690   -0.466453    1.777210
     23          1           0       -3.783130   -0.636184    2.215350
     24          1           0       -2.243950   -1.400813    1.830980
     25          1           0       -2.280681    0.278377    2.383410
     26          6           0       -3.881202    1.277376    0.360700
     27          1           0       -3.924302    1.719656   -0.634790
     28          1           0       -4.893042    0.997185    0.656720
     29          1           0       -3.505962    2.021456    1.065640
     30          6           0       -3.208490   -1.273153   -1.787170
     31          1           0       -3.735619   -2.014874   -2.374620
     32          1           0       -2.362760   -0.780123   -2.252330
 ---------------------------------------------------------------------
 Rotational constants (GHZ):      0.7081607      0.2855055      0.2238461
 General basis read from cards:  (5D, 7F)
 There are   776 symmetry adapted cartesian basis functions of A   symmetry.
 There are   691 symmetry adapted basis functions of A   symmetry.
   691 basis functions,  1073 primitive gaussians,   776 cartesian basis functions
    65 alpha electrons       65 beta electrons
       nuclear repulsion energy      1277.5040392769 Hartrees.
 NAtoms=   32 NActive=   32 NUniq=   32 SFac= 1.00D+00 NAtFMM=   60 NAOKFM=F Big=F
 Integral buffers will be    131072 words long.
 Raffenetti 2 integral format.
 Two-electron integral symmetry is turned on.
 Nuclear repulsion after empirical dispersion term =     1277.4798781956 Hartrees.
 Force inversion solution in PCM.
 ------------------------------------------------------------------------------
 Polarizable Continuum Model (PCM)
 =================================
 Model                : PCM (using non-symmetric T matrix).
 Atomic radii         : SMD-Coulomb.
 Polarization charges : Total charges.
 Charge compensation  : None.
 Solution method      : Matrix inversion.
 Cavity type          : VdW (van der Waals Surface) (Alpha=1.000).
 Cavity algorithm     : GePol (No added spheres)
                        Default sphere list used, NSphG=   32.
                        Lebedev-Laikov grids with approx.  5.0 points / Ang**2.
                        Smoothing algorithm: Karplus/York (Gamma=1.0000).
                        Polarization charges: spherical gaussians, with
                                              point-specific exponents (IZeta= 3).
                        Self-potential: point-specific (ISelfS= 7).
                        Self-field    : sphere-specific E.n sum rule (ISelfD= 2).
 1st derivatives      : Analytical E(r).r(x)/FMM algorithm (CHGder, D1EAlg=3).
                        Cavity 1st derivative terms included.
 2nd derivatives      : Analytical E(r).r(xy)/FMM algorithm (CHGder, D2EAlg=3).
                        Cavity 2nd derivative terms included.
 Solvent              : Toluene, Eps=   2.374100 Eps(inf)=   2.238315
 ------------------------------------------------------------------------------
 ------------------------------------------------------------------------------
 Atomic radii for non-electrostatic terms: SMD-CDS.
 ------------------------------------------------------------------------------
 Nuclear repulsion after PCM non-electrostatic terms =     1277.4693830593 Hartrees.
 One-electron integrals computed using PRISM.
 NBasis=   691 RedAO= T EigKep=  1.42D-06  NBF=   691
 NBsUse=   686 1.00D-06 EigRej=  6.83D-07 NBFU=   686
 ExpMin= 3.17D-02 ExpMax= 6.95D+04 ExpMxC= 2.37D+03 IAcc=3 IRadAn=         5 AccDes= 0.00D+00
 Harris functional with IExCor= 4639 and IRadAn=       5 diagonalized for initial guess.
 HarFok:  IExCor= 4639 AccDes= 0.00D+00 IRadAn=         5 IDoV= 1 UseB2=F ITyADJ=14
 ICtDFT=  3500011 ScaDFX=  1.000000  1.000000  1.000000  1.000000
 FoFCou: FMM=F IPFlag=           0 FMFlag=      100000 FMFlg1=           0
         NFxFlg=           0 DoJE=T BraDBF=F KetDBF=T FulRan=T
         wScrn=  0.000000 ICntrl=     500 IOpCl=  0 I1Cent=   200000004 NGrid=           0
         NMat0=    1 NMatS0=      1 NMatT0=    0 NMatD0=    1 NMtDS0=    0 NMtDT0=    0
 Petite list used in FoFCou.
 Requested convergence on RMS density matrix=1.00D-08 within 128 cycles.
 Requested convergence on MAX density matrix=1.00D-06.
 Requested convergence on             energy=1.00D-06.
 No special actions if energy rises.
 Inv3:  Mode=1 IEnd=    17482188.
 Iteration    1 A*A^-1 deviation from unit magnitude is 4.66D-15 for   2412.
 Iteration    1 A*A^-1 deviation from orthogonality  is 1.90D-15 for   1554    460.
 Iteration    1 A^-1*A deviation from unit magnitude is 4.44D-15 for   2412.
 Iteration    1 A^-1*A deviation from orthogonality  is 2.73D-14 for   1496   1483.
 Error on total polarization charges =  0.02975
 SCF Done:  E(RwB97XD) =  -1116.08020943     A.U. after   15 cycles
            NFock= 15  Conv=0.54D-08     -V/T= 2.0035
 SMD-CDS (non-electrostatic) energy       (kcal/mol) =      -6.59
 (included in total energy above)
 DoSCS=F DFT=T ScalE2(SS,OS)=  1.000000  1.000000
 Range of M.O.s used for correlation:     1   686
 NBasis=   691 NAE=    65 NBE=    65 NFC=     0 NFV=     0
 NROrb=    686 NOA=    65 NOB=    65 NVA=   621 NVB=   621

 **** Warning!!: The largest alpha MO coefficient is  0.16264834D+03

 Symmetrizing basis deriv contribution to polar:
 IMax=3 JMax=2 DiffMx= 0.00D+00
 G2DrvN: will do    33 centers at a time, making    1 passes.
 Calling FoFCou, ICntrl=  3107 FMM=F I1Cent=   0 AccDes= 0.00D+00.
 NEqPCM:  Using equilibrium solvation (IEInf=0, Eps=   2.3741, EpsInf=   2.2383)
 G2PCM: DoFxE=T DoFxN=T DoGrad=T DoDP/DQ/DG/TGxP=FFFF NFrqRd=   0 IEInf=0 SqF1=F DoCFld=F IF1Alg=4.
 End of G2Drv F.D. properties file   721 does not exist.
 End of G2Drv F.D. properties file   722 does not exist.
 End of G2Drv F.D. properties file   788 does not exist.
          IDoAtm=11111111111111111111111111111111
 NEqPCM:  Using equilibrium solvation (IEInf=0, Eps=   2.3741, EpsInf=   2.2383)
          Differentiating once with respect to electric field.
                with respect to dipole field.
          Differentiating once with respect to nuclear coordinates.
          There are    99 degrees of freedom in the 1st order CPHF.  IDoFFX=6 NUNeed=     3.
     96 vectors produced by pass  0 Test12= 4.08D-14 1.01D-09 XBig12= 1.25D+02 5.50D+00.
 AX will form    96 AO Fock derivatives at one time.
     96 vectors produced by pass  1 Test12= 4.08D-14 1.01D-09 XBig12= 1.07D+01 3.70D-01.
     96 vectors produced by pass  2 Test12= 4.08D-14 1.01D-09 XBig12= 3.59D-01 1.27D-01.
     96 vectors produced by pass  3 Test12= 4.08D-14 1.01D-09 XBig12= 5.60D-03 9.88D-03.
     96 vectors produced by pass  4 Test12= 4.08D-14 1.01D-09 XBig12= 6.88D-05 8.22D-04.
     96 vectors produced by pass  5 Test12= 4.08D-14 1.01D-09 XBig12= 7.33D-07 6.96D-05.
     96 vectors produced by pass  6 Test12= 4.08D-14 1.01D-09 XBig12= 5.43D-09 4.80D-06.
     48 vectors produced by pass  7 Test12= 4.08D-14 1.01D-09 XBig12= 3.89D-11 3.68D-07.
     24 vectors produced by pass  8 Test12= 4.08D-14 1.01D-09 XBig12= 2.19D-12 1.25D-07.
     24 vectors produced by pass  9 Test12= 4.08D-14 1.01D-09 XBig12= 1.95D-13 5.98D-08.
     23 vectors produced by pass 10 Test12= 4.08D-14 1.01D-09 XBig12= 1.34D-14 9.91D-09.
     23 vectors produced by pass 11 Test12= 4.08D-14 1.01D-09 XBig12= 1.30D-13 3.33D-08.
     23 vectors produced by pass 12 Test12= 4.08D-14 1.01D-09 XBig12= 1.87D-13 3.09D-08.
     23 vectors produced by pass 13 Test12= 4.08D-14 1.01D-09 XBig12= 1.49D-13 2.97D-08.
     23 vectors produced by pass 14 Test12= 4.08D-14 1.01D-09 XBig12= 8.13D-14 1.92D-08.
     19 vectors produced by pass 15 Test12= 4.08D-14 1.01D-09 XBig12= 1.85D-14 8.11D-09.
     19 vectors produced by pass 16 Test12= 4.08D-14 1.01D-09 XBig12= 2.71D-14 9.94D-09.
     19 vectors produced by pass 17 Test12= 4.08D-14 1.01D-09 XBig12= 4.76D-14 1.54D-08.
     19 vectors produced by pass 18 Test12= 4.08D-14 1.01D-09 XBig12= 3.41D-14 1.43D-08.
     19 vectors produced by pass 19 Test12= 4.08D-14 1.01D-09 XBig12= 7.13D-14 1.74D-08.
     19 vectors produced by pass 20 Test12= 4.08D-14 1.01D-09 XBig12= 4.26D-14 1.46D-08.
     19 vectors produced by pass 21 Test12= 4.08D-14 1.01D-09 XBig12= 3.68D-14 1.15D-08.
     19 vectors produced by pass 22 Test12= 4.08D-14 1.01D-09 XBig12= 3.41D-14 1.06D-08.
     14 vectors produced by pass 23 Test12= 4.08D-14 1.01D-09 XBig12= 1.78D-14 7.98D-09.
     14 vectors produced by pass 24 Test12= 4.08D-14 1.01D-09 XBig12= 1.98D-14 7.93D-09.
     14 vectors produced by pass 25 Test12= 4.08D-14 1.01D-09 XBig12= 2.71D-14 1.09D-08.
     14 vectors produced by pass 26 Test12= 4.08D-14 1.01D-09 XBig12= 1.41D-14 7.43D-09.
     14 vectors produced by pass 27 Test12= 4.08D-14 1.01D-09 XBig12= 3.56D-14 1.33D-08.
     14 vectors produced by pass 28 Test12= 4.08D-14 1.01D-09 XBig12= 2.31D-14 8.31D-09.
     14 vectors produced by pass 29 Test12= 4.08D-14 1.01D-09 XBig12= 1.89D-14 9.99D-09.
     14 vectors produced by pass 30 Test12= 4.08D-14 1.01D-09 XBig12= 2.86D-14 8.72D-09.
     14 vectors produced by pass 31 Test12= 4.08D-14 1.01D-09 XBig12= 3.39D-14 8.21D-09.
     14 vectors produced by pass 32 Test12= 4.08D-14 1.01D-09 XBig12= 3.00D-14 8.79D-09.
     12 vectors produced by pass 33 Test12= 4.08D-14 1.01D-09 XBig12= 1.18D-14 6.33D-09.
     12 vectors produced by pass 34 Test12= 4.08D-14 1.01D-09 XBig12= 1.06D-14 5.65D-09.
     12 vectors produced by pass 35 Test12= 4.08D-14 1.01D-09 XBig12= 2.13D-14 7.81D-09.
     11 vectors produced by pass 36 Test12= 4.08D-14 1.01D-09 XBig12= 1.66D-14 7.98D-09.
     10 vectors produced by pass 37 Test12= 4.08D-14 1.01D-09 XBig12= 1.12D-14 6.71D-09.
     10 vectors produced by pass 38 Test12= 4.08D-14 1.01D-09 XBig12= 1.60D-14 6.29D-09.
      8 vectors produced by pass 39 Test12= 4.08D-14 1.01D-09 XBig12= 7.09D-15 4.36D-09.
      8 vectors produced by pass 40 Test12= 4.08D-14 1.01D-09 XBig12= 1.46D-14 5.96D-09.
      8 vectors produced by pass 41 Test12= 4.08D-14 1.01D-09 XBig12= 1.92D-14 7.80D-09.
      8 vectors produced by pass 42 Test12= 4.08D-14 1.01D-09 XBig12= 1.30D-14 6.94D-09.
      8 vectors produced by pass 43 Test12= 4.08D-14 1.01D-09 XBig12= 1.28D-14 5.80D-09.
      8 vectors produced by pass 44 Test12= 4.08D-14 1.01D-09 XBig12= 1.26D-14 7.57D-09.
      8 vectors produced by pass 45 Test12= 4.08D-14 1.01D-09 XBig12= 1.79D-14 9.48D-09.
      6 vectors produced by pass 46 Test12= 4.08D-14 1.01D-09 XBig12= 4.45D-15 3.68D-09.
      6 vectors produced by pass 47 Test12= 4.08D-14 1.01D-09 XBig12= 1.25D-14 5.28D-09.
      6 vectors produced by pass 48 Test12= 4.08D-14 1.01D-09 XBig12= 1.04D-14 5.06D-09.
      6 vectors produced by pass 49 Test12= 4.08D-14 1.01D-09 XBig12= 1.18D-14 5.65D-09.
      6 vectors produced by pass 50 Test12= 4.08D-14 1.01D-09 XBig12= 1.90D-14 7.00D-09.
      6 vectors produced by pass 51 Test12= 4.08D-14 1.01D-09 XBig12= 1.19D-14 6.03D-09.
      6 vectors produced by pass 52 Test12= 4.08D-14 1.01D-09 XBig12= 1.06D-14 5.89D-09.
      6 vectors produced by pass 53 Test12= 4.08D-14 1.01D-09 XBig12= 1.36D-14 5.79D-09.
      6 vectors produced by pass 54 Test12= 4.08D-14 1.01D-09 XBig12= 1.12D-14 6.07D-09.
      6 vectors produced by pass 55 Test12= 4.08D-14 1.01D-09 XBig12= 6.43D-15 3.90D-09.
      6 vectors produced by pass 56 Test12= 4.08D-14 1.01D-09 XBig12= 6.09D-15 4.29D-09.
      6 vectors produced by pass 57 Test12= 4.08D-14 1.01D-09 XBig12= 8.68D-15 5.12D-09.
      6 vectors produced by pass 58 Test12= 4.08D-14 1.01D-09 XBig12= 9.80D-15 4.83D-09.
      6 vectors produced by pass 59 Test12= 4.08D-14 1.01D-09 XBig12= 9.15D-15 4.57D-09.
      6 vectors produced by pass 60 Test12= 4.08D-14 1.01D-09 XBig12= 1.03D-14 5.71D-09.
      5 vectors produced by pass 61 Test12= 4.08D-14 1.01D-09 XBig12= 6.00D-15 4.00D-09.
      5 vectors produced by pass 62 Test12= 4.08D-14 1.01D-09 XBig12= 8.07D-15 3.98D-09.
      4 vectors produced by pass 63 Test12= 4.08D-14 1.01D-09 XBig12= 3.90D-15 3.19D-09.
      4 vectors produced by pass 64 Test12= 4.08D-14 1.01D-09 XBig12= 1.16D-14 6.02D-09.
      4 vectors produced by pass 65 Test12= 4.08D-14 1.01D-09 XBig12= 6.11D-15 4.25D-09.
      4 vectors produced by pass 66 Test12= 4.08D-14 1.01D-09 XBig12= 5.22D-15 4.32D-09.
      4 vectors produced by pass 67 Test12= 4.08D-14 1.01D-09 XBig12= 1.24D-14 5.82D-09.
      4 vectors produced by pass 68 Test12= 4.08D-14 1.01D-09 XBig12= 4.92D-15 3.27D-09.
      4 vectors produced by pass 69 Test12= 4.08D-14 1.01D-09 XBig12= 5.45D-15 4.08D-09.
      4 vectors produced by pass 70 Test12= 4.08D-14 1.01D-09 XBig12= 6.76D-15 3.75D-09.
      4 vectors produced by pass 71 Test12= 4.08D-14 1.01D-09 XBig12= 1.13D-14 5.68D-09.
      4 vectors produced by pass 72 Test12= 4.08D-14 1.01D-09 XBig12= 7.63D-15 4.43D-09.
      4 vectors produced by pass 73 Test12= 4.08D-14 1.01D-09 XBig12= 1.01D-14 4.42D-09.
      4 vectors produced by pass 74 Test12= 4.08D-14 1.01D-09 XBig12= 1.04D-14 4.58D-09.
      4 vectors produced by pass 75 Test12= 4.08D-14 1.01D-09 XBig12= 5.72D-15 3.56D-09.
      4 vectors produced by pass 76 Test12= 4.08D-14 1.01D-09 XBig12= 7.98D-15 4.42D-09.
      4 vectors produced by pass 77 Test12= 4.08D-14 1.01D-09 XBig12= 1.07D-14 5.04D-09.
      4 vectors produced by pass 78 Test12= 4.08D-14 1.01D-09 XBig12= 4.50D-15 2.99D-09.
      4 vectors produced by pass 79 Test12= 4.08D-14 1.01D-09 XBig12= 2.69D-15 2.34D-09.
      4 vectors produced by pass 80 Test12= 4.08D-14 1.01D-09 XBig12= 3.97D-15 3.16D-09.
      4 vectors produced by pass 81 Test12= 4.08D-14 1.01D-09 XBig12= 6.13D-15 4.56D-09.
      4 vectors produced by pass 82 Test12= 4.08D-14 1.01D-09 XBig12= 4.79D-15 3.55D-09.
      4 vectors produced by pass 83 Test12= 4.08D-14 1.01D-09 XBig12= 5.90D-15 3.75D-09.
      3 vectors produced by pass 84 Test12= 4.08D-14 1.01D-09 XBig12= 1.87D-15 2.19D-09.
      3 vectors produced by pass 85 Test12= 4.08D-14 1.01D-09 XBig12= 1.41D-15 1.82D-09.
      3 vectors produced by pass 86 Test12= 4.08D-14 1.01D-09 XBig12= 1.62D-15 1.97D-09.
      2 vectors produced by pass 87 Test12= 4.08D-14 1.01D-09 XBig12= 1.00D-15 1.63D-09.
 InvSVY:  IOpt=1 It=  1 EMax= 1.15D-14
 Solved reduced A of dimension  1493 with    99 vectors.
 Isotropic polarizability for W=    0.000000      231.94 Bohr**3.
 End of Minotr F.D. properties file   721 does not exist.
 End of Minotr F.D. properties file   722 does not exist.
 End of Minotr F.D. properties file   788 does not exist.

 **********************************************************************

            Population analysis using the SCF density.

 **********************************************************************

 Orbital symmetries:
       Occupied  (A) (A) (A) (A) (A) (A) (A) (A) (A) (A) (A) (A)
                 (A) (A) (A) (A) (A) (A) (A) (A) (A) (A) (A) (A)
                 (A) (A) (A) (A) (A) (A) (A) (A) (A) (A) (A) (A)
                 (A) (A) (A) (A) (A) (A) (A) (A) (A) (A) (A) (A)
                 (A) (A) (A) (A) (A) (A) (A) (A) (A) (A) (A) (A)
                 (A) (A) (A) (A) (A)
       Virtual   (A) (A) (A) (A) (A) (A) (A) (A) (A) (A) (A) (A)
                 (A) (A) (A) (A) (A) (A) (A) (A) (A) (A) (A) (A)
                 (A) (A) (A) (A) (A) (A) (A) (A) (A) (A) (A) (A)
                 (A) (A) (A) (A) (A) (A) (A) (A) (A) (A) (A) (A)
                 (A) (A) (A) (A) (A) (A) (A) (A) (A) (A) (A) (A)
                 (A) (A) (A) (A) (A) (A) (A) (A) (A) (A) (A) (A)
                 (A) (A) (A) (A) (A) (A) (A) (A) (A) (A) (A) (A)
                 (A) (A) (A) (A) (A) (A) (A) (A) (A) (A) (A) (A)
                 (A) (A) (A) (A) (A) (A) (A) (A) (A) (A) (A) (A)
                 (A) (A) (A) (A) (A) (A) (A) (A) (A) (A) (A) (A)
                 (A) (A) (A) (A) (A) (A) (A) (A) (A) (A) (A) (A)
                 (A) (A) (A) (A) (A) (A) (A) (A) (A) (A) (A) (A)
                 (A) (A) (A) (A) (A) (A) (A) (A) (A) (A) (A) (A)
                 (A) (A) (A) (A) (A) (A) (A) (A) (A) (A) (A) (A)
                 (A) (A) (A) (A) (A) (A) (A) (A) (A) (A) (A) (A)
                 (A) (A) (A) (A) (A) (A) (A) (A) (A) (A) (A) (A)
                 (A) (A) (A) (A) (A) (A) (A) (A) (A) (A) (A) (A)
                 (A) (A) (A) (A) (A) (A) (A) (A) (A) (A) (A) (A)
                 (A) (A) (A) (A) (A) (A) (A) (A) (A) (A) (A) (A)
                 (A) (A) (A) (A) (A) (A) (A) (A) (A) (A) (A) (A)
                 (A) (A) (A) (A) (A) (A) (A) (A) (A) (A) (A) (A)
                 (A) (A) (A) (A) (A) (A) (A) (A) (A) (A) (A) (A)
                 (A) (A) (A) (A) (A) (A) (A) (A) (A) (A) (A) (A)
                 (A) (A) (A) (A) (A) (A) (A) (A) (A) (A) (A) (A)
                 (A) (A) (A) (A) (A) (A) (A) (A) (A) (A) (A) (A)
                 (A) (A) (A) (A) (A) (A) (A) (A) (A) (A) (A) (A)
                 (A) (A) (A) (A) (A) (A) (A) (A) (A) (A) (A) (A)
                 (A) (A) (A) (A) (A) (A) (A) (A) (A) (A) (A) (A)
                 (A) (A) (A) (A) (A) (A) (A) (A) (A) (A) (A) (A)
                 (A) (A) (A) (A) (A) (A) (A) (A) (A) (A) (A) (A)
                 (A) (A) (A) (A) (A) (A) (A) (A) (A) (A) (A) (A)
                 (A) (A) (A) (A) (A) (A) (A) (A) (A) (A) (A) (A)
                 (A) (A) (A) (A) (A) (A) (A) (A) (A) (A) (A) (A)
                 (A) (A) (A) (A) (A) (A) (A) (A) (A) (A) (A) (A)
                 (A) (A) (A) (A) (A) (A) (A) (A) (A) (A) (A) (A)
                 (A) (A) (A) (A) (A) (A) (A) (A) (A) (A) (A) (A)
                 (A) (A) (A) (A) (A) (A) (A) (A) (A) (A) (A) (A)
                 (A) (A) (A) (A) (A) (A) (A) (A) (A) (A) (A) (A)
                 (A) (A) (A) (A) (A) (A) (A) (A) (A) (A) (A) (A)
                 (A) (A) (A) (A) (A) (A) (A) (A) (A) (A) (A) (A)
                 (A) (A) (A) (A) (A) (A) (A) (A) (A) (A) (A) (A)
                 (A) (A) (A) (A) (A) (A) (A) (A) (A) (A) (A) (A)
                 (A) (A) (A) (A) (A) (A) (A) (A) (A) (A) (A) (A)
                 (A) (A) (A) (A) (A) (A) (A) (A) (A) (A) (A) (A)
                 (A) (A) (A) (A) (A) (A) (A) (A) (A) (A) (A) (A)
                 (A) (A) (A) (A) (A) (A) (A) (A) (A) (A) (A) (A)
                 (A) (A) (A) (A) (A) (A) (A) (A) (A) (A) (A) (A)
                 (A) (A) (A) (A) (A) (A) (A) (A) (A) (A) (A) (A)
                 (A) (A) (A) (A) (A) (A) (A) (A) (A) (A) (A) (A)
                 (A) (A) (A) (A) (A) (A) (A) (A) (A) (A) (A) (A)
                 (A) (A) (A) (A) (A) (A) (A) (A) (A) (A) (A) (A)
                 (A) (A) (A) (A) (A) (A) (A) (A) (A)
 The electronic state is 1-A.
 Alpha  occ. eigenvalues -- -101.69540 -19.27911 -10.36115 -10.35402 -10.34210
 Alpha  occ. eigenvalues --  -10.30848 -10.30224 -10.29645 -10.28996 -10.28933
 Alpha  occ. eigenvalues --  -10.28849 -10.28821 -10.28733 -10.28586 -10.27788
 Alpha  occ. eigenvalues --  -10.27659 -10.27484  -9.58078  -7.32711  -7.31868
 Alpha  occ. eigenvalues --   -7.31847  -1.17392  -1.00052  -0.95751  -0.93377
 Alpha  occ. eigenvalues --   -0.91229  -0.86133  -0.85078  -0.84970  -0.81396
 Alpha  occ. eigenvalues --   -0.79134  -0.73520  -0.72394  -0.71128  -0.69080
 Alpha  occ. eigenvalues --   -0.64917  -0.61518  -0.60416  -0.59072  -0.57747
 Alpha  occ. eigenvalues --   -0.56468  -0.55331  -0.53308  -0.52381  -0.51906
 Alpha  occ. eigenvalues --   -0.51620  -0.50409  -0.50071  -0.48860  -0.48061
 Alpha  occ. eigenvalues --   -0.47196  -0.46609  -0.45919  -0.45260  -0.44270
 Alpha  occ. eigenvalues --   -0.43418  -0.42669  -0.42307  -0.39981  -0.39399
 Alpha  occ. eigenvalues --   -0.38287  -0.34841  -0.34693  -0.32775  -0.27903
 Alpha virt. eigenvalues --    0.01562   0.04010   0.04105   0.04889   0.05306
 Alpha virt. eigenvalues --    0.05911   0.06198   0.06451   0.06680   0.07594
 Alpha virt. eigenvalues --    0.08282   0.08325   0.08761   0.08931   0.09141
 Alpha virt. eigenvalues --    0.09760   0.10331   0.10764   0.10929   0.11118
 Alpha virt. eigenvalues --    0.11589   0.11888   0.12323   0.12569   0.13324
 Alpha virt. eigenvalues --    0.13746   0.13767   0.13953   0.14040   0.14443
 Alpha virt. eigenvalues --    0.15070   0.15437   0.15606   0.15933   0.16205
 Alpha virt. eigenvalues --    0.16733   0.16881   0.17098   0.17327   0.17549
 Alpha virt. eigenvalues --    0.17899   0.18206   0.18276   0.18632   0.18957
 Alpha virt. eigenvalues --    0.19238   0.19586   0.19721   0.20117   0.20372
 Alpha virt. eigenvalues --    0.20677   0.21110   0.21581   0.21795   0.21948
 Alpha virt. eigenvalues --    0.22325   0.22521   0.22861   0.23401   0.23446
 Alpha virt. eigenvalues --    0.24029   0.24368   0.24656   0.25154   0.25917
 Alpha virt. eigenvalues --    0.25944   0.26468   0.26518   0.27373   0.27509
 Alpha virt. eigenvalues --    0.28139   0.28617   0.29104   0.29204   0.29341
 Alpha virt. eigenvalues --    0.29879   0.30605   0.30892   0.31121   0.31572
 Alpha virt. eigenvalues --    0.32246   0.32644   0.33199   0.33282   0.33733
 Alpha virt. eigenvalues --    0.34176   0.34871   0.35578   0.36064   0.36215
 Alpha virt. eigenvalues --    0.36985   0.37395   0.37677   0.38618   0.40534
 Alpha virt. eigenvalues --    0.40760   0.41115   0.41418   0.42468   0.42731
 Alpha virt. eigenvalues --    0.43368   0.44176   0.44412   0.45373   0.45766
 Alpha virt. eigenvalues --    0.46212   0.46653   0.46942   0.47263   0.47565
 Alpha virt. eigenvalues --    0.47812   0.48368   0.48810   0.49171   0.49605
 Alpha virt. eigenvalues --    0.50016   0.50690   0.50838   0.51321   0.51435
 Alpha virt. eigenvalues --    0.51706   0.51903   0.52640   0.52986   0.53243
 Alpha virt. eigenvalues --    0.53630   0.54122   0.54374   0.55714   0.56003
 Alpha virt. eigenvalues --    0.56775   0.56878   0.57098   0.57773   0.58050
 Alpha virt. eigenvalues --    0.58476   0.58646   0.58793   0.59346   0.59994
 Alpha virt. eigenvalues --    0.60720   0.61064   0.61195   0.61544   0.62530
 Alpha virt. eigenvalues --    0.62749   0.64032   0.64390   0.64815   0.65248
 Alpha virt. eigenvalues --    0.65961   0.66268   0.66760   0.67468   0.68289
 Alpha virt. eigenvalues --    0.68578   0.68664   0.69564   0.69803   0.70431
 Alpha virt. eigenvalues --    0.71042   0.71539   0.72161   0.72679   0.73276
 Alpha virt. eigenvalues --    0.73607   0.74630   0.75381   0.76166   0.76880
 Alpha virt. eigenvalues --    0.77717   0.78786   0.80078   0.80869   0.81345
 Alpha virt. eigenvalues --    0.81573   0.82074   0.82512   0.82967   0.84724
 Alpha virt. eigenvalues --    0.84877   0.85298   0.86470   0.86976   0.88857
 Alpha virt. eigenvalues --    0.89198   0.90158   0.90814   0.91929   0.92419
 Alpha virt. eigenvalues --    0.93695   0.94607   0.95162   0.96511   0.97166
 Alpha virt. eigenvalues --    0.97970   0.99252   0.99914   1.01108   1.02741
 Alpha virt. eigenvalues --    1.03147   1.03581   1.05078   1.06063   1.06548
 Alpha virt. eigenvalues --    1.07082   1.09409   1.11039   1.12305   1.13034
 Alpha virt. eigenvalues --    1.14144   1.16021   1.16629   1.17711   1.18626
 Alpha virt. eigenvalues --    1.19435   1.19696   1.20466   1.20643   1.23721
 Alpha virt. eigenvalues --    1.24191   1.24762   1.25909   1.26448   1.26613
 Alpha virt. eigenvalues --    1.27923   1.28983   1.30210   1.30931   1.31282
 Alpha virt. eigenvalues --    1.31686   1.33897   1.34556   1.35059   1.35916
 Alpha virt. eigenvalues --    1.37462   1.38210   1.38517   1.39431   1.40577
 Alpha virt. eigenvalues --    1.41184   1.41899   1.42467   1.43663   1.45400
 Alpha virt. eigenvalues --    1.46338   1.47025   1.47238   1.49341   1.50545
 Alpha virt. eigenvalues --    1.51252   1.52596   1.53885   1.54908   1.56352
 Alpha virt. eigenvalues --    1.58305   1.61113   1.61296   1.61743   1.62967
 Alpha virt. eigenvalues --    1.63972   1.64652   1.65178   1.66188   1.66344
 Alpha virt. eigenvalues --    1.67418   1.68721   1.69207   1.70103   1.70716
 Alpha virt. eigenvalues --    1.71349   1.72301   1.73195   1.73754   1.74722
 Alpha virt. eigenvalues --    1.75334   1.76033   1.76431   1.78084   1.78931
 Alpha virt. eigenvalues --    1.79153   1.79892   1.80829   1.81460   1.81695
 Alpha virt. eigenvalues --    1.82226   1.82425   1.82821   1.83432   1.84185
 Alpha virt. eigenvalues --    1.85456   1.86687   1.88034   1.88456   1.89276
 Alpha virt. eigenvalues --    1.90419   1.93104   1.93350   1.94015   1.94534
 Alpha virt. eigenvalues --    1.96515   1.96709   1.97553   1.97865   1.99388
 Alpha virt. eigenvalues --    2.00378   2.01481   2.02425   2.05144   2.06424
 Alpha virt. eigenvalues --    2.06919   2.07191   2.08471   2.09953   2.10602
 Alpha virt. eigenvalues --    2.11351   2.12079   2.13128   2.14106   2.15808
 Alpha virt. eigenvalues --    2.17558   2.18112   2.18601   2.19878   2.20770
 Alpha virt. eigenvalues --    2.23485   2.24372   2.25065   2.25561   2.26922
 Alpha virt. eigenvalues --    2.27248   2.27743   2.28910   2.30300   2.30820
 Alpha virt. eigenvalues --    2.32057   2.32531   2.33844   2.34929   2.36110
 Alpha virt. eigenvalues --    2.37305   2.39821   2.40404   2.41960   2.42958
 Alpha virt. eigenvalues --    2.43593   2.43939   2.44714   2.45899   2.46763
 Alpha virt. eigenvalues --    2.47278   2.47655   2.48751   2.49222   2.50811
 Alpha virt. eigenvalues --    2.51237   2.52034   2.53064   2.54079   2.55679
 Alpha virt. eigenvalues --    2.56369   2.57027   2.57493   2.58741   2.61561
 Alpha virt. eigenvalues --    2.62607   2.63798   2.63827   2.64869   2.67121
 Alpha virt. eigenvalues --    2.67593   2.68488   2.69596   2.70178   2.70574
 Alpha virt. eigenvalues --    2.71276   2.72287   2.72970   2.73669   2.73812
 Alpha virt. eigenvalues --    2.74934   2.76851   2.77126   2.77966   2.79223
 Alpha virt. eigenvalues --    2.80079   2.81443   2.82136   2.82691   2.83550
 Alpha virt. eigenvalues --    2.84282   2.86520   2.87169   2.88208   2.88773
 Alpha virt. eigenvalues --    2.89530   2.90373   2.90601   2.91944   2.92115
 Alpha virt. eigenvalues --    2.92371   2.94849   2.95272   2.95919   2.97083
 Alpha virt. eigenvalues --    2.99337   3.00018   3.01099   3.02283   3.02363
 Alpha virt. eigenvalues --    3.03638   3.03985   3.04695   3.05478   3.05852
 Alpha virt. eigenvalues --    3.06993   3.08434   3.08868   3.09576   3.09898
 Alpha virt. eigenvalues --    3.11114   3.12114   3.13058   3.13598   3.14073
 Alpha virt. eigenvalues --    3.14860   3.16915   3.17866   3.18804   3.19415
 Alpha virt. eigenvalues --    3.21333   3.22383   3.22721   3.24377   3.25022
 Alpha virt. eigenvalues --    3.26038   3.26609   3.27187   3.27716   3.28399
 Alpha virt. eigenvalues --    3.29658   3.30455   3.30645   3.31587   3.32272
 Alpha virt. eigenvalues --    3.33232   3.34790   3.35508   3.35659   3.36355
 Alpha virt. eigenvalues --    3.37509   3.38154   3.38879   3.39465   3.41245
 Alpha virt. eigenvalues --    3.41794   3.42013   3.42632   3.43085   3.43782
 Alpha virt. eigenvalues --    3.44218   3.45558   3.46505   3.46698   3.47023
 Alpha virt. eigenvalues --    3.47688   3.48992   3.49495   3.50238   3.51108
 Alpha virt. eigenvalues --    3.51466   3.52691   3.53245   3.55917   3.56958
 Alpha virt. eigenvalues --    3.57078   3.57661   3.58496   3.59196   3.60579
 Alpha virt. eigenvalues --    3.60922   3.61601   3.62371   3.63429   3.64795
 Alpha virt. eigenvalues --    3.65446   3.66186   3.67140   3.68277   3.69445
 Alpha virt. eigenvalues --    3.70158   3.72711   3.74230   3.74805   3.75551
 Alpha virt. eigenvalues --    3.75968   3.76153   3.77800   3.79987   3.81653
 Alpha virt. eigenvalues --    3.84098   3.84574   3.86228   3.87463   3.90364
 Alpha virt. eigenvalues --    3.93210   3.95158   3.96534   3.98864   4.01134
 Alpha virt. eigenvalues --    4.02937   4.04484   4.06362   4.08065   4.10112
 Alpha virt. eigenvalues --    4.11045   4.12155   4.13122   4.14134   4.14874
 Alpha virt. eigenvalues --    4.16787   4.17612   4.18944   4.19841   4.20193
 Alpha virt. eigenvalues --    4.23058   4.23640   4.24992   4.26919   4.27157
 Alpha virt. eigenvalues --    4.28590   4.29101   4.31061   4.32101   4.33314
 Alpha virt. eigenvalues --    4.35696   4.36297   4.37260   4.38278   4.39999
 Alpha virt. eigenvalues --    4.42151   4.43477   4.44148   4.47453   4.48316
 Alpha virt. eigenvalues --    4.49537   4.50932   4.53694   4.55943   4.56531
 Alpha virt. eigenvalues --    4.58442   4.60290   4.61007   4.61964   4.63883
 Alpha virt. eigenvalues --    4.67842   4.69488   4.73365   4.75718   4.80586
 Alpha virt. eigenvalues --    4.83123   4.83877   4.84873   4.86900   4.87734
 Alpha virt. eigenvalues --    4.89960   4.90708   4.92768   4.93616   4.95433
 Alpha virt. eigenvalues --    5.03688   5.04703   5.08013   5.08085   5.13087
 Alpha virt. eigenvalues --    5.17422   5.19831   5.24036   5.26039   5.29338
 Alpha virt. eigenvalues --    5.33275   5.35527   5.37208   5.45067   5.49549
 Alpha virt. eigenvalues --    5.51318   5.55809   5.72957   5.73625   5.83834
 Alpha virt. eigenvalues --    5.89722   6.02255   6.19330   6.19945   6.52534
 Alpha virt. eigenvalues --    6.73876   6.85994   7.00213   7.16902   7.47730
 Alpha virt. eigenvalues --    7.66729  10.93755  11.03418  11.52564  22.34810
 Alpha virt. eigenvalues --   22.46531  22.57032  22.58884  22.74643  22.81657
 Alpha virt. eigenvalues --   22.85329  22.88159  22.91756  22.94873  23.01244
 Alpha virt. eigenvalues --   23.11392  23.14905  23.33072  23.84818  26.44850
 Alpha virt. eigenvalues --   44.83579
          Condensed to atoms (all electrons):
               1          2          3          4          5          6
     1  C    5.032609   0.392599  -0.061892  -0.001780  -0.139925   0.439654
     2  C    0.392599   5.516954   0.177343  -0.048480  -0.042545  -0.103456
     3  C   -0.061892   0.177343   5.798789   0.095321  -0.082793   0.051593
     4  C   -0.001780  -0.048480   0.095321   5.635081   0.360911  -0.144226
     5  C   -0.139925  -0.042545  -0.082793   0.360911   5.594238   0.360005
     6  C    0.439654  -0.103456   0.051593  -0.144226   0.360005   5.049329
     7  H    0.403571  -0.054741   0.015717  -0.015398   0.040979  -0.022035
     8  H   -0.037757   0.456373  -0.039606   0.006305  -0.012709   0.013428
     9  H    0.006006  -0.016566   0.034586  -0.014401   0.405737  -0.030492
    10  H   -0.021282   0.036946  -0.014237   0.010576  -0.066938   0.418933
    11  C    0.053469  -0.029583  -0.097922   0.182289  -0.166406  -0.018314
    12  C   -0.015066  -0.176192   0.370947   0.032088  -0.048333   0.056519
    13  C    0.025861   0.017354  -0.302834   0.108766   0.059846  -0.070724
    14  H    0.000488  -0.001362  -0.006670   0.002338  -0.004757   0.000494
    15  C   -0.015735   0.047264   0.125524  -0.231422   0.035257   0.003885
    16  H    0.001251  -0.005566   0.033255  -0.007691  -0.003573   0.000782
    17  O    0.003501  -0.006394   0.020742  -0.065859   0.016049   0.001983
    18  Cl  -0.026502   0.038272  -0.156184   0.055043   0.016346  -0.005970
    19  C   -0.002220  -0.009558  -0.022066   0.033223  -0.077484   0.021495
    20  C   -0.000446   0.005058  -0.001375  -0.001050   0.036804   0.000346
    21  H   -0.000003  -0.000024  -0.000421   0.001872   0.000147  -0.000002
    22  C    0.000622  -0.007370   0.042812   0.037221  -0.025663  -0.000091
    23  H   -0.000028   0.000104   0.000335   0.000708  -0.000272  -0.000524
    24  H   -0.000003   0.000219  -0.000237  -0.010391   0.002530   0.000284
    25  H   -0.000222  -0.000825   0.000707   0.009081  -0.002372   0.001342
    26  C    0.002056   0.004533  -0.007736  -0.043884   0.001570  -0.005573
    27  H    0.000048  -0.000082   0.000614   0.002073  -0.005570   0.000051
    28  H   -0.000037   0.000063  -0.000192  -0.002665   0.001720  -0.000093
    29  H   -0.000119   0.000084   0.000013   0.001349   0.001732  -0.001847
    30  C   -0.000635  -0.001304   0.002868  -0.005005  -0.000511   0.001611
    31  H   -0.000011   0.000023  -0.000130   0.000784  -0.000596  -0.000008
    32  H   -0.000145   0.000493   0.001268   0.001272  -0.002426  -0.000767
               7          8          9         10         11         12
     1  C    0.403571  -0.037757   0.006006  -0.021282   0.053469  -0.015066
     2  C   -0.054741   0.456373  -0.016566   0.036946  -0.029583  -0.176192
     3  C    0.015717  -0.039606   0.034586  -0.014237  -0.097922   0.370947
     4  C   -0.015398   0.006305  -0.014401   0.010576   0.182289   0.032088
     5  C    0.040979  -0.012709   0.405737  -0.066938  -0.166406  -0.048333
     6  C   -0.022035   0.013428  -0.030492   0.418933  -0.018314   0.056519
     7  H    0.489532  -0.005819   0.000007  -0.005414  -0.003793  -0.002477
     8  H   -0.005819   0.486556  -0.000012  -0.000004  -0.007564  -0.015207
     9  H    0.000007  -0.000012   0.463695  -0.005436  -0.030591   0.003750
    10  H   -0.005414  -0.000004  -0.005436   0.491266  -0.001623  -0.001136
    11  C   -0.003793  -0.007564  -0.030591  -0.001623   6.115596  -0.389780
    12  C   -0.002477  -0.015207   0.003750  -0.001136  -0.389780   5.668981
    13  C   -0.000977  -0.008536  -0.003969   0.000264   0.491357  -0.259191
    14  H    0.000000  -0.000001  -0.000010   0.000000  -0.081540   0.006746
    15  C    0.000030  -0.007263   0.000661  -0.000577  -0.083482   0.414080
    16  H    0.000000   0.000027  -0.000002   0.000000   0.022088  -0.046538
    17  O    0.000032  -0.000120  -0.000128   0.000276   0.131663  -0.004964
    18  Cl   0.000285   0.000010   0.000065   0.000001  -0.027124   0.245756
    19  C   -0.000117  -0.000291  -0.006107  -0.000651  -0.349220   0.063223
    20  C   -0.000002  -0.000022   0.001678   0.000163   0.096769  -0.019972
    21  H    0.000000   0.000000   0.000000   0.000000  -0.009806  -0.000029
    22  C    0.000013   0.000147   0.002362   0.000223   0.018746   0.005499
    23  H    0.000000   0.000000   0.000001   0.000000   0.028900  -0.001968
    24  H    0.000000   0.000000  -0.000001   0.000000  -0.023833   0.002394
    25  H    0.000000   0.000000   0.000036   0.000001  -0.011025   0.002121
    26  C    0.000018  -0.000013  -0.001181  -0.000133   0.046640  -0.006068
    27  H    0.000000   0.000000  -0.000394   0.000000   0.001360   0.000155
    28  H    0.000000   0.000000   0.000010   0.000000   0.013034  -0.000385
    29  H    0.000000   0.000000  -0.000146   0.000003  -0.003823  -0.000437
    30  C   -0.000004   0.000040  -0.000542  -0.000052   0.002669   0.012514
    31  H    0.000000   0.000000   0.000001   0.000000  -0.000665   0.000067
    32  H    0.000000   0.000000  -0.000040   0.000000   0.008550  -0.001447
              13         14         15         16         17         18
     1  C    0.025861   0.000488  -0.015735   0.001251   0.003501  -0.026502
     2  C    0.017354  -0.001362   0.047264  -0.005566  -0.006394   0.038272
     3  C   -0.302834  -0.006670   0.125524   0.033255   0.020742  -0.156184
     4  C    0.108766   0.002338  -0.231422  -0.007691  -0.065859   0.055043
     5  C    0.059846  -0.004757   0.035257  -0.003573   0.016049   0.016346
     6  C   -0.070724   0.000494   0.003885   0.000782   0.001983  -0.005970
     7  H   -0.000977   0.000000   0.000030   0.000000   0.000032   0.000285
     8  H   -0.008536  -0.000001  -0.007263   0.000027  -0.000120   0.000010
     9  H   -0.003969  -0.000010   0.000661  -0.000002  -0.000128   0.000065
    10  H    0.000264   0.000000  -0.000577   0.000000   0.000276   0.000001
    11  C    0.491357  -0.081540  -0.083482   0.022088   0.131663  -0.027124
    12  C   -0.259191   0.006746   0.414080  -0.046538  -0.004964   0.245756
    13  C    5.872013   0.464513   0.117637  -0.062514  -0.096437   0.062719
    14  H    0.464513   0.445356  -0.011575  -0.004252  -0.002052  -0.000292
    15  C    0.117637  -0.011575   5.461224   0.428921  -0.007314  -0.088462
    16  H   -0.062514  -0.004252   0.428921   0.480880  -0.000617  -0.010126
    17  O   -0.096437  -0.002052  -0.007314  -0.000617   8.499364  -0.000087
    18  Cl   0.062719  -0.000292  -0.088462  -0.010126  -0.000087  17.081149
    19  C    0.050454   0.030440  -0.058773  -0.003339   0.005952  -0.000881
    20  C   -0.050006  -0.027719   0.043711  -0.000087  -0.013680   0.000400
    21  H   -0.002256   0.000080  -0.001350  -0.000001   0.004211   0.000000
    22  C   -0.098703  -0.016904  -0.013802   0.001922  -0.033594  -0.000553
    23  H    0.000477   0.000558  -0.001298  -0.000002   0.009579   0.000001
    24  H    0.017130  -0.004976   0.004422   0.000088   0.007708  -0.000033
    25  H   -0.020625  -0.000029   0.000885   0.000002  -0.021629   0.000001
    26  C    0.032608   0.007159   0.008266  -0.000116  -0.008680   0.000017
    27  H   -0.003621   0.000002  -0.000659   0.000000  -0.009122   0.000000
    28  H    0.001463   0.000044   0.000602   0.000000   0.015814   0.000000
    29  H   -0.002097   0.000006   0.000174   0.000000  -0.009627  -0.000001
    30  C   -0.038418  -0.010972  -0.006831   0.000633  -0.009399  -0.000386
    31  H   -0.001630   0.000172   0.000480  -0.000002   0.002142  -0.000001
    32  H   -0.000875  -0.000689  -0.002068  -0.000008  -0.006039   0.000003
              19         20         21         22         23         24
     1  C   -0.002220  -0.000446  -0.000003   0.000622  -0.000028  -0.000003
     2  C   -0.009558   0.005058  -0.000024  -0.007370   0.000104   0.000219
     3  C   -0.022066  -0.001375  -0.000421   0.042812   0.000335  -0.000237
     4  C    0.033223  -0.001050   0.001872   0.037221   0.000708  -0.010391
     5  C   -0.077484   0.036804   0.000147  -0.025663  -0.000272   0.002530
     6  C    0.021495   0.000346  -0.000002  -0.000091  -0.000524   0.000284
     7  H   -0.000117  -0.000002   0.000000   0.000013   0.000000   0.000000
     8  H   -0.000291  -0.000022   0.000000   0.000147   0.000000   0.000000
     9  H   -0.006107   0.001678   0.000000   0.002362   0.000001  -0.000001
    10  H   -0.000651   0.000163   0.000000   0.000223   0.000000   0.000000
    11  C   -0.349220   0.096769  -0.009806   0.018746   0.028900  -0.023833
    12  C    0.063223  -0.019972  -0.000029   0.005499  -0.001968   0.002394
    13  C    0.050454  -0.050006  -0.002256  -0.098703   0.000477   0.017130
    14  H    0.030440  -0.027719   0.000080  -0.016904   0.000558  -0.004976
    15  C   -0.058773   0.043711  -0.001350  -0.013802  -0.001298   0.004422
    16  H   -0.003339  -0.000087  -0.000001   0.001922  -0.000002   0.000088
    17  O    0.005952  -0.013680   0.004211  -0.033594   0.009579   0.007708
    18  Cl  -0.000881   0.000400   0.000000  -0.000553   0.000001  -0.000033
    19  C    6.994211  -0.442750  -0.000286  -0.022833  -0.105546  -0.022031
    20  C   -0.442750   6.098203   0.356931  -0.041711   0.000508   0.013660
    21  H   -0.000286   0.356931   0.475643   0.005698   0.000877  -0.000209
    22  C   -0.022833  -0.041711   0.005698   5.500639   0.445717   0.414424
    23  H   -0.105546   0.000508   0.000877   0.445717   0.501123  -0.019423
    24  H   -0.022031   0.013660  -0.000209   0.414424  -0.019423   0.500751
    25  H   -0.049401   0.005554   0.000030   0.462808  -0.016275  -0.016170
    26  C   -0.023998  -0.151848  -0.012715  -0.176673  -0.002479  -0.026869
    27  H   -0.028052  -0.073916   0.001068   0.008691   0.000139  -0.000349
    28  H   -0.087725   0.014607  -0.001401  -0.028680   0.000678   0.000031
    29  H   -0.084498   0.046869  -0.000035   0.006685   0.000420  -0.000047
    30  C    0.041065   0.321163   0.018414  -0.044545  -0.003094  -0.005249
    31  H    0.004956  -0.050336  -0.004276  -0.000376  -0.000008   0.000016
    32  H    0.000990  -0.069444   0.002462   0.003650  -0.000036   0.000038
              25         26         27         28         29         30
     1  C   -0.000222   0.002056   0.000048  -0.000037  -0.000119  -0.000635
     2  C   -0.000825   0.004533  -0.000082   0.000063   0.000084  -0.001304
     3  C    0.000707  -0.007736   0.000614  -0.000192   0.000013   0.002868
     4  C    0.009081  -0.043884   0.002073  -0.002665   0.001349  -0.005005
     5  C   -0.002372   0.001570  -0.005570   0.001720   0.001732  -0.000511
     6  C    0.001342  -0.005573   0.000051  -0.000093  -0.001847   0.001611
     7  H    0.000000   0.000018   0.000000   0.000000   0.000000  -0.000004
     8  H    0.000000  -0.000013   0.000000   0.000000   0.000000   0.000040
     9  H    0.000036  -0.001181  -0.000394   0.000010  -0.000146  -0.000542
    10  H    0.000001  -0.000133   0.000000   0.000000   0.000003  -0.000052
    11  C   -0.011025   0.046640   0.001360   0.013034  -0.003823   0.002669
    12  C    0.002121  -0.006068   0.000155  -0.000385  -0.000437   0.012514
    13  C   -0.020625   0.032608  -0.003621   0.001463  -0.002097  -0.038418
    14  H   -0.000029   0.007159   0.000002   0.000044   0.000006  -0.010972
    15  C    0.000885   0.008266  -0.000659   0.000602   0.000174  -0.006831
    16  H    0.000002  -0.000116   0.000000   0.000000   0.000000   0.000633
    17  O   -0.021629  -0.008680  -0.009122   0.015814  -0.009627  -0.009399
    18  Cl   0.000001   0.000017   0.000000   0.000000  -0.000001  -0.000386
    19  C   -0.049401  -0.023998  -0.028052  -0.087725  -0.084498   0.041065
    20  C    0.005554  -0.151848  -0.073916   0.014607   0.046869   0.321163
    21  H    0.000030  -0.012715   0.001068  -0.001401  -0.000035   0.018414
    22  C    0.462808  -0.176673   0.008691  -0.028680   0.006685  -0.044545
    23  H   -0.016275  -0.002479   0.000139   0.000678   0.000420  -0.003094
    24  H   -0.016170  -0.026869  -0.000349   0.000031  -0.000047  -0.005249
    25  H    0.488520  -0.004738  -0.000091   0.000845   0.001656   0.000489
    26  C   -0.004738   5.495361   0.467927   0.452241   0.421845   0.049097
    27  H   -0.000091   0.467927   0.495605  -0.017854  -0.018785   0.017528
    28  H    0.000845   0.452241  -0.017854   0.502719  -0.020642  -0.002344
    29  H    0.001656   0.421845  -0.018785  -0.020642   0.519073  -0.005354
    30  C    0.000489   0.049097   0.017528  -0.002344  -0.005354   5.138743
    31  H    0.000004   0.005696  -0.000093   0.000016   0.000011   0.422538
    32  H    0.000035  -0.001110   0.000273  -0.000039   0.000042   0.438499
              31         32
     1  C   -0.000011  -0.000145
     2  C    0.000023   0.000493
     3  C   -0.000130   0.001268
     4  C    0.000784   0.001272
     5  C   -0.000596  -0.002426
     6  C   -0.000008  -0.000767
     7  H    0.000000   0.000000
     8  H    0.000000   0.000000
     9  H    0.000001  -0.000040
    10  H    0.000000   0.000000
    11  C   -0.000665   0.008550
    12  C    0.000067  -0.001447
    13  C   -0.001630  -0.000875
    14  H    0.000172  -0.000689
    15  C    0.000480  -0.002068
    16  H   -0.000002  -0.000008
    17  O    0.002142  -0.006039
    18  Cl  -0.000001   0.000003
    19  C    0.004956   0.000990
    20  C   -0.050336  -0.069444
    21  H   -0.004276   0.002462
    22  C   -0.000376   0.003650
    23  H   -0.000008  -0.000036
    24  H    0.000016   0.000038
    25  H    0.000004   0.000035
    26  C    0.005696  -0.001110
    27  H   -0.000093   0.000273
    28  H    0.000016  -0.000039
    29  H    0.000011   0.000042
    30  C    0.422538   0.438499
    31  H    0.471830  -0.015709
    32  H   -0.015709   0.465269
 Mulliken charges:
               1
     1  C   -0.037927
     2  C   -0.189634
     3  C    0.021864
     4  C    0.015950
     5  C   -0.250996
     6  C   -0.017617
     7  H    0.160592
     8  H    0.172038
     9  H    0.191424
    10  H    0.158828
    11  C    0.122963
    12  C    0.104350
    13  C   -0.299049
    14  H    0.215404
    15  C   -0.162414
    16  H    0.174585
    17  O   -0.423272
    18  Cl  -0.183468
    19  C    0.151820
    20  C   -0.098059
    21  H    0.165384
    22  C   -0.446382
    23  H    0.160828
    24  H    0.166125
    25  H    0.169287
    26  C   -0.521219
    27  H    0.163054
    28  H    0.158171
    29  H    0.147497
    30  C   -0.333227
    31  H    0.165103
    32  H    0.177997
 Sum of Mulliken charges =   0.00000
 Mulliken charges with hydrogens summed into heavy atoms:
               1
     1  C    0.122665
     2  C   -0.017596
     3  C    0.021864
     4  C    0.015950
     5  C   -0.059572
     6  C    0.141211
    11  C    0.122963
    12  C    0.104350
    13  C   -0.083646
    15  C    0.012172
    17  O   -0.423272
    18  Cl  -0.183468
    19  C    0.151820
    20  C    0.067325
    22  C    0.049858
    26  C   -0.052496
    30  C    0.009873
 APT charges:
               1
     1  C   -0.005582
     2  C   -0.093549
     3  C    0.009248
     4  C   -0.075929
     5  C   -0.062460
     6  C   -0.057920
     7  H    0.044824
     8  H    0.072267
     9  H    0.078143
    10  H    0.042676
    11  C    0.776348
    12  C    0.298417
    13  C   -0.248331
    14  H    0.078598
    15  C    0.015426
    16  H    0.070078
    17  O   -1.202091
    18  Cl  -0.377877
    19  C    0.762544
    20  C   -0.041702
    21  H    0.025539
    22  C   -0.079616
    23  H    0.009516
    24  H    0.020498
    25  H    0.003566
    26  C   -0.023305
    27  H    0.011723
    28  H   -0.000768
    29  H   -0.005756
    30  C   -0.154728
    31  H    0.045182
    32  H    0.065020
 Sum of APT charges =   0.00000
 APT charges with hydrogens summed into heavy atoms:
               1
     1  C    0.039242
     2  C   -0.021282
     3  C    0.009248
     4  C   -0.075929
     5  C    0.015683
     6  C   -0.015244
    11  C    0.776348
    12  C    0.298417
    13  C   -0.169732
    15  C    0.085504
    17  O   -1.202091
    18  Cl  -0.377877
    19  C    0.762544
    20  C   -0.016163
    22  C   -0.046036
    26  C   -0.018106
    30  C   -0.044526
 Electronic spatial extent (au):  <R**2>=           4868.6376
 Charge=              0.0000 electrons
 Dipole moment (field-independent basis, Debye):
    X=             -3.5971    Y=              0.5457    Z=              0.8166  Tot=              3.7287
 Quadrupole moment (field-independent basis, Debye-Ang):
   XX=           -100.5603   YY=           -100.1911   ZZ=           -109.7155
   XY=              8.0941   XZ=             -3.6709   YZ=              0.3168
 Traceless Quadrupole moment (field-independent basis, Debye-Ang):
   XX=              2.9287   YY=              3.2979   ZZ=             -6.2265
   XY=              8.0941   XZ=             -3.6709   YZ=              0.3168
 Octapole moment (field-independent basis, Debye-Ang**2):
  XXX=            -36.0511  YYY=             11.5867  ZZZ=              0.5453  XYY=              0.0274
  XXY=             12.6701  XXZ=             12.6468  XZZ=            -12.4420  YZZ=             -7.5797
  YYZ=             -2.1727  XYZ=             -3.7415
 Hexadecapole moment (field-independent basis, Debye-Ang**3):
 XXXX=          -4249.4264 YYYY=          -1588.9349 ZZZZ=           -460.9721 XXXY=             94.1431
 XXXZ=            -63.1391 YYYX=             21.8772 YYYZ=            -12.6803 ZZZX=              5.2541
 ZZZY=             12.4286 XXYY=           -988.9607 XXZZ=           -834.2401 YYZZ=           -381.5816
 XXYZ=              8.3359 YYXZ=              3.8226 ZZXY=             -8.3376
 N-N= 1.277469383059D+03 E-N=-5.173637463355D+03  KE= 1.112178938953D+03
  Exact polarizability: 279.116   7.337 260.816  -2.136  -0.162 155.903
 Approx polarizability: 247.123   3.810 249.801  -2.274  -2.152 162.508
 D2PCM: PCM CHGder 2nd derivatives, FixD1E=F FixD2E=F DoIter=F DoCFld=F I1PDM=0
 Calling FoFJK, ICntrl=    100127 FMM=F ISym2X=0 I1Cent= 0 IOpClX= 0 NMat=1 NMatS=1 NMatT=0.
 Full mass-weighted force constant matrix:
 Low frequencies ---  -10.2404   -0.0038   -0.0029   -0.0028    5.0824   15.6510
 Low frequencies ---   34.6720   56.8399  100.4834
 Diagonal vibrational polarizability:
       36.3455335       7.2006033      22.6436874
 Harmonic frequencies (cm**-1), IR intensities (KM/Mole), Raman scattering
 activities (A**4/AMU), depolarization ratios for plane and unpolarized
 incident light, reduced masses (AMU), force constants (mDyne/A),
 and normal coordinates:
                      1                      2                      3
                      A                      A                      A
 Frequencies --     34.3374                56.7427               100.4587
 Red. masses --      4.3020                 4.3125                 3.0325
 Frc consts  --      0.0030                 0.0082                 0.0180
 IR Inten    --      0.8476                 0.1514                 0.3584
  Atom  AN      X      Y      Z        X      Y      Z        X      Y      Z
     1   6    -0.01   0.01   0.15     0.01   0.00   0.08    -0.06   0.01  -0.02
     2   6    -0.01   0.01   0.11     0.00   0.00   0.02    -0.02   0.02  -0.01
     3   6     0.00   0.00   0.01     0.00   0.00   0.01     0.00  -0.01   0.02
     4   6     0.00  -0.01  -0.05     0.00   0.00   0.05    -0.01  -0.05   0.03
     5   6    -0.01   0.00  -0.01     0.00   0.01   0.10    -0.05  -0.05   0.02
     6   6    -0.02   0.01   0.09     0.01   0.01   0.13    -0.07  -0.02   0.00
     7   1    -0.02   0.02   0.22     0.01   0.00   0.09    -0.08   0.03  -0.04
     8   1    -0.01   0.02   0.16     0.00  -0.01  -0.02    -0.01   0.04  -0.03
     9   1    -0.01  -0.01  -0.06     0.00   0.01   0.14    -0.06  -0.08   0.04
    10   1    -0.02   0.01   0.12     0.01   0.01   0.18    -0.10  -0.03   0.00
    11   6     0.01  -0.02  -0.14     0.00   0.01   0.05     0.01  -0.07   0.03
    12   6     0.00   0.00  -0.03     0.00   0.00  -0.02     0.04  -0.01   0.03
    13   6     0.01  -0.02  -0.17    -0.01   0.01   0.10     0.03  -0.07   0.06
    14   1     0.01  -0.02  -0.22    -0.01   0.01   0.14     0.04  -0.08   0.06
    15   6     0.01  -0.01  -0.11    -0.01   0.00   0.05     0.05  -0.03   0.06
    16   1     0.02  -0.01  -0.13    -0.01   0.00   0.05     0.08  -0.03   0.07
    17   8     0.00  -0.04  -0.18     0.00   0.01  -0.01     0.02  -0.07  -0.04
    18  17     0.00   0.01   0.05     0.00  -0.02  -0.16     0.06   0.04  -0.03
    19   6     0.04   0.03  -0.02    -0.02   0.04  -0.04    -0.02   0.04  -0.03
    20   6    -0.08  -0.02   0.12     0.04  -0.06   0.04    -0.14   0.15  -0.06
    21   1    -0.06   0.05   0.23     0.01  -0.01   0.05    -0.34   0.39  -0.16
    22   6     0.17   0.10  -0.01    -0.08   0.19   0.02    -0.07  -0.05  -0.06
    23   1     0.22   0.14   0.10    -0.10   0.17  -0.02    -0.09   0.03  -0.07
    24   1     0.16   0.09  -0.02    -0.03   0.23   0.14    -0.18  -0.12  -0.12
    25   1     0.25   0.12  -0.10    -0.16   0.29  -0.02     0.01  -0.15  -0.01
    26   6     0.06   0.04   0.00    -0.04   0.03  -0.22     0.13   0.16   0.04
    27   1    -0.02  -0.01  -0.02     0.01  -0.07  -0.26     0.18   0.22   0.07
    28   1     0.09   0.08   0.11    -0.05   0.04  -0.24     0.09   0.28   0.03
    29   1     0.14   0.08  -0.07    -0.09   0.10  -0.27     0.23   0.07   0.08
    30   6    -0.20  -0.13   0.11     0.11  -0.21   0.09    -0.01  -0.05   0.03
    31   1    -0.28  -0.16   0.21     0.14  -0.28   0.15    -0.10   0.04   0.00
    32   1    -0.22  -0.20   0.00     0.13  -0.26   0.08     0.19  -0.29   0.12
                      4                      5                      6
                      A                      A                      A
 Frequencies --    113.5118               123.9275               158.2637
 Red. masses --      3.1331                 4.2316                 4.6255
 Frc consts  --      0.0238                 0.0383                 0.0683
 IR Inten    --      0.1110                 0.0330                 0.9870
  Atom  AN      X      Y      Z        X      Y      Z        X      Y      Z
     1   6    -0.04   0.00   0.00     0.00   0.01   0.16     0.08   0.00  -0.06
     2   6    -0.01   0.01   0.00    -0.01   0.02   0.29     0.03   0.00  -0.05
     3   6     0.01  -0.02   0.02    -0.01   0.01   0.11     0.01   0.04   0.05
     4   6     0.00  -0.04   0.03     0.00   0.00  -0.05     0.01   0.07   0.06
     5   6    -0.03  -0.05   0.02     0.01  -0.01  -0.26     0.06   0.08   0.09
     6   6    -0.05  -0.03   0.01     0.01  -0.01  -0.19     0.09   0.04   0.04
     7   1    -0.05   0.02  -0.02     0.00   0.02   0.30     0.10  -0.03  -0.14
     8   1     0.00   0.03  -0.01    -0.01   0.03   0.51     0.02  -0.04  -0.11
     9   1    -0.04  -0.07   0.03     0.02  -0.01  -0.47     0.07   0.11   0.14
    10   1    -0.07  -0.03   0.01     0.02  -0.02  -0.37     0.12   0.05   0.07
    11   6     0.02  -0.06   0.03     0.00   0.01   0.00     0.00   0.08   0.01
    12   6     0.04  -0.01   0.03    -0.01   0.01   0.07    -0.02   0.04   0.12
    13   6     0.03  -0.06   0.08    -0.01   0.01   0.08    -0.01   0.08   0.15
    14   1     0.04  -0.07   0.09    -0.01   0.01   0.11    -0.02   0.09   0.11
    15   6     0.05  -0.03   0.08    -0.01   0.01   0.06    -0.04   0.06   0.24
    16   1     0.07  -0.03   0.09    -0.01   0.01   0.02    -0.06   0.07   0.32
    17   8     0.02  -0.06  -0.01    -0.01   0.00   0.00    -0.02   0.00  -0.16
    18  17     0.06   0.03  -0.04     0.00  -0.01  -0.12    -0.05  -0.03  -0.07
    19   6     0.01  -0.01  -0.01     0.00  -0.01   0.01     0.02  -0.05  -0.08
    20   6     0.01  -0.05   0.03     0.01   0.00   0.00    -0.05  -0.04  -0.05
    21   1     0.20  -0.26   0.15     0.00   0.00  -0.02    -0.04   0.00   0.01
    22   6    -0.02   0.09   0.03     0.01  -0.03   0.01     0.13  -0.11  -0.11
    23   1    -0.03   0.11   0.03     0.01  -0.01   0.01     0.16   0.05   0.01
    24   1    -0.01   0.10   0.10    -0.01  -0.04   0.00    -0.02  -0.21  -0.18
    25   1    -0.04   0.14  -0.01     0.03  -0.05   0.01     0.33  -0.21  -0.16
    26   6     0.02   0.00  -0.12     0.00  -0.01   0.04    -0.01  -0.08   0.06
    27   1     0.08  -0.06  -0.15    -0.02   0.00   0.05    -0.09  -0.01   0.09
    28   1     0.00   0.03  -0.16     0.00  -0.02   0.06     0.02  -0.12   0.11
    29   1    -0.01   0.04  -0.14     0.01  -0.02   0.05     0.02  -0.11   0.08
    30   6    -0.22   0.21  -0.10     0.02   0.02   0.00    -0.15  -0.08  -0.07
    31   1    -0.21   0.19  -0.09     0.03   0.02  -0.02    -0.22  -0.08  -0.01
    32   1    -0.42   0.44  -0.21     0.03   0.02   0.01    -0.16  -0.12  -0.15
                      7                      8                      9
                      A                      A                      A
 Frequencies --    180.0698               195.1689               230.3585
 Red. masses --      4.0357                 4.5343                 6.4657
 Frc consts  --      0.0771                 0.1018                 0.2021
 IR Inten    --      2.0802                 2.3007                 1.4949
  Atom  AN      X      Y      Z        X      Y      Z        X      Y      Z
     1   6     0.11  -0.02  -0.08    -0.09   0.02  -0.19    -0.09   0.20   0.02
     2   6     0.06  -0.02   0.07    -0.04   0.04   0.08     0.02   0.20  -0.02
     3   6     0.03   0.02   0.12    -0.02   0.01   0.23     0.09   0.09  -0.05
     4   6     0.03   0.04   0.13    -0.02  -0.01   0.23     0.05   0.05  -0.04
     5   6     0.09   0.04   0.04    -0.08  -0.02   0.14    -0.06   0.04  -0.04
     6   6     0.13   0.00  -0.11    -0.10   0.00  -0.13    -0.13   0.13   0.00
     7   1     0.14  -0.05  -0.18    -0.10   0.03  -0.41    -0.14   0.27   0.07
     8   1     0.05  -0.05   0.08    -0.03   0.07   0.07     0.05   0.26  -0.01
     9   1     0.11   0.08   0.03    -0.09  -0.06   0.18    -0.09  -0.05  -0.04
    10   1     0.16   0.00  -0.24    -0.12  -0.02  -0.31    -0.20   0.12   0.01
    11   6     0.01   0.04   0.07     0.00  -0.02   0.05     0.07   0.03   0.03
    12   6     0.03   0.02   0.02    -0.02   0.00   0.11     0.08   0.07  -0.05
    13   6     0.03   0.03  -0.10    -0.01  -0.02  -0.12     0.07   0.04   0.02
    14   1     0.03   0.04  -0.20     0.00  -0.03  -0.30     0.08   0.03   0.06
    15   6     0.03   0.02  -0.14    -0.01  -0.01  -0.08     0.07   0.09  -0.03
    16   1     0.02   0.01  -0.28     0.00  -0.02  -0.26     0.10   0.09  -0.02
    17   8    -0.02   0.01   0.09     0.02   0.00  -0.06     0.06   0.00   0.08
    18  17     0.05   0.03   0.00    -0.04  -0.05  -0.03    -0.06  -0.27   0.03
    19   6    -0.07  -0.02   0.00     0.05   0.02  -0.02     0.03  -0.02   0.01
    20   6    -0.11  -0.02   0.02     0.07   0.00   0.00     0.01  -0.03   0.02
    21   1    -0.12   0.06   0.07     0.09  -0.04  -0.02     0.05  -0.03   0.09
    22   6    -0.17  -0.06  -0.01     0.14   0.07  -0.01    -0.09  -0.07   0.00
    23   1    -0.21  -0.16  -0.12     0.18   0.07   0.07    -0.13   0.03  -0.05
    24   1    -0.11  -0.03  -0.01     0.15   0.07  -0.03    -0.20  -0.14   0.00
    25   1    -0.29  -0.06   0.09     0.18   0.09  -0.08    -0.03  -0.16   0.06
    26   6    -0.06  -0.01  -0.06     0.04   0.01  -0.01     0.10   0.03  -0.06
    27   1     0.01  -0.02  -0.06     0.00  -0.01  -0.02     0.33   0.09  -0.04
    28   1    -0.08  -0.01  -0.13     0.05   0.02   0.03     0.02   0.08  -0.28
    29   1    -0.10  -0.01  -0.04     0.06   0.03  -0.05     0.02  -0.05   0.06
    30   6    -0.20  -0.11   0.01     0.11   0.04   0.00    -0.10  -0.06   0.00
    31   1    -0.29  -0.11   0.09     0.16   0.03  -0.03    -0.15  -0.08   0.07
    32   1    -0.19  -0.20  -0.07     0.10   0.09   0.03    -0.15  -0.07  -0.10
                     10                     11                     12
                      A                      A                      A
 Frequencies --    244.0119               283.1049               293.5924
 Red. masses --      1.1085                 2.8464                 1.0672
 Frc consts  --      0.0389                 0.1344                 0.0542
 IR Inten    --      0.2133                 1.1430                 0.0255
  Atom  AN      X      Y      Z        X      Y      Z        X      Y      Z
     1   6     0.01  -0.02   0.00    -0.01   0.02   0.00    -0.01  -0.01   0.00
     2   6     0.00  -0.02   0.01     0.01   0.02   0.00     0.00  -0.01   0.00
     3   6    -0.01  -0.01   0.00     0.04  -0.01   0.00     0.00  -0.01   0.00
     4   6    -0.01   0.00   0.00     0.01  -0.02   0.00     0.00   0.00  -0.01
     5   6     0.00   0.00   0.00     0.00  -0.02   0.00    -0.01  -0.01   0.00
     6   6     0.01  -0.01   0.00    -0.02   0.00   0.00    -0.01  -0.01   0.00
     7   1     0.01  -0.02   0.00    -0.02   0.04  -0.01    -0.01  -0.01   0.00
     8   1    -0.01  -0.02   0.01     0.02   0.04   0.00     0.00   0.00   0.00
     9   1     0.01   0.01   0.00    -0.01  -0.04   0.00    -0.01  -0.01   0.00
    10   1     0.02  -0.01  -0.01    -0.04   0.00   0.00    -0.01  -0.01   0.01
    11   6     0.00   0.00   0.01    -0.02   0.00  -0.01     0.00   0.00  -0.01
    12   6    -0.02   0.00  -0.01     0.08  -0.01   0.00    -0.01   0.00   0.02
    13   6    -0.01   0.00   0.00     0.04   0.01   0.00    -0.01   0.00  -0.01
    14   1    -0.02   0.00  -0.01     0.06  -0.02   0.00    -0.01   0.00  -0.01
    15   6    -0.01  -0.01  -0.03     0.06   0.02   0.00    -0.01  -0.01   0.02
    16   1    -0.01  -0.01  -0.04     0.04   0.01   0.00    -0.01   0.00   0.03
    17   8     0.00   0.01   0.02    -0.05   0.01  -0.04     0.01   0.01  -0.01
    18  17    -0.01   0.03   0.00     0.10  -0.07   0.01    -0.01   0.01   0.00
    19   6     0.00   0.00   0.00    -0.07   0.03   0.00     0.02   0.00   0.00
    20   6     0.03  -0.02   0.02    -0.09   0.08  -0.03     0.00   0.02   0.00
    21   1     0.08  -0.08   0.05    -0.23   0.22  -0.13    -0.03   0.06  -0.01
    22   6     0.00  -0.01   0.00     0.03   0.10   0.01     0.04   0.01   0.00
    23   1    -0.01   0.43   0.16     0.07   0.31   0.18     0.05  -0.28  -0.10
    24   1    -0.39  -0.25  -0.05    -0.11   0.01   0.00     0.30   0.17   0.03
    25   1     0.41  -0.21  -0.10     0.25   0.07  -0.14    -0.23   0.15   0.06
    26   6     0.02   0.01  -0.03    -0.24  -0.08   0.04     0.00  -0.01   0.01
    27   1     0.30   0.16   0.03    -0.26   0.01   0.08     0.38   0.25   0.11
    28   1    -0.07  -0.01  -0.35    -0.21  -0.31  -0.06    -0.11  -0.10  -0.46
    29   1    -0.15  -0.10   0.18    -0.44  -0.08   0.15    -0.28  -0.19   0.35
    30   6     0.01  -0.01   0.01     0.02   0.04   0.01    -0.02  -0.01   0.00
    31   1     0.05  -0.06   0.04    -0.03   0.14  -0.08    -0.06   0.01   0.01
    32   1    -0.03   0.04  -0.02     0.15  -0.07   0.13     0.01  -0.06  -0.01
                     13                     14                     15
                      A                      A                      A
 Frequencies --    326.4899               331.9543               364.4208
 Red. masses --      3.6373                 2.3810                 3.6437
 Frc consts  --      0.2284                 0.1546                 0.2851
 IR Inten    --      1.7320                 1.7888                 1.1846
  Atom  AN      X      Y      Z        X      Y      Z        X      Y      Z
     1   6    -0.06  -0.01   0.03    -0.04  -0.02  -0.01    -0.03  -0.01  -0.01
     2   6    -0.02  -0.01   0.01    -0.02  -0.01   0.00    -0.01  -0.01  -0.05
     3   6     0.00  -0.04  -0.03     0.00  -0.03   0.01     0.00  -0.01   0.04
     4   6     0.02  -0.03   0.03     0.00  -0.03  -0.01     0.02  -0.02  -0.07
[...]
 0138,0.00014224,-0.00000156,-0.00002496,-0.00008032,-0.00002565,0.0000
 2455,0.00004646,0.00001659,0.00001400,0.00001042,-0.00000071,-0.000001
 82,0.00000437,0.00000117,-0.00000081,-0.00005860,0.00005197,-0.0000511
 2,-0.00000651,-0.00000057,-0.00000481,-0.00040983,-0.00008236,-0.00009
 872,-0.00001675,-0.00000275,-0.00000260,0.00020642,0.00011201,0.000020
 98,0.00000388,0.00004147,-0.00003804,-0.00002154,0.00003417,0.00001111
 ,0.00001660,0.00001123,-0.00000260,0.00182909,0.00012703,-0.00056702,0
 .00004737,0.00002595,0.00000348,-0.00281298,-0.00861508,-0.01831015,-0
 .00012044,0.00133302,-0.00032603,0.00004281,0.00003825,0.00001115,-0.0
 0237878,-0.00318353,0.00077584,0.00029859,-0.00001305,-0.00009575,0.00
 009947,-0.00065333,-0.00110916,0.00009072,0.00005676,0.00031128,-0.045
 99988,-0.00194463,-0.00677929,0.04717940,-0.00000612,-0.00000184,0.000
 00264,-0.00000222,0.00000306,0.00000325,-0.00000950,-0.00001738,-0.000
 01207,0.00001452,-0.00001185,-0.00001649,0.00001682,0.00002039,0.00000
 253,-0.00000760,-0.00000750,-0.00000164,-0.00000189,0.00000003,-0.0000
 0069,-0.00000007,-0.00000118,-0.00000293,-0.00000617,0.00001483,0.0000
 0350,0.00000682,-0.00000163,0.00000018,-0.00004021,0.00015902,0.000133
 88,0.00000323,0.00002008,-0.00000338,0.00015450,0.00003836,0.00005380,
 -0.00000794,0.00004010,-0.00006610,0.00001138,0.00002823,0.00001043,0.
 00000906,0.00000425,-0.00000723,0.00220450,0.00117879,0.00052868,0.000
 00222,-0.00000018,0.00000169,0.00022504,-0.01232889,-0.02455479,-0.000
 05032,0.00109536,-0.00224244,-0.00016399,-0.00009192,-0.00001897,-0.00
 330547,-0.00421051,0.00083257,-0.00004241,0.00007630,0.00040758,-0.000
 52318,-0.00018959,-0.00166042,-0.00019539,0.00007858,-0.00014372,-0.00
 372063,-0.09141728,-0.09743510,0.00621245,0.09899665,-0.00001220,-0.00
 000698,0.00000004,0.00000946,0.00001721,0.00000427,0.00000129,-0.00001
 024,-0.00001449,0.00003626,-0.00005510,-0.00000438,-0.00006738,-0.0000
 3332,0.00002047,0.00004028,0.00001787,0.00001050,0.00000469,0.00000147
 ,-0.00000212,0.00000007,0.00000200,-0.00000271,-0.00009196,0.00001413,
 -0.00004505,-0.00001059,0.00000643,-0.00000538,-0.00010163,0.00021393,
 0.00023254,-0.00001541,0.00002598,-0.00000203,0.00007979,0.00005757,0.
 00005666,-0.00000466,0.00002385,-0.00000422,0.00003706,0.00003506,-0.0
 0001260,0.00000664,0.00000344,-0.00000317,0.00005659,0.00063628,0.0007
 1963,-0.00000084,0.00000279,0.00000305,0.00062923,0.00114114,-0.000975
 74,0.00003344,0.00062490,0.00097924,0.00001624,0.00011011,0.00003285,-
 0.00029563,-0.00084845,0.00086863,-0.00001573,0.00028169,0.00016983,0.
 00010022,-0.00011482,-0.00003123,0.00021456,0.00011160,0.00023842,-0.0
 0897178,-0.10112988,-0.27857403,0.00885349,0.10957375,0.29821837,0.000
 01335,0.00002087,0.00000226,-0.00002898,-0.00002494,-0.00000418,-0.000
 02201,0.00005687,-0.00002482,-0.00033584,-0.00012937,0.00002173,0.0000
 3469,-0.00003706,0.00001619,-0.00004269,0.00002600,0.00000655,-0.00001
 330,0.00000658,-0.00000037,-0.00001336,0.00000364,-0.00000196,0.000048
 94,-0.00006851,-0.00003033,-0.00000291,0.00001313,-0.00000050,0.001524
 53,0.00080335,0.00089016,0.00004601,0.00001871,0.00001104,-0.00037207,
 -0.00034717,-0.00012924,-0.00000269,0.00000281,0.00002697,0.00007177,-
 0.00002556,-0.00006403,-0.00004248,-0.00002419,0.00000054,-0.00586962,
 -0.00370647,0.00011050,-0.00013214,-0.00005883,-0.00000399,-0.01410747
 ,0.00880761,0.00476377,0.00011382,0.00109999,-0.00045967,0.00049584,-0
 .00023990,0.00001320,0.00002684,0.00078732,0.00049796,0.00051161,-0.00
 033963,-0.00043909,0.00039595,-0.00017487,-0.00011138,0.00007078,-0.00
 010542,0.00008725,-0.28039493,0.06373911,0.06869322,0.00274655,-0.0006
 9892,-0.00090410,0.30361184,0.00000114,0.00000932,0.00000652,-0.000010
 46,-0.00001770,-0.00000198,-0.00004003,0.00008245,-0.00003637,-0.00028
 616,-0.00026121,-0.00000544,-0.00007041,-0.00009535,-0.00000689,0.0000
 1533,0.00006536,0.00000374,0.00000377,0.00000526,-0.00000038,-0.000010
 59,0.00000871,-0.00000315,-0.00007342,0.00002270,0.00003034,-0.0000143
 8,0.00001211,-0.00000089,-0.00025009,0.00089146,0.00080814,-0.00000175
 ,0.00001262,0.00000736,-0.00012868,-0.00006522,-0.00005043,0.00001843,
 -0.00001304,0.00000061,0.00005871,-0.00000574,-0.00002796,-0.00002288,
 -0.00001258,0.00000096,-0.00696357,-0.00343694,0.00044366,-0.00005784,
 -0.00002283,-0.00000097,-0.01979472,0.00850925,0.00658157,-0.00016588,
 0.00036127,0.00045585,-0.00006695,-0.00066881,0.00020427,0.00008101,0.
 00057496,0.00038231,-0.00023582,-0.00031678,-0.00044756,0.00019514,0.0
 0000947,0.00017184,-0.00002547,-0.00002926,-0.00006953,0.06793307,-0.0
 6767312,-0.01967072,0.01174454,-0.00369472,-0.00195036,-0.07087350,0.0
 7072470,-0.00000158,-0.00000696,-0.00000223,0.00000689,0.00001083,-0.0
 0000057,0.00000898,-0.00003318,-0.00001417,0.00008655,0.00004843,0.000
 00287,-0.00001402,0.00000735,0.00003069,0.00001376,-0.00000283,0.00000
 760,0.00000256,-0.00000120,-0.00000084,0.00000386,-0.00000155,-0.00000
 218,-0.00001233,0.00001619,-0.00005817,0.00000029,-0.00000266,-0.00000
 198,-0.00024128,-0.00014094,0.00039372,-0.00002103,-0.00000012,0.00000
 367,0.00008260,0.00003908,-0.00000935,0.00000064,0.00000170,0.00003062
 ,-0.00000202,0.00003310,-0.00004373,0.00001165,0.00000443,0.00000465,0
 .00100626,0.00032623,0.00074013,0.00002080,0.00000983,0.00000356,-0.00
 080740,-0.00066404,-0.00278028,0.00025720,0.00006289,0.00013624,-0.000
 03665,0.00027032,0.00005341,-0.00034036,-0.00004999,-0.00024902,-0.000
 42351,-0.00063727,-0.00028816,0.00007185,0.00011588,0.00000729,-0.0001
 2643,-0.00008069,0.00007042,0.06929532,-0.01819036,-0.06568552,0.02739
 270,-0.00634924,-0.00622803,-0.07610938,0.02097522,0.06743530,-0.00000
 414,0.00000009,0.00000409,0.00002309,0.00000470,-0.00000020,0.00000009
 ,-0.00000845,0.00000124,0.00010100,0.00000234,0.00001036,-0.00006343,-
 0.00001713,-0.00004410,0.00002061,0.00002245,-0.00001535,0.00000946,-0
 .00000082,0.00000192,0.00000359,0.00000044,-0.00000047,-0.00016233,0.0
 0004986,0.00013629,-0.00000242,-0.00000271,0.00000153,-0.00030657,-0.0
 0016070,-0.00015317,-0.00001759,-0.00001425,-0.00000171,0.00015800,0.0
 0009478,0.00005239,0.00002098,0.00002939,0.00001284,-0.00002585,0.0000
 2571,0.00001493,0.00001116,0.00000741,-0.00000025,0.00231929,0.0001647
 6,-0.00052950,0.00003573,0.00002002,0.00000175,0.00450593,-0.01558686,
 0.01332206,-0.00216553,-0.00172240,-0.00056594,0.00020001,-0.00026055,
 0.00006827,0.00076145,0.00036526,0.00096216,-0.00001234,0.00014191,-0.
 00015460,-0.00004021,0.00012134,0.00019369,0.00009647,0.00009486,-0.00
 016539,-0.08128551,0.06522787,-0.06211983,-0.00089791,-0.00010962,0.00
 037965,-0.00860278,0.01902311,-0.01998865,0.08481055,-0.00001401,-0.00
 000271,0.00000105,0.00000051,0.00000856,-0.00000373,-0.00002386,-0.000
 01375,-0.00000076,-0.00000582,-0.00006880,-0.00001160,-0.00001115,-0.0
 0000188,-0.00002277,0.00000998,0.00001300,-0.00001335,0.00000182,0.000
 00063,0.00000316,-0.00000152,0.00000050,0.00000381,-0.00002788,0.00004
 324,0.00004253,0.00000183,0.00000097,0.00000514,-0.00029387,0.00014469
 ,-0.00014256,-0.00001689,0.00003335,0.00000398,0.00011556,0.00003481,-
 0.00005628,0.00005671,0.00006031,0.00005950,0.00001860,0.00003890,0.00
 001264,0.00001004,0.00000214,0.00000905,0.00151904,0.00168090,-0.00118
 198,0.00000094,0.00000455,-0.00000156,0.01046668,-0.02068020,0.0172300
 7,-0.00515598,-0.00288548,-0.00007545,0.00024100,0.00018149,-0.0000881
 4,0.00106309,0.00115367,0.00095424,0.00003350,-0.00006542,-0.00009088,
 -0.00008657,0.00050779,-0.00006444,-0.00053288,-0.00004366,-0.00082166
 ,0.06240632,-0.16986650,0.11581666,-0.00533848,0.00990114,-0.00844057,
 0.00175034,-0.00497132,0.00431980,-0.06701034,0.18541232,0.00001931,0.
 00001013,-0.00000388,-0.00002222,-0.00002749,-0.00000246,-0.00000363,0
 .00000709,0.00000510,-0.00006779,0.00006866,0.00000381,0.00013165,0.00
 006768,0.00004520,-0.00006843,-0.00004534,0.00000389,-0.00001187,-0.00
 000182,-0.00000123,-0.00000120,-0.00000360,-0.00000027,0.00019745,-0.0
 0003943,-0.00012293,0.00001887,-0.00000832,-0.00000353,0.00018729,-0.0
 0006813,-0.00001619,0.00002793,-0.00001542,-0.00000404,-0.00003442,-0.
 00002533,0.00000665,-0.00001090,-0.00003250,0.00000011,-0.00002445,-0.
 00004086,-0.00001119,-0.00000798,-0.00000470,-0.00000111,0.00023578,-0
 .00024756,0.00001221,-0.00001002,-0.00001382,-0.00000064,-0.00064454,-
 0.00074921,-0.00100248,0.00049321,0.00051544,0.00012735,-0.00017128,0.
 00005997,-0.00009121,0.00014493,-0.00116643,0.00048646,0.00018013,0.00
 006312,0.00001447,0.00017616,-0.00004639,0.00003698,-0.00019886,-0.000
 30187,0.00041218,-0.06119057,0.11745251,-0.16202434,-0.01017899,0.0201
 6147,-0.01605812,0.00311172,-0.00746600,0.00648734,0.06776561,-0.12834
 401,0.17101460,-0.00007658,-0.00000180,0.00000411,0.00001251,0.0000686
 7,-0.00000149,-0.00008237,-0.00012827,-0.00003270,0.00020687,-0.000110
 24,0.00020972,-0.00007948,0.00006564,0.00001994,0.00004312,0.00001773,
 0.00002106,-0.00000246,0.00000538,-0.00000616,-0.00000427,-0.00000164,
 -0.00000528,0.00001435,0.00001482,-0.00005385,-0.00000502,0.00001515,-
 0.00000666,-0.00081530,0.00013175,-0.00044306,-0.00007349,0.00008037,0
 .00008995,-0.00142735,-0.00126291,-0.00151394,-0.00160077,0.00053363,-
 0.00035021,-0.00014649,0.00048374,-0.00020330,0.00004015,-0.00000878,-
 0.00003700,0.00113327,-0.00107513,-0.00061362,-0.00012115,-0.00001029,
 0.00003139,0.01100187,0.00240850,-0.01173936,-0.13134207,0.00064865,0.
 13901181,-0.00249938,-0.00463873,0.02674207,-0.00111062,0.00173041,-0.
 00126461,0.00020626,-0.00000266,-0.00021247,-0.00001792,-0.00008974,0.
 00013200,-0.00007023,-0.00010128,-0.00096563,-0.00112869,0.00073868,-0
 .00129214,0.00010487,0.00019228,0.00000535,0.00032112,0.00007938,-0.00
 012852,0.00046960,0.00071731,-0.00001093,0.47212109,-0.00008521,-0.000
 02187,-0.00000734,0.00003553,0.00009411,0.00000320,-0.00008125,-0.0002
 1933,0.00001551,0.00049348,-0.00005461,-0.00010320,-0.00012906,0.00008
 446,-0.00000589,0.00008357,0.00001440,-0.00001709,0.00000003,0.0000045
 3,0.00000561,0.00000041,-0.00000481,0.00000888,-0.00002055,0.00005026,
 0.00002708,-0.00000763,0.00001461,0.00000696,-0.00200321,-0.00116342,-
 0.00022531,-0.00002340,0.00020017,0.00006646,-0.00030477,0.00001478,-0
 .00080983,-0.00035548,0.00049592,0.00005163,0.00009631,0.00031429,-0.0
 0004317,0.00004520,0.00000751,0.00002083,0.00046767,0.00082204,0.00116
 228,-0.00005856,0.00000206,-0.00000543,-0.00683356,-0.00080422,0.02412
 372,-0.00180360,-0.10391583,0.10735801,0.00690036,0.00850172,-0.014245
 33,0.00175120,-0.00359483,0.00025915,-0.00029261,0.00003368,0.00010923
 ,0.00015694,0.00025037,0.00018470,0.00001540,0.00063313,0.00131498,0.0
 0218482,-0.00080541,0.00199384,0.00004876,0.00037273,-0.00020182,-0.00
 020928,0.00001779,-0.00009312,-0.00056040,-0.00081620,0.00030816,-0.21
 935359,0.38974482,0.00000220,0.00000086,0.00000273,-0.00002101,0.00000
 088,0.00000873,0.00003062,0.00001010,-0.00000087,-0.00015039,-0.000102
 78,-0.00009955,0.00001001,-0.00005375,0.00003388,-0.00001173,0.0000129
 1,0.00001335,-0.00000895,0.00000470,-0.00000353,-0.00000823,0.00000262
 ,-0.00000412,0.00002287,-0.00004675,-0.00002277,-0.00000286,0.00001023
 ,-0.00000785,0.00129476,0.00109148,0.00010732,0.00002965,0.00004095,-0
 .00001301,-0.00035550,-0.00031912,-0.00019119,-0.00095278,-0.00015169,
 -0.00043385,0.00018855,-0.00005261,0.00001127,-0.00003551,-0.00001370,
 0.00000756,0.00006524,-0.00149420,-0.00138476,-0.00007553,-0.00004468,
 -0.00001214,0.00424170,0.01058305,-0.01807066,0.14280174,0.10411956,-0
 .51498607,0.00282213,0.00552377,-0.00994369,-0.00107057,0.00202416,0.0
 0091320,0.00012140,-0.00009570,0.00020312,-0.00005814,-0.00033098,-0.0
 0009183,-0.00007115,-0.00036303,-0.00067125,-0.00276484,-0.00157278,-0
 .00105678,0.00011499,0.00074268,0.00035039,0.00013117,-0.00027485,-0.0
 0010166,0.00063958,0.00051675,0.00071795,-0.17275242,-0.18143723,0.784
 31058,-0.00000811,-0.00001090,-0.00000071,-0.00001463,0.00001244,0.000
 00026,-0.00000151,-0.00003995,-0.00000777,0.00001101,-0.00004811,0.000
 00697,-0.00000161,0.00001379,-0.00000190,0.00001265,0.00000084,0.00000
 056,-0.00000396,0.00000160,0.00000010,-0.00000414,0.00000095,-0.000001
 31,0.00000312,-0.00001579,0.00000831,0.00000102,0.00000156,0.00000093,
 0.00068723,0.00018507,0.00018565,-0.00002391,0.00005746,0.00002150,-0.
 00020646,-0.00022277,-0.00005985,-0.00005604,0.00011524,-0.00001019,0.
 00008228,0.00003618,-0.00003640,-0.00002716,-0.00001374,-0.00001540,0.
 00005243,-0.00017345,-0.00085155,-0.00005252,-0.00002752,0.00000220,0.
 00374048,0.00535445,0.00501761,0.00805934,-0.00765929,0.00815129,-0.00
 239986,-0.00426452,-0.00214690,0.00065145,-0.00125100,0.00077592,-0.00
 003395,-0.00000856,0.00000649,0.00000358,-0.00005737,-0.00006994,-0.00
 001195,0.00010176,0.00047765,-0.00052942,0.00108794,-0.00103160,-0.000
 07148,-0.00006166,-0.00003309,-0.00002426,-0.00006103,-0.00000866,0.00
 022242,0.00032983,-0.00000277,-0.12067828,0.11023541,-0.07376390,0.116
 59131,0.00000989,-0.00000232,-0.00000099,0.00000164,-0.00001261,-0.000
 00243,0.00000415,0.00002462,-0.00000065,0.00002135,0.00001483,-0.00000
 560,0.00001938,0.00000961,0.00000162,-0.00000131,-0.00000874,0.,0.0000
 0478,-0.00000317,0.00000059,0.00000376,0.00000040,0.00000040,-0.000003
 67,0.00001830,-0.00000174,0.00000289,-0.00000774,0.00000062,-0.0004461
 8,-0.00020228,-0.00003763,-0.00001404,-0.00004830,-0.00000356,-0.00002
 784,-0.00006077,0.00000729,-0.00004487,-0.00000986,-0.00002539,-0.0000
 8449,-0.00001991,-0.00001613,0.00000319,0.00000605,-0.00000307,0.00023
 378,-0.00003840,0.00035927,0.00004772,0.00001960,0.00000594,0.00496629
 ,0.00742025,0.00351982,0.00455283,-0.00059314,0.00113825,-0.00433603,-
 0.00375240,-0.00229057,0.00066734,-0.00144851,0.00099257,-0.00004642,0
 .00000860,0.00002720,0.00000839,-0.00007964,-0.00009260,-0.00005047,0.
 00015560,0.00051304,-0.00075083,0.00128178,-0.00126019,-0.00001447,-0.
 00003916,-0.00004922,-0.00004763,-0.00007439,0.00002436,0.00027593,0.0
 0042345,-0.00002555,0.10787062,-0.18224712,0.11268822,-0.11715290,0.18
 399028,0.00000733,0.00000268,0.00000091,-0.00000814,-0.00001145,-0.000
 00082,-0.00000263,0.00002255,-0.00000470,-0.00010261,-0.00001908,0.000
 00739,0.00001490,-0.00000501,0.00000789,-0.00001301,-0.00000092,0.0000
 0446,-0.00000097,0.,-0.00000090,-0.00000171,0.00000120,-0.00000082,0.0
 0000706,-0.00000878,-0.00001425,0.00000154,-0.00000095,-0.00000219,0.0
 0024873,0.00019277,0.00005310,-0.00001144,-0.00001681,-0.00000212,-0.0
 0010677,-0.00018840,-0.00003268,0.00000180,0.00008932,-0.00003032,-0.0
 0001554,0.00001334,-0.00000547,-0.00001429,-0.00000424,-0.00000842,-0.
 00034202,-0.00052258,0.00090064,-0.00001103,-0.00000649,0.00000205,0.0
 0622049,0.00124012,-0.00086975,-0.01585033,0.02308471,-0.01429847,-0.0
 0187323,-0.00252082,-0.00017243,-0.00013845,0.00034799,0.00018526,0.00
 000907,0.00000884,0.00000889,-0.00002435,-0.00011497,-0.00006240,-0.00
 008707,-0.00005305,-0.00018352,-0.00078685,0.00074660,-0.00094776,0.00
 003051,0.00004660,0.00003054,0.00001562,-0.00003016,-0.00000793,0.0002
 6655,0.00046443,-0.00000381,-0.06976551,0.10880769,-0.13445436,0.07577
 891,-0.12298820,0.14091393,0.00002370,0.00001401,-0.00000190,0.0000028
 0,-0.00003056,0.00000479,0.00001618,0.00008259,0.00001793,-0.00010793,
 0.00010358,0.00001026,0.00005212,-0.00001084,-0.00000564,-0.00003335,-
 0.00001719,-0.00000494,0.00000339,-0.00000347,0.00000140,0.00000263,0.
 00000033,0.00000037,0.00000359,-0.00000619,0.00001938,0.00000440,-0.00
 000903,0.00000177,0.00005802,0.00027416,-0.00061023,0.00000884,-0.0000
 8912,-0.00001550,0.00019826,0.00005746,0.00006095,0.00005223,0.0000290
 6,-0.00009869,-0.00012577,-0.00007389,0.00000660,0.00000112,0.00000621
 ,0.00000354,-0.00010351,-0.00009215,-0.00121728,0.00005506,0.00001942,
 0.00000217,-0.00338708,-0.00248026,-0.00225840,-0.00267547,0.00601271,
 0.00438458,0.00476494,0.00427012,0.00334622,-0.00023591,0.00033413,-0.
 00030729,0.00005667,0.00000735,-0.00003811,-0.00002830,0.00005348,0.00
 000581,0.00012842,-0.00008297,-0.00013650,0.00025994,-0.00039215,0.000
 66855,-0.00000558,-0.00009950,0.00002069,-0.00002606,-0.00000001,-0.00
 000009,-0.00018282,-0.00022386,-0.00002919,-0.22439317,0.10960707,0.09
 958690,-0.00596906,0.00432721,0.00655345,0.23158168,0.00004549,-0.0000
 0080,0.00000555,-0.00002823,-0.00003811,0.00000441,0.00005122,0.000079
 19,-0.00000341,-0.00027710,0.00006225,-0.00001031,0.00005257,-0.000043
 08,-0.00002788,-0.00003026,-0.00000380,-0.00001278,-0.00000300,-0.0000
 0138,-0.00000060,-0.00000156,0.00000182,-0.00000203,-0.00000659,-0.000
 03188,0.00001913,0.00000328,-0.00000675,0.00000256,0.00140461,0.000747
 69,0.00047801,-0.00002050,-0.00007563,-0.00002064,-0.00009579,0.000030
 22,0.00017304,0.00025423,-0.00015941,-0.00013943,-0.00001260,-0.000095
 19,0.00004652,-0.00001886,-0.00001388,-0.00001812,-0.00130351,-0.00061
 672,0.00052762,-0.00000532,-0.00001624,-0.00000308,-0.00305079,-0.0046
 0777,-0.00175572,-0.00444028,0.00950999,0.00270579,0.00426586,0.006078
 77,0.00430050,0.00001036,0.00059618,-0.00057395,0.00000023,-0.00000575
 ,-0.00012869,-0.00003839,0.00005848,0.00000735,0.00007836,-0.00007331,
 -0.00019134,0.00045480,-0.00052537,0.00073007,0.00002620,-0.00001427,-
 0.00006043,-0.00002510,0.00005159,-0.00001148,-0.00021799,-0.00023048,
 -0.00004045,0.11098235,-0.10802573,-0.05101906,0.01353404,-0.00472491,
 -0.00857693,-0.12158772,0.10209424,0.00004815,0.00001185,-0.00000091,0
 .00001752,-0.00006143,-0.00000265,0.00004309,0.00016912,0.00001627,-0.
 00007407,0.00008868,-0.00003679,0.00006368,-0.00003920,-0.00001878,-0.
 00003251,-0.00003841,-0.00001558,0.00001093,-0.00000795,0.00000272,0.0
 0001013,0.00000066,0.00000337,-0.00001263,0.00002940,0.00001140,0.0000
 0538,-0.00001747,0.00000430,-0.00167640,-0.00023994,-0.00075620,0.0000
 5888,-0.00020159,-0.00004280,0.00034004,0.00038565,0.00018930,0.000122
 96,-0.00010864,-0.00021178,-0.00028866,-0.00010938,0.00008480,0.000024
 14,0.00002435,0.00000169,0.00003122,0.00028243,0.00135516,0.00015999,0
 .00006356,0.00000186,-0.00011991,-0.00328681,-0.00060161,0.02536739,-0
 .01383138,-0.00831270,0.00339282,0.00440407,-0.00285347,-0.00015257,0.
 00023931,-0.00013934,-0.00008475,0.00004297,0.00008737,0.00002114,0.00
 002048,-0.00000555,-0.00000836,0.00000205,-0.00010407,0.00015083,-0.00
 020746,0.00028216,0.00002665,0.00000996,0.00002786,-0.00011681,-0.0000
 2878,0.00006634,-0.00009575,-0.00008308,-0.00002687,0.09513147,-0.0486
 3314,-0.10513013,-0.01239242,0.00752433,0.00898807,-0.10997160,0.05359
 578,0.10713654\\0.00001783,0.00001969,-0.00000125,0.00000051,0.0000077
 5,0.00000457,0.00000226,0.00002106,0.00000471,-0.00000910,0.00001286,-
 0.00000138,0.00001322,0.00000224,-0.00000870,0.00000425,0.00001097,-0.
 00001195,0.00001047,0.00001848,-0.00000535,0.00000506,0.00002113,0.000
 01150,0.00000994,0.00000240,-0.00001338,0.00001731,0.00001063,-0.00001
 683,0.00001336,-0.00001054,0.00001150,-0.00000683,0.00000221,0.0000204
 6,-0.00000890,0.00000918,0.00001223,-0.00000675,-0.00000002,0.00001131
 ,-0.00000909,0.00001019,0.00001415,-0.00001391,0.00000509,0.00002535,-
 0.00001310,0.00000158,-0.00000360,-0.00000774,0.00001852,0.00002619,0.
 00001319,-0.00002264,-0.00000738,-0.00000713,0.00000359,-0.00000854,-0
 .00000305,-0.00001617,-0.00000093,-0.00001301,-0.00001982,0.00000097,-
 0.00000469,-0.00002800,-0.00000501,-0.00001184,-0.00001698,0.00000534,
 -0.00000809,-0.00001560,-0.00000668,0.00000279,-0.00000981,-0.00001993
 ,0.00000790,-0.00000699,-0.00001833,0.00000168,-0.00002154,-0.00001689
 ,0.00000420,-0.00002010,-0.00001500,-0.00000131,-0.00000275,0.00001502
 ,0.,0.00000236,0.00000092,0.00000058,0.00001107,-0.00000308\\\@


 IT MATTERS NOT HOW DEEP YOU PLOW,
 BUT HOW LONG YOU STAY IN THE FURROW.
 Job cpu time:       1 days 22 hours  1 minutes 15.6 seconds.
 File lengths (MBytes):  RWF=   2713 Int=      0 D2E=      0 Chk=     35 Scr=      1
 Normal termination of Gaussian 09 at Fri Feb  4 19:43:43 2022.
