 Entering Gaussian System, Link 0=g09
 Input=ts_claisen_ma_freq.com
 Output=ts_claisen_ma_freq.log
 Initial command:
 /apps/applications/gaussian/G09.D01/2/default/g09/l1.exe "/nobackup/pmmass/Temp/Gau-172209.inp" -scrdir="/nobackup/pmmass/Temp/"
 Entering Link 1 = /apps/applications/gaussian/G09.D01/2/default/g09/l1.exe PID=    172210.
  
 Copyright (c) 1988,1990,1992,1993,1995,1998,2003,2009,2013,
            Gaussian, Inc.  All Rights Reserved.
  
 This is part of the Gaussian(R) 09 program.  It is based on
 the Gaussian(R) 03 system (copyright 2003, Gaussian, Inc.),
 the Gaussian(R) 98 system (copyright 1998, Gaussian, Inc.),
 the Gaussian(R) 94 system (copyright 1995, Gaussian, Inc.),
 the Gaussian 92(TM) system (copyright 1992, Gaussian, Inc.),
 the Gaussian 90(TM) system (copyright 1990, Gaussian, Inc.),
 the Gaussian 88(TM) system (copyright 1988, Gaussian, Inc.),
 the Gaussian 86(TM) system (copyright 1986, Carnegie Mellon
 University), and the Gaussian 82(TM) system (copyright 1983,
 Carnegie Mellon University). Gaussian is a federally registered
 trademark of Gaussian, Inc.
  
 This software contains proprietary and confidential information,
 including trade secrets, belonging to Gaussian, Inc.
  
 This software is provided under written license and may be
 used, copied, transmitted, or stored only in accord with that
 written license.
  
 The following legend is applicable only to US Government
 contracts under FAR:
  
                    RESTRICTED RIGHTS LEGEND
  
 Use, reproduction and disclosure by the US Government is
 subject to restrictions as set forth in subparagraphs (a)
 and (c) of the Commercial Computer Software - Restricted
 Rights clause in FAR 52.227-19.
  
 Gaussian, Inc.
 340 Quinnipiac St., Bldg. 40, Wallingford CT 06492
  
  
 ---------------------------------------------------------------
 Warning -- This program may not be used in any manner that
 competes with the business of Gaussian, Inc. or will provide
 assistance to any competitor of Gaussian, Inc.  The licensee
 of this program is prohibited from giving any competitor of
 Gaussian, Inc. access to this program.  By using this program,
 the user acknowledges that Gaussian, Inc. is engaged in the
 business of creating and licensing software in the field of
 computational chemistry and represents and warrants to the
 licensee that it is not a competitor of Gaussian, Inc. and that
 it will not use this program in any manner prohibited above.
 ---------------------------------------------------------------
  

 Cite this work as:
 Gaussian 09, Revision D.01,
 M. J. Frisch, G. W. Trucks, H. B. Schlegel, G. E. Scuseria, 
 M. A. Robb, J. R. Cheeseman, G. Scalmani, V. Barone, B. Mennucci, 
 G. A. Petersson, H. Nakatsuji, M. Caricato, X. Li, H. P. Hratchian, 
 A. F. Izmaylov, J. Bloino, G. Zheng, J. L. Sonnenberg, M. Hada, 
 M. Ehara, K. Toyota, R. Fukuda, J. Hasegawa, M. Ishida, T. Nakajima, 
 Y. Honda, O. Kitao, H. Nakai, T. Vreven, J. A. Montgomery, Jr., 
 J. E. Peralta, F. Ogliaro, M. Bearpark, J. J. Heyd, E. Brothers, 
 K. N. Kudin, V. N. Staroverov, T. Keith, R. Kobayashi, J. Normand, 
 K. Raghavachari, A. Rendell, J. C. Burant, S. S. Iyengar, J. Tomasi, 
 M. Cossi, N. Rega, J. M. Millam, M. Klene, J. E. Knox, J. B. Cross, 
 V. Bakken, C. Adamo, J. Jaramillo, R. Gomperts, R. E. Stratmann, 
 O. Yazyev, A. J. Austin, R. Cammi, C. Pomelli, J. W. Ochterski, 
 R. L. Martin, K. Morokuma, V. G. Zakrzewski, G. A. Voth, 
 P. Salvador, J. J. Dannenberg, S. Dapprich, A. D. Daniels, 
 O. Farkas, J. B. Foresman, J. V. Ortiz, J. Cioslowski, 
 and D. J. Fox, Gaussian, Inc., Wallingford CT, 2013.
 
 ******************************************
 Gaussian 09:  ES64L-G09RevD.01 24-Apr-2013
                 4-Feb-2022 
 ******************************************
 %nprocshared=8
 Will use up to    8 processors via shared memory.
 %mem=4GB
 %NoSave
 %chk="ts_claisen_ma_freq.chk"
 --------------------------------------------
 #n wB97XD/Gen scrf(smd,solvent=toluene) freq
 --------------------------------------------
 1/10=4,30=1,38=1/1,3;
 2/12=2,17=6,18=5,40=1/2;
 3/5=7,11=2,16=1,25=1,30=1,70=32201,71=2,72=13,74=-58,140=1/1,2,3;
 4//1;
 5/5=2,38=5,53=13,98=1/2;
 8/6=4,10=90,11=11/1;
 11/6=1,8=1,9=11,15=111,16=1/1,2,10;
 10/6=1/2;
 6/7=2,8=2,9=2,10=2,18=1,28=1/1;
 7/8=1,10=1,25=1/1,2,3,16;
 1/10=4,30=1/3;
 99//99;
 -------------------------
 ts_claisen toluene - freq
 -------------------------
 Symbolic Z-matrix:
 Charge =  0 Multiplicity = 1
 C                    -2.24276   2.68939   0.35035 
 C                    -2.57533   1.3588    0.34307 
 C                    -1.65158   0.38684  -0.08724 
 C                    -0.36549   0.80622  -0.49688 
 C                    -0.06019   2.17553  -0.49778 
 C                    -0.97683   3.10609  -0.08014 
 H                    -2.96863   3.42123   0.68234 
 H                    -3.56067   1.0484    0.66241 
 H                     0.92184   2.47349  -0.84043 
 H                    -0.72693   4.15975  -0.08561 
 C                     0.63293  -0.16136  -0.95638 
 C                    -1.95707  -1.01526  -0.14969 
 C                     0.26501  -1.5249   -0.9307 
 H                     0.9109   -2.23387  -1.4275 
 C                    -1.05455  -1.92259  -0.58503 
 H                    -1.3253   -2.96858  -0.64931 
 O                     1.80445   0.20158  -1.26649 
 Cl                   -3.54503  -1.56673   0.32041 
 C                     3.10865  -0.14534   0.44972 
 C                     2.73044  -1.48131   0.55824 
 H                     3.33383  -2.20591   0.02198 
 C                     4.38599   0.19923  -0.23619 
 H                     4.70005  -0.57912  -0.92963 
 H                     4.28137   1.13817  -0.77946 
 H                     5.17398   0.33925   0.51181 
 C                     2.54358   0.91912   1.33024 
 H                     1.49534   0.76574   1.57651 
 H                     3.10676   0.92492   2.26966 
 H                     2.65398   1.89999   0.87157 
 C                     1.50259  -1.88618   1.01405 
 H                     1.25357  -2.93885   1.03343 
 H                     0.86733  -1.24847   1.61332 
 

 GradGradGradGradGradGradGradGradGradGradGradGradGradGradGradGradGradGrad
 Berny optimization.
 Initialization pass.
 Trust Radius=3.00D-01 FncErr=1.00D-07 GrdErr=1.00D-07
 Number of steps in this run=      2 maximum allowed number of steps=      2.
 GradGradGradGradGradGradGradGradGradGradGradGradGradGradGradGradGradGrad

                          Input orientation:                          
 ---------------------------------------------------------------------
 Center     Atomic      Atomic             Coordinates (Angstroms)
 Number     Number       Type             X           Y           Z
 ---------------------------------------------------------------------
      1          6           0       -2.242760    2.689390    0.350350
      2          6           0       -2.575330    1.358800    0.343070
      3          6           0       -1.651580    0.386840   -0.087240
      4          6           0       -0.365490    0.806220   -0.496880
      5          6           0       -0.060190    2.175530   -0.497780
      6          6           0       -0.976830    3.106090   -0.080140
      7          1           0       -2.968630    3.421230    0.682340
      8          1           0       -3.560670    1.048400    0.662410
      9          1           0        0.921840    2.473490   -0.840430
     10          1           0       -0.726930    4.159750   -0.085610
     11          6           0        0.632930   -0.161360   -0.956380
     12          6           0       -1.957070   -1.015260   -0.149690
     13          6           0        0.265010   -1.524900   -0.930700
     14          1           0        0.910900   -2.233870   -1.427500
     15          6           0       -1.054550   -1.922590   -0.585030
     16          1           0       -1.325300   -2.968580   -0.649310
     17          8           0        1.804450    0.201580   -1.266490
     18         17           0       -3.545030   -1.566730    0.320410
     19          6           0        3.108650   -0.145340    0.449720
     20          6           0        2.730440   -1.481310    0.558240
     21          1           0        3.333830   -2.205910    0.021980
     22          6           0        4.385990    0.199230   -0.236190
     23          1           0        4.700050   -0.579120   -0.929630
     24          1           0        4.281370    1.138170   -0.779460
     25          1           0        5.173980    0.339250    0.511810
     26          6           0        2.543580    0.919120    1.330240
     27          1           0        1.495340    0.765740    1.576510
     28          1           0        3.106760    0.924920    2.269660
     29          1           0        2.653980    1.899990    0.871570
     30          6           0        1.502590   -1.886180    1.014050
     31          1           0        1.253570   -2.938850    1.033430
     32          1           0        0.867330   -1.248470    1.613320
 ---------------------------------------------------------------------
                    Distance matrix (angstroms):
                    1          2          3          4          5
     1  C    0.000000
     2  C    1.371541   0.000000
     3  C    2.417171   1.408257   0.000000
     4  C    2.790747   2.427808   1.413404   0.000000
     5  C    2.397288   2.774888   2.429090   1.402932   0.000000
     6  C    1.400550   2.405687   2.801724   2.415949   1.371348
     7  H    1.082910   2.126830   3.396233   3.873651   3.376903
     8  H    2.127702   1.081305   2.155055   3.407606   3.856141
     9  H    3.388106   3.856605   3.397631   2.134253   1.081930
    10  H    2.156330   3.383145   3.884563   3.397933   2.133437
    11  C    4.254869   3.780528   2.504978   1.464307   2.480279
    12  C    3.749145   2.502243   1.436353   2.443657   3.728332
    13  C    5.068554   4.243318   2.835400   2.453538   3.739834
    14  H    6.111040   5.309990   3.902656   3.425985   4.609794
    15  C    4.853570   3.733853   2.436741   2.815844   4.217932
    16  H    5.818391   4.612332   3.417781   3.897895   5.299560
    17  O    5.018294   4.807527   3.656377   2.380447   2.822105
    18  Cl   4.450996   3.082135   2.750958   4.050720   5.178615
    19  C    6.056662   5.880599   4.819889   3.724402   4.040512
    20  C    6.493895   6.021936   4.807154   3.991347   4.719669
    21  H    7.427661   6.908576   5.620373   4.798657   5.566555
    22  C    7.105297   7.080969   6.042320   4.797182   4.872649
    23  H    7.779725   7.635866   6.479653   5.269358   5.516745
    24  H    6.800517   6.951481   6.020263   4.667264   4.472651
    25  H    7.781855   7.817913   6.851963   5.649889   5.638061
    26  C    5.196450   5.231736   4.460038   3.437121   3.420503
    27  H    4.379188   4.294584   3.579767   2.786265   2.951247
    28  H    5.951006   6.015492   5.337257   4.441211   4.387747
    29  H    4.987272   5.283737   4.663345   3.490872   3.052501
    30  C    5.950125   5.254478   4.040823   3.608552   4.607103
    31  H    6.660931   5.797143   4.555877   4.357609   5.497950
    32  H    5.174408   4.501478   3.451239   3.192889   4.128052
                    6          7          8          9         10
     6  C    0.000000
     7  H    2.155912   0.000000
     8  H    3.385513   2.445655   0.000000
     9  H    2.140834   4.284016   4.937844   0.000000
    10  H    1.082903   2.482011   4.274356   2.476221   0.000000
    11  C    3.746379   5.337751   4.655135   2.653177   4.612966
    12  C    4.236890   4.625794   2.736737   4.575655   5.319594
    13  C    4.869465   6.125563   4.878084   4.052986   5.832098
    14  H    5.821862   7.175119   5.927559   4.743839   6.735097
    15  C    5.054560   5.816042   4.082098   4.826683   6.111597
    16  H    6.111219   6.730787   4.780546   5.890865   7.175576
    17  O    4.192746   6.078353   5.763876   2.474288   4.844530
    18  Cl   5.347087   5.034181   2.637445   6.133829   6.395241
    19  C    5.248209   7.050381   6.778649   3.647588   5.790687
    20  C    5.932590   7.518623   6.781471   4.568124   6.647519
    21  H    6.841751   8.474773   7.650805   5.334626   7.551356
    22  C    6.101969   8.081795   8.042262   4.187804   6.469184
    23  H    6.821244   8.798290   8.568717   4.858112   7.254059
    24  H    5.657776   7.740266   7.973998   3.615693   5.890199
    25  H    6.770397   8.708030   8.764684   4.946133   7.055060
    26  C    4.377819   6.088086   6.142034   3.123766   4.816902
    27  H    3.785941   5.270502   5.145747   3.014450   4.384111
    28  H    5.191798   6.757330   6.859528   4.104218   5.541534
    29  H    3.942488   5.827840   6.276211   2.502030   4.177710
    30  C    5.680452   6.947693   5.862765   4.773163   6.537070
    31  H    6.538809   7.642045   6.262006   5.737144   7.454177
    32  H    5.023039   6.114525   5.078093   4.458346   5.888707
                   11         12         13         14         15
    11  C    0.000000
    12  C    2.843940   0.000000
    13  C    1.412539   2.409844   0.000000
    14  H    2.143483   3.367946   1.080103   0.000000
    15  C    2.467270   1.351781   1.420874   2.160936   0.000000
    16  H    3.436487   2.112868   2.166213   2.479106   1.082374
    17  O    1.265050   4.108160   2.337384   2.599187   3.626343
    18  Cl   4.589184   1.745489   4.010415   4.832761   2.673752
    19  C    2.847203   5.174705   3.448918   3.565953   4.643443
    20  C    2.904460   4.763519   2.880484   2.796468   3.978435
    21  H    3.525937   5.425932   3.284666   2.823537   4.439213
    22  C    3.838510   6.458860   4.520779   4.406296   5.850067
    23  H    4.088607   6.716827   4.534764   4.164580   5.919382
    24  H    3.877008   6.629631   4.821407   4.811515   6.154518
    25  H    4.798680   7.288632   5.445537   5.343755   6.716663
    26  C    3.169645   5.117408   4.034472   4.495789   4.968915
    27  H    2.831748   4.250984   3.612042   4.285243   4.289675
    28  H    4.207989   5.938007   4.931477   5.335611   5.794314
    29  H    3.416900   5.550084   4.548101   5.041116   5.521503
    30  C    2.759331   3.752604   2.333277   2.536169   3.016181
    31  H    3.472605   3.925326   2.614252   2.582750   2.996601
    32  H    2.800020   3.337638   2.628924   3.196795   2.996799
                   16         17         18         19         20
    16  H    0.000000
    17  O    4.497350   0.000000
    18  Cl   2.798704   5.853384   0.000000
    19  C    5.370146   2.183270   6.805037   0.000000
    20  C    4.485440   2.649380   6.280556   1.392708   0.000000
    21  H    4.768625   3.129723   6.914935   2.116510   1.084758
    22  C    6.544045   2.779545   8.144292   1.490234   2.489213
    23  H    6.487907   3.017858   8.397578   2.150192   2.628130
    24  H    6.951049   2.692495   8.353367   2.129214   3.325132
    25  H    7.384482   3.812484   8.926955   2.122327   3.047537
    26  C    5.831043   2.793597   6.653599   1.492546   2.528431
    27  H    5.182223   2.914871   5.694167   2.168523   2.758909
    28  H    6.582012   3.837133   7.365745   2.111313   2.976662
    29  H    6.469213   2.859650   7.123879   2.137301   3.396647
    30  C    3.454753   3.106561   5.105061   2.434835   1.370875
    31  H    3.079459   3.931336   5.041594   3.403783   2.128702
    32  H    3.589693   3.357699   4.608886   2.755790   2.153738
                   21         22         23         24         25
    21  H    0.000000
    22  C    2.637876   0.000000
    23  H    2.327781   1.088725   0.000000
    24  H    3.566933   1.089815   1.773959   0.000000
    25  H    3.178667   1.095462   1.773630   1.761364   0.000000
    26  C    3.478772   2.523176   3.464404   2.742030   2.815152
    27  H    3.824567   3.458710   4.284805   3.667596   3.853294
    28  H    3.860793   2.905570   3.877650   3.274495   2.776048
    29  H    4.247636   2.668253   3.684659   2.440219   2.985923
    30  C    2.107100   3.771741   3.963590   4.481628   4.322486
    31  H    2.426461   4.612108   4.615209   5.392238   5.136890
    32  H    3.087503   4.230543   4.648050   4.803865   4.720319
                   26         27         28         29         30
    26  C    0.000000
    27  H    1.087650   0.000000
    28  H    1.095315   1.761383   0.000000
    29  H    1.088427   1.768024   1.763640   0.000000
    30  C    3.008878   2.710921   3.471628   3.959935   0.000000
    31  H    4.078744   3.751983   4.459966   5.040012   1.081897
    32  H    2.754704   2.110164   3.188958   3.695282   1.081367
                   31         32
    31  H    0.000000
    32  H    1.828343   0.000000
 Stoichiometry    C15H15ClO
 Framework group  C1[X(C15H15ClO)]
 Deg. of freedom    90
 Full point group                 C1      NOp   1
 Largest Abelian subgroup         C1      NOp   1
 Largest concise Abelian subgroup C1      NOp   1
                         Standard orientation:                         
 ---------------------------------------------------------------------
 Center     Atomic      Atomic             Coordinates (Angstroms)
 Number     Number       Type             X           Y           Z
 ---------------------------------------------------------------------
      1          6           0       -2.242759    2.689390    0.350350
      2          6           0       -2.575329    1.358800    0.343070
      3          6           0       -1.651579    0.386840   -0.087240
      4          6           0       -0.365489    0.806220   -0.496880
      5          6           0       -0.060189    2.175530   -0.497780
      6          6           0       -0.976829    3.106090   -0.080140
      7          1           0       -2.968629    3.421230    0.682340
      8          1           0       -3.560669    1.048400    0.662410
      9          1           0        0.921841    2.473490   -0.840430
     10          1           0       -0.726929    4.159750   -0.085610
     11          6           0        0.632931   -0.161360   -0.956380
     12          6           0       -1.957069   -1.015260   -0.149690
     13          6           0        0.265011   -1.524900   -0.930700
     14          1           0        0.910901   -2.233870   -1.427500
     15          6           0       -1.054549   -1.922590   -0.585030
     16          1           0       -1.325299   -2.968580   -0.649310
     17          8           0        1.804451    0.201580   -1.266490
     18         17           0       -3.545029   -1.566730    0.320410
     19          6           0        3.108651   -0.145341    0.449720
     20          6           0        2.730441   -1.481311    0.558240
     21          1           0        3.333831   -2.205911    0.021980
     22          6           0        4.385991    0.199229   -0.236190
     23          1           0        4.700051   -0.579121   -0.929630
     24          1           0        4.281371    1.138169   -0.779460
     25          1           0        5.173981    0.339249    0.511810
     26          6           0        2.543581    0.919119    1.330240
     27          1           0        1.495341    0.765740    1.576510
     28          1           0        3.106761    0.924919    2.269660
     29          1           0        2.653981    1.899989    0.871570
     30          6           0        1.502591   -1.886180    1.014050
     31          1           0        1.253571   -2.938850    1.033430
     32          1           0        0.867331   -1.248470    1.613320
 ---------------------------------------------------------------------
 Rotational constants (GHZ):      0.6859789      0.3303852      0.2499528
 General basis read from cards:  (5D, 7F)
 There are   776 symmetry adapted cartesian basis functions of A   symmetry.
 There are   691 symmetry adapted basis functions of A   symmetry.
   691 basis functions,  1073 primitive gaussians,   776 cartesian basis functions
    65 alpha electrons       65 beta electrons
       nuclear repulsion energy      1297.9912163734 Hartrees.
 NAtoms=   32 NActive=   32 NUniq=   32 SFac= 1.00D+00 NAtFMM=   60 NAOKFM=F Big=F
 Integral buffers will be    131072 words long.
 Raffenetti 2 integral format.
 Two-electron integral symmetry is turned on.
 Nuclear repulsion after empirical dispersion term =     1297.9644404581 Hartrees.
 Force inversion solution in PCM.
 ------------------------------------------------------------------------------
 Polarizable Continuum Model (PCM)
 =================================
 Model                : PCM (using non-symmetric T matrix).
 Atomic radii         : SMD-Coulomb.
 Polarization charges : Total charges.
 Charge compensation  : None.
 Solution method      : Matrix inversion.
 Cavity type          : VdW (van der Waals Surface) (Alpha=1.000).
 Cavity algorithm     : GePol (No added spheres)
                        Default sphere list used, NSphG=   32.
                        Lebedev-Laikov grids with approx.  5.0 points / Ang**2.
                        Smoothing algorithm: Karplus/York (Gamma=1.0000).
                        Polarization charges: spherical gaussians, with
                                              point-specific exponents (IZeta= 3).
                        Self-potential: point-specific (ISelfS= 7).
                        Self-field    : sphere-specific E.n sum rule (ISelfD= 2).
 1st derivatives      : Analytical E(r).r(x)/FMM algorithm (CHGder, D1EAlg=3).
                        Cavity 1st derivative terms included.
 2nd derivatives      : Analytical E(r).r(xy)/FMM algorithm (CHGder, D2EAlg=3).
                        Cavity 2nd derivative terms included.
 Solvent              : Toluene, Eps=   2.374100 Eps(inf)=   2.238315
 ------------------------------------------------------------------------------
 ------------------------------------------------------------------------------
 Atomic radii for non-electrostatic terms: SMD-CDS.
 ------------------------------------------------------------------------------
 Nuclear repulsion after PCM non-electrostatic terms =     1297.9536873251 Hartrees.
 One-electron integrals computed using PRISM.
 NBasis=   691 RedAO= T EigKep=  1.06D-06  NBF=   691
 NBsUse=   686 1.00D-06 EigRej=  8.06D-07 NBFU=   686
 ExpMin= 3.17D-02 ExpMax= 6.95D+04 ExpMxC= 2.37D+03 IAcc=3 IRadAn=         5 AccDes= 0.00D+00
 Harris functional with IExCor= 4639 and IRadAn=       5 diagonalized for initial guess.
 HarFok:  IExCor= 4639 AccDes= 0.00D+00 IRadAn=         5 IDoV= 1 UseB2=F ITyADJ=14
 ICtDFT=  3500011 ScaDFX=  1.000000  1.000000  1.000000  1.000000
 FoFCou: FMM=F IPFlag=           0 FMFlag=      100000 FMFlg1=           0
         NFxFlg=           0 DoJE=T BraDBF=F KetDBF=T FulRan=T
         wScrn=  0.000000 ICntrl=     500 IOpCl=  0 I1Cent=   200000004 NGrid=           0
         NMat0=    1 NMatS0=      1 NMatT0=    0 NMatD0=    1 NMtDS0=    0 NMtDT0=    0
 Petite list used in FoFCou.
 Requested convergence on RMS density matrix=1.00D-08 within 128 cycles.
 Requested convergence on MAX density matrix=1.00D-06.
 Requested convergence on             energy=1.00D-06.
 No special actions if energy rises.
 Inv3:  Mode=1 IEnd=    17656428.
 Iteration    1 A*A^-1 deviation from unit magnitude is 3.77D-15 for   2385.
 Iteration    1 A*A^-1 deviation from orthogonality  is 2.79D-15 for   1562   1008.
 Iteration    1 A^-1*A deviation from unit magnitude is 3.44D-15 for   2425.
 Iteration    1 A^-1*A deviation from orthogonality  is 3.33D-13 for   1477   1411.
 Error on total polarization charges =  0.02726
 SCF Done:  E(RwB97XD) =  -1116.03536036     A.U. after   17 cycles
            NFock= 17  Conv=0.56D-08     -V/T= 2.0035
 SMD-CDS (non-electrostatic) energy       (kcal/mol) =      -6.75
 (included in total energy above)
 DoSCS=F DFT=T ScalE2(SS,OS)=  1.000000  1.000000
 Range of M.O.s used for correlation:     1   686
 NBasis=   691 NAE=    65 NBE=    65 NFC=     0 NFV=     0
 NROrb=    686 NOA=    65 NOB=    65 NVA=   621 NVB=   621

 **** Warning!!: The largest alpha MO coefficient is  0.16497198D+03

 Symmetrizing basis deriv contribution to polar:
 IMax=3 JMax=2 DiffMx= 0.00D+00
 G2DrvN: will do    33 centers at a time, making    1 passes.
 Calling FoFCou, ICntrl=  3107 FMM=F I1Cent=   0 AccDes= 0.00D+00.
 NEqPCM:  Using equilibrium solvation (IEInf=0, Eps=   2.3741, EpsInf=   2.2383)
 G2PCM: DoFxE=T DoFxN=T DoGrad=T DoDP/DQ/DG/TGxP=FFFF NFrqRd=   0 IEInf=0 SqF1=F DoCFld=F IF1Alg=4.
 End of G2Drv F.D. properties file   721 does not exist.
 End of G2Drv F.D. properties file   722 does not exist.
 End of G2Drv F.D. properties file   788 does not exist.
          IDoAtm=11111111111111111111111111111111
 NEqPCM:  Using equilibrium solvation (IEInf=0, Eps=   2.3741, EpsInf=   2.2383)
          Differentiating once with respect to electric field.
                with respect to dipole field.
          Differentiating once with respect to nuclear coordinates.
          There are    99 degrees of freedom in the 1st order CPHF.  IDoFFX=6 NUNeed=     3.
     99 vectors produced by pass  0 Test12= 4.08D-14 1.01D-09 XBig12= 1.75D+02 8.22D+00.
 AX will form    99 AO Fock derivatives at one time.
     96 vectors produced by pass  1 Test12= 4.08D-14 1.01D-09 XBig12= 1.73D+01 5.61D-01.
     96 vectors produced by pass  2 Test12= 4.08D-14 1.01D-09 XBig12= 5.76D-01 1.16D-01.
     96 vectors produced by pass  3 Test12= 4.08D-14 1.01D-09 XBig12= 1.03D-02 1.01D-02.
     96 vectors produced by pass  4 Test12= 4.08D-14 1.01D-09 XBig12= 1.42D-04 9.57D-04.
     96 vectors produced by pass  5 Test12= 4.08D-14 1.01D-09 XBig12= 1.36D-06 8.46D-05.
     96 vectors produced by pass  6 Test12= 4.08D-14 1.01D-09 XBig12= 1.08D-08 6.98D-06.
     49 vectors produced by pass  7 Test12= 4.08D-14 1.01D-09 XBig12= 8.62D-11 5.72D-07.
     33 vectors produced by pass  8 Test12= 4.08D-14 1.01D-09 XBig12= 6.15D-12 3.13D-07.
     33 vectors produced by pass  9 Test12= 4.08D-14 1.01D-09 XBig12= 5.52D-13 7.52D-08.
     33 vectors produced by pass 10 Test12= 4.08D-14 1.01D-09 XBig12= 2.86D-14 1.26D-08.
     33 vectors produced by pass 11 Test12= 4.08D-14 1.01D-09 XBig12= 7.37D-14 2.50D-08.
     31 vectors produced by pass 12 Test12= 4.08D-14 1.01D-09 XBig12= 3.99D-14 1.43D-08.
     31 vectors produced by pass 13 Test12= 4.08D-14 1.01D-09 XBig12= 7.42D-14 2.08D-08.
     30 vectors produced by pass 14 Test12= 4.08D-14 1.01D-09 XBig12= 3.24D-14 1.29D-08.
     29 vectors produced by pass 15 Test12= 4.08D-14 1.01D-09 XBig12= 3.71D-14 1.57D-08.
     19 vectors produced by pass 16 Test12= 4.08D-14 1.01D-09 XBig12= 1.57D-14 6.58D-09.
     19 vectors produced by pass 17 Test12= 4.08D-14 1.01D-09 XBig12= 2.77D-14 1.20D-08.
     19 vectors produced by pass 18 Test12= 4.08D-14 1.01D-09 XBig12= 4.56D-14 1.53D-08.
      9 vectors produced by pass 19 Test12= 4.08D-14 1.01D-09 XBig12= 8.94D-15 6.04D-09.
      9 vectors produced by pass 20 Test12= 4.08D-14 1.01D-09 XBig12= 3.91D-14 1.19D-08.
      9 vectors produced by pass 21 Test12= 4.08D-14 1.01D-09 XBig12= 2.00D-14 9.19D-09.
      9 vectors produced by pass 22 Test12= 4.08D-14 1.01D-09 XBig12= 2.62D-14 9.89D-09.
      9 vectors produced by pass 23 Test12= 4.08D-14 1.01D-09 XBig12= 2.20D-14 8.79D-09.
      9 vectors produced by pass 24 Test12= 4.08D-14 1.01D-09 XBig12= 2.39D-14 8.67D-09.
      9 vectors produced by pass 25 Test12= 4.08D-14 1.01D-09 XBig12= 2.52D-14 9.33D-09.
      9 vectors produced by pass 26 Test12= 4.08D-14 1.01D-09 XBig12= 6.64D-15 5.35D-09.
      9 vectors produced by pass 27 Test12= 4.08D-14 1.01D-09 XBig12= 1.98D-14 8.26D-09.
      9 vectors produced by pass 28 Test12= 4.08D-14 1.01D-09 XBig12= 2.10D-14 8.28D-09.
      9 vectors produced by pass 29 Test12= 4.08D-14 1.01D-09 XBig12= 1.71D-14 7.93D-09.
      8 vectors produced by pass 30 Test12= 4.08D-14 1.01D-09 XBig12= 8.14D-15 4.72D-09.
      8 vectors produced by pass 31 Test12= 4.08D-14 1.01D-09 XBig12= 6.08D-15 4.40D-09.
      8 vectors produced by pass 32 Test12= 4.08D-14 1.01D-09 XBig12= 2.26D-14 8.48D-09.
      8 vectors produced by pass 33 Test12= 4.08D-14 1.01D-09 XBig12= 2.52D-14 9.04D-09.
      8 vectors produced by pass 34 Test12= 4.08D-14 1.01D-09 XBig12= 3.29D-14 9.74D-09.
      8 vectors produced by pass 35 Test12= 4.08D-14 1.01D-09 XBig12= 1.73D-14 7.20D-09.
      8 vectors produced by pass 36 Test12= 4.08D-14 1.01D-09 XBig12= 1.14D-14 6.10D-09.
      8 vectors produced by pass 37 Test12= 4.08D-14 1.01D-09 XBig12= 2.13D-14 7.94D-09.
      8 vectors produced by pass 38 Test12= 4.08D-14 1.01D-09 XBig12= 1.26D-14 5.98D-09.
      8 vectors produced by pass 39 Test12= 4.08D-14 1.01D-09 XBig12= 2.48D-14 8.88D-09.
      8 vectors produced by pass 40 Test12= 4.08D-14 1.01D-09 XBig12= 1.58D-14 6.40D-09.
      8 vectors produced by pass 41 Test12= 4.08D-14 1.01D-09 XBig12= 1.61D-14 6.69D-09.
      5 vectors produced by pass 42 Test12= 4.08D-14 1.01D-09 XBig12= 4.10D-15 3.16D-09.
      5 vectors produced by pass 43 Test12= 4.08D-14 1.01D-09 XBig12= 1.02D-14 5.48D-09.
      5 vectors produced by pass 44 Test12= 4.08D-14 1.01D-09 XBig12= 1.66D-14 6.20D-09.
      5 vectors produced by pass 45 Test12= 4.08D-14 1.01D-09 XBig12= 1.06D-14 5.05D-09.
      5 vectors produced by pass 46 Test12= 4.08D-14 1.01D-09 XBig12= 9.19D-15 5.30D-09.
      5 vectors produced by pass 47 Test12= 4.08D-14 1.01D-09 XBig12= 9.18D-15 4.65D-09.
      5 vectors produced by pass 48 Test12= 4.08D-14 1.01D-09 XBig12= 5.22D-15 3.44D-09.
      5 vectors produced by pass 49 Test12= 4.08D-14 1.01D-09 XBig12= 1.04D-14 5.54D-09.
      5 vectors produced by pass 50 Test12= 4.08D-14 1.01D-09 XBig12= 8.23D-15 5.02D-09.
      5 vectors produced by pass 51 Test12= 4.08D-14 1.01D-09 XBig12= 9.11D-15 4.50D-09.
      5 vectors produced by pass 52 Test12= 4.08D-14 1.01D-09 XBig12= 3.89D-15 2.99D-09.
      5 vectors produced by pass 53 Test12= 4.08D-14 1.01D-09 XBig12= 1.46D-14 6.49D-09.
      5 vectors produced by pass 54 Test12= 4.08D-14 1.01D-09 XBig12= 1.05D-14 5.25D-09.
      5 vectors produced by pass 55 Test12= 4.08D-14 1.01D-09 XBig12= 6.35D-15 5.06D-09.
      5 vectors produced by pass 56 Test12= 4.08D-14 1.01D-09 XBig12= 6.92D-15 4.45D-09.
      5 vectors produced by pass 57 Test12= 4.08D-14 1.01D-09 XBig12= 1.45D-14 6.50D-09.
      5 vectors produced by pass 58 Test12= 4.08D-14 1.01D-09 XBig12= 9.47D-15 5.52D-09.
      5 vectors produced by pass 59 Test12= 4.08D-14 1.01D-09 XBig12= 6.03D-15 3.80D-09.
      5 vectors produced by pass 60 Test12= 4.08D-14 1.01D-09 XBig12= 1.10D-14 6.06D-09.
      5 vectors produced by pass 61 Test12= 4.08D-14 1.01D-09 XBig12= 1.73D-14 6.32D-09.
      5 vectors produced by pass 62 Test12= 4.08D-14 1.01D-09 XBig12= 1.21D-14 6.59D-09.
      5 vectors produced by pass 63 Test12= 4.08D-14 1.01D-09 XBig12= 1.86D-14 5.57D-09.
      5 vectors produced by pass 64 Test12= 4.08D-14 1.01D-09 XBig12= 3.60D-15 2.82D-09.
      5 vectors produced by pass 65 Test12= 4.08D-14 1.01D-09 XBig12= 1.09D-14 5.01D-09.
      5 vectors produced by pass 66 Test12= 4.08D-14 1.01D-09 XBig12= 5.12D-15 3.53D-09.
      5 vectors produced by pass 67 Test12= 4.08D-14 1.01D-09 XBig12= 3.55D-15 2.73D-09.
      5 vectors produced by pass 68 Test12= 4.08D-14 1.01D-09 XBig12= 1.09D-14 5.23D-09.
      5 vectors produced by pass 69 Test12= 4.08D-14 1.01D-09 XBig12= 4.59D-15 2.85D-09.
      5 vectors produced by pass 70 Test12= 4.08D-14 1.01D-09 XBig12= 6.75D-15 4.51D-09.
      5 vectors produced by pass 71 Test12= 4.08D-14 1.01D-09 XBig12= 7.58D-15 4.33D-09.
      5 vectors produced by pass 72 Test12= 4.08D-14 1.01D-09 XBig12= 8.11D-15 4.30D-09.
      5 vectors produced by pass 73 Test12= 4.08D-14 1.01D-09 XBig12= 4.04D-15 2.96D-09.
      5 vectors produced by pass 74 Test12= 4.08D-14 1.01D-09 XBig12= 5.65D-15 3.61D-09.
      5 vectors produced by pass 75 Test12= 4.08D-14 1.01D-09 XBig12= 1.15D-14 4.60D-09.
      5 vectors produced by pass 76 Test12= 4.08D-14 1.01D-09 XBig12= 3.58D-15 2.54D-09.
      5 vectors produced by pass 77 Test12= 4.08D-14 1.01D-09 XBig12= 8.82D-15 4.48D-09.
      5 vectors produced by pass 78 Test12= 4.08D-14 1.01D-09 XBig12= 4.64D-15 3.68D-09.
      5 vectors produced by pass 79 Test12= 4.08D-14 1.01D-09 XBig12= 1.09D-14 6.20D-09.
      5 vectors produced by pass 80 Test12= 4.08D-14 1.01D-09 XBig12= 3.91D-15 2.73D-09.
      5 vectors produced by pass 81 Test12= 4.08D-14 1.01D-09 XBig12= 4.38D-15 3.20D-09.
      5 vectors produced by pass 82 Test12= 4.08D-14 1.01D-09 XBig12= 5.79D-15 3.55D-09.
      5 vectors produced by pass 83 Test12= 4.08D-14 1.01D-09 XBig12= 2.89D-15 2.31D-09.
      5 vectors produced by pass 84 Test12= 4.08D-14 1.01D-09 XBig12= 4.18D-15 3.22D-09.
      5 vectors produced by pass 85 Test12= 4.08D-14 1.01D-09 XBig12= 4.00D-15 3.12D-09.
      5 vectors produced by pass 86 Test12= 4.08D-14 1.01D-09 XBig12= 2.42D-15 2.82D-09.
      5 vectors produced by pass 87 Test12= 4.08D-14 1.01D-09 XBig12= 2.73D-15 2.75D-09.
      5 vectors produced by pass 88 Test12= 4.08D-14 1.01D-09 XBig12= 5.40D-15 3.50D-09.
      5 vectors produced by pass 89 Test12= 4.08D-14 1.01D-09 XBig12= 2.63D-15 2.34D-09.
      5 vectors produced by pass 90 Test12= 4.08D-14 1.01D-09 XBig12= 6.45D-15 4.19D-09.
      5 vectors produced by pass 91 Test12= 4.08D-14 1.01D-09 XBig12= 2.13D-15 2.28D-09.
      5 vectors produced by pass 92 Test12= 4.08D-14 1.01D-09 XBig12= 3.57D-15 2.94D-09.
      5 vectors produced by pass 93 Test12= 4.08D-14 1.01D-09 XBig12= 4.25D-15 2.76D-09.
      5 vectors produced by pass 94 Test12= 4.08D-14 1.01D-09 XBig12= 7.83D-15 4.06D-09.
      5 vectors produced by pass 95 Test12= 4.08D-14 1.01D-09 XBig12= 4.26D-15 3.61D-09.
      5 vectors produced by pass 96 Test12= 4.08D-14 1.01D-09 XBig12= 4.00D-15 2.97D-09.
      5 vectors produced by pass 97 Test12= 4.08D-14 1.01D-09 XBig12= 4.44D-15 2.68D-09.
      5 vectors produced by pass 98 Test12= 4.08D-14 1.01D-09 XBig12= 3.52D-15 2.48D-09.
      5 vectors produced by pass 99 Test12= 4.08D-14 1.01D-09 XBig12= 3.11D-15 2.52D-09.
      5 vectors produced by pass100 Test12= 4.08D-14 1.01D-09 XBig12= 3.50D-15 2.90D-09.
      5 vectors produced by pass101 Test12= 4.08D-14 1.01D-09 XBig12= 1.79D-15 1.94D-09.
      5 vectors produced by pass102 Test12= 4.08D-14 1.01D-09 XBig12= 5.32D-15 3.73D-09.
      5 vectors produced by pass103 Test12= 4.08D-14 1.01D-09 XBig12= 3.10D-15 2.67D-09.
      5 vectors produced by pass104 Test12= 4.08D-14 1.01D-09 XBig12= 4.88D-15 3.53D-09.
      5 vectors produced by pass105 Test12= 4.08D-14 1.01D-09 XBig12= 3.03D-15 2.65D-09.
      5 vectors produced by pass106 Test12= 4.08D-14 1.01D-09 XBig12= 6.20D-15 4.19D-09.
      5 vectors produced by pass107 Test12= 4.08D-14 1.01D-09 XBig12= 2.46D-15 2.34D-09.
      5 vectors produced by pass108 Test12= 4.08D-14 1.01D-09 XBig12= 2.99D-15 2.72D-09.
      5 vectors produced by pass109 Test12= 4.08D-14 1.01D-09 XBig12= 4.25D-15 2.92D-09.
      5 vectors produced by pass110 Test12= 4.08D-14 1.01D-09 XBig12= 2.44D-15 2.36D-09.
      5 vectors produced by pass111 Test12= 4.08D-14 1.01D-09 XBig12= 4.39D-15 3.27D-09.
      5 vectors produced by pass112 Test12= 4.08D-14 1.01D-09 XBig12= 2.49D-15 2.35D-09.
      5 vectors produced by pass113 Test12= 4.08D-14 1.01D-09 XBig12= 2.84D-15 2.26D-09.
      5 vectors produced by pass114 Test12= 4.08D-14 1.01D-09 XBig12= 2.11D-15 2.21D-09.
      5 vectors produced by pass115 Test12= 4.08D-14 1.01D-09 XBig12= 2.47D-15 2.23D-09.
      5 vectors produced by pass116 Test12= 4.08D-14 1.01D-09 XBig12= 2.77D-15 2.71D-09.
      4 vectors produced by pass117 Test12= 4.08D-14 1.01D-09 XBig12= 1.22D-15 1.58D-09.
      4 vectors produced by pass118 Test12= 4.08D-14 1.01D-09 XBig12= 4.10D-15 2.69D-09.
      4 vectors produced by pass119 Test12= 4.08D-14 1.01D-09 XBig12= 2.46D-15 2.20D-09.
      4 vectors produced by pass120 Test12= 4.08D-14 1.01D-09 XBig12= 4.12D-15 2.97D-09.
      4 vectors produced by pass121 Test12= 4.08D-14 1.01D-09 XBig12= 3.77D-15 2.77D-09.
      3 vectors produced by pass122 Test12= 4.08D-14 1.01D-09 XBig12= 1.86D-15 2.01D-09.
      1 vectors produced by pass123 Test12= 4.08D-14 1.01D-09 XBig12= 4.21D-16 1.17D-09.
 InvSVY:  IOpt=1 It=  1 EMax= 7.11D-15
 Solved reduced A of dimension  1628 with    99 vectors.
 Isotropic polarizability for W=    0.000000      260.56 Bohr**3.
 End of Minotr F.D. properties file   721 does not exist.
 End of Minotr F.D. properties file   722 does not exist.
 End of Minotr F.D. properties file   788 does not exist.

 **********************************************************************

            Population analysis using the SCF density.

 **********************************************************************

 Orbital symmetries:
       Occupied  (A) (A) (A) (A) (A) (A) (A) (A) (A) (A) (A) (A)
                 (A) (A) (A) (A) (A) (A) (A) (A) (A) (A) (A) (A)
                 (A) (A) (A) (A) (A) (A) (A) (A) (A) (A) (A) (A)
                 (A) (A) (A) (A) (A) (A) (A) (A) (A) (A) (A) (A)
                 (A) (A) (A) (A) (A) (A) (A) (A) (A) (A) (A) (A)
                 (A) (A) (A) (A) (A)
       Virtual   (A) (A) (A) (A) (A) (A) (A) (A) (A) (A) (A) (A)
                 (A) (A) (A) (A) (A) (A) (A) (A) (A) (A) (A) (A)
                 (A) (A) (A) (A) (A) (A) (A) (A) (A) (A) (A) (A)
                 (A) (A) (A) (A) (A) (A) (A) (A) (A) (A) (A) (A)
                 (A) (A) (A) (A) (A) (A) (A) (A) (A) (A) (A) (A)
                 (A) (A) (A) (A) (A) (A) (A) (A) (A) (A) (A) (A)
                 (A) (A) (A) (A) (A) (A) (A) (A) (A) (A) (A) (A)
                 (A) (A) (A) (A) (A) (A) (A) (A) (A) (A) (A) (A)
                 (A) (A) (A) (A) (A) (A) (A) (A) (A) (A) (A) (A)
                 (A) (A) (A) (A) (A) (A) (A) (A) (A) (A) (A) (A)
                 (A) (A) (A) (A) (A) (A) (A) (A) (A) (A) (A) (A)
                 (A) (A) (A) (A) (A) (A) (A) (A) (A) (A) (A) (A)
                 (A) (A) (A) (A) (A) (A) (A) (A) (A) (A) (A) (A)
                 (A) (A) (A) (A) (A) (A) (A) (A) (A) (A) (A) (A)
                 (A) (A) (A) (A) (A) (A) (A) (A) (A) (A) (A) (A)
                 (A) (A) (A) (A) (A) (A) (A) (A) (A) (A) (A) (A)
                 (A) (A) (A) (A) (A) (A) (A) (A) (A) (A) (A) (A)
                 (A) (A) (A) (A) (A) (A) (A) (A) (A) (A) (A) (A)
                 (A) (A) (A) (A) (A) (A) (A) (A) (A) (A) (A) (A)
                 (A) (A) (A) (A) (A) (A) (A) (A) (A) (A) (A) (A)
                 (A) (A) (A) (A) (A) (A) (A) (A) (A) (A) (A) (A)
                 (A) (A) (A) (A) (A) (A) (A) (A) (A) (A) (A) (A)
                 (A) (A) (A) (A) (A) (A) (A) (A) (A) (A) (A) (A)
                 (A) (A) (A) (A) (A) (A) (A) (A) (A) (A) (A) (A)
                 (A) (A) (A) (A) (A) (A) (A) (A) (A) (A) (A) (A)
                 (A) (A) (A) (A) (A) (A) (A) (A) (A) (A) (A) (A)
                 (A) (A) (A) (A) (A) (A) (A) (A) (A) (A) (A) (A)
                 (A) (A) (A) (A) (A) (A) (A) (A) (A) (A) (A) (A)
                 (A) (A) (A) (A) (A) (A) (A) (A) (A) (A) (A) (A)
                 (A) (A) (A) (A) (A) (A) (A) (A) (A) (A) (A) (A)
                 (A) (A) (A) (A) (A) (A) (A) (A) (A) (A) (A) (A)
                 (A) (A) (A) (A) (A) (A) (A) (A) (A) (A) (A) (A)
                 (A) (A) (A) (A) (A) (A) (A) (A) (A) (A) (A) (A)
                 (A) (A) (A) (A) (A) (A) (A) (A) (A) (A) (A) (A)
                 (A) (A) (A) (A) (A) (A) (A) (A) (A) (A) (A) (A)
                 (A) (A) (A) (A) (A) (A) (A) (A) (A) (A) (A) (A)
                 (A) (A) (A) (A) (A) (A) (A) (A) (A) (A) (A) (A)
                 (A) (A) (A) (A) (A) (A) (A) (A) (A) (A) (A) (A)
                 (A) (A) (A) (A) (A) (A) (A) (A) (A) (A) (A) (A)
                 (A) (A) (A) (A) (A) (A) (A) (A) (A) (A) (A) (A)
                 (A) (A) (A) (A) (A) (A) (A) (A) (A) (A) (A) (A)
                 (A) (A) (A) (A) (A) (A) (A) (A) (A) (A) (A) (A)
                 (A) (A) (A) (A) (A) (A) (A) (A) (A) (A) (A) (A)
                 (A) (A) (A) (A) (A) (A) (A) (A) (A) (A) (A) (A)
                 (A) (A) (A) (A) (A) (A) (A) (A) (A) (A) (A) (A)
                 (A) (A) (A) (A) (A) (A) (A) (A) (A) (A) (A) (A)
                 (A) (A) (A) (A) (A) (A) (A) (A) (A) (A) (A) (A)
                 (A) (A) (A) (A) (A) (A) (A) (A) (A) (A) (A) (A)
                 (A) (A) (A) (A) (A) (A) (A) (A) (A) (A) (A) (A)
                 (A) (A) (A) (A) (A) (A) (A) (A) (A) (A) (A) (A)
                 (A) (A) (A) (A) (A) (A) (A) (A) (A) (A) (A) (A)
                 (A) (A) (A) (A) (A) (A) (A) (A) (A)
 The electronic state is 1-A.
 Alpha  occ. eigenvalues -- -101.69551 -19.21717 -10.34361 -10.34283 -10.33731
 Alpha  occ. eigenvalues --  -10.31483 -10.30725 -10.29460 -10.29400 -10.29063
 Alpha  occ. eigenvalues --  -10.28844 -10.28712 -10.28588 -10.28489 -10.28212
 Alpha  occ. eigenvalues --  -10.28078 -10.27886  -9.58090  -7.32719  -7.31883
 Alpha  occ. eigenvalues --   -7.31858  -1.10864  -0.99510  -0.95375  -0.93816
 Alpha  occ. eigenvalues --   -0.91051  -0.85795  -0.85450  -0.84403  -0.80146
 Alpha  occ. eigenvalues --   -0.79176  -0.72845  -0.71992  -0.71499  -0.66503
 Alpha  occ. eigenvalues --   -0.62465  -0.60462  -0.60349  -0.58205  -0.57316
 Alpha  occ. eigenvalues --   -0.55206  -0.54925  -0.54239  -0.52029  -0.51218
 Alpha  occ. eigenvalues --   -0.51052  -0.49807  -0.49420  -0.48601  -0.47633
 Alpha  occ. eigenvalues --   -0.46755  -0.46575  -0.45888  -0.45036  -0.44370
 Alpha  occ. eigenvalues --   -0.43697  -0.43456  -0.42007  -0.39383  -0.38316
 Alpha  occ. eigenvalues --   -0.36826  -0.34139  -0.33263  -0.31306  -0.26751
 Alpha virt. eigenvalues --   -0.01421   0.02580   0.04285   0.04650   0.04924
 Alpha virt. eigenvalues --    0.05256   0.06251   0.06576   0.06731   0.07585
 Alpha virt. eigenvalues --    0.07777   0.07866   0.08632   0.08980   0.09480
 Alpha virt. eigenvalues --    0.09728   0.10223   0.10648   0.10827   0.11107
 Alpha virt. eigenvalues --    0.11500   0.11846   0.12386   0.12825   0.13356
 Alpha virt. eigenvalues --    0.13416   0.13875   0.14015   0.14286   0.14494
 Alpha virt. eigenvalues --    0.15237   0.15519   0.15743   0.15755   0.16115
 Alpha virt. eigenvalues --    0.16417   0.16943   0.17310   0.17502   0.17693
 Alpha virt. eigenvalues --    0.18102   0.18376   0.18523   0.18901   0.19259
 Alpha virt. eigenvalues --    0.19437   0.19713   0.19877   0.19987   0.20188
 Alpha virt. eigenvalues --    0.20686   0.21205   0.21457   0.21619   0.21750
 Alpha virt. eigenvalues --    0.22181   0.22609   0.23041   0.23375   0.23568
 Alpha virt. eigenvalues --    0.23906   0.24041   0.24754   0.24872   0.25119
 Alpha virt. eigenvalues --    0.25937   0.26156   0.27044   0.27189   0.27694
 Alpha virt. eigenvalues --    0.27816   0.28671   0.28880   0.29217   0.29986
 Alpha virt. eigenvalues --    0.30112   0.30207   0.31072   0.31268   0.32020
 Alpha virt. eigenvalues --    0.32477   0.32616   0.33174   0.33577   0.33810
 Alpha virt. eigenvalues --    0.33960   0.34534   0.35390   0.35832   0.36808
 Alpha virt. eigenvalues --    0.37145   0.37274   0.38221   0.38867   0.39453
 Alpha virt. eigenvalues --    0.40274   0.40899   0.41462   0.42439   0.43063
 Alpha virt. eigenvalues --    0.43481   0.43884   0.44729   0.44905   0.45374
 Alpha virt. eigenvalues --    0.45953   0.46142   0.46837   0.47171   0.47682
 Alpha virt. eigenvalues --    0.48074   0.48304   0.48617   0.49185   0.49773
 Alpha virt. eigenvalues --    0.50092   0.50586   0.51079   0.51257   0.51520
 Alpha virt. eigenvalues --    0.51908   0.52334   0.52958   0.53253   0.53742
 Alpha virt. eigenvalues --    0.54060   0.54904   0.55146   0.55315   0.55592
 Alpha virt. eigenvalues --    0.56581   0.56951   0.57160   0.58012   0.58457
 Alpha virt. eigenvalues --    0.58914   0.59235   0.59735   0.60028   0.60328
 Alpha virt. eigenvalues --    0.60706   0.61363   0.61806   0.61994   0.62319
 Alpha virt. eigenvalues --    0.62861   0.63228   0.64001   0.64759   0.65283
 Alpha virt. eigenvalues --    0.66059   0.66168   0.66532   0.67503   0.67899
 Alpha virt. eigenvalues --    0.68653   0.68915   0.69304   0.69476   0.70628
 Alpha virt. eigenvalues --    0.71297   0.71623   0.72687   0.73848   0.74479
 Alpha virt. eigenvalues --    0.74876   0.75339   0.76258   0.76771   0.77088
 Alpha virt. eigenvalues --    0.77388   0.78491   0.79594   0.80812   0.82043
 Alpha virt. eigenvalues --    0.82361   0.83164   0.83414   0.84313   0.84588
 Alpha virt. eigenvalues --    0.85230   0.86451   0.87623   0.88378   0.89109
 Alpha virt. eigenvalues --    0.89592   0.90745   0.91206   0.91707   0.92451
 Alpha virt. eigenvalues --    0.93770   0.95375   0.95614   0.97045   0.97536
 Alpha virt. eigenvalues --    0.98178   1.00481   1.01226   1.02467   1.03319
 Alpha virt. eigenvalues --    1.04074   1.05019   1.05884   1.06833   1.07521
 Alpha virt. eigenvalues --    1.08718   1.10655   1.10777   1.13030   1.13546
 Alpha virt. eigenvalues --    1.14453   1.15819   1.16789   1.17792   1.19142
 Alpha virt. eigenvalues --    1.19772   1.20814   1.21549   1.22170   1.22806
 Alpha virt. eigenvalues --    1.23781   1.24036   1.25815   1.26025   1.27052
 Alpha virt. eigenvalues --    1.27678   1.28678   1.29672   1.31619   1.31870
 Alpha virt. eigenvalues --    1.32820   1.33353   1.34340   1.35413   1.35948
 Alpha virt. eigenvalues --    1.38037   1.38488   1.38672   1.39782   1.40218
 Alpha virt. eigenvalues --    1.40997   1.42225   1.43426   1.43875   1.45867
 Alpha virt. eigenvalues --    1.46752   1.48026   1.48573   1.48928   1.50315
 Alpha virt. eigenvalues --    1.50676   1.52373   1.53746   1.55018   1.56921
 Alpha virt. eigenvalues --    1.57662   1.58865   1.60608   1.62122   1.62708
 Alpha virt. eigenvalues --    1.63778   1.64315   1.65188   1.65376   1.66895
 Alpha virt. eigenvalues --    1.67839   1.68511   1.69211   1.69542   1.70057
 Alpha virt. eigenvalues --    1.70750   1.71780   1.72541   1.73671   1.74815
 Alpha virt. eigenvalues --    1.74917   1.75202   1.75713   1.76756   1.77930
 Alpha virt. eigenvalues --    1.79071   1.79279   1.80684   1.81070   1.81561
 Alpha virt. eigenvalues --    1.82176   1.82551   1.84083   1.85502   1.86519
 Alpha virt. eigenvalues --    1.86712   1.87077   1.87568   1.89659   1.90906
 Alpha virt. eigenvalues --    1.91087   1.92371   1.93377   1.95118   1.95422
 Alpha virt. eigenvalues --    1.96457   1.97543   1.98204   1.99398   2.01698
 Alpha virt. eigenvalues --    2.02373   2.03232   2.03614   2.04952   2.06552
 Alpha virt. eigenvalues --    2.08638   2.09202   2.09697   2.10090   2.11887
 Alpha virt. eigenvalues --    2.12419   2.12936   2.13402   2.14505   2.14929
 Alpha virt. eigenvalues --    2.16628   2.16974   2.17900   2.18502   2.19787
 Alpha virt. eigenvalues --    2.22351   2.23312   2.24436   2.25142   2.25332
 Alpha virt. eigenvalues --    2.27170   2.28410   2.29110   2.29294   2.30064
 Alpha virt. eigenvalues --    2.31468   2.32960   2.33764   2.34417   2.36358
 Alpha virt. eigenvalues --    2.39033   2.40240   2.40783   2.42016   2.42564
 Alpha virt. eigenvalues --    2.42934   2.44089   2.45120   2.46475   2.46799
 Alpha virt. eigenvalues --    2.47842   2.48110   2.49600   2.49990   2.50501
 Alpha virt. eigenvalues --    2.51426   2.51809   2.53401   2.54261   2.56126
 Alpha virt. eigenvalues --    2.57591   2.58405   2.59224   2.59538   2.60739
 Alpha virt. eigenvalues --    2.62747   2.63792   2.64078   2.65101   2.65808
 Alpha virt. eigenvalues --    2.67488   2.68305   2.70610   2.70963   2.71106
 Alpha virt. eigenvalues --    2.71722   2.72384   2.72887   2.73711   2.73943
 Alpha virt. eigenvalues --    2.75360   2.75505   2.76489   2.77940   2.78742
 Alpha virt. eigenvalues --    2.80818   2.82248   2.82829   2.83335   2.84852
 Alpha virt. eigenvalues --    2.84987   2.86626   2.86877   2.88287   2.88435
 Alpha virt. eigenvalues --    2.89567   2.90014   2.91074   2.91694   2.92422
 Alpha virt. eigenvalues --    2.92927   2.94365   2.94996   2.96248   2.97381
 Alpha virt. eigenvalues --    2.98914   2.99216   2.99811   3.00688   3.01471
 Alpha virt. eigenvalues --    3.02663   3.03520   3.04076   3.05055   3.05364
 Alpha virt. eigenvalues --    3.06614   3.08274   3.08966   3.09731   3.10261
 Alpha virt. eigenvalues --    3.10471   3.11706   3.12514   3.14913   3.15274
 Alpha virt. eigenvalues --    3.15886   3.17057   3.18392   3.19062   3.20765
 Alpha virt. eigenvalues --    3.21423   3.21922   3.22376   3.24833   3.26003
 Alpha virt. eigenvalues --    3.26217   3.26967   3.27363   3.28241   3.28948
 Alpha virt. eigenvalues --    3.29701   3.30930   3.32505   3.32898   3.33417
 Alpha virt. eigenvalues --    3.33683   3.35500   3.35846   3.36331   3.36624
 Alpha virt. eigenvalues --    3.37301   3.38630   3.38751   3.39911   3.40457
 Alpha virt. eigenvalues --    3.41589   3.42091   3.42485   3.43027   3.43826
 Alpha virt. eigenvalues --    3.44380   3.45198   3.47069   3.47595   3.48365
 Alpha virt. eigenvalues --    3.49608   3.50151   3.50877   3.51760   3.52022
 Alpha virt. eigenvalues --    3.52915   3.53111   3.54078   3.54375   3.56711
 Alpha virt. eigenvalues --    3.57619   3.58221   3.59048   3.59976   3.60451
 Alpha virt. eigenvalues --    3.61049   3.62376   3.63544   3.64243   3.64797
 Alpha virt. eigenvalues --    3.65608   3.66630   3.68051   3.68813   3.70967
 Alpha virt. eigenvalues --    3.72356   3.72572   3.73640   3.74817   3.75143
 Alpha virt. eigenvalues --    3.76692   3.77073   3.79794   3.80377   3.81643
 Alpha virt. eigenvalues --    3.82627   3.82906   3.85165   3.86998   3.89052
 Alpha virt. eigenvalues --    3.91864   3.93245   3.94599   3.96095   3.96811
 Alpha virt. eigenvalues --    3.98079   3.99068   3.99846   4.03978   4.05287
 Alpha virt. eigenvalues --    4.06567   4.09673   4.11201   4.12547   4.13006
 Alpha virt. eigenvalues --    4.15165   4.16068   4.17404   4.18569   4.19164
 Alpha virt. eigenvalues --    4.20490   4.22614   4.23949   4.26125   4.26581
 Alpha virt. eigenvalues --    4.28698   4.29835   4.30826   4.31591   4.32802
 Alpha virt. eigenvalues --    4.34524   4.35743   4.36166   4.36900   4.37906
 Alpha virt. eigenvalues --    4.39645   4.41412   4.42204   4.43678   4.45488
 Alpha virt. eigenvalues --    4.46259   4.48158   4.50550   4.51597   4.54720
 Alpha virt. eigenvalues --    4.56216   4.58523   4.58965   4.60220   4.62523
 Alpha virt. eigenvalues --    4.64976   4.69715   4.72001   4.75213   4.76595
 Alpha virt. eigenvalues --    4.80490   4.82764   4.84113   4.85341   4.86000
 Alpha virt. eigenvalues --    4.87500   4.90862   4.94202   4.98632   5.01904
 Alpha virt. eigenvalues --    5.03172   5.04672   5.07038   5.08946   5.10645
 Alpha virt. eigenvalues --    5.17249   5.22284   5.22922   5.28391   5.28954
 Alpha virt. eigenvalues --    5.32526   5.34389   5.35517   5.40955   5.42304
 Alpha virt. eigenvalues --    5.44217   5.49823   5.65014   5.69039   5.73345
 Alpha virt. eigenvalues --    5.77431   5.92118   5.95126   6.20567   6.50420
 Alpha virt. eigenvalues --    6.66406   6.76783   6.91411   7.07047   7.26771
 Alpha virt. eigenvalues --    7.33758  10.94148  11.03277  11.51585  22.43780
 Alpha virt. eigenvalues --   22.56503  22.60856  22.63055  22.74999  22.78293
 Alpha virt. eigenvalues --   22.83149  22.86290  22.91619  22.99668  23.07798
 Alpha virt. eigenvalues --   23.10338  23.15562  23.43076  23.84292  26.41414
 Alpha virt. eigenvalues --   44.41787
          Condensed to atoms (all electrons):
               1          2          3          4          5          6
     1  C    5.384253   0.079578  -0.063335   0.039864  -0.576118   0.417877
     2  C    0.079578   5.858718   0.052454  -0.136500   0.414568  -0.133448
     3  C   -0.063335   0.052454   6.460635   0.610634  -0.351702   0.016639
     4  C    0.039864  -0.136500   0.610634   6.292453   0.193532  -0.188905
     5  C   -0.576118   0.414568  -0.351702   0.193532   6.686349   0.513931
     6  C    0.417877  -0.133448   0.016639  -0.188905   0.513931   5.149783
     7  H    0.400567  -0.046772   0.014320  -0.013581   0.041045  -0.025714
     8  H   -0.025329   0.437883  -0.032693   0.019637  -0.018387   0.011334
     9  H    0.008810  -0.020293   0.031976  -0.011481   0.391657  -0.026198
    10  H   -0.018938   0.034794  -0.018368   0.021752  -0.063063   0.410060
    11  C    0.121662  -0.056014  -0.213609   0.265412  -0.360322  -0.120313
    12  C    0.138103  -0.360697   0.008686  -0.340588  -0.507960   0.132481
    13  C    0.115844   0.039243  -0.334709  -0.213214  -0.242697  -0.146194
    14  H    0.000945  -0.004194  -0.010972   0.011663  -0.006010   0.001233
    15  C    0.117774  -0.033050  -0.101001  -0.346749  -0.267426  -0.019180
    16  H    0.002075  -0.002286   0.028802  -0.011349  -0.003887   0.000195
    17  O   -0.003849   0.004974  -0.014476  -0.067998   0.032081  -0.013490
    18  Cl  -0.025529   0.036754  -0.156750   0.012352   0.011620  -0.001190
    19  C   -0.045435   0.014076  -0.143763  -0.123840   0.158300   0.095209
    20  C    0.013542   0.003981   0.092375   0.142784   0.164806  -0.044679
    21  H    0.000148  -0.000156   0.001418   0.001215  -0.002533  -0.000196
    22  C   -0.001835  -0.000073  -0.015385  -0.036809   0.017757   0.009319
    23  H    0.000217  -0.000224  -0.001144   0.000407   0.000003   0.000212
    24  H   -0.000655   0.000484  -0.000243  -0.013504   0.007642   0.000966
    25  H    0.000032  -0.000088   0.000841   0.004530  -0.002478  -0.000050
    26  C    0.070276  -0.050950   0.083118   0.022753  -0.386351  -0.050006
    27  H   -0.005171   0.002527   0.015274  -0.003456  -0.003147   0.000202
    28  H    0.000017  -0.000013   0.000121  -0.003198   0.008115   0.000051
    29  H   -0.002773  -0.000658   0.008549   0.003593  -0.020757  -0.002847
    30  C   -0.053927   0.007904   0.068902   0.167930   0.173319   0.020410
    31  H    0.000128   0.000015   0.000419  -0.005525  -0.001679   0.000371
    32  H    0.001565  -0.009218   0.013465   0.018658  -0.018173   0.003242
               7          8          9         10         11         12
     1  C    0.400567  -0.025329   0.008810  -0.018938   0.121662   0.138103
     2  C   -0.046772   0.437883  -0.020293   0.034794  -0.056014  -0.360697
     3  C    0.014320  -0.032693   0.031976  -0.018368  -0.213609   0.008686
     4  C   -0.013581   0.019637  -0.011481   0.021752   0.265412  -0.340588
     5  C    0.041045  -0.018387   0.391657  -0.063063  -0.360322  -0.507960
     6  C   -0.025714   0.011334  -0.026198   0.410060  -0.120313   0.132481
     7  H    0.490241  -0.005818   0.000018  -0.005517  -0.001434  -0.006606
     8  H   -0.005818   0.487534   0.000001  -0.000012  -0.005561  -0.024539
     9  H    0.000018   0.000001   0.451328  -0.004522  -0.019317  -0.001594
    10  H   -0.005517  -0.000012  -0.004522   0.490499  -0.001151  -0.004209
    11  C   -0.001434  -0.005561  -0.019317  -0.001151   5.858709  -0.326028
    12  C   -0.006606  -0.024539  -0.001594  -0.004209  -0.326028   6.722936
    13  C   -0.001011  -0.006866  -0.007204   0.000559   0.889286  -0.399920
    14  H    0.000000  -0.000001   0.000017   0.000000  -0.063849   0.031427
    15  C   -0.000708  -0.008983  -0.000148  -0.000962  -0.046655   0.616227
    16  H    0.000000   0.000034  -0.000001   0.000000   0.024662  -0.069156
    17  O    0.000001  -0.000089   0.009611   0.000313   0.263810  -0.012064
    18  Cl   0.000324  -0.001262   0.000058   0.000004  -0.002342   0.288234
    19  C   -0.000190  -0.000577  -0.007594  -0.000339   0.007872   0.329204
    20  C    0.000052   0.000113   0.006527   0.000745  -0.221728  -0.326570
    21  H    0.000000   0.000000   0.000013   0.000000  -0.000186   0.000273
    22  C    0.000003  -0.000012  -0.000937  -0.000008  -0.013686   0.007561
    23  H    0.000000   0.000000   0.000007   0.000000  -0.007150  -0.000222
    24  H    0.000000   0.000000   0.000322   0.000000   0.002563   0.000182
    25  H    0.000000   0.000000  -0.000010   0.000000   0.000600   0.000485
    26  C    0.000081   0.000066   0.002376  -0.000105   0.058355   0.096499
    27  H    0.000004  -0.000011  -0.000865   0.000031   0.007609  -0.011342
    28  H    0.000000   0.000000   0.000177  -0.000002  -0.005698  -0.000424
    29  H    0.000002  -0.000001  -0.001733  -0.000016  -0.007960   0.003469
    30  C    0.000105   0.000546  -0.000250  -0.000358   0.025359  -0.156741
    31  H    0.000000   0.000001   0.000000   0.000000  -0.005543   0.005307
    32  H    0.000001   0.000007   0.000056   0.000001  -0.036509   0.041694
              13         14         15         16         17         18
     1  C    0.115844   0.000945   0.117774   0.002075  -0.003849  -0.025529
     2  C    0.039243  -0.004194  -0.033050  -0.002286   0.004974   0.036754
     3  C   -0.334709  -0.010972  -0.101001   0.028802  -0.014476  -0.156750
     4  C   -0.213214   0.011663  -0.346749  -0.011349  -0.067998   0.012352
     5  C   -0.242697  -0.006010  -0.267426  -0.003887   0.032081   0.011620
     6  C   -0.146194   0.001233  -0.019180   0.000195  -0.013490  -0.001190
     7  H   -0.001011   0.000000  -0.000708   0.000000   0.000001   0.000324
     8  H   -0.006866  -0.000001  -0.008983   0.000034  -0.000089  -0.001262
     9  H   -0.007204   0.000017  -0.000148  -0.000001   0.009611   0.000058
    10  H    0.000559   0.000000  -0.000962   0.000000   0.000313   0.000004
    11  C    0.889286  -0.063849  -0.046655   0.024662   0.263810  -0.002342
    12  C   -0.399920   0.031427   0.616227  -0.069156  -0.012064   0.288234
    13  C    6.228907   0.441248   0.349422  -0.052876  -0.082249   0.047900
    14  H    0.441248   0.483077  -0.031449  -0.005567  -0.002234  -0.000103
    15  C    0.349422  -0.031449   5.645690   0.444337   0.005242  -0.100413
    16  H   -0.052876  -0.005567   0.444337   0.481487  -0.000924  -0.010718
    17  O   -0.082249  -0.002234   0.005242  -0.000924   8.529221   0.000431
    18  Cl   0.047900  -0.000103  -0.100413  -0.010718   0.000431  17.080831
    19  C   -0.321681   0.007670  -0.167781   0.000349   0.012051   0.001164
    20  C   -0.091327   0.010773  -0.009594   0.001304  -0.104043  -0.004065
    21  H   -0.002389  -0.000298   0.003351   0.000024  -0.003598   0.000006
    22  C    0.034764  -0.002056   0.013068  -0.000007  -0.032766   0.000196
    23  H    0.004159   0.000030   0.003003   0.000000  -0.004664   0.000000
    24  H    0.000317   0.000016   0.000199   0.000000  -0.005885   0.000001
    25  H   -0.002037  -0.000003  -0.000546   0.000000   0.005543   0.000000
    26  C    0.142669   0.008934   0.098507  -0.000838   0.047122  -0.001548
    27  H   -0.012549  -0.000192  -0.001001   0.000014  -0.003672   0.000124
    28  H   -0.001744   0.000023  -0.000125   0.000000   0.003168  -0.000011
    29  H   -0.000592   0.000019   0.001424   0.000000  -0.001128   0.000009
    30  C   -0.077775  -0.058352  -0.163979  -0.002503  -0.043124   0.006570
    31  H   -0.014382  -0.002744   0.011802   0.000588   0.000492  -0.000159
    32  H   -0.056994   0.002525  -0.002210   0.000122   0.001526  -0.000610
              19         20         21         22         23         24
     1  C   -0.045435   0.013542   0.000148  -0.001835   0.000217  -0.000655
     2  C    0.014076   0.003981  -0.000156  -0.000073  -0.000224   0.000484
     3  C   -0.143763   0.092375   0.001418  -0.015385  -0.001144  -0.000243
     4  C   -0.123840   0.142784   0.001215  -0.036809   0.000407  -0.013504
     5  C    0.158300   0.164806  -0.002533   0.017757   0.000003   0.007642
     6  C    0.095209  -0.044679  -0.000196   0.009319   0.000212   0.000966
     7  H   -0.000190   0.000052   0.000000   0.000003   0.000000   0.000000
     8  H   -0.000577   0.000113   0.000000  -0.000012   0.000000   0.000000
     9  H   -0.007594   0.006527   0.000013  -0.000937   0.000007   0.000322
    10  H   -0.000339   0.000745   0.000000  -0.000008   0.000000   0.000000
    11  C    0.007872  -0.221728  -0.000186  -0.013686  -0.007150   0.002563
    12  C    0.329204  -0.326570   0.000273   0.007561  -0.000222   0.000182
    13  C   -0.321681  -0.091327  -0.002389   0.034764   0.004159   0.000317
    14  H    0.007670   0.010773  -0.000298  -0.002056   0.000030   0.000016
    15  C   -0.167781  -0.009594   0.003351   0.013068   0.003003   0.000199
    16  H    0.000349   0.001304   0.000024  -0.000007   0.000000   0.000000
    17  O    0.012051  -0.104043  -0.003598  -0.032766  -0.004664  -0.005885
    18  Cl   0.001164  -0.004065   0.000006   0.000196   0.000000   0.000001
    19  C    7.460108  -0.942713  -0.059661   0.022215  -0.130284  -0.046238
    20  C   -0.942713   7.118205   0.453898  -0.153963   0.068384  -0.031662
    21  H   -0.059661   0.453898   0.493042   0.006072   0.002050   0.000121
    22  C    0.022215  -0.153963   0.006072   5.331542   0.452015   0.454347
    23  H   -0.130284   0.068384   0.002050   0.452015   0.515000  -0.018322
    24  H   -0.046238  -0.031662   0.000121   0.454347  -0.018322   0.492982
    25  H    0.000741  -0.046222   0.000362   0.414268  -0.015916  -0.025859
    26  C    0.094810  -0.336751  -0.002920  -0.031342   0.007143  -0.004929
    27  H   -0.038066   0.038357  -0.000264  -0.034324  -0.000256  -0.000035
    28  H   -0.055869   0.013261  -0.000129  -0.016692  -0.000304   0.000735
    29  H   -0.076660  -0.047389   0.000022   0.039283  -0.000100   0.002579
    30  C   -0.292881   0.444756  -0.043544  -0.055310  -0.022780   0.013326
    31  H    0.013817  -0.069284  -0.003142   0.000004  -0.000058  -0.000012
    32  H    0.003272  -0.032837   0.002229  -0.002390   0.000029   0.000014
              25         26         27         28         29         30
     1  C    0.000032   0.070276  -0.005171   0.000017  -0.002773  -0.053927
     2  C   -0.000088  -0.050950   0.002527  -0.000013  -0.000658   0.007904
     3  C    0.000841   0.083118   0.015274   0.000121   0.008549   0.068902
     4  C    0.004530   0.022753  -0.003456  -0.003198   0.003593   0.167930
     5  C   -0.002478  -0.386351  -0.003147   0.008115  -0.020757   0.173319
     6  C   -0.000050  -0.050006   0.000202   0.000051  -0.002847   0.020410
     7  H    0.000000   0.000081   0.000004   0.000000   0.000002   0.000105
     8  H    0.000000   0.000066  -0.000011   0.000000  -0.000001   0.000546
     9  H   -0.000010   0.002376  -0.000865   0.000177  -0.001733  -0.000250
    10  H    0.000000  -0.000105   0.000031  -0.000002  -0.000016  -0.000358
    11  C    0.000600   0.058355   0.007609  -0.005698  -0.007960   0.025359
    12  C    0.000485   0.096499  -0.011342  -0.000424   0.003469  -0.156741
    13  C   -0.002037   0.142669  -0.012549  -0.001744  -0.000592  -0.077775
    14  H   -0.000003   0.008934  -0.000192   0.000023   0.000019  -0.058352
    15  C   -0.000546   0.098507  -0.001001  -0.000125   0.001424  -0.163979
    16  H    0.000000  -0.000838   0.000014   0.000000   0.000000  -0.002503
    17  O    0.005543   0.047122  -0.003672   0.003168  -0.001128  -0.043124
    18  Cl   0.000000  -0.001548   0.000124  -0.000011   0.000009   0.006570
    19  C    0.000741   0.094810  -0.038066  -0.055869  -0.076660  -0.292881
    20  C   -0.046222  -0.336751   0.038357   0.013261  -0.047389   0.444756
    21  H    0.000362  -0.002920  -0.000264  -0.000129   0.000022  -0.043544
    22  C    0.414268  -0.031342  -0.034324  -0.016692   0.039283  -0.055310
    23  H   -0.015916   0.007143  -0.000256  -0.000304  -0.000100  -0.022780
    24  H   -0.025859  -0.004929  -0.000035   0.000735   0.002579   0.013326
    25  H    0.515145  -0.007843  -0.000186   0.001442  -0.000944  -0.003809
    26  C   -0.007843   5.692576   0.356488   0.408740   0.495919  -0.320595
    27  H   -0.000186   0.356488   0.525922  -0.018174  -0.020049   0.047941
    28  H    0.001442   0.408740  -0.018174   0.505923  -0.020660   0.007246
    29  H   -0.000944   0.495919  -0.020049  -0.020660   0.504549  -0.020468
    30  C   -0.003809  -0.320595   0.047941   0.007246  -0.020468   5.906174
    31  H    0.000039   0.013333   0.000502  -0.000018  -0.000020   0.416738
    32  H   -0.000001   0.005362  -0.005068   0.000977   0.000443   0.402416
              31         32
     1  C    0.000128   0.001565
     2  C    0.000015  -0.009218
     3  C    0.000419   0.013465
     4  C   -0.005525   0.018658
     5  C   -0.001679  -0.018173
     6  C    0.000371   0.003242
     7  H    0.000000   0.000001
     8  H    0.000001   0.000007
     9  H    0.000000   0.000056
    10  H    0.000000   0.000001
    11  C   -0.005543  -0.036509
    12  C    0.005307   0.041694
    13  C   -0.014382  -0.056994
    14  H   -0.002744   0.002525
    15  C    0.011802  -0.002210
    16  H    0.000588   0.000122
    17  O    0.000492   0.001526
    18  Cl  -0.000159  -0.000610
    19  C    0.013817   0.003272
    20  C   -0.069284  -0.032837
    21  H   -0.003142   0.002229
    22  C    0.000004  -0.002390
    23  H   -0.000058   0.000029
    24  H   -0.000012   0.000014
    25  H    0.000039  -0.000001
    26  C    0.013333   0.005362
    27  H    0.000502  -0.005068
    28  H   -0.000018   0.000977
    29  H   -0.000020   0.000443
    30  C    0.416738   0.402416
    31  H    0.461545  -0.007550
    32  H   -0.007550   0.464668
 Mulliken charges:
               1
     1  C   -0.090382
     2  C   -0.133318
     3  C   -0.050477
     4  C   -0.312473
     5  C    0.017967
     6  C   -0.011105
     7  H    0.160589
     8  H    0.172983
     9  H    0.199193
    10  H    0.158811
    11  C   -0.010843
    12  C    0.125892
    13  C   -0.225908
    14  H    0.188424
    15  C   -0.008085
    16  H    0.176121
    17  O   -0.519330
    18  Cl  -0.181878
    19  C    0.232712
    20  C   -0.111033
    21  H    0.154770
    22  C   -0.404819
    23  H    0.148767
    24  H    0.170547
    25  H    0.161966
    26  C   -0.510948
    27  H    0.162835
    28  H    0.173065
    29  H    0.164895
    30  C   -0.393244
    31  H    0.185016
    32  H    0.209288
 Sum of Mulliken charges =   0.00000
 Mulliken charges with hydrogens summed into heavy atoms:
               1
     1  C    0.070207
     2  C    0.039665
     3  C   -0.050477
     4  C   -0.312473
     5  C    0.217160
     6  C    0.147706
    11  C   -0.010843
    12  C    0.125892
    13  C   -0.037484
    15  C    0.168036
    17  O   -0.519330
    18  Cl  -0.181878
    19  C    0.232712
    20  C    0.043737
    22  C    0.076461
    26  C   -0.010153
    30  C    0.001061
 APT charges:
               1
     1  C   -0.015241
     2  C   -0.127346
     3  C    0.001257
     4  C   -0.035204
     5  C   -0.080941
     6  C   -0.032586
     7  H    0.040481
     8  H    0.077180
     9  H    0.080596
    10  H    0.041680
    11  C    0.412815
    12  C    0.306437
    13  C   -0.391290
    14  H    0.055087
    15  C    0.107204
    16  H    0.057986
    17  O   -0.703668
    18  Cl  -0.421908
    19  C    0.637707
    20  C   -0.579624
    21  H    0.044619
    22  C   -0.094367
    23  H    0.009230
    24  H    0.030142
    25  H   -0.019818
    26  C   -0.111539
    27  H    0.025963
    28  H    0.023740
    29  H    0.042367
    30  C    0.583112
    31  H    0.039151
    32  H   -0.003222
 Sum of APT charges =   0.00000
 APT charges with hydrogens summed into heavy atoms:
               1
     1  C    0.025240
     2  C   -0.050166
     3  C    0.001257
     4  C   -0.035204
     5  C   -0.000345
     6  C    0.009094
    11  C    0.412815
    12  C    0.306437
    13  C   -0.336202
    15  C    0.165190
    17  O   -0.703668
    18  Cl  -0.421908
    19  C    0.637707
    20  C   -0.535006
    22  C   -0.074813
    26  C   -0.019469
    30  C    0.619042
 Electronic spatial extent (au):  <R**2>=           4418.0040
 Charge=              0.0000 electrons
 Dipole moment (field-independent basis, Debye):
    X=              3.2744    Y=             -0.1381    Z=              2.3283  Tot=              4.0202
 Quadrupole moment (field-independent basis, Debye-Ang):
   XX=           -102.6973   YY=            -95.5981   ZZ=           -112.2241
   XY=             -4.6385   XZ=              2.7653   YZ=              3.1055
 Traceless Quadrupole moment (field-independent basis, Debye-Ang):
   XX=              0.8092   YY=              7.9084   ZZ=             -8.7176
   XY=             -4.6385   XZ=              2.7653   YZ=              3.1055
 Octapole moment (field-independent basis, Debye-Ang**2):
  XXX=             53.1070  YYY=             -1.5037  ZZZ=              5.9824  XYY=              4.8265
  XXY=             18.5798  XXZ=             12.8779  XZZ=              0.0741  YZZ=             -5.9047
  YYZ=             -3.3353  XYZ=              0.2659
 Hexadecapole moment (field-independent basis, Debye-Ang**3):
 XXXX=          -3574.4802 YYYY=          -1600.7253 ZZZZ=           -471.2991 XXXY=            -17.3010
 XXXZ=            -31.9920 YYYX=            -18.1563 YYYZ=             16.0462 ZZZX=              0.1164
 ZZZY=              4.5691 XXYY=           -896.4540 XXZZ=           -722.0252 YYZZ=           -390.0901
 XXYZ=             36.8770 YYXZ=            -28.4452 ZZXY=             18.5160
 N-N= 1.297953687325D+03 E-N=-5.215130571966D+03  KE= 1.112155615905D+03
  Exact polarizability: 347.320  -8.138 270.669   3.537   2.626 163.697
 Approx polarizability: 297.067   2.948 260.889  -6.190   0.591 181.892
 D2PCM: PCM CHGder 2nd derivatives, FixD1E=F FixD2E=F DoIter=F DoCFld=F I1PDM=0
 Calling FoFJK, ICntrl=    100127 FMM=F ISym2X=0 I1Cent= 0 IOpClX= 0 NMat=1 NMatS=1 NMatT=0.
 Full mass-weighted force constant matrix:
 Low frequencies --- -351.8343  -16.8083   -0.0021   -0.0005    0.0015    3.2992
 Low frequencies ---   14.3293   51.1888   72.2521
 ******    1 imaginary frequencies (negative Signs) ****** 
 Diagonal vibrational polarizability:
       87.5832282      14.5534247      36.8443584
 Harmonic frequencies (cm**-1), IR intensities (KM/Mole), Raman scattering
 activities (A**4/AMU), depolarization ratios for plane and unpolarized
 incident light, reduced masses (AMU), force constants (mDyne/A),
 and normal coordinates:
                      1                      2                      3
                      A                      A                      A
 Frequencies --   -351.8336                51.1572                72.1929
 Red. masses --      8.4852                 4.0305                 4.5468
 Frc consts  --      0.6189                 0.0062                 0.0140
 IR Inten    --    121.4965                 0.0099                 0.5948
  Atom  AN      X      Y      Z        X      Y      Z        X      Y      Z
     1   6     0.00   0.01   0.00     0.03   0.03  -0.05     0.10  -0.04   0.15
     2   6     0.00  -0.01   0.00     0.03   0.03  -0.01     0.09  -0.04   0.12
     3   6     0.00   0.01   0.02     0.02   0.02  -0.01     0.05  -0.02  -0.01
     4   6    -0.03   0.03   0.01     0.01   0.01  -0.05     0.02  -0.01  -0.09
     5   6    -0.02   0.00  -0.01     0.01   0.01  -0.09     0.02  -0.01  -0.08
     6   6    -0.02   0.01   0.00     0.02   0.02  -0.09     0.06  -0.03   0.04
     7   1    -0.01   0.00   0.00     0.04   0.04  -0.06     0.14  -0.05   0.26
     8   1     0.00  -0.01   0.00     0.04   0.03   0.02     0.12  -0.04   0.20
     9   1    -0.02  -0.01  -0.02     0.01   0.00  -0.11    -0.01   0.00  -0.16
    10   1    -0.01   0.01   0.02     0.02   0.02  -0.13     0.06  -0.03   0.05
    11   6     0.03   0.03  -0.04     0.00   0.00  -0.05     0.01  -0.01  -0.12
    12   6     0.02  -0.04   0.02     0.02   0.02   0.02     0.03  -0.02  -0.05
    13   6     0.16  -0.09   0.31    -0.01   0.01  -0.08    -0.01   0.00  -0.14
    14   1    -0.02   0.00  -0.05    -0.04   0.01  -0.12     0.02  -0.01  -0.09
    15   6     0.03  -0.04   0.12     0.00   0.01  -0.04     0.00  -0.01  -0.13
    16   1     0.02  -0.03   0.12    -0.01   0.02  -0.03    -0.01   0.00  -0.15
    17   8    -0.18   0.05  -0.26     0.02   0.00  -0.02     0.03  -0.02  -0.07
    18  17     0.00   0.00  -0.01     0.06   0.02   0.13     0.06  -0.03   0.05
    19   6     0.21  -0.11   0.26    -0.07  -0.01   0.05    -0.09   0.04   0.03
    20   6     0.01   0.06  -0.06     0.01  -0.04  -0.08    -0.15   0.06   0.11
    21   1    -0.07   0.04  -0.13     0.07   0.05  -0.14    -0.12  -0.01   0.23
    22   6     0.10  -0.02   0.10    -0.06   0.15   0.15    -0.02  -0.08   0.10
    23   1     0.12  -0.05   0.14     0.04   0.23   0.11    -0.03  -0.12   0.15
    24   1    -0.10  -0.10  -0.01    -0.10   0.18   0.22     0.08  -0.09   0.06
    25   1     0.19   0.20  -0.03    -0.11   0.15   0.21    -0.06  -0.11   0.15
    26   6     0.03  -0.01   0.04    -0.19  -0.12   0.11    -0.09   0.12  -0.07
    27   1     0.03  -0.05   0.00    -0.19  -0.21   0.05    -0.10   0.17  -0.08
    28   1    -0.04   0.20   0.08    -0.24  -0.16   0.14    -0.11   0.18  -0.06
    29   1    -0.02  -0.07  -0.09    -0.24  -0.07   0.20    -0.05   0.08  -0.15
    30   6    -0.28   0.10  -0.38     0.04  -0.16  -0.13    -0.20   0.13   0.04
    31   1    -0.18   0.08  -0.25     0.09  -0.17  -0.24    -0.24   0.15   0.10
    32   1    -0.10  -0.01  -0.06     0.00  -0.25  -0.07    -0.24   0.21  -0.09
                      4                      5                      6
                      A                      A                      A
 Frequencies --     79.9818               133.3429               160.9669
 Red. masses --      5.2750                 4.0394                 2.8332
 Frc consts  --      0.0199                 0.0423                 0.0433
 IR Inten    --      1.8019                 0.9956                23.2367
  Atom  AN      X      Y      Z        X      Y      Z        X      Y      Z
     1   6     0.15  -0.02   0.13    -0.01   0.00   0.07     0.04   0.01  -0.03
     2   6     0.09   0.00   0.11     0.07  -0.02   0.24     0.03   0.01  -0.03
     3   6     0.02  -0.03   0.04     0.05   0.00   0.14     0.04   0.00   0.01
     4   6     0.01  -0.07  -0.02     0.00   0.03   0.01     0.04   0.00   0.03
     5   6     0.06  -0.09  -0.04    -0.10   0.06  -0.20     0.06   0.00   0.03
     6   6     0.13  -0.06   0.04    -0.12   0.04  -0.21     0.06   0.00   0.01
     7   1     0.20   0.00   0.21    -0.01  -0.02   0.12     0.03   0.02  -0.06
     8   1     0.09   0.04   0.17     0.14  -0.05   0.42     0.02   0.02  -0.06
     9   1     0.05  -0.12  -0.10    -0.16   0.08  -0.36     0.07  -0.01   0.05
    10   1     0.17  -0.07   0.04    -0.21   0.06  -0.42     0.07   0.00   0.02
    11   6    -0.02  -0.11  -0.02     0.01   0.04   0.04     0.03   0.00   0.04
    12   6    -0.03  -0.02   0.02     0.04   0.00   0.08     0.05  -0.01   0.03
    13   6    -0.02  -0.11   0.08     0.03   0.03   0.04     0.07  -0.01   0.09
    14   1    -0.05  -0.14   0.10     0.03   0.05   0.02     0.05   0.00   0.06
    15   6    -0.04  -0.06   0.08     0.03   0.02   0.03     0.06  -0.01   0.08
    16   1    -0.08  -0.05   0.09     0.02   0.03  -0.06     0.07  -0.02   0.10
    17   8    -0.04  -0.12  -0.09     0.02   0.04   0.05     0.03   0.01   0.04
    18  17    -0.11   0.07  -0.12    -0.01   0.00  -0.10     0.05  -0.02  -0.03
    19   6    -0.02   0.11   0.00     0.00  -0.04  -0.01    -0.12   0.01  -0.04
    20   6     0.07   0.08  -0.01     0.01  -0.05   0.00    -0.09   0.01   0.00
    21   1     0.11   0.13  -0.03     0.01  -0.04   0.00    -0.11   0.01  -0.02
    22   6    -0.06   0.23  -0.01     0.01  -0.06   0.00    -0.18   0.03  -0.15
    23   1     0.06   0.22   0.05    -0.08  -0.01  -0.09    -0.45   0.18  -0.45
    24   1    -0.18   0.18  -0.07     0.08   0.01   0.12    -0.12   0.21   0.15
    25   1    -0.09   0.39  -0.01     0.04  -0.23   0.00    -0.02  -0.35  -0.25
    26   6    -0.12   0.06  -0.02    -0.01  -0.04  -0.01    -0.06  -0.02   0.05
    27   1    -0.12   0.02  -0.07     0.02  -0.09   0.07    -0.03  -0.05   0.16
    28   1    -0.17   0.07   0.01     0.05   0.04  -0.05     0.04  -0.03  -0.01
    29   1    -0.13   0.08   0.01    -0.10  -0.06  -0.07    -0.14   0.00   0.07
    30   6     0.12  -0.01   0.03     0.01  -0.06   0.00    -0.12   0.02  -0.05
    31   1     0.19  -0.02   0.04     0.01  -0.06  -0.02    -0.11   0.01  -0.02
    32   1     0.10  -0.05   0.07     0.01  -0.07   0.01    -0.11   0.00  -0.02
                      7                      8                      9
                      A                      A                      A
 Frequencies --    176.6413               191.2810               209.9739
 Red. masses --      1.2532                 3.1861                 5.0232
 Frc consts  --      0.0230                 0.0687                 0.1305
 IR Inten    --      8.6195                 1.0297                18.0392
  Atom  AN      X      Y      Z        X      Y      Z        X      Y      Z
     1   6     0.00   0.01   0.00    -0.04   0.00   0.04    -0.08  -0.07  -0.15
     2   6     0.01   0.01   0.01    -0.03   0.00  -0.05     0.02  -0.09   0.03
     3   6     0.01   0.01   0.01     0.00   0.02  -0.04     0.10  -0.07   0.18
     4   6     0.01   0.01   0.01     0.00   0.04  -0.02     0.10  -0.06   0.22
     5   6     0.01   0.02   0.00    -0.02   0.05   0.04     0.05  -0.05   0.18
     6   6     0.00   0.02  -0.01    -0.02   0.02   0.10    -0.05  -0.06  -0.06
     7   1     0.00   0.01  -0.01    -0.05  -0.02   0.06    -0.17  -0.06  -0.36
     8   1     0.01   0.01   0.01    -0.03  -0.03  -0.09     0.01  -0.11  -0.03
     9   1     0.01   0.02   0.01    -0.02   0.09   0.07     0.06  -0.02   0.22
    10   1    -0.01   0.02  -0.02    -0.02   0.02   0.18    -0.12  -0.04  -0.19
    11   6     0.01   0.01   0.02     0.01   0.03   0.01     0.05  -0.04   0.07
    12   6     0.02   0.01   0.01     0.04   0.02   0.03     0.05  -0.05   0.08
    13   6     0.02   0.01   0.01     0.05   0.02   0.09    -0.01  -0.03  -0.08
    14   1     0.02   0.02   0.01     0.05   0.02   0.10    -0.05   0.01  -0.19
    15   6     0.02   0.01   0.01     0.07   0.00   0.13    -0.02  -0.04  -0.09
    16   1     0.02   0.01   0.00     0.10  -0.01   0.20    -0.07  -0.01  -0.25
    17   8     0.01   0.01   0.03     0.02   0.00  -0.03     0.04  -0.04   0.05
    18  17     0.03  -0.01  -0.01     0.03   0.02  -0.02    -0.02   0.12   0.00
    19   6    -0.03  -0.03  -0.01    -0.05  -0.04  -0.09    -0.05   0.05  -0.07
    20   6    -0.02  -0.03   0.02     0.02  -0.05  -0.01    -0.04   0.04  -0.04
    21   1    -0.03  -0.04   0.03     0.07  -0.06   0.05     0.02   0.04   0.02
    22   6    -0.06   0.00  -0.06     0.04  -0.07   0.07     0.03   0.02   0.06
    23   1     0.21  -0.20   0.30     0.06  -0.05   0.05     0.13  -0.01   0.13
    24   1    -0.31  -0.27  -0.48     0.21  -0.02   0.14     0.10  -0.01   0.00
    25   1    -0.15   0.59  -0.07    -0.04  -0.22   0.19    -0.06   0.06   0.15
    26   6    -0.03  -0.03  -0.01    -0.20   0.00  -0.23    -0.04   0.09  -0.12
    27   1    -0.05   0.02  -0.08    -0.25   0.03  -0.42    -0.01   0.06  -0.02
    28   1    -0.09  -0.08   0.02    -0.38   0.05  -0.12     0.03   0.20  -0.17
    29   1     0.05  -0.02   0.02    -0.11  -0.02  -0.26    -0.11   0.06  -0.21
    30   6    -0.03  -0.01   0.01     0.04  -0.08   0.02    -0.08   0.03  -0.16
    31   1    -0.05  -0.01   0.02     0.07  -0.08   0.04    -0.05   0.03  -0.15
    32   1    -0.03   0.00   0.00     0.05  -0.09   0.04    -0.12   0.02  -0.18
                     10                     11                     12
                      A                      A                      A
 Frequencies --    216.3756               244.4334               269.7857
 Red. masses --      6.5918                 1.2865                 4.5565
 Frc consts  --      0.1818                 0.0453                 0.1954
 IR Inten    --      2.5061                 4.2024                21.0292
  Atom  AN      X      Y      Z        X      Y      Z        X      Y      Z
     1   6     0.11   0.18  -0.11     0.02   0.02   0.03     0.07  -0.03   0.08
     2   6     0.03   0.18   0.04    -0.01   0.02  -0.02     0.00  -0.01  -0.03
[...]
 0073234,-0.00053013,0.00058542,-0.00029339,-0.00038159,-0.00000243,-0.
 00001316,0.00000653,0.00000655,0.00000603,0.00000835,0.00007595,-0.000
 05321,0.00016852,0.00001523,-0.00001679,0.00000933,0.00128617,0.000532
 30,-0.00013419,-0.00003320,0.00046010,-0.00003072,-0.00021077,-0.00059
 300,0.00024380,-0.00002628,0.00000797,-0.00005223,0.00039311,-0.000191
 04,-0.00014350,0.00001995,0.00001140,-0.00000482,-0.00092595,-0.000169
 12,-0.00070620,0.00009598,0.00001704,-0.00002693,-0.00996809,-0.002097
 80,0.00242627,0.00021619,-0.00010749,0.00030752,0.00000257,0.00004404,
 -0.00007951,0.00040794,0.00221666,0.00076247,-0.00041993,-0.00028034,0
 .00023429,0.00007942,-0.00001357,-0.00012188,0.00026667,-0.00004398,-0
 .00023391,-0.30540153,-0.03972968,0.06201303,0.33112560,-0.00013024,-0
 .00019917,0.00003763,-0.00008892,0.00021007,0.00007731,0.00001644,-0.0
 0019111,-0.00007926,-0.00006890,0.00001336,-0.00004833,-0.00026808,0.0
 0018422,0.00010232,0.00025442,-0.00022783,-0.00028888,-0.00000817,-0.0
 0000158,0.00001860,-0.00000384,0.00000457,-0.00000009,-0.00011060,-0.0
 0009556,0.00011120,0.00000359,-0.00000155,0.00002549,-0.00077166,0.000
 00875,0.00021172,-0.00000805,0.00035478,0.00006364,-0.00060371,0.00018
 571,-0.00041763,0.00004114,-0.00003417,0.00007737,0.00026890,-0.000122
 93,-0.00015701,-0.00000119,-0.00000746,-0.00001228,0.00099837,-0.00020
 306,0.00034593,-0.00002650,-0.00004439,0.00000910,0.02444130,0.0087247
 5,-0.00280456,-0.00186881,-0.00061604,0.00101682,-0.00013781,0.0002853
 1,-0.00022928,0.00024258,-0.00302800,-0.00273982,0.00089972,0.00043239
 ,-0.00082051,0.00010681,0.00010185,-0.00029505,-0.00027837,-0.00018424
 ,0.00021994,-0.04088642,-0.05693173,0.00879834,0.04562813,0.06135120,-
 0.00002717,-0.00004749,-0.00004609,0.00004910,0.00003380,-0.00008060,-
 0.00024205,-0.00021514,0.00013938,-0.00097875,-0.00009304,-0.00095120,
 0.00010144,0.00040396,-0.00001136,0.00001810,-0.00001073,0.00007438,0.
 00003109,-0.00001732,0.00000050,0.00002921,-0.00000778,0.00001260,0.00
 006983,0.00014845,-0.00007015,0.00001316,-0.00003692,-0.00000486,-0.00
 062557,-0.00098558,-0.00085935,-0.00017147,0.00016092,0.00007241,-0.00
 020014,0.00020891,-0.00007209,0.00001422,0.00003124,0.00002856,0.00014
 247,-0.00001338,-0.00003636,0.00001828,0.00001592,0.00000561,0.0005994
 6,0.00030376,0.00068001,0.00014054,0.00005927,-0.00005096,0.02046346,0
 .00469149,-0.00765131,-0.00083524,0.00050444,0.00024561,-0.00001742,0.
 00010089,-0.00015647,0.00062904,-0.00396288,-0.00190860,0.00122561,-0.
 00000392,-0.00035964,-0.00031496,-0.00014844,0.00030143,0.00013209,0.0
 0012562,0.00025986,0.05914876,0.00888835,-0.05639592,-0.06573195,-0.00
 712467,0.06154649,-0.00016109,-0.00014035,0.00009380,-0.00007891,0.000
 17329,0.00010979,0.00024966,0.00010389,-0.00015044,-0.00016367,0.00017
 965,0.00011474,-0.00032518,0.00017465,-0.00025083,0.00022504,-0.000191
 38,-0.00021926,-0.00001619,-0.00000121,0.00000084,-0.00000942,0.000009
 70,0.00000096,-0.00001259,-0.00004123,0.00010910,0.00000812,0.00000807
 ,0.00000166,0.00058997,0.00079032,0.00051628,0.00012952,0.00008933,-0.
 00008653,0.00033922,-0.00036845,0.00033555,-0.00002392,0.00000694,-0.0
 0008071,-0.00009170,-0.00019840,0.00001056,0.00001293,0.00000964,-0.00
 000526,0.00015173,-0.00008531,0.00043337,0.00009918,0.00000774,-0.0000
 3642,0.00546588,-0.00147656,0.00949003,0.00073073,0.00100136,-0.000056
 00,-0.00027979,-0.00000370,-0.00046701,-0.00081166,-0.00042646,-0.0006
 8788,0.00006973,0.00000380,-0.00028387,0.00009371,0.00022947,0.0000776
 0,-0.00040347,0.00030362,0.00042787,-0.11408859,0.00155872,-0.11370279
 ,-0.01432422,0.00040624,-0.02690631,0.12190945,-0.00015063,-0.00010404
 ,0.00001534,-0.00000274,0.00022914,0.00003445,-0.00018634,-0.00056179,
 -0.00004721,0.00030651,-0.00034899,0.00007982,-0.00001728,0.00007424,0
 .00018873,0.00022622,0.00006713,-0.00003538,0.00000414,0.00000905,-0.0
 0001002,-0.00000529,-0.00000046,0.00000471,-0.00002905,0.00006952,-0.0
 0017052,-0.00000058,0.00001220,0.00001600,0.00016382,-0.00024775,0.000
 29005,-0.00011215,0.00057272,0.00012789,-0.00104658,0.00027465,-0.0004
 4573,0.00005806,-0.00003988,0.00013046,0.00063458,0.00009511,-0.000246
 97,-0.00002224,-0.00002277,-0.00001287,0.00037441,0.00013152,-0.001220
 90,-0.00019686,-0.00006312,0.00006932,-0.01272370,-0.00183978,-0.02050
 618,0.00024920,-0.00198833,0.00032363,0.00050444,-0.00017067,0.0009009
 9,-0.00019635,0.00019870,0.00044096,-0.00003737,-0.00011482,0.00027942
 ,-0.00002650,0.00010028,0.00013191,0.00013117,0.00014481,0.00001191,0.
 00006266,-0.04404519,-0.00188585,-0.00268871,-0.00085275,-0.00435196,-
 0.00195807,0.04634023,0.00003224,-0.00000576,-0.00000086,-0.00002446,0
 .00002321,0.00000140,-0.00004181,-0.00010129,0.00001226,-0.00002724,0.
 00005647,0.00009873,-0.00003822,0.00007002,-0.00003365,-0.00000986,0.0
 0001907,-0.00000558,-0.00001591,0.00001040,0.00000639,-0.00000577,-0.0
 0000496,-0.00000677,0.00003854,-0.00008728,0.00005551,-0.00000335,0.00
 001682,-0.00000226,0.00130910,0.00011898,-0.00044441,0.00004763,-0.000
 04122,-0.00002178,-0.00011980,-0.00023578,0.00027558,-0.00000444,-0.00
 000331,-0.00004087,0.00005111,0.00016557,0.00005328,-0.00003325,-0.000
 02529,-0.00000069,-0.00078391,-0.00090955,-0.00105110,-0.00020966,-0.0
 0005585,0.00007420,-0.00974551,-0.00217556,-0.01804030,0.00205531,0.00
 096914,0.00031427,0.00028069,-0.00018315,0.00043434,-0.00000152,-0.000
 00081,0.00049030,0.00030297,-0.00015138,0.00038030,-0.00016634,-0.0001
 8380,0.00014473,0.00056952,0.00002058,0.00006167,-0.11664790,0.0009219
 1,-0.23839480,0.00386806,0.00010437,0.00719501,0.12704066,0.00225186,0
 .25980645,0.00012278,0.00010361,-0.00003107,0.00011139,-0.00016934,-0.
 00008213,0.00007488,0.00038231,0.00001321,-0.00006196,0.00008318,0.000
 02763,-0.00062896,-0.00010673,-0.00041456,-0.00011762,0.00014652,0.000
 18172,0.00002549,-0.00000097,-0.00001528,0.00000971,0.00000141,-0.0000
 0204,-0.00045055,0.00049333,-0.00078944,-0.00002475,0.00001303,-0.0000
 2645,0.00036197,-0.00003959,-0.00017430,0.00004348,-0.00044857,-0.0000
 8821,0.00067403,-0.00017161,0.00048784,-0.00002195,0.00002536,-0.00009
 399,-0.00040918,0.00009319,0.00019660,0.00000981,0.00001143,0.00001676
 ,-0.00078903,0.00016734,-0.00006340,0.00008416,0.00005745,-0.00002807,
 0.00078912,0.00840069,-0.00748933,0.00087126,0.00236363,0.00188507,0.0
 0047694,0.00036996,0.00035892,-0.00009337,0.00074337,-0.00016545,0.000
 02666,-0.00017428,-0.00013895,-0.00014122,0.00034233,0.00052736,-0.000
 07360,0.00012411,-0.00008583,-0.05263277,-0.02555514,0.01531871,-0.001
 15080,-0.02749270,0.01309902,0.00136673,0.01560144,-0.00668100,0.05268
 671,-0.00010408,-0.00004006,-0.00000400,0.00002329,0.00011429,-0.00001
 775,-0.00004302,-0.00034780,0.00000683,0.00029424,-0.00034029,-0.00020
 766,0.00054916,-0.00020088,0.00039925,0.00014297,0.00005891,0.00000612
 ,0.00000993,0.00000324,-0.00000534,0.00000141,-0.00000277,0.00001371,0
 .00024910,0.00003613,0.00037983,0.00000828,0.00000085,0.00000656,-0.00
 170844,-0.00082081,0.00031323,-0.00002458,0.00030313,0.00010254,-0.000
 31926,0.00076168,-0.00062099,0.00003778,-0.00001682,0.00012868,0.00024
 180,0.00008503,-0.00012362,0.00000318,-0.00000403,0.00000414,0.0017114
 6,0.00101733,0.00067535,-0.00009571,-0.00002808,0.00001869,-0.00338287
 ,-0.02229077,0.00980969,0.00196022,-0.00247021,-0.00232033,-0.00062119
 ,-0.00096749,-0.00051138,-0.00118485,0.00076039,0.00087094,-0.00035835
 ,0.00041389,-0.00011310,0.00059979,0.00052726,-0.00060143,-0.00000894,
 -0.00002096,-0.00003610,-0.02501632,-0.26821775,0.10553278,0.00008835,
 -0.00295632,0.00110632,0.00031674,0.00172808,-0.00070548,0.02495931,0.
 29238476,0.00001409,-0.00010900,0.00002250,-0.00003182,0.00005769,0.00
 001725,-0.00004682,-0.00003082,0.00000011,0.00017999,-0.00000457,0.000
 06507,-0.00111225,0.00027691,-0.00059663,0.00014939,0.00000210,-0.0001
 5085,0.00001570,0.00000121,0.00000571,0.00000243,-0.00000103,-0.000011
 85,-0.00061228,0.00047452,-0.00047367,0.00000852,-0.00002957,0.0000118
 4,-0.00052687,-0.00017340,0.00006455,0.00001004,0.00005431,0.00000917,
 0.00002681,0.00009248,-0.00019599,0.00001220,-0.00001143,0.00001033,0.
 00008193,-0.00000443,0.00000973,0.00000692,0.00000287,-0.00000834,0.00
 062503,-0.00022991,0.00057739,0.00002775,0.00000834,-0.00000193,-0.002
 65705,-0.02110126,0.00754737,0.00223821,-0.00233859,-0.00208756,-0.000
 54711,-0.00093094,-0.00028884,-0.00052412,-0.00055618,0.00056747,-0.00
 020510,0.00001207,0.00007392,0.00022819,0.00002225,-0.00029052,-0.0000
 6227,0.00016241,0.00000650,0.01448088,0.11010545,-0.09671975,-0.000544
 43,0.00443671,-0.00324410,0.00385556,0.02416042,-0.01100252,-0.0152502
 4,-0.11445251,0.10582210,0.00369005,0.00349198,-0.00104091,0.00143794,
 -0.00569930,-0.00113264,0.00319968,0.01207405,0.00064713,-0.00776959,0
 .00764126,0.00498028,0.00126219,-0.00507410,-0.00129409,-0.00439791,0.
 00064031,0.00166105,0.00011686,-0.00005394,-0.00003166,0.00007287,-0.0
 0005733,-0.00000236,-0.00001455,-0.00015926,0.00013645,-0.00000499,-0.
 00020410,0.00006426,0.04193874,0.03661427,-0.01880605,0.00414269,-0.01
 684871,-0.00626422,0.03111463,-0.02870424,0.04549616,-0.00281405,0.001
 77079,-0.00594152,-0.02874376,0.00252141,0.00256538,0.00054385,0.00036
 497,0.00046961,-0.05356931,-0.00867049,-0.01154098,0.00148054,0.000610
 88,-0.00005067,-0.00300453,-0.07198293,0.02928790,-0.31156787,-0.03086
 736,0.11910744,-0.01605541,-0.00746361,0.00422993,0.00587612,0.0008729
 1,0.00405036,0.00029515,0.00030393,-0.00058252,-0.00013702,-0.00003875
 ,-0.00144842,0.00111818,0.00110722,-0.00183101,-0.00134289,0.00373585,
 0.00045017,-0.00076307,0.00100042,0.00042929,-0.00070513,0.00128209,-0
 .00107338,-0.00177947,0.00174643,0.00038521,0.54821209,0.00013828,-0.0
 0006420,-0.00004164,0.00003307,-0.00005352,-0.00005192,0.00018353,-0.0
 0035251,-0.00000965,0.00046451,-0.00004635,-0.00073973,-0.00007668,0.0
 0004596,0.00012940,0.00016321,0.00016317,0.00001966,0.00000948,0.00000
 428,0.00000278,0.00003429,-0.00002145,-0.00000065,-0.00004810,0.000176
 23,0.00002986,-0.00000975,-0.00001512,-0.00003286,0.00016504,0.0007850
 5,0.00355102,-0.00006945,-0.00035263,-0.00000983,0.00115055,-0.0122250
 3,-0.00067043,-0.00154509,0.00065681,-0.00315866,-0.00025223,0.0005407
 5,-0.00062051,-0.00009882,-0.00006450,-0.00008774,-0.00371642,-0.00372
 886,0.00168291,-0.00012905,-0.00005886,0.00004647,-0.03298328,-0.01639
 877,0.01733141,-0.08660663,-0.13191449,0.02166188,0.01886907,0.0089847
 5,-0.00917955,0.00062503,-0.00471126,-0.00012940,0.00005505,0.00030610
 ,0.00015063,-0.00113170,-0.00008075,0.00032563,-0.00027091,-0.00002647
 ,-0.00015533,0.00014766,-0.00060397,0.00117067,-0.00147268,-0.00185753
 ,0.00014516,-0.00034377,0.00034906,0.00015894,-0.00042060,0.00034671,0
 .00002892,0.07015503,0.65825639,0.00259946,0.00241724,-0.00075649,0.00
 104579,-0.00408104,-0.00098670,0.00247817,0.00906189,0.00078778,-0.004
 37251,0.00498296,0.00240739,0.00080241,-0.00355149,-0.00077000,-0.0030
 9480,0.00050845,0.00114389,0.00008241,-0.00003407,-0.00001416,0.000068
 02,-0.00003576,0.00001634,-0.00003311,-0.00007348,0.00005617,-0.000020
 86,-0.00011421,0.00005275,0.01863129,0.01641169,-0.01281592,0.00482243
 ,-0.01232235,-0.00244406,0.02872581,-0.01426184,0.01556977,-0.00511827
 ,0.00226449,-0.00961622,-0.01629032,0.00080869,0.00454919,0.00025758,0
 .00025062,0.00031738,-0.01983003,-0.00256349,-0.00088762,0.00103356,0.
 00066585,-0.00053511,0.00430302,-0.00758516,0.00769003,0.14391066,0.03
 410541,-0.11223486,0.01635845,0.00624428,-0.00412811,0.00342590,-0.000
 83819,0.00440232,-0.00039982,0.00012491,0.00028802,-0.00053286,-0.0000
 6997,0.00034681,0.00093516,0.00075294,-0.00057984,-0.00287612,0.001389
 99,-0.00246679,0.00028405,-0.00010009,0.00038601,0.00053992,-0.0003712
 8,-0.00037359,-0.00019219,0.00050191,0.00027365,-0.28927953,0.06654591
 ,0.27772062,-0.00001309,0.00005900,0.00001405,0.00002532,-0.00006209,0
 .00000210,-0.00006872,0.00011881,-0.00010108,-0.00016684,0.00007474,0.
 00002759,0.00003572,-0.00012553,-0.00002337,-0.00010787,-0.00005539,0.
 00002357,0.00000032,-0.00000336,-0.00000167,-0.00001348,0.00001616,0.0
 0000418,0.00000179,-0.00002890,0.00000137,-0.00000095,0.00000435,0.000
 00600,-0.00045510,-0.00137553,0.00072631,-0.00019820,0.00032150,0.0002
 2565,-0.00164837,0.00365685,-0.00265674,0.00027559,-0.00003757,0.00046
 872,0.00070097,0.00043087,-0.00047697,-0.00014622,-0.00011262,-0.00009
 497,0.00108586,0.00071089,-0.00026755,0.00005318,-0.00001015,-0.000019
 77,-0.00394150,-0.00003703,0.00474847,-0.00197289,-0.03153948,0.001391
 36,-0.00044333,0.00070828,-0.00240475,-0.00030583,-0.00098562,-0.00060
 245,0.00004855,0.00006717,-0.00000368,-0.00024667,-0.00013699,0.000091
 93,-0.00024854,-0.00013590,0.00015775,-0.00022764,0.00062602,0.0001585
 0,0.00030313,0.00002310,-0.00012598,0.00007488,-0.00004225,-0.00003921
 ,0.00014393,-0.00006796,-0.00005045,-0.06370914,-0.06080106,0.00988942
 ,0.06538988,0.00010002,0.00014495,-0.00002000,0.00008331,-0.00016920,-
 0.00004753,0.00001117,0.00041502,0.00006814,-0.00009581,0.00025859,0.0
 0017283,-0.00000188,-0.00011336,0.00001450,-0.00013245,0.00005693,0.00
 004606,0.00000103,0.00000419,-0.00000168,0.00000162,-0.00000724,0.0000
 0048,0.00000149,0.00001213,-0.00000583,-0.00000602,0.00000455,-0.00000
 614,-0.00040686,-0.00018206,-0.00014329,0.00033843,-0.00064547,-0.0002
 6931,0.00086494,-0.00031481,0.00015428,-0.00028846,0.00036274,-0.00003
 595,-0.00069835,0.00052764,-0.00005415,0.00009856,0.00002700,0.0001198
 5,0.00021175,0.00008618,-0.00010433,-0.00002156,0.00002061,0.00000223,
 -0.00160971,0.00080229,-0.00090926,0.00190965,-0.00280228,-0.00221959,
 0.00022213,0.00076083,0.00082790,0.00041033,-0.00041370,0.00033473,-0.
 00000987,0.00000923,0.00000112,-0.00017564,-0.00001254,0.00005731,0.00
 005724,0.00001633,-0.00007014,0.00022941,0.00002500,0.00016460,-0.0002
 5543,0.00009805,0.00009496,-0.00008776,0.00001180,0.00003376,-0.000102
 19,-0.00003628,-0.00000011,-0.06794139,-0.33703983,0.00055504,0.072770
 37,0.34950387,-0.00041104,-0.00030533,0.00012181,-0.00017472,0.0005229
 9,0.00014542,-0.00034053,-0.00099570,-0.00004014,0.00049330,-0.0007959
 0,-0.00001903,-0.00002817,0.00048857,0.00009284,0.00035030,-0.00017993
 ,-0.00016726,-0.00000898,-0.00000621,0.00000098,-0.00001756,0.00001804
 ,0.00000116,0.00000957,-0.00005584,-0.00001518,0.00000449,0.00001551,-
 0.00000078,-0.00220970,-0.00336244,0.00077765,-0.00060583,0.00151933,0
 .00049982,-0.00469579,0.00764343,-0.00616373,0.00041056,0.00027109,0.0
 0055215,0.00258182,-0.00015139,-0.00069319,-0.00020903,-0.00006813,-0.
 00000430,0.00386522,0.00156190,0.00005696,0.00005010,-0.00001154,-0.00
 004165,0.00329439,0.00204082,0.00326457,0.00003357,0.00490748,0.005013
 20,-0.00243160,0.00127748,-0.00321449,-0.00072022,0.00060383,-0.000716
 49,-0.00000826,0.00000353,-0.00000054,0.00015581,-0.00005690,-0.000086
 54,-0.00014654,-0.00013588,0.00026078,0.00007273,-0.00013550,0.0000434
 2,-0.00018223,0.00027125,-0.00003942,0.00013775,-0.00004000,-0.0000418
 3,-0.00026427,-0.00005809,0.00004938,0.01556149,0.00110966,-0.03843775
 ,-0.01069454,-0.00027771,0.03454270,-0.00008268,-0.00015902,0.00000924
 ,-0.00012318,0.00024112,0.00006413,-0.00011859,-0.00018133,0.00006238,
 0.00046179,-0.00039869,-0.00055736,-0.00007187,0.00019472,0.00012745,0
 .00017493,0.00004709,-0.00005968,-0.00000842,0.00000062,-0.00000152,-0
 .00000525,0.00000174,-0.00000742,-0.00000023,-0.00001117,-0.00000375,-
 0.00000402,0.00000096,-0.00000291,-0.00169639,-0.00187612,0.00005064,-
 0.00003123,0.00030848,0.00112100,-0.00165505,-0.00023170,-0.00575083,-
 0.00026128,0.00001555,-0.00029437,0.00216296,-0.00021908,-0.00112452,-
 0.00002442,-0.00002601,-0.00002341,0.00171896,0.00058524,0.00030393,-0
 .00023883,-0.00002283,-0.00001856,-0.00060671,0.00355239,-0.00296550,-
 0.01330857,0.01776981,0.01698305,-0.00184937,-0.00310133,0.00447906,-0
 .00021016,-0.00020424,-0.00022202,0.00013630,-0.00008965,-0.00010770,-
 0.00003157,-0.00007057,0.00007437,-0.00009502,-0.00009247,0.00001521,-
 0.00002772,-0.00019014,-0.00016476,0.00092384,-0.00157717,-0.00017715,
 -0.00002097,-0.00015606,0.00007670,0.00049618,-0.00000789,-0.00017806,
 -0.14812291,0.09778243,0.10184688,0.00577526,-0.00547805,-0.00387209,0
 .15674423,0.00012804,0.00017705,-0.00002101,0.00009917,-0.00026319,-0.
 00002768,0.00004210,0.00055279,-0.00018493,-0.00056153,0.00063435,0.00
 030542,0.00004611,-0.00024343,-0.00013107,-0.00020959,-0.00005490,0.00
 006666,0.00000605,-0.00000432,-0.00000381,-0.00000934,0.00000769,-0.00
 000324,-0.00000377,-0.00000497,0.00002456,0.00000213,-0.00000858,0.000
 00771,0.00153356,0.00113613,0.00100697,-0.00015656,-0.00031316,-0.0005
 2973,0.00143797,-0.00052541,0.00330568,-0.00003456,0.00000762,0.000221
 89,-0.00141807,-0.00013431,0.00044451,0.00006437,-0.00000628,-0.000044
 31,-0.00129472,-0.00060920,-0.00024084,0.00006582,-0.00001329,0.000024
 54,0.00086858,-0.00092536,0.00135473,-0.00327624,0.01095894,0.00505607
 ,-0.00251506,0.00039629,-0.00003553,-0.00001754,0.00006288,-0.00027551
 ,0.00007070,0.00003195,-0.00004913,0.00005887,0.00002416,-0.00004460,-
 0.00004623,-0.00000254,-0.00003047,-0.00087351,-0.00082910,-0.00006314
 ,-0.00154937,-0.00439957,-0.00000419,-0.00005049,-0.00000789,-0.000070
 66,0.00019875,0.00021965,0.00007507,0.09783171,-0.16099917,-0.10158984
 ,0.01596930,-0.01141116,-0.01561842,-0.10640662,0.16654634,-0.00032800
 ,-0.00036512,0.00008801,-0.00016509,0.00053345,0.00011003,-0.00026689,
 -0.00101092,0.00000721,0.00059121,-0.00069042,-0.00050964,-0.00014821,
 0.00060383,0.00019031,0.00048125,-0.00004140,-0.00018673,-0.00000724,-
 0.00000310,0.00000309,0.00000357,0.00000094,-0.00000102,-0.00000105,0.
 00000561,-0.00001961,-0.00000359,0.00000994,-0.00001728,-0.00360977,-0
 .00294481,-0.00061625,-0.00064653,0.00142264,0.00098606,-0.00298107,0.
 00055430,-0.00925213,-0.00021266,0.00010428,-0.00013173,0.00309299,-0.
 00021247,-0.00068607,-0.00004102,-0.00003503,-0.00003266,0.00342953,0.
 00125815,0.00043792,-0.00019456,-0.00003590,-0.00002695,-0.00195523,0.
 00344876,-0.00438189,-0.00066841,-0.00934896,0.00171171,0.00355087,-0.
 00073100,0.00554822,-0.00025465,-0.00009962,-0.00023194,-0.00001533,0.
 00000226,0.00007057,-0.00005715,0.00005901,0.00013958,-0.00005092,-0.0
 0010162,0.00004190,0.00082313,-0.00074922,0.00014744,-0.00070747,-0.00
 081029,0.00099061,-0.00036275,-0.00011297,0.00005661,-0.00003664,-0.00
 009879,-0.00006150,0.11079788,-0.09920302,-0.12896089,-0.00037377,0.00
 151722,0.00425948,-0.10968243,0.10707428,0.13032755\\0.00000262,0.0000
 0182,-0.00000665,0.00000557,0.00000921,-0.00000716,0.00000072,0.000008
 07,-0.00000319,-0.00000294,0.00000385,-0.00000023,0.00000648,-0.000001
 83,-0.00000365,0.00000683,0.00000040,-0.00000805,0.00000544,0.00001150
 ,-0.00000996,0.00000216,0.00001065,-0.00000687,0.00000868,-0.00000169,
 -0.00000277,0.00001016,0.00000694,-0.00000833,0.00000164,-0.00001118,-
 0.00000049,-0.00000291,0.00000219,-0.00000129,-0.00000351,0.00000622,0
 .00000375,-0.00000307,-0.00000322,0.00000397,-0.00000177,0.00000287,0.
 00000115,-0.00000661,0.00000294,0.00000364,0.00000209,-0.00000474,-0.0
 0000057,-0.00000346,0.00001168,-0.00000229,-0.00000398,0.,0.00000685,-
 0.00000696,-0.00000704,0.00000812,-0.00000518,-0.00000604,0.00000712,0
 .00000250,-0.00001341,0.00000162,-0.00000112,-0.00000885,0.00000732,0.
 00000309,-0.00000743,0.00000229,0.00000094,-0.00000953,0.00000528,0.00
 000089,-0.00000556,0.00000116,-0.00000106,0.00000074,-0.00000013,-0.00
 000025,-0.00000167,0.00000202,0.00000064,-0.00000044,-0.00000428,-0.00
 000601,0.00000491,0.00000302,-0.00000836,-0.00000329,0.00000620,-0.000
 00325,0.00000194,0.00000242\\\@


 Everywhere is walking distance if you have the time.
                                    -- Steven Wright
 Job cpu time:       2 days 23 hours 17 minutes 25.4 seconds.
 File lengths (MBytes):  RWF=   2712 Int=      0 D2E=      0 Chk=     36 Scr=      1
 Normal termination of Gaussian 09 at Fri Feb  4 23:01:59 2022.
