 Entering Gaussian System, Link 0=g09
 Input=ts_claisen_ma.com
 Output=ts_claisen_ma.log
 Initial command:
 /apps/applications/gaussian/G09.D01/2/default/g09/l1.exe "/nobackup/pmmass/Temp/Gau-44680.inp" -scrdir="/nobackup/pmmass/Temp/"
 Entering Link 1 = /apps/applications/gaussian/G09.D01/2/default/g09/l1.exe PID=     44683.
  
 Copyright (c) 1988,1990,1992,1993,1995,1998,2003,2009,2013,
            Gaussian, Inc.  All Rights Reserved.
  
 This is part of the Gaussian(R) 09 program.  It is based on
 the Gaussian(R) 03 system (copyright 2003, Gaussian, Inc.),
 the Gaussian(R) 98 system (copyright 1998, Gaussian, Inc.),
 the Gaussian(R) 94 system (copyright 1995, Gaussian, Inc.),
 the Gaussian 92(TM) system (copyright 1992, Gaussian, Inc.),
 the Gaussian 90(TM) system (copyright 1990, Gaussian, Inc.),
 the Gaussian 88(TM) system (copyright 1988, Gaussian, Inc.),
 the Gaussian 86(TM) system (copyright 1986, Carnegie Mellon
 University), and the Gaussian 82(TM) system (copyright 1983,
 Carnegie Mellon University). Gaussian is a federally registered
 trademark of Gaussian, Inc.
  
 This software contains proprietary and confidential information,
 including trade secrets, belonging to Gaussian, Inc.
  
 This software is provided under written license and may be
 used, copied, transmitted, or stored only in accord with that
 written license.
  
 The following legend is applicable only to US Government
 contracts under FAR:
  
                    RESTRICTED RIGHTS LEGEND
  
 Use, reproduction and disclosure by the US Government is
 subject to restrictions as set forth in subparagraphs (a)
 and (c) of the Commercial Computer Software - Restricted
 Rights clause in FAR 52.227-19.
  
 Gaussian, Inc.
 340 Quinnipiac St., Bldg. 40, Wallingford CT 06492
  
  
 ---------------------------------------------------------------
 Warning -- This program may not be used in any manner that
 competes with the business of Gaussian, Inc. or will provide
 assistance to any competitor of Gaussian, Inc.  The licensee
 of this program is prohibited from giving any competitor of
 Gaussian, Inc. access to this program.  By using this program,
 the user acknowledges that Gaussian, Inc. is engaged in the
 business of creating and licensing software in the field of
 computational chemistry and represents and warrants to the
 licensee that it is not a competitor of Gaussian, Inc. and that
 it will not use this program in any manner prohibited above.
 ---------------------------------------------------------------
  

 Cite this work as:
 Gaussian 09, Revision D.01,
 M. J. Frisch, G. W. Trucks, H. B. Schlegel, G. E. Scuseria, 
 M. A. Robb, J. R. Cheeseman, G. Scalmani, V. Barone, B. Mennucci, 
 G. A. Petersson, H. Nakatsuji, M. Caricato, X. Li, H. P. Hratchian, 
 A. F. Izmaylov, J. Bloino, G. Zheng, J. L. Sonnenberg, M. Hada, 
 M. Ehara, K. Toyota, R. Fukuda, J. Hasegawa, M. Ishida, T. Nakajima, 
 Y. Honda, O. Kitao, H. Nakai, T. Vreven, J. A. Montgomery, Jr., 
 J. E. Peralta, F. Ogliaro, M. Bearpark, J. J. Heyd, E. Brothers, 
 K. N. Kudin, V. N. Staroverov, T. Keith, R. Kobayashi, J. Normand, 
 K. Raghavachari, A. Rendell, J. C. Burant, S. S. Iyengar, J. Tomasi, 
 M. Cossi, N. Rega, J. M. Millam, M. Klene, J. E. Knox, J. B. Cross, 
 V. Bakken, C. Adamo, J. Jaramillo, R. Gomperts, R. E. Stratmann, 
 O. Yazyev, A. J. Austin, R. Cammi, C. Pomelli, J. W. Ochterski, 
 R. L. Martin, K. Morokuma, V. G. Zakrzewski, G. A. Voth, 
 P. Salvador, J. J. Dannenberg, S. Dapprich, A. D. Daniels, 
 O. Farkas, J. B. Foresman, J. V. Ortiz, J. Cioslowski, 
 and D. J. Fox, Gaussian, Inc., Wallingford CT, 2013.
 
 ******************************************
 Gaussian 09:  ES64L-G09RevD.01 24-Apr-2013
                 2-Feb-2022 
 ******************************************
 %nprocshared=8
 Will use up to    8 processors via shared memory.
 %mem=4GB
 %NoSave
 %chk="ts_claisen_ma.chk"
 -------------------------------------------------------------------
 #n wB97XD/Gen scrf(smd,solvent=toluene) opt=(calcfc,ts,noeigentest)
 -------------------------------------------------------------------
 1/5=1,10=4,11=1,14=-1,18=20,26=3,38=1/1,3;
 2/9=110,12=2,17=6,18=5,40=1/2;
 3/5=7,11=2,16=1,25=1,30=1,70=32201,71=2,72=13,74=-58,140=1/1,2,3;
 4//1;
 5/5=2,38=5,53=13/2;
 8/6=4,10=90,11=11/1;
 11/6=1,8=1,9=11,15=111,16=1/1,2,10;
 10/6=1,13=1/2;
 6/7=2,8=2,9=2,10=2,28=1/1;
 7/10=1,18=20,25=1/1,2,3,16;
 1/5=1,10=4,11=1,14=-1,18=20,26=3/3(2);
 2/9=110/2;
 99//99;
 2/9=110/2;
 3/5=7,6=1,11=2,16=1,25=1,30=1,70=32205,71=1,72=13,74=-58,82=7/1,2,3;
 4/5=5,16=3,69=1/1;
 5/5=2,38=5,53=13/2;
 7//1,2,3,16;
 1/5=1,11=1,14=-1,18=20,26=3/3(-5);
 2/9=110/2;
 6/7=2,8=2,9=2,10=2,19=2,28=1/1;
 99/9=1/99;
 ------------------------
 ts_claisen toluene - opt
 ------------------------
 Symbolic Z-matrix:
 Charge =  0 Multiplicity = 1
 C                    -2.26163   2.69545   0.33442 
 C                    -2.59089   1.35475   0.32762 
 C                    -1.64814   0.38375  -0.08329 
 C                    -0.35213   0.80995  -0.47474 
 C                    -0.04869   2.18664  -0.48026 
 C                    -0.98364   3.11934  -0.07887 
 H                    -3.0015    3.43071   0.65448 
 H                    -3.58492   1.03036   0.63436 
 H                     0.94573   2.48407  -0.81506 
 H                    -0.73756   4.18214  -0.0843 
 C                     0.66008  -0.15584  -0.9229 
 C                    -1.94928  -1.0281   -0.14609 
 C                     0.30759  -1.53496  -0.87749 
 H                     0.96086  -2.23637  -1.39364 
 C                    -1.03032  -1.94001  -0.56283 
 H                    -1.30727  -2.99299  -0.62639 
 O                     1.83819   0.21127  -1.20476 
 Cl                   -3.55152  -1.57187   0.28266 
 C                     3.08724  -0.14608   0.41975 
 C                     2.71671  -1.4889    0.57761 
 H                     3.32558  -2.23634   0.06101 
 C                     4.37397   0.18107  -0.27264 
 H                     4.69815  -0.63565  -0.92902 
 H                     4.24687   1.09294  -0.87099 
 H                     5.16131   0.37268   0.4744 
 C                     2.54365   0.9332    1.30871 
 H                     1.48601   0.78898   1.56151 
 H                     3.11993   0.93425   2.24845 
 H                     2.66053   1.91765   0.83852 
 C                     1.4547   -1.86597   1.00145 
 H                     1.19407  -2.92416   1.05729 
 H                     0.82706  -1.2023    1.5996 
 
 Add virtual bond connecting atoms C19        and O17        Dist= 3.93D+00.
 Add virtual bond connecting atoms C30        and C13        Dist= 4.21D+00.

 GradGradGradGradGradGradGradGradGradGradGradGradGradGradGradGradGradGrad
 Berny optimization.
 Initialization pass.
                           ----------------------------
                           !    Initial Parameters    !
                           ! (Angstroms and Degrees)  !
 --------------------------                            --------------------------
 ! Name  Definition              Value          Derivative Info.                !
 --------------------------------------------------------------------------------
 ! R1    R(1,2)                  1.3806         calculate D2E/DX2 analytically  !
 ! R2    R(1,6)                  1.4085         calculate D2E/DX2 analytically  !
 ! R3    R(1,7)                  1.0911         calculate D2E/DX2 analytically  !
 ! R4    R(2,3)                  1.4144         calculate D2E/DX2 analytically  !
 ! R5    R(2,8)                  1.0897         calculate D2E/DX2 analytically  !
 ! R6    R(3,4)                  1.4193         calculate D2E/DX2 analytically  !
 ! R7    R(3,12)                 1.445          calculate D2E/DX2 analytically  !
 ! R8    R(4,5)                  1.4097         calculate D2E/DX2 analytically  !
 ! R9    R(4,11)                 1.4691         calculate D2E/DX2 analytically  !
 ! R10   R(5,6)                  1.3803         calculate D2E/DX2 analytically  !
 ! R11   R(5,9)                  1.0906         calculate D2E/DX2 analytically  !
 ! R12   R(6,10)                 1.0909         calculate D2E/DX2 analytically  !
 ! R13   R(11,13)                1.4242         calculate D2E/DX2 analytically  !
 ! R14   R(11,17)                1.2658         calculate D2E/DX2 analytically  !
 ! R15   R(12,15)                1.3601         calculate D2E/DX2 analytically  !
 ! R16   R(12,18)                1.7455         calculate D2E/DX2 analytically  !
 ! R17   R(13,14)                1.0886         calculate D2E/DX2 analytically  !
 ! R18   R(13,15)                1.4329         calculate D2E/DX2 analytically  !
 ! R19   R(13,30)                2.2262         calculate D2E/DX2 analytically  !
 ! R20   R(15,16)                1.0906         calculate D2E/DX2 analytically  !
 ! R21   R(17,19)                2.0801         calculate D2E/DX2 analytically  !
 ! R22   R(19,20)                1.4019         calculate D2E/DX2 analytically  !
 ! R23   R(19,22)                1.4974         calculate D2E/DX2 analytically  !
 ! R24   R(19,26)                1.5002         calculate D2E/DX2 analytically  !
 ! R25   R(20,21)                1.0937         calculate D2E/DX2 analytically  !
 ! R26   R(20,30)                1.3837         calculate D2E/DX2 analytically  !
 ! R27   R(22,23)                1.0968         calculate D2E/DX2 analytically  !
 ! R28   R(22,24)                1.098          calculate D2E/DX2 analytically  !
 ! R29   R(22,25)                1.1021         calculate D2E/DX2 analytically  !
 ! R30   R(26,27)                1.097          calculate D2E/DX2 analytically  !
 ! R31   R(26,28)                1.1024         calculate D2E/DX2 analytically  !
 ! R32   R(26,29)                1.0972         calculate D2E/DX2 analytically  !
 ! R33   R(30,31)                1.0912         calculate D2E/DX2 analytically  !
 ! R34   R(30,32)                1.0919         calculate D2E/DX2 analytically  !
 ! A1    A(2,1,6)              120.4797         calculate D2E/DX2 analytically  !
 ! A2    A(2,1,7)              119.6135         calculate D2E/DX2 analytically  !
 ! A3    A(6,1,7)              119.9047         calculate D2E/DX2 analytically  !
 ! A4    A(1,2,3)              120.608          calculate D2E/DX2 analytically  !
 ! A5    A(1,2,8)              120.3495         calculate D2E/DX2 analytically  !
 ! A6    A(3,2,8)              119.0417         calculate D2E/DX2 analytically  !
 ! A7    A(2,3,4)              118.8558         calculate D2E/DX2 analytically  !
 ! A8    A(2,3,12)             122.9904         calculate D2E/DX2 analytically  !
 ! A9    A(4,3,12)             118.1452         calculate D2E/DX2 analytically  !
 ! A10   A(3,4,5)              119.3972         calculate D2E/DX2 analytically  !
 ! A11   A(3,4,11)             121.0557         calculate D2E/DX2 analytically  !
 ! A12   A(5,4,11)             119.505          calculate D2E/DX2 analytically  !
 ! A13   A(4,5,6)              120.8606         calculate D2E/DX2 analytically  !
 ! A14   A(4,5,9)              117.6318         calculate D2E/DX2 analytically  !
 ! A15   A(6,5,9)              121.5073         calculate D2E/DX2 analytically  !
 ! A16   A(1,6,5)              119.774          calculate D2E/DX2 analytically  !
 ! A17   A(1,6,10)             119.956          calculate D2E/DX2 analytically  !
 ! A18   A(5,6,10)             120.2695         calculate D2E/DX2 analytically  !
 ! A19   A(4,11,13)            117.1522         calculate D2E/DX2 analytically  !
 ! A20   A(4,11,17)            121.2358         calculate D2E/DX2 analytically  !
 ! A21   A(13,11,17)           121.2196         calculate D2E/DX2 analytically  !
 ! A22   A(3,12,15)            121.8454         calculate D2E/DX2 analytically  !
 ! A23   A(3,12,18)            119.0136         calculate D2E/DX2 analytically  !
 ! A24   A(15,12,18)           119.1186         calculate D2E/DX2 analytically  !
 ! A25   A(11,13,14)           117.4047         calculate D2E/DX2 analytically  !
 ! A26   A(11,13,15)           120.7871         calculate D2E/DX2 analytically  !
 ! A27   A(11,13,30)            92.4853         calculate D2E/DX2 analytically  !
 ! A28   A(14,13,15)           118.8355         calculate D2E/DX2 analytically  !
 ! A29   A(14,13,30)            89.7226         calculate D2E/DX2 analytically  !
 ! A30   A(15,13,30)           104.6999         calculate D2E/DX2 analytically  !
 ! A31   A(12,15,13)           120.5743         calculate D2E/DX2 analytically  !
 ! A32   A(12,15,16)           119.5789         calculate D2E/DX2 analytically  !
 ! A33   A(13,15,16)           119.817          calculate D2E/DX2 analytically  !
 ! A34   A(11,17,19)           109.5822         calculate D2E/DX2 analytically  !
 ! A35   A(17,19,20)            95.3814         calculate D2E/DX2 analytically  !
 ! A36   A(17,19,22)            96.7388         calculate D2E/DX2 analytically  !
 ! A37   A(17,19,26)            96.9847         calculate D2E/DX2 analytically  !
 ! A38   A(20,19,22)           119.2397         calculate D2E/DX2 analytically  !
 ! A39   A(20,19,26)           121.7764         calculate D2E/DX2 analytically  !
 ! A40   A(22,19,26)           115.3531         calculate D2E/DX2 analytically  !
 ! A41   A(19,20,21)           117.0169         calculate D2E/DX2 analytically  !
 ! A42   A(19,20,30)           122.4517         calculate D2E/DX2 analytically  !
 ! A43   A(21,20,30)           117.7876         calculate D2E/DX2 analytically  !
 ! A44   A(19,22,23)           111.594          calculate D2E/DX2 analytically  !
 ! A45   A(19,22,24)           109.5086         calculate D2E/DX2 analytically  !
 ! A46   A(19,22,25)           109.7823         calculate D2E/DX2 analytically  !
 ! A47   A(23,22,24)           109.056          calculate D2E/DX2 analytically  !
 ! A48   A(23,22,25)           108.902          calculate D2E/DX2 analytically  !
 ! A49   A(24,22,25)           107.919          calculate D2E/DX2 analytically  !
 ! A50   A(19,26,27)           113.0376         calculate D2E/DX2 analytically  !
 ! A51   A(19,26,28)           108.4458         calculate D2E/DX2 analytically  !
 ! A52   A(19,26,29)           110.6684         calculate D2E/DX2 analytically  !
 ! A53   A(27,26,28)           107.9205         calculate D2E/DX2 analytically  !
 ! A54   A(27,26,29)           108.6281         calculate D2E/DX2 analytically  !
 ! A55   A(28,26,29)           107.9851         calculate D2E/DX2 analytically  !
 ! A56   A(13,30,20)            99.8414         calculate D2E/DX2 analytically  !
 ! A57   A(13,30,31)            93.6871         calculate D2E/DX2 analytically  !
 ! A58   A(13,30,32)            94.3469         calculate D2E/DX2 analytically  !
 ! A59   A(20,30,31)           119.8532         calculate D2E/DX2 analytically  !
 ! A60   A(20,30,32)           121.7666         calculate D2E/DX2 analytically  !
 ! A61   A(31,30,32)           115.0934         calculate D2E/DX2 analytically  !
 ! D1    D(6,1,2,3)              0.5326         calculate D2E/DX2 analytically  !
 ! D2    D(6,1,2,8)           -179.1296         calculate D2E/DX2 analytically  !
 ! D3    D(7,1,2,3)            179.9985         calculate D2E/DX2 analytically  !
 ! D4    D(7,1,2,8)              0.3363         calculate D2E/DX2 analytically  !
 ! D5    D(2,1,6,5)             -0.6865         calculate D2E/DX2 analytically  !
 ! D6    D(2,1,6,10)           179.0831         calculate D2E/DX2 analytically  !
 ! D7    D(7,1,6,5)            179.8491         calculate D2E/DX2 analytically  !
 ! D8    D(7,1,6,10)            -0.3813         calculate D2E/DX2 analytically  !
 ! D9    D(1,2,3,4)              0.6886         calculate D2E/DX2 analytically  !
 ! D10   D(1,2,3,12)          -178.2192         calculate D2E/DX2 analytically  !
 ! D11   D(8,2,3,4)           -179.6448         calculate D2E/DX2 analytically  !
 ! D12   D(8,2,3,12)             1.4474         calculate D2E/DX2 analytically  !
 ! D13   D(2,3,4,5)             -1.7456         calculate D2E/DX2 analytically  !
 ! D14   D(2,3,4,11)          -179.3752         calculate D2E/DX2 analytically  !
 ! D15   D(12,3,4,5)           177.2155         calculate D2E/DX2 analytically  !
 ! D16   D(12,3,4,11)           -0.4142         calculate D2E/DX2 analytically  !
 ! D17   D(2,3,12,15)          179.0561         calculate D2E/DX2 analytically  !
 ! D18   D(2,3,12,18)            0.7949         calculate D2E/DX2 analytically  !
 ! D19   D(4,3,12,15)            0.141          calculate D2E/DX2 analytically  !
 ! D20   D(4,3,12,18)         -178.1202         calculate D2E/DX2 analytically  !
 ! D21   D(3,4,5,6)              1.6226         calculate D2E/DX2 analytically  !
 ! D22   D(3,4,5,9)           -178.1732         calculate D2E/DX2 analytically  !
 ! D23   D(11,4,5,6)           179.2894         calculate D2E/DX2 analytically  !
 ! D24   D(11,4,5,9)            -0.5064         calculate D2E/DX2 analytically  !
 ! D25   D(3,4,11,13)           -3.3028         calculate D2E/DX2 analytically  !
 ! D26   D(3,4,11,17)         -176.1958         calculate D2E/DX2 analytically  !
 ! D27   D(5,4,11,13)          179.0701         calculate D2E/DX2 analytically  !
 ! D28   D(5,4,11,17)            6.1771         calculate D2E/DX2 analytically  !
 ! D29   D(4,5,6,1)             -0.4044         calculate D2E/DX2 analytically  !
 ! D30   D(4,5,6,10)           179.8267         calculate D2E/DX2 analytically  !
 ! D31   D(9,5,6,1)            179.3834         calculate D2E/DX2 analytically  !
 ! D32   D(9,5,6,10)            -0.3856         calculate D2E/DX2 analytically  !
 ! D33   D(4,11,13,14)         167.6358         calculate D2E/DX2 analytically  !
 ! D34   D(4,11,13,15)           7.3674         calculate D2E/DX2 analytically  !
 ! D35   D(4,11,13,30)        -101.3875         calculate D2E/DX2 analytically  !
 ! D36   D(17,11,13,14)        -19.4699         calculate D2E/DX2 analytically  !
 ! D37   D(17,11,13,15)       -179.7383         calculate D2E/DX2 analytically  !
 ! D38   D(17,11,13,30)         71.5067         calculate D2E/DX2 analytically  !
 ! D39   D(4,11,17,19)          98.1804         calculate D2E/DX2 analytically  !
 ! D40   D(13,11,17,19)        -74.4233         calculate D2E/DX2 analytically  !
 ! D41   D(3,12,15,13)           3.9454         calculate D2E/DX2 analytically  !
 ! D42   D(3,12,15,16)        -178.0423         calculate D2E/DX2 analytically  !
 ! D43   D(18,12,15,13)       -177.7952         calculate D2E/DX2 analytically  !
 ! D44   D(18,12,15,16)          0.2172         calculate D2E/DX2 analytically  !
 ! D45   D(11,13,15,12)         -7.8908         calculate D2E/DX2 analytically  !
 ! D46   D(11,13,15,16)        174.1015         calculate D2E/DX2 analytically  !
 ! D47   D(14,13,15,12)       -167.8829         calculate D2E/DX2 analytically  !
 ! D48   D(14,13,15,16)         14.1095         calculate D2E/DX2 analytically  !
 ! D49   D(30,13,15,12)         94.1431         calculate D2E/DX2 analytically  !
 ! D50   D(30,13,15,16)        -83.8645         calculate D2E/DX2 analytically  !
 ! D51   D(11,13,30,20)        -59.011          calculate D2E/DX2 analytically  !
 ! D52   D(11,13,30,31)        179.8283         calculate D2E/DX2 analytically  !
 ! D53   D(11,13,30,32)         64.291          calculate D2E/DX2 analytically  !
 ! D54   D(14,13,30,20)         58.4085         calculate D2E/DX2 analytically  !
 ! D55   D(14,13,30,31)        -62.7522         calculate D2E/DX2 analytically  !
 ! D56   D(14,13,30,32)       -178.2895         calculate D2E/DX2 analytically  !
 ! D57   D(15,13,30,20)        178.2336         calculate D2E/DX2 analytically  !
 ! D58   D(15,13,30,31)         57.0729         calculate D2E/DX2 analytically  !
 ! D59   D(15,13,30,32)        -58.4644         calculate D2E/DX2 analytically  !
 ! D60   D(11,17,19,20)         51.7815         calculate D2E/DX2 analytically  !
 ! D61   D(11,17,19,22)        172.1242         calculate D2E/DX2 analytically  !
 ! D62   D(11,17,19,26)        -71.2043         calculate D2E/DX2 analytically  !
 ! D63   D(17,19,20,21)         92.5978         calculate D2E/DX2 analytically  !
 ! D64   D(17,19,20,30)        -68.2024         calculate D2E/DX2 analytically  !
 ! D65   D(22,19,20,21)         -8.227          calculate D2E/DX2 analytically  !
 ! D66   D(22,19,20,30)       -169.0272         calculate D2E/DX2 analytically  !
 ! D67   D(26,19,20,21)       -165.7464         calculate D2E/DX2 analytically  !
 ! D68   D(26,19,20,30)         33.4534         calculate D2E/DX2 analytically  !
 ! D69   D(17,19,22,23)        -77.1632         calculate D2E/DX2 analytically  !
 ! D70   D(17,19,22,24)         43.6841         calculate D2E/DX2 analytically  !
 ! D71   D(17,19,22,25)        161.9987         calculate D2E/DX2 analytically  !
 ! D72   D(20,19,22,23)         22.8789         calculate D2E/DX2 analytically  !
 ! D73   D(20,19,22,24)        143.7263         calculate D2E/DX2 analytically  !
 ! D74   D(20,19,22,25)        -97.9592         calculate D2E/DX2 analytically  !
 ! D75   D(26,19,22,23)       -178.2028         calculate D2E/DX2 analytically  !
 ! D76   D(26,19,22,24)        -57.3555         calculate D2E/DX2 analytically  !
 ! D77   D(26,19,22,25)         60.959          calculate D2E/DX2 analytically  !
 ! D78   D(17,19,26,27)         62.3441         calculate D2E/DX2 analytically  !
 ! D79   D(17,19,26,28)       -178.0316         calculate D2E/DX2 analytically  !
 ! D80   D(17,19,26,29)        -59.7563         calculate D2E/DX2 analytically  !
 ! D81   D(20,19,26,27)        -38.4359         calculate D2E/DX2 analytically  !
 ! D82   D(20,19,26,28)         81.1885         calculate D2E/DX2 analytically  !
 ! D83   D(20,19,26,29)       -160.5362         calculate D2E/DX2 analytically  !
 ! D84   D(22,19,26,27)        163.231          calculate D2E/DX2 analytically  !
 ! D85   D(22,19,26,28)        -77.1446         calculate D2E/DX2 analytically  !
 ! D86   D(22,19,26,29)         41.1306         calculate D2E/DX2 analytically  !
 ! D87   D(19,20,30,13)         76.5785         calculate D2E/DX2 analytically  !
 ! D88   D(19,20,30,31)        176.6464         calculate D2E/DX2 analytically  !
 ! D89   D(19,20,30,32)        -24.8357         calculate D2E/DX2 analytically  !
 ! D90   D(21,20,30,13)        -84.082          calculate D2E/DX2 analytically  !
 ! D91   D(21,20,30,31)         15.9859         calculate D2E/DX2 analytically  !
 ! D92   D(21,20,30,32)        174.5037         calculate D2E/DX2 analytically  !
 --------------------------------------------------------------------------------
 Trust Radius=3.00D-01 FncErr=1.00D-07 GrdErr=1.00D-06
 Number of steps in this run=    192 maximum allowed number of steps=    192.
 Search for a saddle point of order  1.
 GradGradGradGradGradGradGradGradGradGradGradGradGradGradGradGradGradGrad

                          Input orientation:                          
 ---------------------------------------------------------------------
 Center     Atomic      Atomic             Coordinates (Angstroms)
 Number     Number       Type             X           Y           Z
 ---------------------------------------------------------------------
      1          6           0       -2.261630    2.695450    0.334420
      2          6           0       -2.590890    1.354750    0.327620
      3          6           0       -1.648140    0.383750   -0.083290
      4          6           0       -0.352130    0.809950   -0.474740
      5          6           0       -0.048690    2.186640   -0.480260
      6          6           0       -0.983640    3.119340   -0.078870
      7          1           0       -3.001500    3.430710    0.654480
      8          1           0       -3.584920    1.030360    0.634360
      9          1           0        0.945730    2.484070   -0.815060
     10          1           0       -0.737560    4.182140   -0.084300
     11          6           0        0.660080   -0.155840   -0.922900
     12          6           0       -1.949280   -1.028100   -0.146090
     13          6           0        0.307590   -1.534960   -0.877490
     14          1           0        0.960860   -2.236370   -1.393640
     15          6           0       -1.030320   -1.940010   -0.562830
     16          1           0       -1.307270   -2.992990   -0.626390
     17          8           0        1.838190    0.211270   -1.204760
     18         17           0       -3.551520   -1.571870    0.282660
     19          6           0        3.087240   -0.146080    0.419750
     20          6           0        2.716710   -1.488900    0.577610
     21          1           0        3.325580   -2.236340    0.061010
     22          6           0        4.373970    0.181070   -0.272640
     23          1           0        4.698150   -0.635650   -0.929020
     24          1           0        4.246870    1.092940   -0.870990
     25          1           0        5.161310    0.372680    0.474400
     26          6           0        2.543650    0.933200    1.308710
     27          1           0        1.486010    0.788980    1.561510
     28          1           0        3.119930    0.934250    2.248450
     29          1           0        2.660530    1.917650    0.838520
     30          6           0        1.454700   -1.865970    1.001450
     31          1           0        1.194070   -2.924160    1.057290
     32          1           0        0.827060   -1.202300    1.599600
 ---------------------------------------------------------------------
                    Distance matrix (angstroms):
                    1          2          3          4          5
     1  C    0.000000
     2  C    1.380556   0.000000
     3  C    2.427923   1.414378   0.000000
     4  C    2.802863   2.439802   1.419338   0.000000
     5  C    2.412404   2.794189   2.442588   1.409745   0.000000
     6  C    1.408457   2.421211   2.815143   2.426685   1.380281
     7  H    1.091079   2.141273   3.414653   3.893929   3.399181
     8  H    2.147926   1.089685   2.164311   3.424852   3.883849
     9  H    3.413670   3.884426   3.416869   2.145445   1.090608
    10  H    2.169876   3.405678   3.906011   3.416528   2.147870
    11  C    4.271662   3.796642   2.514753   1.469070   2.487066
    12  C    3.767397   2.512775   1.444974   2.457097   3.749462
    13  C    5.095683   4.266603   2.852557   2.469016   3.759659
    14  H    6.139502   5.336085   3.922872   3.442148   4.627793
    15  C    4.879413   3.752829   2.451840   2.833722   4.242600
    16  H    5.847419   4.632565   3.437081   3.923983   5.332349
    17  O    5.034754   4.824156   3.666325   2.385131   2.826182
    18  Cl   4.458309   3.080574   2.753402   4.059904   5.194060
    19  C    6.057391   5.873852   4.791408   3.680132   4.010693
    20  C    6.507826   6.026563   4.795365   3.976170   4.719759
    21  H    7.457494   6.926155   5.623485   4.805462   5.589403
    22  C    7.121925   7.088520   6.028494   4.772039   4.860590
    23  H    7.818635   7.659696   6.483042   5.272709   5.540686
    24  H    6.810406   6.946954   5.989538   4.624705   4.449796
    25  H    7.779132   7.815536   6.832258   5.611603   5.598743
    26  C    5.210133   5.244401   4.450917   3.403149   3.389949
    27  H    4.380089   4.296940   3.562650   2.743267   2.911629
    28  H    5.977167   6.039857   5.336155   4.414342   4.365145
    29  H    5.008667   5.306156   4.665535   3.468108   3.025130
    30  C    5.921367   5.214775   3.983154   3.550256   4.569387
    31  H    6.636597   5.759115   4.507921   4.322202   5.479853
    32  H    5.131583   4.454079   3.387372   3.121302   4.071568
                    6          7          8          9         10
     6  C    0.000000
     7  H    2.169450   0.000000
     8  H    3.411626   2.470317   0.000000
     9  H    2.160558   4.316978   4.974021   0.000000
    10  H    1.090930   2.497172   4.307859   2.500183   0.000000
    11  C    3.760453   5.362708   4.674629   2.657508   4.634082
    12  C    4.258901   4.650706   2.742568   4.600428   5.349643
    13  C    4.895669   6.160754   4.900836   4.069855   5.865724
    14  H    5.847506   7.211857   5.953858   4.755790   6.767294
    15  C    5.082659   5.849105   4.096626   4.851894   6.147798
    16  H    6.145331   6.765720   4.792132   5.925352   7.218097
    17  O    4.205618   6.102800   5.784755   2.472644   4.863921
    18  Cl   5.360239   5.046442   2.626102   6.154746   6.415735
    19  C    5.242485   7.065499   6.778480   3.609503   5.797987
    20  C    5.946380   7.543633   6.786784   4.567318   6.673140
    21  H    6.875482   8.514670   7.665186   5.358494   7.597836
    22  C    6.113507   8.112784   8.055301   4.165436   6.493980
    23  H    6.863340   8.850275   8.592380   4.881219   7.312427
    24  H    5.664979   7.767309   7.975395   3.582722   5.916636
    25  H    6.753566   8.718684   8.772381   4.887923   7.044203
    26  C    4.375656   6.116720   6.166325   3.077165   4.823114
    27  H    3.771020   5.285753   5.160640   2.968723   4.377955
    28  H    5.199069   6.800365   6.897067   4.063764   5.556144
    29  H    3.945331   5.863600   6.311467   2.448611   4.186470
    30  C    5.653840   6.930579   5.824195   4.741477   6.524147
    31  H    6.523586   7.625578   6.217382   5.728553   7.452109
    32  H    4.977195   6.084070   5.038058   4.408400   5.854549
                   11         12         13         14         15
    11  C    0.000000
    12  C    2.858851   0.000000
    13  C    1.424178   2.425967   0.000000
    14  H    2.154221   3.388984   1.088645   0.000000
    15  C    2.484022   1.360051   1.432857   2.177814   0.000000
    16  H    3.465228   2.122182   2.190131   2.511087   1.090646
    17  O    1.265764   4.123318   2.345029   2.606976   3.642586
    18  Cl   4.603921   1.745476   4.029893   4.859333   2.684554
    19  C    2.773790   5.144382   3.367235   3.489869   4.597602
    20  C    2.873727   4.744211   2.814835   2.743638   3.942631
    21  H    3.521569   5.415430   3.237434   2.776312   4.410312
    22  C    3.785410   6.439068   4.454890   4.330124   5.812877
    23  H    4.066481   6.704873   4.482012   4.092128   5.886495
    24  H    3.798317   6.589125   4.735380   4.706945   6.094463
    25  H    4.742663   7.273767   5.387513   5.285877   6.690341
    26  C    3.116717   5.113664   3.983874   4.455793   4.952904
    27  H    2.783368   4.244867   3.569046   4.261624   4.276929
    28  H    4.158920   5.939826   4.876244   5.289540   5.778342
    29  H    3.376946   5.558529   4.516806   5.012714   5.519755
    30  C    2.694270   3.688625   2.226173   2.473364   2.937308
    31  H    3.445271   3.863136   2.541475   2.556267   2.922542
    32  H    2.736050   3.284181   2.552741   3.169651   2.944517
                   16         17         18         19         20
    16  H    0.000000
    17  O    4.527219   0.000000
    18  Cl   2.807599   5.868644   0.000000
    19  C    5.339571   2.080110   6.791525   0.000000
    20  C    4.461426   2.615190   6.275714   1.401919   0.000000
    21  H    4.744295   3.131341   6.912681   2.134171   1.093739
    22  C    6.517383   2.701840   8.136003   1.497366   2.501647
    23  H    6.458615   2.995443   8.390574   2.157288   2.631364
    24  H    6.899502   2.586597   8.321479   2.132117   3.332526
    25  H    7.374415   3.726762   8.929247   2.138660   3.074443
    26  C    5.830023   2.708577   6.669277   1.500195   2.535947
    27  H    5.185809   2.847811   5.708395   2.177588   2.769733
    28  H    6.579363   3.753694   7.392781   2.124223   2.970850
    29  H    6.481033   2.786210   7.146698   2.148588   3.416989
    30  C    3.398311   3.054399   5.066102   2.441635   1.383651
    31  H    3.015994   3.919526   4.994934   3.421736   2.146741
    32  H    3.566086   3.299242   4.587251   2.759721   2.167344
                   21         22         23         24         25
    21  H    0.000000
    22  C    2.655996   0.000000
    23  H    2.329445   1.096795   0.000000
    24  H    3.577919   1.098036   1.787469   0.000000
    25  H    3.216797   1.102129   1.789088   1.779059   0.000000
    26  C    3.494875   2.533069   3.480028   2.770842   2.803997
    27  H    3.845527   3.474762   4.306989   3.692126   3.855249
    28  H    3.857438   2.914754   3.879649   3.320555   2.762218
    29  H    4.278136   2.680721   3.714220   2.473670   2.961995
    30  C    2.126451   3.786267   3.969933   4.478548   4.362143
    31  H    2.451327   4.639281   4.632632   5.401384   5.191137
    32  H    3.111125   4.242590   4.658363   4.802816   4.746826
                   26         27         28         29         30
    26  C    0.000000
    27  H    1.096955   0.000000
    28  H    1.102366   1.778394   0.000000
    29  H    1.097215   1.782164   1.779333   0.000000
    30  C    3.019201   2.713560   3.488443   3.974463   0.000000
    31  H    4.094363   3.758574   4.473827   5.063743   1.091243
    32  H    2.755296   2.097823   3.200485   3.697965   1.091867
                   31         32
    31  H    0.000000
    32  H    1.842172   0.000000
 Stoichiometry    C15H15ClO
 Framework group  C1[X(C15H15ClO)]
 Deg. of freedom    90
 Full point group                 C1      NOp   1
 Largest Abelian subgroup         C1      NOp   1
 Largest concise Abelian subgroup C1      NOp   1
                         Standard orientation:                         
 ---------------------------------------------------------------------
 Center     Atomic      Atomic             Coordinates (Angstroms)
 Number     Number       Type             X           Y           Z
 ---------------------------------------------------------------------
      1          6           0       -2.261627    2.695451    0.334420
      2          6           0       -2.590888    1.354751    0.327620
      3          6           0       -1.648139    0.383751   -0.083290
      4          6           0       -0.352128    0.809950   -0.474740
      5          6           0       -0.048687    2.186639   -0.480260
      6          6           0       -0.983637    3.119340   -0.078870
      7          1           0       -3.001496    3.430712    0.654480
      8          1           0       -3.584918    1.030362    0.634360
      9          1           0        0.945733    2.484069   -0.815060
     10          1           0       -0.737556    4.182140   -0.084300
     11          6           0        0.660081   -0.155841   -0.922900
     12          6           0       -1.949280   -1.028099   -0.146090
     13          6           0        0.307590   -1.534961   -0.877490
     14          1           0        0.960860   -2.236371   -1.393640
     15          6           0       -1.030320   -1.940010   -0.562830
     16          1           0       -1.307271   -2.992990   -0.626390
     17          8           0        1.838191    0.211268   -1.204760
     18         17           0       -3.551520   -1.571868    0.282660
     19          6           0        3.087241   -0.146083    0.419750
     20          6           0        2.716710   -1.488903    0.577610
     21          1           0        3.325580   -2.236343    0.061010
     22          6           0        4.373971    0.181066   -0.272640
     23          1           0        4.698151   -0.635654   -0.929020
     24          1           0        4.246872    1.092936   -0.870990
     25          1           0        5.161311    0.372676    0.474400
     26          6           0        2.543652    0.933198    1.308710
     27          1           0        1.486012    0.788978    1.561510
     28          1           0        3.119932    0.934247    2.248450
     29          1           0        2.660533    1.917648    0.838520
     30          6           0        1.454700   -1.865972    1.001450
     31          1           0        1.194069   -2.924161    1.057290
     32          1           0        0.827060   -1.202301    1.599600
 ---------------------------------------------------------------------
 Rotational constants (GHZ):      0.6890559      0.3320521      0.2495024
 General basis read from cards:  (5D, 7F)
 There are   776 symmetry adapted cartesian basis functions of A   symmetry.
 There are   691 symmetry adapted basis functions of A   symmetry.
   691 basis functions,  1073 primitive gaussians,   776 cartesian basis functions
    65 alpha electrons       65 beta electrons
       nuclear repulsion energy      1298.7645159289 Hartrees.
 NAtoms=   32 NActive=   32 NUniq=   32 SFac= 1.00D+00 NAtFMM=   60 NAOKFM=F Big=F
 Integral buffers will be    131072 words long.
 Raffenetti 2 integral format.
 Two-electron integral symmetry is turned on.
 Nuclear repulsion after empirical dispersion term =     1298.7376501217 Hartrees.
 Force inversion solution in PCM.
 ------------------------------------------------------------------------------
 Polarizable Continuum Model (PCM)
 =================================
 Model                : PCM (using non-symmetric T matrix).
 Atomic radii         : SMD-Coulomb.
 Polarization charges : Total charges.
 Charge compensation  : None.
 Solution method      : Matrix inversion.
 Cavity type          : VdW (van der Waals Surface) (Alpha=1.000).
 Cavity algorithm     : GePol (No added spheres)
                        Default sphere list used, NSphG=   32.
                        Lebedev-Laikov grids with approx.  5.0 points / Ang**2.
                        Smoothing algorithm: Karplus/York (Gamma=1.0000).
                        Polarization charges: spherical gaussians, with
                                              point-specific exponents (IZeta= 3).
                        Self-potential: point-specific (ISelfS= 7).
                        Self-field    : sphere-specific E.n sum rule (ISelfD= 2).
 1st derivatives      : Analytical E(r).r(x)/FMM algorithm (CHGder, D1EAlg=3).
                        Cavity 1st derivative terms included.
 2nd derivatives      : Analytical E(r).r(xy)/FMM algorithm (CHGder, D2EAlg=3).
                        Cavity 2nd derivative terms included.
 Solvent              : Toluene, Eps=   2.374100 Eps(inf)=   2.238315
 ------------------------------------------------------------------------------
 ------------------------------------------------------------------------------
 Atomic radii for non-electrostatic terms: SMD-CDS.
 ------------------------------------------------------------------------------
 Nuclear repulsion after PCM non-electrostatic terms =     1298.7270434780 Hartrees.
 One-electron integrals computed using PRISM.
 NBasis=   691 RedAO= T EigKep=  1.05D-06  NBF=   691
 NBsUse=   686 1.00D-06 EigRej=  8.40D-07 NBFU=   686
 ExpMin= 3.17D-02 ExpMax= 6.95D+04 ExpMxC= 2.37D+03 IAcc=3 IRadAn=         5 AccDes= 0.00D+00
 Harris functional with IExCor= 4639 and IRadAn=       5 diagonalized for initial guess.
 HarFok:  IExCor= 4639 AccDes= 0.00D+00 IRadAn=         5 IDoV= 1 UseB2=F ITyADJ=14
 ICtDFT=  3500011 ScaDFX=  1.000000  1.000000  1.000000  1.000000
 FoFCou: FMM=F IPFlag=           0 FMFlag=      100000 FMFlg1=           0
         NFxFlg=           0 DoJE=T BraDBF=F KetDBF=T FulRan=T
         wScrn=  0.000000 ICntrl=     500 IOpCl=  0 I1Cent=   200000004 NGrid=           0
         NMat0=    1 NMatS0=      1 NMatT0=    0 NMatD0=    1 NMtDS0=    0 NMtDT0=    0
 Petite list used in FoFCou.
 Requested convergence on RMS density matrix=1.00D-08 within 128 cycles.
 Requested convergence on MAX density matrix=1.00D-06.
 Requested convergence on             energy=1.00D-06.
 No special actions if energy rises.
 Inv3:  Mode=1 IEnd=    17700123.
 Iteration    1 A*A^-1 deviation from unit magnitude is 4.66D-15 for   2426.
 Iteration    1 A*A^-1 deviation from orthogonality  is 3.28D-15 for   1243    402.
 Iteration    1 A^-1*A deviation from unit magnitude is 4.88D-15 for   2426.
 Iteration    1 A^-1*A deviation from orthogonality  is 1.75D-13 for   1755   1583.
 Error on total polarization charges =  0.02778
 SCF Done:  E(RwB97XD) =  -1116.03301522     A.U. after   17 cycles
            NFock= 17  Conv=0.37D-08     -V/T= 2.0039
 SMD-CDS (non-electrostatic) energy       (kcal/mol) =      -6.66
 (included in total energy above)
 DoSCS=F DFT=T ScalE2(SS,OS)=  1.000000  1.000000
 Range of M.O.s used for correlation:     1   686
 NBasis=   691 NAE=    65 NBE=    65 NFC=     0 NFV=     0
 NROrb=    686 NOA=    65 NOB=    65 NVA=   621 NVB=   621

 **** Warning!!: The largest alpha MO coefficient is  0.16790787D+03

 Symmetrizing basis deriv contribution to polar:
 IMax=3 JMax=2 DiffMx= 0.00D+00
 G2DrvN: will do    33 centers at a time, making    1 passes.
 Calling FoFCou, ICntrl=  3107 FMM=F I1Cent=   0 AccDes= 0.00D+00.
 NEqPCM:  Using equilibrium solvation (IEInf=0, Eps=   2.3741, EpsInf=   2.2383)
 G2PCM: DoFxE=T DoFxN=T DoGrad=T DoDP/DQ/DG/TGxP=FFFF NFrqRd=   0 IEInf=0 SqF1=F DoCFld=F IF1Alg=4.
 End of G2Drv F.D. properties file   721 does not exist.
 End of G2Drv F.D. properties file   722 does not exist.
 End of G2Drv F.D. properties file   788 does not exist.
          IDoAtm=11111111111111111111111111111111
 NEqPCM:  Using equilibrium solvation (IEInf=0, Eps=   2.3741, EpsInf=   2.2383)
          Differentiating once with respect to nuclear coordinates.
          There are    99 degrees of freedom in the 1st order CPHF.  IDoFFX=6 NUNeed=     0.
     96 vectors produced by pass  0 Test12= 4.08D-14 1.01D-09 XBig12= 1.09D-01 5.72D-02.
 AX will form    96 AO Fock derivatives at one time.
     93 vectors produced by pass  1 Test12= 4.08D-14 1.01D-09 XBig12= 9.57D-03 1.40D-02.
     93 vectors produced by pass  2 Test12= 4.08D-14 1.01D-09 XBig12= 3.32D-04 2.51D-03.
     93 vectors produced by pass  3 Test12= 4.08D-14 1.01D-09 XBig12= 5.24D-06 2.39D-04.
     93 vectors produced by pass  4 Test12= 4.08D-14 1.01D-09 XBig12= 5.33D-08 2.20D-05.
     93 vectors produced by pass  5 Test12= 4.08D-14 1.01D-09 XBig12= 5.04D-10 1.95D-06.
     93 vectors produced by pass  6 Test12= 4.08D-14 1.01D-09 XBig12= 6.64D-12 2.25D-07.
     87 vectors produced by pass  7 Test12= 4.08D-14 1.01D-09 XBig12= 8.91D-13 9.26D-08.
     74 vectors produced by pass  8 Test12= 4.08D-14 1.01D-09 XBig12= 5.83D-14 2.16D-08.
     61 vectors produced by pass  9 Test12= 4.08D-14 1.01D-09 XBig12= 2.80D-14 1.20D-08.
     49 vectors produced by pass 10 Test12= 4.08D-14 1.01D-09 XBig12= 3.00D-14 1.32D-08.
     25 vectors produced by pass 11 Test12= 4.08D-14 1.01D-09 XBig12= 1.45D-14 8.75D-09.
     18 vectors produced by pass 12 Test12= 4.08D-14 1.01D-09 XBig12= 6.78D-15 5.77D-09.
     18 vectors produced by pass 13 Test12= 4.08D-14 1.01D-09 XBig12= 1.74D-14 7.73D-09.
     18 vectors produced by pass 14 Test12= 4.08D-14 1.01D-09 XBig12= 1.79D-14 8.24D-09.
     18 vectors produced by pass 15 Test12= 4.08D-14 1.01D-09 XBig12= 2.20D-14 8.89D-09.
     18 vectors produced by pass 16 Test12= 4.08D-14 1.01D-09 XBig12= 3.19D-14 1.03D-08.
     17 vectors produced by pass 17 Test12= 4.08D-14 1.01D-09 XBig12= 1.14D-14 5.75D-09.
     17 vectors produced by pass 18 Test12= 4.08D-14 1.01D-09 XBig12= 1.70D-14 7.29D-09.
     15 vectors produced by pass 19 Test12= 4.08D-14 1.01D-09 XBig12= 1.01D-14 5.45D-09.
     15 vectors produced by pass 20 Test12= 4.08D-14 1.01D-09 XBig12= 1.40D-14 6.01D-09.
     15 vectors produced by pass 21 Test12= 4.08D-14 1.01D-09 XBig12= 2.34D-14 9.45D-09.
     14 vectors produced by pass 22 Test12= 4.08D-14 1.01D-09 XBig12= 1.04D-14 5.49D-09.
     14 vectors produced by pass 23 Test12= 4.08D-14 1.01D-09 XBig12= 1.76D-14 6.28D-09.
     14 vectors produced by pass 24 Test12= 4.08D-14 1.01D-09 XBig12= 1.15D-14 6.63D-09.
     14 vectors produced by pass 25 Test12= 4.08D-14 1.01D-09 XBig12= 1.12D-14 6.81D-09.
     14 vectors produced by pass 26 Test12= 4.08D-14 1.01D-09 XBig12= 8.20D-15 5.70D-09.
     14 vectors produced by pass 27 Test12= 4.08D-14 1.01D-09 XBig12= 9.27D-15 5.20D-09.
     11 vectors produced by pass 28 Test12= 4.08D-14 1.01D-09 XBig12= 6.46D-15 3.81D-09.
     10 vectors produced by pass 29 Test12= 4.08D-14 1.01D-09 XBig12= 4.91D-15 4.12D-09.
     10 vectors produced by pass 30 Test12= 4.08D-14 1.01D-09 XBig12= 1.21D-14 5.23D-09.
     10 vectors produced by pass 31 Test12= 4.08D-14 1.01D-09 XBig12= 7.49D-15 4.74D-09.
     10 vectors produced by pass 32 Test12= 4.08D-14 1.01D-09 XBig12= 6.33D-15 3.69D-09.
     10 vectors produced by pass 33 Test12= 4.08D-14 1.01D-09 XBig12= 4.50D-15 3.92D-09.
      8 vectors produced by pass 34 Test12= 4.08D-14 1.01D-09 XBig12= 3.13D-15 2.79D-09.
      8 vectors produced by pass 35 Test12= 4.08D-14 1.01D-09 XBig12= 4.00D-15 3.03D-09.
      8 vectors produced by pass 36 Test12= 4.08D-14 1.01D-09 XBig12= 5.60D-15 3.90D-09.
      8 vectors produced by pass 37 Test12= 4.08D-14 1.01D-09 XBig12= 5.28D-15 4.14D-09.
      8 vectors produced by pass 38 Test12= 4.08D-14 1.01D-09 XBig12= 7.55D-15 4.39D-09.
      8 vectors produced by pass 39 Test12= 4.08D-14 1.01D-09 XBig12= 9.82D-15 5.26D-09.
      8 vectors produced by pass 40 Test12= 4.08D-14 1.01D-09 XBig12= 3.31D-15 2.82D-09.
      8 vectors produced by pass 41 Test12= 4.08D-14 1.01D-09 XBig12= 8.68D-15 4.38D-09.
      8 vectors produced by pass 42 Test12= 4.08D-14 1.01D-09 XBig12= 4.37D-15 3.01D-09.
      8 vectors produced by pass 43 Test12= 4.08D-14 1.01D-09 XBig12= 6.17D-15 5.21D-09.
      8 vectors produced by pass 44 Test12= 4.08D-14 1.01D-09 XBig12= 3.17D-15 2.54D-09.
      8 vectors produced by pass 45 Test12= 4.08D-14 1.01D-09 XBig12= 3.50D-15 2.87D-09.
      8 vectors produced by pass 46 Test12= 4.08D-14 1.01D-09 XBig12= 6.56D-15 5.71D-09.
      8 vectors produced by pass 47 Test12= 4.08D-14 1.01D-09 XBig12= 4.45D-15 3.03D-09.
      8 vectors produced by pass 48 Test12= 4.08D-14 1.01D-09 XBig12= 4.64D-15 3.16D-09.
      8 vectors produced by pass 49 Test12= 4.08D-14 1.01D-09 XBig12= 4.20D-15 3.93D-09.
      8 vectors produced by pass 50 Test12= 4.08D-14 1.01D-09 XBig12= 3.99D-15 3.02D-09.
      8 vectors produced by pass 51 Test12= 4.08D-14 1.01D-09 XBig12= 1.04D-14 4.94D-09.
      8 vectors produced by pass 52 Test12= 4.08D-14 1.01D-09 XBig12= 4.03D-15 3.32D-09.
      8 vectors produced by pass 53 Test12= 4.08D-14 1.01D-09 XBig12= 5.43D-15 3.22D-09.
      8 vectors produced by pass 54 Test12= 4.08D-14 1.01D-09 XBig12= 5.48D-15 3.16D-09.
      6 vectors produced by pass 55 Test12= 4.08D-14 1.01D-09 XBig12= 2.42D-15 2.43D-09.
      6 vectors produced by pass 56 Test12= 4.08D-14 1.01D-09 XBig12= 2.68D-15 2.63D-09.
      6 vectors produced by pass 57 Test12= 4.08D-14 1.01D-09 XBig12= 4.75D-15 3.12D-09.
      6 vectors produced by pass 58 Test12= 4.08D-14 1.01D-09 XBig12= 2.28D-15 2.23D-09.
      6 vectors produced by pass 59 Test12= 4.08D-14 1.01D-09 XBig12= 4.65D-15 3.33D-09.
      6 vectors produced by pass 60 Test12= 4.08D-14 1.01D-09 XBig12= 2.83D-15 2.46D-09.
      6 vectors produced by pass 61 Test12= 4.08D-14 1.01D-09 XBig12= 2.32D-15 2.65D-09.
      6 vectors produced by pass 62 Test12= 4.08D-14 1.01D-09 XBig12= 3.39D-15 3.11D-09.
      5 vectors produced by pass 63 Test12= 4.08D-14 1.01D-09 XBig12= 1.86D-15 2.51D-09.
      5 vectors produced by pass 64 Test12= 4.08D-14 1.01D-09 XBig12= 6.41D-15 3.74D-09.
      5 vectors produced by pass 65 Test12= 4.08D-14 1.01D-09 XBig12= 3.58D-15 2.67D-09.
      5 vectors produced by pass 66 Test12= 4.08D-14 1.01D-09 XBig12= 3.76D-15 2.78D-09.
      5 vectors produced by pass 67 Test12= 4.08D-14 1.01D-09 XBig12= 2.14D-15 2.24D-09.
      4 vectors produced by pass 68 Test12= 4.08D-14 1.01D-09 XBig12= 2.02D-15 2.30D-09.
      4 vectors produced by pass 69 Test12= 4.08D-14 1.01D-09 XBig12= 3.57D-15 3.34D-09.
      4 vectors produced by pass 70 Test12= 4.08D-14 1.01D-09 XBig12= 4.07D-15 3.35D-09.
      4 vectors produced by pass 71 Test12= 4.08D-14 1.01D-09 XBig12= 2.68D-15 2.47D-09.
      4 vectors produced by pass 72 Test12= 4.08D-14 1.01D-09 XBig12= 3.14D-15 2.36D-09.
      3 vectors produced by pass 73 Test12= 4.08D-14 1.01D-09 XBig12= 2.75D-15 2.15D-09.
      1 vectors produced by pass 74 Test12= 4.08D-14 1.01D-09 XBig12= 6.16D-16 1.23D-09.
 InvSVY:  IOpt=1 It=  1 EMax= 1.08D-15
 Solved reduced A of dimension  1529 with    99 vectors.
 End of Minotr F.D. properties file   721 does not exist.
 End of Minotr F.D. properties file   722 does not exist.
 End of Minotr F.D. properties file   788 does not exist.

 **********************************************************************

            Population analysis using the SCF density.

 **********************************************************************

 Orbital symmetries:
       Occupied  (A) (A) (A) (A) (A) (A) (A) (A) (A) (A) (A) (A)
                 (A) (A) (A) (A) (A) (A) (A) (A) (A) (A) (A) (A)
                 (A) (A) (A) (A) (A) (A) (A) (A) (A) (A) (A) (A)
                 (A) (A) (A) (A) (A) (A) (A) (A) (A) (A) (A) (A)
                 (A) (A) (A) (A) (A) (A) (A) (A) (A) (A) (A) (A)
                 (A) (A) (A) (A) (A)
       Virtual   (A) (A) (A) (A) (A) (A) (A) (A) (A) (A) (A) (A)
                 (A) (A) (A) (A) (A) (A) (A) (A) (A) (A) (A) (A)
                 (A) (A) (A) (A) (A) (A) (A) (A) (A) (A) (A) (A)
                 (A) (A) (A) (A) (A) (A) (A) (A) (A) (A) (A) (A)
                 (A) (A) (A) (A) (A) (A) (A) (A) (A) (A) (A) (A)
                 (A) (A) (A) (A) (A) (A) (A) (A) (A) (A) (A) (A)
                 (A) (A) (A) (A) (A) (A) (A) (A) (A) (A) (A) (A)
                 (A) (A) (A) (A) (A) (A) (A) (A) (A) (A) (A) (A)
                 (A) (A) (A) (A) (A) (A) (A) (A) (A) (A) (A) (A)
                 (A) (A) (A) (A) (A) (A) (A) (A) (A) (A) (A) (A)
                 (A) (A) (A) (A) (A) (A) (A) (A) (A) (A) (A) (A)
                 (A) (A) (A) (A) (A) (A) (A) (A) (A) (A) (A) (A)
                 (A) (A) (A) (A) (A) (A) (A) (A) (A) (A) (A) (A)
                 (A) (A) (A) (A) (A) (A) (A) (A) (A) (A) (A) (A)
                 (A) (A) (A) (A) (A) (A) (A) (A) (A) (A) (A) (A)
                 (A) (A) (A) (A) (A) (A) (A) (A) (A) (A) (A) (A)
                 (A) (A) (A) (A) (A) (A) (A) (A) (A) (A) (A) (A)
                 (A) (A) (A) (A) (A) (A) (A) (A) (A) (A) (A) (A)
                 (A) (A) (A) (A) (A) (A) (A) (A) (A) (A) (A) (A)
                 (A) (A) (A) (A) (A) (A) (A) (A) (A) (A) (A) (A)
                 (A) (A) (A) (A) (A) (A) (A) (A) (A) (A) (A) (A)
                 (A) (A) (A) (A) (A) (A) (A) (A) (A) (A) (A) (A)
                 (A) (A) (A) (A) (A) (A) (A) (A) (A) (A) (A) (A)
                 (A) (A) (A) (A) (A) (A) (A) (A) (A) (A) (A) (A)
                 (A) (A) (A) (A) (A) (A) (A) (A) (A) (A) (A) (A)
                 (A) (A) (A) (A) (A) (A) (A) (A) (A) (A) (A) (A)
                 (A) (A) (A) (A) (A) (A) (A) (A) (A) (A) (A) (A)
                 (A) (A) (A) (A) (A) (A) (A) (A) (A) (A) (A) (A)
                 (A) (A) (A) (A) (A) (A) (A) (A) (A) (A) (A) (A)
                 (A) (A) (A) (A) (A) (A) (A) (A) (A) (A) (A) (A)
                 (A) (A) (A) (A) (A) (A) (A) (A) (A) (A) (A) (A)
                 (A) (A) (A) (A) (A) (A) (A) (A) (A) (A) (A) (A)
                 (A) (A) (A) (A) (A) (A) (A) (A) (A) (A) (A) (A)
                 (A) (A) (A) (A) (A) (A) (A) (A) (A) (A) (A) (A)
                 (A) (A) (A) (A) (A) (A) (A) (A) (A) (A) (A) (A)
                 (A) (A) (A) (A) (A) (A) (A) (A) (A) (A) (A) (A)
                 (A) (A) (A) (A) (A) (A) (A) (A) (A) (A) (A) (A)
                 (A) (A) (A) (A) (A) (A) (A) (A) (A) (A) (A) (A)
                 (A) (A) (A) (A) (A) (A) (A) (A) (A) (A) (A) (A)
                 (A) (A) (A) (A) (A) (A) (A) (A) (A) (A) (A) (A)
                 (A) (A) (A) (A) (A) (A) (A) (A) (A) (A) (A) (A)
                 (A) (A) (A) (A) (A) (A) (A) (A) (A) (A) (A) (A)
                 (A) (A) (A) (A) (A) (A) (A) (A) (A) (A) (A) (A)
                 (A) (A) (A) (A) (A) (A) (A) (A) (A) (A) (A) (A)
                 (A) (A) (A) (A) (A) (A) (A) (A) (A) (A) (A) (A)
                 (A) (A) (A) (A) (A) (A) (A) (A) (A) (A) (A) (A)
                 (A) (A) (A) (A) (A) (A) (A) (A) (A) (A) (A) (A)
                 (A) (A) (A) (A) (A) (A) (A) (A) (A) (A) (A) (A)
                 (A) (A) (A) (A) (A) (A) (A) (A) (A) (A) (A) (A)
                 (A) (A) (A) (A) (A) (A) (A) (A) (A) (A) (A) (A)
                 (A) (A) (A) (A) (A) (A) (A) (A) (A) (A) (A) (A)
                 (A) (A) (A) (A) (A) (A) (A) (A) (A)
 The electronic state is 1-A.
 Alpha  occ. eigenvalues -- -101.69746 -19.22452 -10.34757 -10.34225 -10.34162
 Alpha  occ. eigenvalues --  -10.31563 -10.31165 -10.29977 -10.29864 -10.29789
 Alpha  occ. eigenvalues --  -10.29326 -10.29176 -10.29078 -10.28984 -10.28108
 Alpha  occ. eigenvalues --  -10.27988 -10.27896  -9.58282  -7.32914  -7.32074
 Alpha  occ. eigenvalues --   -7.32048  -1.11583  -0.99472  -0.95292  -0.93168
 Alpha  occ. eigenvalues --   -0.91048  -0.85632  -0.85350  -0.84085  -0.79614
 Alpha  occ. eigenvalues --   -0.79159  -0.72444  -0.71898  -0.71429  -0.66528
 Alpha  occ. eigenvalues --   -0.62147  -0.60567  -0.60409  -0.58204  -0.56779
 Alpha  occ. eigenvalues --   -0.55327  -0.54443  -0.54174  -0.52132  -0.51241
 Alpha  occ. eigenvalues --   -0.51152  -0.49669  -0.49385  -0.48216  -0.47422
 Alpha  occ. eigenvalues --   -0.46661  -0.46469  -0.45827  -0.44771  -0.44148
 Alpha  occ. eigenvalues --   -0.43663  -0.43246  -0.42168  -0.39525  -0.38661
 Alpha  occ. eigenvalues --   -0.36494  -0.34505  -0.33659  -0.30933  -0.27086
 Alpha virt. eigenvalues --   -0.00478   0.02129   0.04287   0.04704   0.04963
 Alpha virt. eigenvalues --    0.05270   0.06317   0.06569   0.06769   0.07621
 Alpha virt. eigenvalues --    0.07735   0.07850   0.08564   0.08998   0.09374
 Alpha virt. eigenvalues --    0.09598   0.10216   0.10681   0.10807   0.11056
 Alpha virt. eigenvalues --    0.11446   0.11797   0.12388   0.12778   0.13407
 Alpha virt. eigenvalues --    0.13477   0.13913   0.13937   0.14227   0.14448
 Alpha virt. eigenvalues --    0.15173   0.15561   0.15677   0.15746   0.16096
 Alpha virt. eigenvalues --    0.16432   0.16941   0.17242   0.17454   0.17691
 Alpha virt. eigenvalues --    0.18103   0.18356   0.18527   0.18871   0.19292
 Alpha virt. eigenvalues --    0.19410   0.19814   0.19890   0.20036   0.20252
 Alpha virt. eigenvalues --    0.20670   0.21214   0.21377   0.21596   0.21773
 Alpha virt. eigenvalues --    0.22119   0.22488   0.23044   0.23319   0.23494
 Alpha virt. eigenvalues --    0.23768   0.24104   0.24647   0.24795   0.25047
 Alpha virt. eigenvalues --    0.25867   0.26211   0.26934   0.27055   0.27345
 Alpha virt. eigenvalues --    0.27448   0.28514   0.28668   0.29224   0.29748
 Alpha virt. eigenvalues --    0.29959   0.30115   0.30998   0.31127   0.31710
 Alpha virt. eigenvalues --    0.32168   0.32471   0.33054   0.33375   0.33734
 Alpha virt. eigenvalues --    0.33904   0.34325   0.35256   0.35689   0.36609
 Alpha virt. eigenvalues --    0.37104   0.37226   0.38142   0.38572   0.39233
 Alpha virt. eigenvalues --    0.39945   0.40612   0.41341   0.42214   0.43081
 Alpha virt. eigenvalues --    0.43304   0.43718   0.44556   0.44900   0.45280
 Alpha virt. eigenvalues --    0.45832   0.46106   0.46706   0.47086   0.47516
 Alpha virt. eigenvalues --    0.48019   0.48277   0.48504   0.48982   0.49650
 Alpha virt. eigenvalues --    0.49890   0.50463   0.50762   0.51046   0.51423
 Alpha virt. eigenvalues --    0.51904   0.52255   0.52685   0.53062   0.53477
 Alpha virt. eigenvalues --    0.54037   0.54629   0.54975   0.55279   0.55409
 Alpha virt. eigenvalues --    0.56538   0.56770   0.57156   0.57808   0.58151
 Alpha virt. eigenvalues --    0.58743   0.58960   0.59614   0.59904   0.60132
 Alpha virt. eigenvalues --    0.60547   0.61225   0.61537   0.61757   0.62146
 Alpha virt. eigenvalues --    0.62842   0.63027   0.63865   0.64913   0.65211
 Alpha virt. eigenvalues --    0.65605   0.66006   0.66331   0.67061   0.67722
 Alpha virt. eigenvalues --    0.68310   0.68577   0.69047   0.69286   0.70357
 Alpha virt. eigenvalues --    0.70821   0.71152   0.72205   0.73656   0.74319
 Alpha virt. eigenvalues --    0.74519   0.74981   0.76059   0.76527   0.76634
 Alpha virt. eigenvalues --    0.77167   0.78642   0.79024   0.80667   0.81261
 Alpha virt. eigenvalues --    0.81732   0.82784   0.83124   0.84125   0.84441
 Alpha virt. eigenvalues --    0.84951   0.86306   0.87428   0.88165   0.88944
 Alpha virt. eigenvalues --    0.89367   0.90340   0.90989   0.91572   0.92083
 Alpha virt. eigenvalues --    0.93868   0.94842   0.95671   0.96967   0.97346
 Alpha virt. eigenvalues --    0.98745   1.00394   1.00794   1.02287   1.03133
 Alpha virt. eigenvalues --    1.04302   1.04962   1.06054   1.06965   1.08235
 Alpha virt. eigenvalues --    1.08724   1.10990   1.11517   1.13021   1.13844
 Alpha virt. eigenvalues --    1.14289   1.15906   1.16638   1.17732   1.19523
 Alpha virt. eigenvalues --    1.19828   1.20803   1.21430   1.22210   1.22507
 Alpha virt. eigenvalues --    1.23612   1.23895   1.25556   1.26266   1.26947
 Alpha virt. eigenvalues --    1.27156   1.28435   1.30184   1.31085   1.32312
 Alpha virt. eigenvalues --    1.32444   1.33231   1.33821   1.35245   1.35894
 Alpha virt. eigenvalues --    1.37749   1.38016   1.38299   1.39721   1.40140
 Alpha virt. eigenvalues --    1.40717   1.41856   1.42905   1.43734   1.45356
 Alpha virt. eigenvalues --    1.46492   1.47587   1.48124   1.48795   1.50011
 Alpha virt. eigenvalues --    1.50570   1.51613   1.53711   1.54543   1.55927
 Alpha virt. eigenvalues --    1.57060   1.58385   1.59915   1.61855   1.62133
 Alpha virt. eigenvalues --    1.63521   1.63753   1.64761   1.65336   1.66806
 Alpha virt. eigenvalues --    1.67749   1.68254   1.68931   1.69393   1.69795
 Alpha virt. eigenvalues --    1.70397   1.71668   1.72680   1.73329   1.74356
 Alpha virt. eigenvalues --    1.74800   1.75192   1.75531   1.76487   1.77483
 Alpha virt. eigenvalues --    1.78650   1.78749   1.80160   1.80594   1.81532
 Alpha virt. eigenvalues --    1.81724   1.82200   1.83850   1.85386   1.86075
 Alpha virt. eigenvalues --    1.86702   1.87239   1.87580   1.89511   1.90798
 Alpha virt. eigenvalues --    1.91193   1.92070   1.93023   1.94923   1.95106
 Alpha virt. eigenvalues --    1.96371   1.97623   1.97881   1.99541   2.01332
 Alpha virt. eigenvalues --    2.02487   2.02919   2.03369   2.05235   2.06168
 Alpha virt. eigenvalues --    2.07950   2.09303   2.09447   2.09790   2.11909
 Alpha virt. eigenvalues --    2.12301   2.12506   2.13012   2.14632   2.15049
 Alpha virt. eigenvalues --    2.16255   2.17115   2.17781   2.18586   2.19349
 Alpha virt. eigenvalues --    2.21466   2.22543   2.24059   2.24972   2.25763
 Alpha virt. eigenvalues --    2.26563   2.28013   2.28625   2.29079   2.29469
 Alpha virt. eigenvalues --    2.31042   2.32262   2.34287   2.34487   2.37041
 Alpha virt. eigenvalues --    2.38555   2.39255   2.40256   2.42012   2.42216
 Alpha virt. eigenvalues --    2.43472   2.44154   2.45373   2.45842   2.46569
 Alpha virt. eigenvalues --    2.47298   2.48154   2.48824   2.49698   2.50720
 Alpha virt. eigenvalues --    2.51330   2.52489   2.52714   2.53774   2.56084
 Alpha virt. eigenvalues --    2.56920   2.58060   2.58952   2.59785   2.61117
 Alpha virt. eigenvalues --    2.62478   2.63376   2.63610   2.64846   2.65778
 Alpha virt. eigenvalues --    2.67308   2.67661   2.70063   2.70125   2.70560
 Alpha virt. eigenvalues --    2.71180   2.71877   2.72010   2.72927   2.73807
 Alpha virt. eigenvalues --    2.75024   2.75360   2.75883   2.77612   2.78551
 Alpha virt. eigenvalues --    2.80586   2.81390   2.82175   2.83061   2.83680
 Alpha virt. eigenvalues --    2.83910   2.86030   2.86410   2.87640   2.88052
 Alpha virt. eigenvalues --    2.89340   2.89570   2.90575   2.90753   2.92155
 Alpha virt. eigenvalues --    2.92810   2.93919   2.95219   2.96131   2.97071
 Alpha virt. eigenvalues --    2.97703   2.98815   2.98870   2.99462   3.01604
 Alpha virt. eigenvalues --    3.02059   3.02846   3.03387   3.04162   3.05361
 Alpha virt. eigenvalues --    3.05754   3.07435   3.08288   3.09955   3.10037
 Alpha virt. eigenvalues --    3.10526   3.11632   3.12605   3.14910   3.15026
 Alpha virt. eigenvalues --    3.16267   3.16921   3.18101   3.19071   3.20917
 Alpha virt. eigenvalues --    3.21375   3.21652   3.22285   3.24696   3.25530
 Alpha virt. eigenvalues --    3.25934   3.27064   3.27804   3.28047   3.28749
 Alpha virt. eigenvalues --    3.29558   3.30795   3.32225   3.33026   3.33760
 Alpha virt. eigenvalues --    3.34206   3.35374   3.35717   3.36281   3.36501
 Alpha virt. eigenvalues --    3.36618   3.38352   3.39254   3.40157   3.40703
 Alpha virt. eigenvalues --    3.41638   3.41786   3.42359   3.42906   3.43858
 Alpha virt. eigenvalues --    3.44160   3.45763   3.46767   3.47510   3.48412
 Alpha virt. eigenvalues --    3.48522   3.50070   3.50318   3.51122   3.52230
 Alpha virt. eigenvalues --    3.52538   3.53341   3.53547   3.55009   3.56993
 Alpha virt. eigenvalues --    3.57759   3.57908   3.58624   3.59622   3.60519
 Alpha virt. eigenvalues --    3.61054   3.62352   3.63350   3.63457   3.64545
 Alpha virt. eigenvalues --    3.65142   3.67330   3.67659   3.68486   3.71378
 Alpha virt. eigenvalues --    3.71455   3.72084   3.74426   3.75088   3.75390
 Alpha virt. eigenvalues --    3.76352   3.77505   3.79648   3.80582   3.82320
 Alpha virt. eigenvalues --    3.82713   3.83680   3.84316   3.86966   3.89619
 Alpha virt. eigenvalues --    3.91164   3.92719   3.93956   3.95497   3.95892
 Alpha virt. eigenvalues --    3.97447   3.98346   3.99716   4.03928   4.04104
 Alpha virt. eigenvalues --    4.05857   4.08070   4.10386   4.10932   4.11826
 Alpha virt. eigenvalues --    4.14088   4.15550   4.17145   4.17532   4.18474
 Alpha virt. eigenvalues --    4.20435   4.21631   4.22663   4.24760   4.25520
 Alpha virt. eigenvalues --    4.27356   4.28228   4.28770   4.31118   4.31651
 Alpha virt. eigenvalues --    4.32538   4.33987   4.34497   4.35692   4.36366
 Alpha virt. eigenvalues --    4.38105   4.39234   4.40496   4.42447   4.43453
 Alpha virt. eigenvalues --    4.44962   4.46659   4.48785   4.49809   4.53550
 Alpha virt. eigenvalues --    4.54631   4.56401   4.56671   4.57854   4.60810
 Alpha virt. eigenvalues --    4.62790   4.67567   4.69675   4.74605   4.75970
 Alpha virt. eigenvalues --    4.78795   4.80273   4.81958   4.82973   4.84342
 Alpha virt. eigenvalues --    4.86482   4.88900   4.93311   4.97278   5.00942
 Alpha virt. eigenvalues --    5.01899   5.03147   5.05665   5.07979   5.09528
 Alpha virt. eigenvalues --    5.14169   5.20102   5.20916   5.26493   5.27286
 Alpha virt. eigenvalues --    5.29153   5.30731   5.34791   5.39341   5.41591
 Alpha virt. eigenvalues --    5.43069   5.47254   5.63994   5.68367   5.72315
 Alpha virt. eigenvalues --    5.75398   5.89505   5.93630   6.21147   6.49077
 Alpha virt. eigenvalues --    6.69344   6.73670   6.93135   7.10589   7.26012
 Alpha virt. eigenvalues --    7.34018  10.93972  11.03097  11.50868  22.43338
 Alpha virt. eigenvalues --   22.52338  22.58842  22.59702  22.71588  22.74803
 Alpha virt. eigenvalues --   22.78354  22.81507  22.88652  22.95459  23.02492
 Alpha virt. eigenvalues --   23.05704  23.09794  23.39228  23.78601  26.39131
 Alpha virt. eigenvalues --   44.41175
          Condensed to atoms (all electrons):
               1          2          3          4          5          6
     1  C    5.426310   0.064740  -0.085744   0.081031  -0.574963   0.390523
     2  C    0.064740   5.850860   0.074859  -0.171974   0.390230  -0.102506
     3  C   -0.085744   0.074859   6.469056   0.625190  -0.301889   0.003047
     4  C    0.081031  -0.171974   0.625190   6.221625   0.176631  -0.213080
     5  C   -0.574963   0.390230  -0.301889   0.176631   6.624104   0.555682
     6  C    0.390523  -0.102506   0.003047  -0.213080   0.555682   5.157052
     7  H    0.396588  -0.041994   0.014130  -0.013672   0.038517  -0.025254
     8  H   -0.024909   0.440772  -0.036226   0.018963  -0.016294   0.010544
     9  H    0.009556  -0.018571   0.024014  -0.016986   0.393712  -0.027907
    10  H   -0.017453   0.031706  -0.016947   0.022401  -0.063396   0.408217
    11  C    0.145328  -0.091667  -0.194814   0.332814  -0.358537  -0.129126
    12  C    0.111468  -0.308119  -0.014996  -0.349266  -0.477152   0.131957
    13  C    0.115782   0.036641  -0.324573  -0.177277  -0.232263  -0.151114
    14  H    0.001049  -0.003742  -0.010002   0.012375  -0.008054   0.000921
    15  C    0.118007  -0.017625  -0.161779  -0.373208  -0.300888  -0.024898
    16  H    0.001782  -0.001987   0.027546  -0.010645  -0.002844   0.000126
    17  O   -0.003225   0.005532  -0.022588  -0.068886   0.020380  -0.016650
    18  Cl  -0.024637   0.038255  -0.153652   0.007724   0.009466  -0.000136
    19  C   -0.050975   0.011097  -0.107955  -0.003813   0.179756   0.106016
    20  C    0.011971   0.008447   0.059181   0.036895   0.180991  -0.040703
    21  H    0.000124  -0.000127   0.000869  -0.000127  -0.001358  -0.000160
    22  C   -0.001248  -0.001069  -0.012075  -0.025799   0.011877   0.006852
    23  H    0.000196  -0.000162  -0.001526  -0.002308   0.000900   0.000240
    24  H   -0.000706   0.000374   0.000599  -0.009019   0.005852   0.000835
    25  H    0.000053  -0.000096   0.000757   0.004428  -0.002193  -0.000066
    26  C    0.074626  -0.049828   0.078165   0.051256  -0.413713  -0.067617
    27  H   -0.004273   0.000656   0.016633  -0.002519  -0.007992   0.001278
    28  H    0.000006   0.000136  -0.000508  -0.005915   0.009895   0.000177
    29  H   -0.003400  -0.001022   0.011044   0.010425  -0.023639  -0.005309
    30  C   -0.057767  -0.001278   0.090663   0.155800   0.176114   0.029026
    31  H    0.000179  -0.000030   0.000380  -0.005172  -0.001904   0.000345
    32  H    0.001389  -0.008486   0.013519   0.019533  -0.017934   0.003063
               7          8          9         10         11         12
     1  C    0.396588  -0.024909   0.009556  -0.017453   0.145328   0.111468
     2  C   -0.041994   0.440772  -0.018571   0.031706  -0.091667  -0.308119
     3  C    0.014130  -0.036226   0.024014  -0.016947  -0.194814  -0.014996
     4  C   -0.013672   0.018963  -0.016986   0.022401   0.332814  -0.349266
     5  C    0.038517  -0.016294   0.393712  -0.063396  -0.358537  -0.477152
     6  C   -0.025254   0.010544  -0.027907   0.408217  -0.129126   0.131957
     7  H    0.488493  -0.005416   0.000007  -0.005203  -0.001599  -0.006163
     8  H   -0.005416   0.486188   0.000004  -0.000021  -0.004664  -0.026488
     9  H    0.000007   0.000004   0.453102  -0.004338  -0.009994  -0.003586
    10  H   -0.005203  -0.000021  -0.004338   0.488775  -0.001117  -0.003980
    11  C   -0.001599  -0.004664  -0.009994  -0.001117   5.828086  -0.358124
    12  C   -0.006163  -0.026488  -0.003586  -0.003980  -0.358124   6.691076
    13  C   -0.000969  -0.006792  -0.002731   0.000530   0.853247  -0.415049
    14  H    0.000000  -0.000001   0.000011   0.000000  -0.064456   0.031234
    15  C   -0.000725  -0.010015   0.000150  -0.001012  -0.026698   0.673248
    16  H    0.000000   0.000032  -0.000001   0.000000   0.023941  -0.066595
    17  O    0.000003  -0.000082   0.008872   0.000304   0.302902  -0.012786
    18  Cl   0.000321  -0.001183   0.000058   0.000006  -0.006544   0.291946
    19  C   -0.000196  -0.000474  -0.008501  -0.000173  -0.025332   0.287035
    20  C    0.000054   0.000014   0.006214   0.000648  -0.206482  -0.303113
    21  H    0.000000   0.000000   0.000013   0.000000  -0.003703   0.000416
    22  C    0.000003  -0.000010  -0.001163   0.000003  -0.010940   0.006157
    23  H    0.000000   0.000000   0.000010   0.000000  -0.010629  -0.000044
    24  H    0.000000   0.000000   0.000231   0.000000   0.005127   0.000115
    25  H    0.000000   0.000000  -0.000001   0.000000   0.000789   0.000425
    26  C    0.000081   0.000022   0.001924  -0.000031   0.068604   0.098623
    27  H    0.000003  -0.000010  -0.001014   0.000030   0.011314  -0.011572
    28  H    0.000000   0.000000   0.000238  -0.000002  -0.005625  -0.000678
    29  H    0.000002  -0.000001  -0.002232  -0.000013  -0.008032   0.003319
    30  C    0.000125   0.000566   0.000091  -0.000416   0.009242  -0.134030
    31  H    0.000000   0.000001   0.000000   0.000000  -0.004468   0.005069
    32  H    0.000001   0.000007   0.000053   0.000002  -0.043560   0.043389
              13         14         15         16         17         18
     1  C    0.115782   0.001049   0.118007   0.001782  -0.003225  -0.024637
     2  C    0.036641  -0.003742  -0.017625  -0.001987   0.005532   0.038255
     3  C   -0.324573  -0.010002  -0.161779   0.027546  -0.022588  -0.153652
     4  C   -0.177277   0.012375  -0.373208  -0.010645  -0.068886   0.007724
     5  C   -0.232263  -0.008054  -0.300888  -0.002844   0.020380   0.009466
     6  C   -0.151114   0.000921  -0.024898   0.000126  -0.016650  -0.000136
     7  H   -0.000969   0.000000  -0.000725   0.000000   0.000003   0.000321
     8  H   -0.006792  -0.000001  -0.010015   0.000032  -0.000082  -0.001183
     9  H   -0.002731   0.000011   0.000150  -0.000001   0.008872   0.000058
    10  H    0.000530   0.000000  -0.001012   0.000000   0.000304   0.000006
    11  C    0.853247  -0.064456  -0.026698   0.023941   0.302902  -0.006544
    12  C   -0.415049   0.031234   0.673248  -0.066595  -0.012786   0.291946
    13  C    6.209928   0.446385   0.379146  -0.054580  -0.055025   0.046526
    14  H    0.446385   0.488237  -0.031641  -0.005397  -0.001068  -0.000104
    15  C    0.379146  -0.031641   5.709702   0.442017   0.004281  -0.097540
    16  H   -0.054580  -0.005397   0.442017   0.479091  -0.000928  -0.009988
    17  O   -0.055025  -0.001068   0.004281  -0.000928   8.515664   0.000434
    18  Cl   0.046526  -0.000104  -0.097540  -0.009988   0.000434  17.073181
    19  C   -0.436442   0.005971  -0.194650   0.000894  -0.039483   0.001089
    20  C   -0.016148   0.006168  -0.029355   0.000418  -0.125876  -0.003745
    21  H   -0.000395  -0.000611   0.005361   0.000029  -0.003739   0.000006
    22  C    0.033100  -0.002059   0.013925   0.000010  -0.023758   0.000175
    23  H    0.007381   0.000054   0.003396   0.000000  -0.005021  -0.000001
    24  H   -0.003157   0.000019  -0.000236   0.000000  -0.006409   0.000001
    25  H   -0.001507  -0.000009  -0.000349   0.000000   0.006504   0.000000
    26  C    0.156699   0.010741   0.115594  -0.000982   0.064319  -0.001408
    27  H   -0.013542  -0.000222  -0.002079   0.000015  -0.006820   0.000119
    28  H   -0.000912   0.000024   0.000128   0.000000   0.003862  -0.000009
    29  H   -0.002838   0.000029   0.001266  -0.000001   0.000514   0.000009
    30  C   -0.117413  -0.063562  -0.176879  -0.002054  -0.051048   0.006668
    31  H   -0.018118  -0.002677   0.012669   0.000594   0.000230  -0.000143
    32  H   -0.062390   0.002587  -0.001938   0.000136   0.001197  -0.000500
              19         20         21         22         23         24
     1  C   -0.050975   0.011971   0.000124  -0.001248   0.000196  -0.000706
     2  C    0.011097   0.008447  -0.000127  -0.001069  -0.000162   0.000374
     3  C   -0.107955   0.059181   0.000869  -0.012075  -0.001526   0.000599
     4  C   -0.003813   0.036895  -0.000127  -0.025799  -0.002308  -0.009019
     5  C    0.179756   0.180991  -0.001358   0.011877   0.000900   0.005852
     6  C    0.106016  -0.040703  -0.000160   0.006852   0.000240   0.000835
     7  H   -0.000196   0.000054   0.000000   0.000003   0.000000   0.000000
     8  H   -0.000474   0.000014   0.000000  -0.000010   0.000000   0.000000
     9  H   -0.008501   0.006214   0.000013  -0.001163   0.000010   0.000231
    10  H   -0.000173   0.000648   0.000000   0.000003   0.000000   0.000000
    11  C   -0.025332  -0.206482  -0.003703  -0.010940  -0.010629   0.005127
    12  C    0.287035  -0.303113   0.000416   0.006157  -0.000044   0.000115
    13  C   -0.436442  -0.016148  -0.000395   0.033100   0.007381  -0.003157
    14  H    0.005971   0.006168  -0.000611  -0.002059   0.000054   0.000019
    15  C   -0.194650  -0.029355   0.005361   0.013925   0.003396  -0.000236
    16  H    0.000894   0.000418   0.000029   0.000010   0.000000   0.000000
    17  O   -0.039483  -0.125876  -0.003739  -0.023758  -0.005021  -0.006409
    18  Cl   0.001089  -0.003745   0.000006   0.000175  -0.000001   0.000001
    19  C    7.289545  -0.676530  -0.067078  -0.016227  -0.114691  -0.053272
    20  C   -0.676530   6.902472   0.459995  -0.142947   0.054465  -0.020795
    21  H   -0.067078   0.459995   0.496453   0.007030   0.002120   0.000124
    22  C   -0.016227  -0.142947   0.007030   5.359307   0.451892   0.454112
    23  H   -0.114691   0.054465   0.002120   0.451892   0.519602  -0.018877
    24  H   -0.053272  -0.020795   0.000124   0.454112  -0.018877   0.494302
    25  H   -0.012419  -0.042593   0.000400   0.417531  -0.015406  -0.025646
    26  C    0.037798  -0.357069  -0.004201  -0.028726   0.009668  -0.013102
    27  H   -0.031882   0.038200  -0.000286  -0.034402  -0.000260  -0.000027
    28  H   -0.061789   0.013849  -0.000107  -0.017197  -0.000278   0.000618
    29  H   -0.084758  -0.044384   0.000002   0.039974  -0.000104   0.002516
    30  C   -0.266154   0.477150  -0.042273  -0.061555  -0.026151   0.015710
    31  H    0.013672  -0.066586  -0.003179  -0.000254  -0.000056  -0.000013
    32  H    0.000111  -0.030384   0.002214  -0.001915   0.000035   0.000003
              25         26         27         28         29         30
     1  C    0.000053   0.074626  -0.004273   0.000006  -0.003400  -0.057767
     2  C   -0.000096  -0.049828   0.000656   0.000136  -0.001022  -0.001278
     3  C    0.000757   0.078165   0.016633  -0.000508   0.011044   0.090663
     4  C    0.004428   0.051256  -0.002519  -0.005915   0.010425   0.155800
     5  C   -0.002193  -0.413713  -0.007992   0.009895  -0.023639   0.176114
     6  C   -0.000066  -0.067617   0.001278   0.000177  -0.005309   0.029026
     7  H    0.000000   0.000081   0.000003   0.000000   0.000002   0.000125
     8  H    0.000000   0.000022  -0.000010   0.000000  -0.000001   0.000566
     9  H   -0.000001   0.001924  -0.001014   0.000238  -0.002232   0.000091
    10  H    0.000000  -0.000031   0.000030  -0.000002  -0.000013  -0.000416
    11  C    0.000789   0.068604   0.011314  -0.005625  -0.008032   0.009242
    12  C    0.000425   0.098623  -0.011572  -0.000678   0.003319  -0.134030
    13  C   -0.001507   0.156699  -0.013542  -0.000912  -0.002838  -0.117413
    14  H   -0.000009   0.010741  -0.000222   0.000024   0.000029  -0.063562
    15  C   -0.000349   0.115594  -0.002079   0.000128   0.001266  -0.176879
    16  H    0.000000  -0.000982   0.000015   0.000000  -0.000001  -0.002054
    17  O    0.006504   0.064319  -0.006820   0.003862   0.000514  -0.051048
    18  Cl   0.000000  -0.001408   0.000119  -0.000009   0.000009   0.006668
    19  C   -0.012419   0.037798  -0.031882  -0.061789  -0.084758  -0.266154
    20  C   -0.042593  -0.357069   0.038200   0.013849  -0.044384   0.477150
    21  H    0.000400  -0.004201  -0.000286  -0.000107   0.000002  -0.042273
    22  C    0.417531  -0.028726  -0.034402  -0.017197   0.039974  -0.061555
    23  H   -0.015406   0.009668  -0.000260  -0.000278  -0.000104  -0.026151
    24  H   -0.025646  -0.013102  -0.000027   0.000618   0.002516   0.015710
    25  H    0.517799  -0.004028  -0.000092   0.001352  -0.001180  -0.003548
    26  C   -0.004028   5.758703   0.352034   0.412085   0.495831  -0.342021
    27  H   -0.000092   0.352034   0.530424  -0.017612  -0.021235   0.048134
    28  H    0.001352   0.412085  -0.017612   0.509665  -0.019985   0.008209
    29  H   -0.001180   0.495831  -0.021235  -0.019985   0.510549  -0.018889
    30  C   -0.003548  -0.342021   0.048134   0.008209  -0.018889   5.942275
    31  H    0.000036   0.014615   0.000522  -0.000005  -0.000024   0.412436
    32  H    0.000001   0.002349  -0.005498   0.001035   0.000443   0.412455
              31         32
     1  C    0.000179   0.001389
     2  C   -0.000030  -0.008486
     3  C    0.000380   0.013519
     4  C   -0.005172   0.019533
     5  C   -0.001904  -0.017934
     6  C    0.000345   0.003063
     7  H    0.000000   0.000001
     8  H    0.000001   0.000007
     9  H    0.000000   0.000053
    10  H    0.000000   0.000002
    11  C   -0.004468  -0.043560
    12  C    0.005069   0.043389
    13  C   -0.018118  -0.062390
    14  H   -0.002677   0.002587
    15  C    0.012669  -0.001938
    16  H    0.000594   0.000136
    17  O    0.000230   0.001197
    18  Cl  -0.000143  -0.000500
    19  C    0.013672   0.000111
    20  C   -0.066586  -0.030384
    21  H   -0.003179   0.002214
    22  C   -0.000254  -0.001915
    23  H   -0.000056   0.000035
    24  H   -0.000013   0.000003
    25  H    0.000036   0.000001
    26  C    0.014615   0.002349
    27  H    0.000522  -0.005498
    28  H   -0.000005   0.001035
    29  H   -0.000024   0.000443
    30  C    0.412436   0.412455
    31  H    0.466223  -0.008011
    32  H   -0.008011   0.470403
 Mulliken charges:
               1
     1  C   -0.101406
     2  C   -0.134022
     3  C   -0.064378
     4  C   -0.327425
     5  C    0.030904
     6  C   -0.001376
     7  H    0.162866
     8  H    0.175472
     9  H    0.198767
    10  H    0.161479
    11  C   -0.015285
    12  C    0.116265
    13  C   -0.192129
    14  H    0.187801
    15  C   -0.027376
    16  H    0.179372
    17  O   -0.491608
    18  Cl  -0.176391
    19  C    0.319812
    20  C   -0.150421
    21  H    0.152189
    22  C   -0.420605
    23  H    0.145554
    24  H    0.170719
    25  H    0.159057
    26  C   -0.521011
    27  H    0.161974
    28  H    0.169345
    29  H    0.161122
    30  C   -0.419626
    31  H    0.183669
    32  H    0.206691
 Sum of Mulliken charges =   0.00000
 Mulliken charges with hydrogens summed into heavy atoms:
               1
     1  C    0.061460
     2  C    0.041450
     3  C   -0.064378
     4  C   -0.327425
     5  C    0.229672
     6  C    0.160102
    11  C   -0.015285
    12  C    0.116265
    13  C   -0.004328
    15  C    0.151995
    17  O   -0.491608
    18  Cl  -0.176391
    19  C    0.319812
    20  C    0.001768
    22  C    0.054726
    26  C   -0.028570
    30  C   -0.029266
 APT charges:
               1
     1  C   -0.622524
     2  C   -0.548041
     3  C   -0.428166
     4  C   -0.636799
     5  C   -0.384865
     6  C   -0.541679
     7  H    0.894990
     8  H    0.669590
     9  H    0.444024
    10  H    0.785277
    11  C    0.083055
    12  C    0.028554
    13  C   -0.578192
    14  H    0.608928
    15  C   -0.416710
    16  H    0.693757
    17  O   -0.408214
    18  Cl   0.073540
    19  C    0.475878
    20  C   -0.412606
    21  H    0.658897
    22  C   -1.689161
    23  H    0.477489
    24  H    0.258181
    25  H    0.739227
    26  C   -1.161094
    27  H   -0.044914
    28  H    0.662254
    29  H    0.363990
    30  C   -0.659897
    31  H    0.564162
    32  H    0.051067
 Sum of APT charges =   0.00000
 APT charges with hydrogens summed into heavy atoms:
               1
     1  C    0.272466
     2  C    0.121549
     3  C   -0.428166
     4  C   -0.636799
     5  C    0.059159
     6  C    0.243599
    11  C    0.083055
    12  C    0.028554
    13  C    0.030736
    15  C    0.277046
    17  O   -0.408214
    18  Cl   0.073540
    19  C    0.475878
    20  C    0.246291
    22  C   -0.214264
    26  C   -0.179764
    30  C   -0.044667
 Electronic spatial extent (au):  <R**2>=           4412.7932
 Charge=              0.0000 electrons
 Dipole moment (field-independent basis, Debye):
    X=              2.6821    Y=             -0.0592    Z=              1.9189  Tot=              3.2984
 Quadrupole moment (field-independent basis, Debye-Ang):
   XX=           -104.2751   YY=            -95.6327   ZZ=           -112.5254
   XY=             -4.3940   XZ=              1.6708   YZ=              3.1517
[...]
 Alpha virt. eigenvalues --    4.46259   4.48158   4.50550   4.51597   4.54720
 Alpha virt. eigenvalues --    4.56216   4.58523   4.58966   4.60221   4.62523
 Alpha virt. eigenvalues --    4.64976   4.69715   4.72001   4.75213   4.76595
 Alpha virt. eigenvalues --    4.80490   4.82764   4.84114   4.85341   4.85999
 Alpha virt. eigenvalues --    4.87500   4.90862   4.94202   4.98632   5.01905
 Alpha virt. eigenvalues --    5.03172   5.04672   5.07038   5.08946   5.10645
 Alpha virt. eigenvalues --    5.17249   5.22284   5.22922   5.28392   5.28954
 Alpha virt. eigenvalues --    5.32526   5.34390   5.35517   5.40955   5.42304
 Alpha virt. eigenvalues --    5.44217   5.49823   5.65014   5.69040   5.73346
 Alpha virt. eigenvalues --    5.77431   5.92118   5.95126   6.20567   6.50420
 Alpha virt. eigenvalues --    6.66406   6.76783   6.91412   7.07047   7.26771
 Alpha virt. eigenvalues --    7.33758  10.94148  11.03277  11.51585  22.43780
 Alpha virt. eigenvalues --   22.56504  22.60857  22.63056  22.74999  22.78293
 Alpha virt. eigenvalues --   22.83149  22.86291  22.91618  22.99668  23.07799
 Alpha virt. eigenvalues --   23.10338  23.15562  23.43076  23.84292  26.41413
 Alpha virt. eigenvalues --   44.41787
          Condensed to atoms (all electrons):
               1          2          3          4          5          6
     1  C    5.384263   0.079562  -0.063311   0.039877  -0.576125   0.417864
     2  C    0.079562   5.858741   0.052435  -0.136494   0.414577  -0.133437
     3  C   -0.063311   0.052435   6.460662   0.610634  -0.351745   0.016636
     4  C    0.039877  -0.136494   0.610634   6.292443   0.193542  -0.188914
     5  C   -0.576125   0.414577  -0.351745   0.193542   6.686338   0.513930
     6  C    0.417864  -0.133437   0.016636  -0.188914   0.513930   5.149797
     7  H    0.400569  -0.046776   0.014320  -0.013582   0.041045  -0.025712
     8  H   -0.025328   0.437883  -0.032694   0.019635  -0.018387   0.011335
     9  H    0.008810  -0.020294   0.031977  -0.011481   0.391655  -0.026199
    10  H   -0.018936   0.034796  -0.018370   0.021752  -0.063064   0.410060
    11  C    0.121663  -0.056019  -0.213612   0.265419  -0.360304  -0.120316
    12  C    0.138085  -0.360681   0.008695  -0.340606  -0.507949   0.132488
    13  C    0.115843   0.039234  -0.334712  -0.213199  -0.242680  -0.146197
    14  H    0.000945  -0.004194  -0.010972   0.011664  -0.006010   0.001233
    15  C    0.117770  -0.033059  -0.100994  -0.346754  -0.267427  -0.019179
    16  H    0.002075  -0.002286   0.028801  -0.011349  -0.003888   0.000195
    17  O   -0.003848   0.004972  -0.014477  -0.067990   0.032077  -0.013491
    18  Cl  -0.025528   0.036755  -0.156752   0.012353   0.011621  -0.001189
    19  C   -0.045441   0.014084  -0.143767  -0.123827   0.158327   0.095212
    20  C    0.013547   0.003977   0.092375   0.142768   0.164778  -0.044685
    21  H    0.000148  -0.000156   0.001418   0.001215  -0.002533  -0.000196
    22  C   -0.001835  -0.000073  -0.015385  -0.036808   0.017757   0.009319
    23  H    0.000217  -0.000224  -0.001144   0.000407   0.000002   0.000212
    24  H   -0.000655   0.000483  -0.000243  -0.013504   0.007643   0.000966
    25  H    0.000032  -0.000088   0.000841   0.004530  -0.002478  -0.000050
    26  C    0.070275  -0.050952   0.083120   0.022753  -0.386341  -0.050001
    27  H   -0.005171   0.002526   0.015273  -0.003457  -0.003147   0.000202
    28  H    0.000017  -0.000013   0.000122  -0.003197   0.008115   0.000051
    29  H   -0.002773  -0.000658   0.008549   0.003594  -0.020756  -0.002847
    30  C   -0.053925   0.007905   0.068902   0.167923   0.173313   0.020407
    31  H    0.000128   0.000015   0.000419  -0.005525  -0.001679   0.000371
    32  H    0.001565  -0.009218   0.013465   0.018658  -0.018173   0.003243
               7          8          9         10         11         12
     1  C    0.400569  -0.025328   0.008810  -0.018936   0.121663   0.138085
     2  C   -0.046776   0.437883  -0.020294   0.034796  -0.056019  -0.360681
     3  C    0.014320  -0.032694   0.031977  -0.018370  -0.213612   0.008695
     4  C   -0.013582   0.019635  -0.011481   0.021752   0.265419  -0.340606
     5  C    0.041045  -0.018387   0.391655  -0.063064  -0.360304  -0.507949
     6  C   -0.025712   0.011335  -0.026199   0.410060  -0.120316   0.132488
     7  H    0.490241  -0.005818   0.000018  -0.005517  -0.001434  -0.006605
     8  H   -0.005818   0.487533   0.000001  -0.000012  -0.005561  -0.024537
     9  H    0.000018   0.000001   0.451328  -0.004522  -0.019316  -0.001594
    10  H   -0.005517  -0.000012  -0.004522   0.490498  -0.001150  -0.004209
    11  C   -0.001434  -0.005561  -0.019316  -0.001150   5.858723  -0.326045
    12  C   -0.006605  -0.024537  -0.001594  -0.004209  -0.326045   6.722942
    13  C   -0.001011  -0.006866  -0.007204   0.000559   0.889281  -0.399926
    14  H    0.000000  -0.000001   0.000017   0.000000  -0.063848   0.031426
    15  C   -0.000708  -0.008983  -0.000148  -0.000962  -0.046664   0.616235
    16  H    0.000000   0.000034  -0.000001   0.000000   0.024662  -0.069155
    17  O    0.000001  -0.000089   0.009612   0.000313   0.263814  -0.012066
    18  Cl   0.000324  -0.001262   0.000058   0.000004  -0.002342   0.288232
    19  C   -0.000190  -0.000576  -0.007594  -0.000339   0.007882   0.329194
    20  C    0.000052   0.000113   0.006527   0.000745  -0.221726  -0.326559
    21  H    0.000000   0.000000   0.000013   0.000000  -0.000185   0.000274
    22  C    0.000003  -0.000012  -0.000937  -0.000008  -0.013686   0.007560
    23  H    0.000000   0.000000   0.000007   0.000000  -0.007151  -0.000222
    24  H    0.000000   0.000000   0.000322   0.000000   0.002563   0.000182
    25  H    0.000000   0.000000  -0.000010   0.000000   0.000600   0.000485
    26  C    0.000081   0.000066   0.002377  -0.000106   0.058347   0.096502
    27  H    0.000004  -0.000011  -0.000865   0.000031   0.007611  -0.011342
    28  H    0.000000   0.000000   0.000177  -0.000002  -0.005699  -0.000424
    29  H    0.000002  -0.000001  -0.001733  -0.000016  -0.007960   0.003469
    30  C    0.000105   0.000546  -0.000250  -0.000358   0.025352  -0.156742
    31  H    0.000000   0.000001   0.000000   0.000000  -0.005543   0.005307
    32  H    0.000001   0.000007   0.000056   0.000001  -0.036509   0.041694
              13         14         15         16         17         18
     1  C    0.115843   0.000945   0.117770   0.002075  -0.003848  -0.025528
     2  C    0.039234  -0.004194  -0.033059  -0.002286   0.004972   0.036755
     3  C   -0.334712  -0.010972  -0.100994   0.028801  -0.014477  -0.156752
     4  C   -0.213199   0.011664  -0.346754  -0.011349  -0.067990   0.012353
     5  C   -0.242680  -0.006010  -0.267427  -0.003888   0.032077   0.011621
     6  C   -0.146197   0.001233  -0.019179   0.000195  -0.013491  -0.001189
     7  H   -0.001011   0.000000  -0.000708   0.000000   0.000001   0.000324
     8  H   -0.006866  -0.000001  -0.008983   0.000034  -0.000089  -0.001262
     9  H   -0.007204   0.000017  -0.000148  -0.000001   0.009612   0.000058
    10  H    0.000559   0.000000  -0.000962   0.000000   0.000313   0.000004
    11  C    0.889281  -0.063848  -0.046664   0.024662   0.263814  -0.002342
    12  C   -0.399926   0.031426   0.616235  -0.069155  -0.012066   0.288232
    13  C    6.228918   0.441247   0.349416  -0.052876  -0.082252   0.047900
    14  H    0.441247   0.483075  -0.031449  -0.005567  -0.002234  -0.000103
    15  C    0.349416  -0.031449   5.645699   0.444337   0.005240  -0.100414
    16  H   -0.052876  -0.005567   0.444337   0.481486  -0.000924  -0.010718
    17  O   -0.082252  -0.002234   0.005240  -0.000924   8.529223   0.000431
    18  Cl   0.047900  -0.000103  -0.100414  -0.010718   0.000431  17.080832
    19  C   -0.321703   0.007669  -0.167795   0.000350   0.012046   0.001164
    20  C   -0.091305   0.010774  -0.009582   0.001304  -0.104040  -0.004065
    21  H   -0.002389  -0.000298   0.003351   0.000024  -0.003598   0.000006
    22  C    0.034765  -0.002056   0.013068  -0.000007  -0.032767   0.000196
    23  H    0.004159   0.000030   0.003003   0.000000  -0.004664   0.000000
    24  H    0.000317   0.000016   0.000199   0.000000  -0.005885   0.000001
    25  H   -0.002037  -0.000003  -0.000546   0.000000   0.005543   0.000000
    26  C    0.142658   0.008934   0.098503  -0.000838   0.047121  -0.001548
    27  H   -0.012549  -0.000192  -0.001001   0.000014  -0.003672   0.000124
    28  H   -0.001744   0.000023  -0.000125   0.000000   0.003168  -0.000011
    29  H   -0.000592   0.000019   0.001424   0.000000  -0.001128   0.000009
    30  C   -0.077764  -0.058351  -0.163967  -0.002504  -0.043122   0.006570
    31  H   -0.014382  -0.002744   0.011802   0.000588   0.000492  -0.000159
    32  H   -0.056996   0.002525  -0.002209   0.000122   0.001526  -0.000610
              19         20         21         22         23         24
     1  C   -0.045441   0.013547   0.000148  -0.001835   0.000217  -0.000655
     2  C    0.014084   0.003977  -0.000156  -0.000073  -0.000224   0.000483
     3  C   -0.143767   0.092375   0.001418  -0.015385  -0.001144  -0.000243
     4  C   -0.123827   0.142768   0.001215  -0.036808   0.000407  -0.013504
     5  C    0.158327   0.164778  -0.002533   0.017757   0.000002   0.007643
     6  C    0.095212  -0.044685  -0.000196   0.009319   0.000212   0.000966
     7  H   -0.000190   0.000052   0.000000   0.000003   0.000000   0.000000
     8  H   -0.000576   0.000113   0.000000  -0.000012   0.000000   0.000000
     9  H   -0.007594   0.006527   0.000013  -0.000937   0.000007   0.000322
    10  H   -0.000339   0.000745   0.000000  -0.000008   0.000000   0.000000
    11  C    0.007882  -0.221726  -0.000185  -0.013686  -0.007151   0.002563
    12  C    0.329194  -0.326559   0.000274   0.007560  -0.000222   0.000182
    13  C   -0.321703  -0.091305  -0.002389   0.034765   0.004159   0.000317
    14  H    0.007669   0.010774  -0.000298  -0.002056   0.000030   0.000016
    15  C   -0.167795  -0.009582   0.003351   0.013068   0.003003   0.000199
    16  H    0.000350   0.001304   0.000024  -0.000007   0.000000   0.000000
    17  O    0.012046  -0.104040  -0.003598  -0.032767  -0.004664  -0.005885
    18  Cl   0.001164  -0.004065   0.000006   0.000196   0.000000   0.000001
    19  C    7.460089  -0.942676  -0.059655   0.022200  -0.130283  -0.046241
    20  C   -0.942676   7.118149   0.453893  -0.153957   0.068382  -0.031661
    21  H   -0.059655   0.453893   0.493042   0.006071   0.002050   0.000121
    22  C    0.022200  -0.153957   0.006071   5.331548   0.452016   0.454348
    23  H   -0.130283   0.068382   0.002050   0.452016   0.515002  -0.018322
    24  H   -0.046241  -0.031661   0.000121   0.454348  -0.018322   0.492981
    25  H    0.000742  -0.046223   0.000362   0.414268  -0.015917  -0.025858
    26  C    0.094817  -0.336747  -0.002919  -0.031341   0.007143  -0.004928
    27  H   -0.038063   0.038356  -0.000264  -0.034324  -0.000256  -0.000035
    28  H   -0.055870   0.013261  -0.000129  -0.016691  -0.000304   0.000735
    29  H   -0.076663  -0.047385   0.000022   0.039282  -0.000100   0.002579
    30  C   -0.292893   0.444765  -0.043546  -0.055309  -0.022780   0.013326
    31  H    0.013817  -0.069284  -0.003142   0.000004  -0.000058  -0.000012
    32  H    0.003274  -0.032837   0.002229  -0.002390   0.000029   0.000014
              25         26         27         28         29         30
     1  C    0.000032   0.070275  -0.005171   0.000017  -0.002773  -0.053925
     2  C   -0.000088  -0.050952   0.002526  -0.000013  -0.000658   0.007905
     3  C    0.000841   0.083120   0.015273   0.000122   0.008549   0.068902
     4  C    0.004530   0.022753  -0.003457  -0.003197   0.003594   0.167923
     5  C   -0.002478  -0.386341  -0.003147   0.008115  -0.020756   0.173313
     6  C   -0.000050  -0.050001   0.000202   0.000051  -0.002847   0.020407
     7  H    0.000000   0.000081   0.000004   0.000000   0.000002   0.000105
     8  H    0.000000   0.000066  -0.000011   0.000000  -0.000001   0.000546
     9  H   -0.000010   0.002377  -0.000865   0.000177  -0.001733  -0.000250
    10  H    0.000000  -0.000106   0.000031  -0.000002  -0.000016  -0.000358
    11  C    0.000600   0.058347   0.007611  -0.005699  -0.007960   0.025352
    12  C    0.000485   0.096502  -0.011342  -0.000424   0.003469  -0.156742
    13  C   -0.002037   0.142658  -0.012549  -0.001744  -0.000592  -0.077764
    14  H   -0.000003   0.008934  -0.000192   0.000023   0.000019  -0.058351
    15  C   -0.000546   0.098503  -0.001001  -0.000125   0.001424  -0.163967
    16  H    0.000000  -0.000838   0.000014   0.000000   0.000000  -0.002504
    17  O    0.005543   0.047121  -0.003672   0.003168  -0.001128  -0.043122
    18  Cl   0.000000  -0.001548   0.000124  -0.000011   0.000009   0.006570
    19  C    0.000742   0.094817  -0.038063  -0.055870  -0.076663  -0.292893
    20  C   -0.046223  -0.336747   0.038356   0.013261  -0.047385   0.444765
    21  H    0.000362  -0.002919  -0.000264  -0.000129   0.000022  -0.043546
    22  C    0.414268  -0.031341  -0.034324  -0.016691   0.039282  -0.055309
    23  H   -0.015917   0.007143  -0.000256  -0.000304  -0.000100  -0.022780
    24  H   -0.025858  -0.004928  -0.000035   0.000735   0.002579   0.013326
    25  H    0.515145  -0.007843  -0.000186   0.001442  -0.000944  -0.003810
    26  C   -0.007843   5.692565   0.356486   0.408741   0.495919  -0.320586
    27  H   -0.000186   0.356486   0.525924  -0.018174  -0.020049   0.047941
    28  H    0.001442   0.408741  -0.018174   0.505923  -0.020660   0.007246
    29  H   -0.000944   0.495919  -0.020049  -0.020660   0.504547  -0.020468
    30  C   -0.003810  -0.320586   0.047941   0.007246  -0.020468   5.906151
    31  H    0.000039   0.013332   0.000502  -0.000018  -0.000020   0.416740
    32  H   -0.000001   0.005364  -0.005068   0.000977   0.000443   0.402413
              31         32
     1  C    0.000128   0.001565
     2  C    0.000015  -0.009218
     3  C    0.000419   0.013465
     4  C   -0.005525   0.018658
     5  C   -0.001679  -0.018173
     6  C    0.000371   0.003243
     7  H    0.000000   0.000001
     8  H    0.000001   0.000007
     9  H    0.000000   0.000056
    10  H    0.000000   0.000001
    11  C   -0.005543  -0.036509
    12  C    0.005307   0.041694
    13  C   -0.014382  -0.056996
    14  H   -0.002744   0.002525
    15  C    0.011802  -0.002209
    16  H    0.000588   0.000122
    17  O    0.000492   0.001526
    18  Cl  -0.000159  -0.000610
    19  C    0.013817   0.003274
    20  C   -0.069284  -0.032837
    21  H   -0.003142   0.002229
    22  C    0.000004  -0.002390
    23  H   -0.000058   0.000029
    24  H   -0.000012   0.000014
    25  H    0.000039  -0.000001
    26  C    0.013332   0.005364
    27  H    0.000502  -0.005068
    28  H   -0.000018   0.000977
    29  H   -0.000020   0.000443
    30  C    0.416740   0.402413
    31  H    0.461544  -0.007550
    32  H   -0.007550   0.464669
 Mulliken charges:
               1
     1  C   -0.090382
     2  C   -0.133322
     3  C   -0.050466
     4  C   -0.312479
     5  C    0.017968
     6  C   -0.011109
     7  H    0.160588
     8  H    0.172984
     9  H    0.199193
    10  H    0.158811
    11  C   -0.010846
    12  C    0.125893
    13  C   -0.225912
    14  H    0.188424
    15  C   -0.008081
    16  H    0.176121
    17  O   -0.519330
    18  Cl  -0.181880
    19  C    0.232711
    20  C   -0.111034
    21  H    0.154770
    22  C   -0.404819
    23  H    0.148766
    24  H    0.170548
    25  H    0.161966
    26  C   -0.510954
    27  H    0.162834
    28  H    0.173065
    29  H    0.164896
    30  C   -0.393231
    31  H    0.185017
    32  H    0.209288
 Sum of Mulliken charges =   0.00000
 Mulliken charges with hydrogens summed into heavy atoms:
               1
     1  C    0.070206
     2  C    0.039662
     3  C   -0.050466
     4  C   -0.312479
     5  C    0.217161
     6  C    0.147702
    11  C   -0.010846
    12  C    0.125893
    13  C   -0.037488
    15  C    0.168040
    17  O   -0.519330
    18  Cl  -0.181880
    19  C    0.232711
    20  C    0.043737
    22  C    0.076461
    26  C   -0.010158
    30  C    0.001074
 Electronic spatial extent (au):  <R**2>=           4418.0052
 Charge=              0.0000 electrons
 Dipole moment (field-independent basis, Debye):
    X=              3.2744    Y=             -0.1381    Z=              2.3283  Tot=              4.0202
 Quadrupole moment (field-independent basis, Debye-Ang):
   XX=           -102.6974   YY=            -95.5981   ZZ=           -112.2241
   XY=             -4.6386   XZ=              2.7653   YZ=              3.1054
 Traceless Quadrupole moment (field-independent basis, Debye-Ang):
   XX=              0.8091   YY=              7.9084   ZZ=             -8.7176
   XY=             -4.6386   XZ=              2.7653   YZ=              3.1054
 Octapole moment (field-independent basis, Debye-Ang**2):
  XXX=             53.1072  YYY=             -1.5037  ZZZ=              5.9824  XYY=              4.8267
  XXY=             18.5797  XXZ=             12.8779  XZZ=              0.0742  YZZ=             -5.9048
  YYZ=             -3.3353  XYZ=              0.2658
 Hexadecapole moment (field-independent basis, Debye-Ang**3):
 XXXX=          -3574.4834 YYYY=          -1600.7264 ZZZZ=           -471.2988 XXXY=            -17.3020
 XXXZ=            -31.9917 YYYX=            -18.1563 YYYZ=             16.0467 ZZZX=              0.1163
 ZZZY=              4.5696 XXYY=           -896.4548 XXZZ=           -722.0252 YYZZ=           -390.0900
 XXYZ=             36.8768 YYXZ=            -28.4450 ZZXY=             18.5159
 N-N= 1.297953577009D+03 E-N=-5.215130359451D+03  KE= 1.112155635617D+03
 1\1\GINC-D10S5B2\FTS\RwB97XD\Gen\C15H15Cl1O1\PMMASS\03-Feb-2022\0\\#n 
 wB97XD/Gen scrf(smd,solvent=toluene) opt=(calcfc,ts,noeigentest)\\ts_c
 laisen toluene - opt\\0,1\C,-2.2453436394,2.6920118462,0.3326372692\C,
 -2.5781867593,1.3614680476,0.3346419193\C,-1.6547885291,0.3863835864,-
 0.0893170855\C,-0.3687665205,0.8026766678,-0.5023188679\C,-0.063198150
 6,2.1718871327,-0.5127528744\C,-0.9794946677,3.1054837074,-0.101182141
 6\H,-2.9709416635,3.4262595531,0.659861125\H,-3.5634687823,1.053466337
 ,0.6564796187\H,0.918761287,2.4672783647,-0.8578140512\H,-0.7293883015
 ,4.1590248793,-0.1140001404\C,0.629284689,-0.1682396698,-0.9555220647\
 C,-1.9605795146,-1.0160475058,-0.1420003258\C,0.2611045596,-1.53150450
 38,-0.9203203197\H,0.9066625095,-2.2440061205,-1.412475427\C,-1.058404
 697,-1.9265364524,-0.57142278\H,-1.3293875462,-2.9728883855,-0.6284082
 108\O,1.8007593063,0.1923135494,-1.2685653372\Cl,-3.5484704078,-1.5639
 592109,0.3324839811\C,3.1055424103,-0.1430488535,0.44949662\C,2.727107
 632,-1.4781594875,0.5673496516\H,3.330150341,-2.2065560692,0.035864785
 1\C,4.3826846651,0.1965408081,-0.2392472408\H,4.6963294152,-0.58662837
 06,-0.927435896\H,4.2780451592,1.1317366777,-0.7889271479\H,5.17098285
 57,0.3415409062,0.5074767739\C,2.541015224,0.9275626212,1.3228857808\H
 ,1.4928377325,0.7760882775,1.5705988069\H,3.1045452315,0.9397080876,2.
 2620339213\H,2.6514308756,1.9052301736,0.8574389871\C,1.4993522081,-1.
 8796400962,1.0264062485\H,1.2501270449,-2.9320954449,1.0531216705\H,0.
 8644360329,-1.2376910532,1.6215027521\\Version=ES64L-G09RevD.01\State=
 1-A\HF=-1116.0353604\RMSD=4.574e-09\RMSF=4.990e-06\Dipole=1.2886024,-0
 .0482886,0.9159\Quadrupole=0.6017552,5.9122935,-6.5140487,-3.4325591,2
 .0774005,2.2244096\PG=C01 [X(C15H15Cl1O1)]\\@


 THERE IS SOMETHING FASCINATING ABOUT SCIENCE.
 ONE GETS SUCH WHOLESALE CONJECTURE OUT OF SUCH TRIFLING INVESTMENTS.

                                                       -- MARK TWAIN
 Job cpu time:       3 days  3 hours  7 minutes 14.3 seconds.
 File lengths (MBytes):  RWF=   2726 Int=      0 D2E=      0 Chk=     40 Scr=      1
 Normal termination of Gaussian 09 at Thu Feb  3 00:39:15 2022.
