 Entering Gaussian System, Link 0=g09
 Input=freq_m062x_TS_claisen_PM6_toluene_gd3.com
 Output=freq_m062x_TS_claisen_PM6_toluene_gd3.log
 Initial command:
 /apps/applications/gaussian/G09.D01/2/default/g09/l1.exe "/local/743560.1.40core-192G.q/Gau-344161.inp" -scrdir="/local/743560.1.40core-192G.q/"
 Entering Link 1 = /apps/applications/gaussian/G09.D01/2/default/g09/l1.exe PID=    344162.
  
 Copyright (c) 1988,1990,1992,1993,1995,1998,2003,2009,2013,
            Gaussian, Inc.  All Rights Reserved.
  
 This is part of the Gaussian(R) 09 program.  It is based on
 the Gaussian(R) 03 system (copyright 2003, Gaussian, Inc.),
 the Gaussian(R) 98 system (copyright 1998, Gaussian, Inc.),
 the Gaussian(R) 94 system (copyright 1995, Gaussian, Inc.),
 the Gaussian 92(TM) system (copyright 1992, Gaussian, Inc.),
 the Gaussian 90(TM) system (copyright 1990, Gaussian, Inc.),
 the Gaussian 88(TM) system (copyright 1988, Gaussian, Inc.),
 the Gaussian 86(TM) system (copyright 1986, Carnegie Mellon
 University), and the Gaussian 82(TM) system (copyright 1983,
 Carnegie Mellon University). Gaussian is a federally registered
 trademark of Gaussian, Inc.
  
 This software contains proprietary and confidential information,
 including trade secrets, belonging to Gaussian, Inc.
  
 This software is provided under written license and may be
 used, copied, transmitted, or stored only in accord with that
 written license.
  
 The following legend is applicable only to US Government
 contracts under FAR:
  
                    RESTRICTED RIGHTS LEGEND
  
 Use, reproduction and disclosure by the US Government is
 subject to restrictions as set forth in subparagraphs (a)
 and (c) of the Commercial Computer Software - Restricted
 Rights clause in FAR 52.227-19.
  
 Gaussian, Inc.
 340 Quinnipiac St., Bldg. 40, Wallingford CT 06492
  
  
 ---------------------------------------------------------------
 Warning -- This program may not be used in any manner that
 competes with the business of Gaussian, Inc. or will provide
 assistance to any competitor of Gaussian, Inc.  The licensee
 of this program is prohibited from giving any competitor of
 Gaussian, Inc. access to this program.  By using this program,
 the user acknowledges that Gaussian, Inc. is engaged in the
 business of creating and licensing software in the field of
 computational chemistry and represents and warrants to the
 licensee that it is not a competitor of Gaussian, Inc. and that
 it will not use this program in any manner prohibited above.
 ---------------------------------------------------------------
  

 Cite this work as:
 Gaussian 09, Revision D.01,
 M. J. Frisch, G. W. Trucks, H. B. Schlegel, G. E. Scuseria, 
 M. A. Robb, J. R. Cheeseman, G. Scalmani, V. Barone, B. Mennucci, 
 G. A. Petersson, H. Nakatsuji, M. Caricato, X. Li, H. P. Hratchian, 
 A. F. Izmaylov, J. Bloino, G. Zheng, J. L. Sonnenberg, M. Hada, 
 M. Ehara, K. Toyota, R. Fukuda, J. Hasegawa, M. Ishida, T. Nakajima, 
 Y. Honda, O. Kitao, H. Nakai, T. Vreven, J. A. Montgomery, Jr., 
 J. E. Peralta, F. Ogliaro, M. Bearpark, J. J. Heyd, E. Brothers, 
 K. N. Kudin, V. N. Staroverov, T. Keith, R. Kobayashi, J. Normand, 
 K. Raghavachari, A. Rendell, J. C. Burant, S. S. Iyengar, J. Tomasi, 
 M. Cossi, N. Rega, J. M. Millam, M. Klene, J. E. Knox, J. B. Cross, 
 V. Bakken, C. Adamo, J. Jaramillo, R. Gomperts, R. E. Stratmann, 
 O. Yazyev, A. J. Austin, R. Cammi, C. Pomelli, J. W. Ochterski, 
 R. L. Martin, K. Morokuma, V. G. Zakrzewski, G. A. Voth, 
 P. Salvador, J. J. Dannenberg, S. Dapprich, A. D. Daniels, 
 O. Farkas, J. B. Foresman, J. V. Ortiz, J. Cioslowski, 
 and D. J. Fox, Gaussian, Inc., Wallingford CT, 2013.
 
 ******************************************
 Gaussian 09:  ES64L-G09RevD.01 24-Apr-2013
                16-Sep-2020 
 ******************************************
 %nprocshared=4
 Will use up to    4 processors via shared memory.
 %chk=freq_m062x_TS_claisen_PM6_toluene_gd3.chk
 ----------------------------------------------------------------------
 # freq scrf=(cpcm,solvent=toluene) geom=connectivity def2svp empirical
 dispersion=gd3 m062x
 ----------------------------------------------------------------------
 1/10=4,30=1,38=1,57=2/1,3;
 2/12=2,17=6,18=5,40=1/2;
 3/5=43,7=101,11=2,16=1,25=1,30=1,70=2101,71=2,72=13,74=-55,124=31,140=1/1,2,3;
 4//1;
 5/5=2,38=5,53=13,98=1/2;
 8/6=4,10=90,11=11/1;
 11/6=1,8=1,9=11,15=111,16=1/1,2,10;
 10/6=1/2;
 6/7=2,8=2,9=2,10=2,18=1,28=1/1;
 7/8=1,10=1,25=1/1,2,3,16;
 1/10=4,30=1/3;
 99//99;
 -------------------
 Title Card Required
 -------------------
 Symbolic Z-matrix:
 Charge =  0 Multiplicity = 1
 C                    -2.26163   2.69545   0.33442 
 C                    -2.59089   1.35475   0.32762 
 C                    -1.64814   0.38375  -0.08329 
 C                    -0.35213   0.80995  -0.47474 
 C                    -0.04869   2.18664  -0.48026 
 C                    -0.98364   3.11934  -0.07887 
 H                    -3.0015    3.43071   0.65448 
 H                    -3.58492   1.03036   0.63436 
 H                     0.94573   2.48407  -0.81506 
 H                    -0.73756   4.18214  -0.0843 
 C                     0.66008  -0.15584  -0.9229 
 C                    -1.94928  -1.0281   -0.14609 
 C                     0.30759  -1.53496  -0.87749 
 H                     0.96086  -2.23637  -1.39364 
 C                    -1.03032  -1.94001  -0.56283 
 H                    -1.30727  -2.99299  -0.62639 
 O                     1.83819   0.21127  -1.20476 
 Cl                   -3.55152  -1.57187   0.28266 
 C                     3.08724  -0.14608   0.41975 
 C                     2.71671  -1.48891   0.57761 
 H                     3.32558  -2.23634   0.06101 
 C                     4.37397   0.18107  -0.27264 
 H                     4.69815  -0.63565  -0.92902 
 H                     4.24687   1.09294  -0.87099 
 H                     5.16131   0.37268   0.4744 
 C                     2.54365   0.9332    1.30871 
 H                     1.48601   0.78898   1.56151 
 H                     3.11993   0.93425   2.24845 
 H                     2.66053   1.91765   0.83852 
 C                     1.4547   -1.86598   1.00145 
 H                     1.19407  -2.92417   1.05729 
 H                     0.82706  -1.2023    1.5996 
 

 GradGradGradGradGradGradGradGradGradGradGradGradGradGradGradGradGradGrad
 Berny optimization.
 Initialization pass.
 Trust Radius=3.00D-01 FncErr=1.00D-07 GrdErr=1.00D-07
 Number of steps in this run=      2 maximum allowed number of steps=      2.
 GradGradGradGradGradGradGradGradGradGradGradGradGradGradGradGradGradGrad

                          Input orientation:                          
 ---------------------------------------------------------------------
 Center     Atomic      Atomic             Coordinates (Angstroms)
 Number     Number       Type             X           Y           Z
 ---------------------------------------------------------------------
      1          6           0       -2.261634    2.695446    0.334416
      2          6           0       -2.590891    1.354746    0.327622
      3          6           0       -1.648137    0.383746   -0.083292
      4          6           0       -0.352127    0.809945   -0.474739
      5          6           0       -0.048689    2.186638   -0.480263
      6          6           0       -0.983635    3.119337   -0.078869
      7          1           0       -3.001500    3.430711    0.654478
      8          1           0       -3.584919    1.030362    0.634360
      9          1           0        0.945731    2.484067   -0.815059
     10          1           0       -0.737561    4.182139   -0.084299
     11          6           0        0.660084   -0.155836   -0.922897
     12          6           0       -1.949278   -1.028100   -0.146093
     13          6           0        0.307591   -1.534957   -0.877490
     14          1           0        0.960857   -2.236370   -1.393642
     15          6           0       -1.030317   -1.940009   -0.562834
     16          1           0       -1.307274   -2.992985   -0.626393
     17          8           0        1.838190    0.211271   -1.204764
     18         17           0       -3.551515   -1.571866    0.282661
     19          6           0        3.087238   -0.146081    0.419752
     20          6           0        2.716711   -1.488905    0.577613
     21          1           0        3.325580   -2.236338    0.061006
     22          6           0        4.373970    0.181070   -0.272642
     23          1           0        4.698150   -0.635652   -0.929019
     24          1           0        4.246871    1.092940   -0.870989
     25          1           0        5.161312    0.372683    0.474397
     26          6           0        2.543648    0.933199    1.308711
     27          1           0        1.486012    0.788983    1.561511
     28          1           0        3.119934    0.934250    2.248447
     29          1           0        2.660531    1.917645    0.838520
     30          6           0        1.454698   -1.865975    1.001451
     31          1           0        1.194071   -2.924165    1.057293
     32          1           0        0.827064   -1.202296    1.599598
 ---------------------------------------------------------------------
                    Distance matrix (angstroms):
                    1          2          3          4          5
     1  C    0.000000
     2  C    1.380555   0.000000
     3  C    2.427924   1.414382   0.000000
     4  C    2.802867   2.439806   1.419337   0.000000
     5  C    2.412408   2.794193   2.442589   1.409748   0.000000
     6  C    1.408464   2.421216   2.815145   2.426686   1.380278
     7  H    1.091080   2.141277   3.414658   3.893934   3.399183
     8  H    2.147919   1.089681   2.164315   3.424855   3.883849
     9  H    3.413673   3.884428   3.416867   2.145446   1.090607
    10  H    2.169879   3.405681   3.906013   3.416533   2.147873
    11  C    4.271660   3.796642   2.514750   1.469064   2.487060
    12  C    3.767393   2.512773   1.444970   2.457094   3.749460
    13  C    5.095679   4.266600   2.852550   2.469008   3.759653
    14  H    6.139498   5.336083   3.922866   3.442142   4.627790
    15  C    4.879410   3.752827   2.451836   2.833717   4.242597
    16  H    5.847410   4.632557   3.437071   3.923975   5.332343
    17  O    5.034755   4.824158   3.666323   2.385128   2.826179
    18  Cl   4.458298   3.080565   2.753396   4.059897   5.194054
    19  C    6.057391   5.873850   4.791403   3.680127   4.010691
    20  C    6.507830   6.026565   4.795364   3.976169   4.719762
    21  H    7.457493   6.926153   5.623480   4.805454   5.589399
    22  C    7.121927   7.088520   6.028491   4.772035   4.860589
    23  H    7.818636   7.659696   6.483038   5.272705   5.540684
    24  H    6.810409   6.946956   5.989536   4.624704   4.449795
    25  H    7.779136   7.815538   6.832257   5.611601   5.598743
    26  C    5.210134   5.244400   4.450914   3.403145   3.389948
    27  H    4.380093   4.296942   3.562651   2.743266   2.911630
    28  H    5.977173   6.039860   5.336156   4.414340   4.365147
    29  H    5.008673   5.306157   4.665534   3.468106   3.025131
    30  C    5.921370   5.214775   3.983152   3.550254   4.569390
    31  H    6.636601   5.759118   4.507921   4.322202   5.479857
    32  H    5.131582   4.454077   3.387369   3.121294   4.071565
                    6          7          8          9         10
     6  C    0.000000
     7  H    2.169454   0.000000
     8  H    3.411626   2.470315   0.000000
     9  H    2.160555   4.316979   4.974019   0.000000
    10  H    1.090931   2.497169   4.307855   2.500186   0.000000
    11  C    3.760446   5.362707   4.674630   2.657501   4.634079
    12  C    4.258899   4.650708   2.742571   4.600425   5.349642
    13  C    4.895663   6.160752   4.900835   4.069849   5.865721
    14  H    5.847502   7.211857   5.953857   4.755787   6.767293
    15  C    5.082655   5.849106   4.096629   4.851889   6.147796
    16  H    6.145324   6.765715   4.792127   5.925346   7.218091
    17  O    4.205613   6.102801   5.784756   2.472641   4.863921
    18  Cl   5.360233   5.046438   2.626099   6.154738   6.415728
    19  C    5.242479   7.065498   6.778477   3.609500   5.797986
    20  C    5.946379   7.543638   6.786786   4.567320   6.673145
    21  H    6.875475   8.514669   7.665185   5.358488   7.597834
    22  C    6.113501   8.112785   8.055300   4.165433   6.493980
    23  H    6.863336   8.850276   8.592380   4.881217   7.312429
    24  H    5.664974   7.767310   7.975395   3.582721   5.916637
    25  H    6.753561   8.718685   8.772382   4.887920   7.044203
    26  C    4.375649   6.116719   6.166322   3.077163   4.823113
    27  H    3.771015   5.285754   5.160641   2.968720   4.377953
    28  H    5.199066   6.800368   6.897070   4.063762   5.556146
    29  H    3.945328   5.863603   6.311466   2.448611   4.186473
    30  C    5.653839   6.930582   5.824196   4.741479   6.524150
    31  H    6.523587   7.625584   6.217387   5.728556   7.452113
    32  H    4.977187   6.084070   5.038059   4.408392   5.854545
                   11         12         13         14         15
    11  C    0.000000
    12  C    2.858853   0.000000
    13  C    1.424180   2.425964   0.000000
    14  H    2.154225   3.388979   1.088646   0.000000
    15  C    2.484024   1.360052   1.432855   2.177808   0.000000
    16  H    3.465231   2.122176   2.190133   2.511087   1.090644
    17  O    1.265761   4.123316   2.345027   2.606978   3.642583
    18  Cl   4.603920   1.745473   4.029890   4.859327   2.684554
    19  C    2.773784   5.144379   3.367232   3.489871   4.597599
    20  C    2.873729   4.744212   2.814837   2.743642   3.942630
    21  H    3.521565   5.415428   3.237432   2.776313   4.410309
    22  C    3.785404   6.439066   4.454888   4.330127   5.812874
    23  H    4.066477   6.704870   4.482010   4.092130   5.886491
    24  H    3.798312   6.589123   4.735379   4.706948   6.094461
    25  H    4.742659   7.273767   5.387513   5.285882   6.690341
    26  C    3.116711   5.113661   3.983870   4.455795   4.952901
    27  H    2.783365   4.244870   3.569047   4.261629   4.276932
    28  H    4.158915   5.939827   4.876242   5.289542   5.778343
    29  H    3.376937   5.558526   4.516799   5.012712   5.519751
    30  C    2.694272   3.688624   2.226173   2.473367   2.937306
    31  H    3.445278   3.863139   2.541482   2.556273   2.922546
    32  H    2.736045   3.284183   2.552740   3.169652   2.944520
                   16         17         18         19         20
    16  H    0.000000
    17  O    4.527219   0.000000
    18  Cl   2.807593   5.868640   0.000000
    19  C    5.339571   2.080114   6.791517   0.000000
    20  C    4.461428   2.615199   6.275710   1.401922   0.000000
    21  H    4.744298   3.131340   6.912676   2.134170   1.093737
    22  C    6.517384   2.701841   8.135998   1.497370   2.501651
    23  H    6.458616   2.995444   8.390568   2.157290   2.631365
    24  H    6.899503   2.586598   8.321474   2.132120   3.332531
    25  H    7.374420   3.726765   8.929243   2.138664   3.074449
    26  C    5.830021   2.708580   6.669268   1.500194   2.535950
    27  H    5.185813   2.847816   5.708392   2.177587   2.769738
    28  H    6.579366   3.753696   7.392778   2.124220   2.970851
    29  H    6.481029   2.786210   7.146690   2.148583   3.416989
    30  C    3.398311   3.054407   5.066096   2.441638   1.383654
    31  H    3.016001   3.919534   4.994933   3.421738   2.146741
    32  H    3.566091   3.299241   4.587250   2.759713   2.167340
                   21         22         23         24         25
    21  H    0.000000
    22  C    2.655994   0.000000
    23  H    2.329441   1.096795   0.000000
    24  H    3.577916   1.098035   1.787470   0.000000
    25  H    3.216799   1.102130   1.789088   1.779055   0.000000
    26  C    3.494875   2.533072   3.480030   2.770844   2.804001
    27  H    3.845529   3.474763   4.306989   3.692125   3.855250
    28  H    3.857437   2.914751   3.879645   3.320550   2.762216
    29  H    4.278130   2.680718   3.714217   2.473668   2.961992
    30  C    2.126454   3.786272   3.969936   4.478553   4.362151
    31  H    2.451331   4.639285   4.632634   5.401388   5.191144
    32  H    3.111124   4.242585   4.658358   4.802810   4.746824
                   26         27         28         29         30
    26  C    0.000000
    27  H    1.096950   0.000000
    28  H    1.102366   1.778394   0.000000
    29  H    1.097212   1.782158   1.779329   0.000000
    30  C    3.019205   2.713568   3.488448   3.974463   0.000000
    31  H    4.094365   3.758581   4.473831   5.063743   1.091243
    32  H    2.755289   2.097822   3.200482   3.697955   1.091867
                   31         32
    31  H    0.000000
    32  H    1.842179   0.000000
 Stoichiometry    C15H15ClO
 Framework group  C1[X(C15H15ClO)]
 Deg. of freedom    90
 Full point group                 C1      NOp   1
 Largest Abelian subgroup         C1      NOp   1
 Largest concise Abelian subgroup C1      NOp   1
                         Standard orientation:                         
 ---------------------------------------------------------------------
 Center     Atomic      Atomic             Coordinates (Angstroms)
 Number     Number       Type             X           Y           Z
 ---------------------------------------------------------------------
      1          6           0       -2.261634    2.695446    0.334416
      2          6           0       -2.590891    1.354746    0.327622
      3          6           0       -1.648137    0.383746   -0.083292
      4          6           0       -0.352127    0.809945   -0.474739
      5          6           0       -0.048689    2.186638   -0.480263
      6          6           0       -0.983635    3.119337   -0.078869
      7          1           0       -3.001500    3.430711    0.654478
      8          1           0       -3.584919    1.030362    0.634360
      9          1           0        0.945731    2.484067   -0.815059
     10          1           0       -0.737561    4.182139   -0.084299
     11          6           0        0.660084   -0.155836   -0.922897
     12          6           0       -1.949278   -1.028100   -0.146093
     13          6           0        0.307591   -1.534957   -0.877490
     14          1           0        0.960857   -2.236370   -1.393642
     15          6           0       -1.030317   -1.940009   -0.562834
     16          1           0       -1.307274   -2.992985   -0.626393
     17          8           0        1.838190    0.211271   -1.204764
     18         17           0       -3.551515   -1.571866    0.282661
     19          6           0        3.087238   -0.146081    0.419752
     20          6           0        2.716711   -1.488905    0.577613
     21          1           0        3.325580   -2.236338    0.061006
     22          6           0        4.373970    0.181070   -0.272642
     23          1           0        4.698150   -0.635652   -0.929019
     24          1           0        4.246871    1.092940   -0.870989
     25          1           0        5.161312    0.372683    0.474397
     26          6           0        2.543648    0.933199    1.308711
     27          1           0        1.486012    0.788983    1.561511
     28          1           0        3.119934    0.934250    2.248447
     29          1           0        2.660531    1.917645    0.838520
     30          6           0        1.454698   -1.865975    1.001451
     31          1           0        1.194071   -2.924165    1.057293
     32          1           0        0.827064   -1.202296    1.599598
 ---------------------------------------------------------------------
 Rotational constants (GHZ):      0.6890567      0.3320523      0.2495027
 Standard basis: def2SVP (5D, 7F)
 There are   334 symmetry adapted cartesian basis functions of A   symmetry.
 There are   317 symmetry adapted basis functions of A   symmetry.
   317 basis functions,   542 primitive gaussians,   334 cartesian basis functions
    65 alpha electrons       65 beta electrons
       nuclear repulsion energy      1298.7649273892 Hartrees.
 NAtoms=   32 NActive=   32 NUniq=   32 SFac= 1.00D+00 NAtFMM=   60 NAOKFM=F Big=F
 Integral buffers will be    131072 words long.
 Raffenetti 2 integral format.
 Two-electron integral symmetry is turned on.
 Nuclear repulsion after empirical dispersion term =     1298.7629357035 Hartrees.
 Force inversion solution in PCM.
 ------------------------------------------------------------------------------
 Polarizable Continuum Model (PCM)
 =================================
 Model                : C-PCM.
 Atomic radii         : UFF (Universal Force Field).
 Polarization charges : Total charges.
 Charge compensation  : None.
 Solution method      : Matrix inversion.
 Cavity type          : Scaled VdW (van der Waals Surface) (Alpha=1.100).
 Cavity algorithm     : GePol (No added spheres)
                        Default sphere list used, NSphG=   32.
                        Lebedev-Laikov grids with approx.  5.0 points / Ang**2.
                        Smoothing algorithm: Karplus/York (Gamma=1.0000).
                        Polarization charges: spherical gaussians, with
                                              point-specific exponents (IZeta= 3).
                        Self-potential: point-specific (ISelfS= 7).
                        Self-field    : sphere-specific E.n sum rule (ISelfD= 2).
 1st derivatives      : Analytical E(r).r(x)/FMM algorithm (CHGder, D1EAlg=3).
                        Cavity 1st derivative terms included.
 2nd derivatives      : Analytical E(r).r(xy)/FMM algorithm (CHGder, D2EAlg=3).
                        Cavity 2nd derivative terms included.
 Solvent              : Toluene, Eps=   2.374100 Eps(inf)=   2.238315
 ------------------------------------------------------------------------------
 One-electron integrals computed using PRISM.
   1 Symmetry operations used in ECPInt.
 ECPInt:  NShTT=   11175 NPrTT=   41031 LenC2=   10636 LenP2D=   28345.
 LDataN:  DoStor=T MaxTD1= 4 Len=   56
 NBasis=   317 RedAO= T EigKep=  2.49D-04  NBF=   317
 NBsUse=   317 1.00D-06 EigRej= -1.00D+00 NBFU=   317
 ExpMin= 1.22D-01 ExpMax= 1.04D+04 ExpMxC= 1.57D+03 IAcc=1 IRadAn=         1 AccDes= 0.00D+00
 Harris functional with IExCor= 1009 and IRadAn=       1 diagonalized for initial guess.
 HarFok:  IExCor= 1009 AccDes= 0.00D+00 IRadAn=         1 IDoV= 1 UseB2=F ITyADJ=14
 ICtDFT=  3500011 ScaDFX=  1.000000  1.000000  1.000000  1.000000
 FoFCou: FMM=F IPFlag=           0 FMFlag=      100000 FMFlg1=           0
         NFxFlg=           0 DoJE=T BraDBF=F KetDBF=T FulRan=T
         wScrn=  0.000000 ICntrl=     500 IOpCl=  0 I1Cent=   200000004 NGrid=           0
         NMat0=    1 NMatS0=      1 NMatT0=    0 NMatD0=    1 NMtDS0=    0 NMtDT0=    0
 Petite list used in FoFCou.
 Requested convergence on RMS density matrix=1.00D-08 within 128 cycles.
 Requested convergence on MAX density matrix=1.00D-06.
 Requested convergence on             energy=1.00D-06.
 No special actions if energy rises.
 Inv3:  Mode=1 IEnd=    15377088.
 Iteration    1 A*A^-1 deviation from unit magnitude is 6.88D-15 for   2263.
 Iteration    1 A*A^-1 deviation from orthogonality  is 1.64D-15 for   1626    712.
 Iteration    1 A^-1*A deviation from unit magnitude is 6.88D-15 for   2263.
 Iteration    1 A^-1*A deviation from orthogonality  is 1.35D-15 for   2245   2228.
 EnCoef did     1 forward-backward iterations
 Error on total polarization charges =  0.00679
 SCF Done:  E(RM062X) =  -1115.07103135     A.U. after   15 cycles
            NFock= 15  Conv=0.41D-08     -V/T= 2.0071
 DoSCS=F DFT=T ScalE2(SS,OS)=  1.000000  1.000000
 Range of M.O.s used for correlation:     1   317
 NBasis=   317 NAE=    65 NBE=    65 NFC=     0 NFV=     0
 NROrb=    317 NOA=    65 NOB=    65 NVA=   252 NVB=   252

 **** Warning!!: The largest alpha MO coefficient is  0.14522475D+02

   1 Symmetry operations used in ECPInt.
 ECPInt:  NShTT=   11175 NPrTT=   41031 LenC2=   10636 LenP2D=   28345.
 LDataN:  DoStor=T MaxTD1= 5 Len=  102
 Number of processors reduced to   2 by ecpmxn.
 Symmetrizing basis deriv contribution to polar:
 IMax=3 JMax=2 DiffMx= 0.00D+00
 G2DrvN: will do    17 centers at a time, making    2 passes.
 Calling FoFCou, ICntrl=  3107 FMM=F I1Cent=   0 AccDes= 0.00D+00.
 Calling FoFCou, ICntrl=  3107 FMM=F I1Cent=   0 AccDes= 0.00D+00.
 NEqPCM:  Using equilibrium solvation (IEInf=0, Eps=   2.3741, EpsInf=   2.2383)
 G2PCM: DoFxE=T DoFxN=T DoGrad=T DoDP/DQ/DG/TGxP=FFFF NFrqRd=   0 IEInf=0 SqF1=F DoCFld=F IF1Alg=4.
 End of G2Drv F.D. properties file   721 does not exist.
 End of G2Drv F.D. properties file   722 does not exist.
 End of G2Drv F.D. properties file   788 does not exist.
          IDoAtm=11111111111111111111111111111111
 NEqPCM:  Using equilibrium solvation (IEInf=0, Eps=   2.3741, EpsInf=   2.2383)
          Differentiating once with respect to electric field.
                with respect to dipole field.
          Differentiating once with respect to nuclear coordinates.
 PrRfSu:  requested number of processors reduced to:   3 ShMem   1 Linda.
 CalDSu:  requested number of processors reduced to:   3 ShMem   1 Linda.
          There are    99 degrees of freedom in the 1st order CPHF.  IDoFFX=6 NUNeed=     3.
     97 vectors produced by pass  0 Test12= 1.65D-14 1.01D-09 XBig12= 2.24D+02 9.92D+00.
 AX will form    97 AO Fock derivatives at one time.
 PrRfSu:  requested number of processors reduced to:   3 ShMem   1 Linda.
 CalDSu:  requested number of processors reduced to:   3 ShMem   1 Linda.
     96 vectors produced by pass  1 Test12= 1.65D-14 1.01D-09 XBig12= 2.31D+01 4.94D-01.
 PrRfSu:  requested number of processors reduced to:   3 ShMem   1 Linda.
 CalDSu:  requested number of processors reduced to:   3 ShMem   1 Linda.
     96 vectors produced by pass  2 Test12= 1.65D-14 1.01D-09 XBig12= 3.82D-01 7.89D-02.
 PrRfSu:  requested number of processors reduced to:   3 ShMem   1 Linda.
 CalDSu:  requested number of processors reduced to:   3 ShMem   1 Linda.
     96 vectors produced by pass  3 Test12= 1.65D-14 1.01D-09 XBig12= 3.49D-03 5.99D-03.
 PrRfSu:  requested number of processors reduced to:   3 ShMem   1 Linda.
 CalDSu:  requested number of processors reduced to:   3 ShMem   1 Linda.
     96 vectors produced by pass  4 Test12= 1.65D-14 1.01D-09 XBig12= 2.26D-05 6.63D-04.
 PrRfSu:  requested number of processors reduced to:   3 ShMem   1 Linda.
 CalDSu:  requested number of processors reduced to:   3 ShMem   1 Linda.
     96 vectors produced by pass  5 Test12= 1.65D-14 1.01D-09 XBig12= 9.31D-08 3.29D-05.
 PrRfSu:  requested number of processors reduced to:   3 ShMem   1 Linda.
 CalDSu:  requested number of processors reduced to:   3 ShMem   1 Linda.
     62 vectors produced by pass  6 Test12= 1.65D-14 1.01D-09 XBig12= 3.17D-10 1.28D-06.
     11 vectors produced by pass  7 Test12= 1.65D-14 1.01D-09 XBig12= 9.10D-13 6.30D-08.
      3 vectors produced by pass  8 Test12= 1.65D-14 1.01D-09 XBig12= 2.75D-15 3.87D-09.
      2 vectors produced by pass  9 Test12= 1.65D-14 1.01D-09 XBig12= 3.23D-16 1.38D-09.
 InvSVY:  IOpt=1 It=  1 EMax= 7.11D-15
 Solved reduced A of dimension   655 with    99 vectors.
 Isotropic polarizability for W=    0.000000      226.66 Bohr**3.
 End of Minotr F.D. properties file   721 does not exist.
 End of Minotr F.D. properties file   722 does not exist.
 End of Minotr F.D. properties file   788 does not exist.

 **********************************************************************

            Population analysis using the SCF density.

 **********************************************************************

 Orbital symmetries:
       Occupied  (A) (A) (A) (A) (A) (A) (A) (A) (A) (A) (A) (A)
                 (A) (A) (A) (A) (A) (A) (A) (A) (A) (A) (A) (A)
                 (A) (A) (A) (A) (A) (A) (A) (A) (A) (A) (A) (A)
                 (A) (A) (A) (A) (A) (A) (A) (A) (A) (A) (A) (A)
                 (A) (A) (A) (A) (A) (A) (A) (A) (A) (A) (A) (A)
                 (A) (A) (A) (A) (A)
       Virtual   (A) (A) (A) (A) (A) (A) (A) (A) (A) (A) (A) (A)
                 (A) (A) (A) (A) (A) (A) (A) (A) (A) (A) (A) (A)
                 (A) (A) (A) (A) (A) (A) (A) (A) (A) (A) (A) (A)
                 (A) (A) (A) (A) (A) (A) (A) (A) (A) (A) (A) (A)
                 (A) (A) (A) (A) (A) (A) (A) (A) (A) (A) (A) (A)
                 (A) (A) (A) (A) (A) (A) (A) (A) (A) (A) (A) (A)
                 (A) (A) (A) (A) (A) (A) (A) (A) (A) (A) (A) (A)
                 (A) (A) (A) (A) (A) (A) (A) (A) (A) (A) (A) (A)
                 (A) (A) (A) (A) (A) (A) (A) (A) (A) (A) (A) (A)
                 (A) (A) (A) (A) (A) (A) (A) (A) (A) (A) (A) (A)
                 (A) (A) (A) (A) (A) (A) (A) (A) (A) (A) (A) (A)
                 (A) (A) (A) (A) (A) (A) (A) (A) (A) (A) (A) (A)
                 (A) (A) (A) (A) (A) (A) (A) (A) (A) (A) (A) (A)
                 (A) (A) (A) (A) (A) (A) (A) (A) (A) (A) (A) (A)
                 (A) (A) (A) (A) (A) (A) (A) (A) (A) (A) (A) (A)
                 (A) (A) (A) (A) (A) (A) (A) (A) (A) (A) (A) (A)
                 (A) (A) (A) (A) (A) (A) (A) (A) (A) (A) (A) (A)
                 (A) (A) (A) (A) (A) (A) (A) (A) (A) (A) (A) (A)
                 (A) (A) (A) (A) (A) (A) (A) (A) (A) (A) (A) (A)
                 (A) (A) (A) (A) (A) (A) (A) (A) (A) (A) (A) (A)
                 (A) (A) (A) (A) (A) (A) (A) (A) (A) (A) (A) (A)
 The electronic state is 1-A.
 Alpha  occ. eigenvalues -- -102.63976 -19.61764 -10.61409 -10.61382 -10.61027
 Alpha  occ. eigenvalues --  -10.58973 -10.57911 -10.57086 -10.57020 -10.56676
 Alpha  occ. eigenvalues --  -10.56392 -10.56294 -10.56187 -10.56106 -10.55603
 Alpha  occ. eigenvalues --  -10.55306 -10.55193  -9.80970  -7.53670  -7.53000
 Alpha  occ. eigenvalues --   -7.52995  -1.12512  -0.99303  -0.94913  -0.92652
 Alpha  occ. eigenvalues --   -0.90522  -0.84718  -0.84414  -0.83074  -0.78527
 Alpha  occ. eigenvalues --   -0.77983  -0.71040  -0.70531  -0.70084  -0.65087
 Alpha  occ. eigenvalues --   -0.60598  -0.59161  -0.58840  -0.56742  -0.55226
 Alpha  occ. eigenvalues --   -0.53896  -0.52910  -0.52691  -0.50493  -0.49805
 Alpha  occ. eigenvalues --   -0.49633  -0.47979  -0.47764  -0.46617  -0.45667
 Alpha  occ. eigenvalues --   -0.45034  -0.44787  -0.44144  -0.42893  -0.42281
 Alpha  occ. eigenvalues --   -0.42036  -0.41393  -0.40291  -0.37470  -0.36687
 Alpha  occ. eigenvalues --   -0.34537  -0.33007  -0.32027  -0.28954  -0.25056
 Alpha virt. eigenvalues --   -0.03674  -0.01031   0.01826   0.06129   0.08358
 Alpha virt. eigenvalues --    0.09357   0.09575   0.11552   0.11932   0.12221
 Alpha virt. eigenvalues --    0.14164   0.14250   0.15881   0.16468   0.17173
 Alpha virt. eigenvalues --    0.17770   0.18418   0.19425   0.20289   0.21559
 Alpha virt. eigenvalues --    0.22154   0.22825   0.24724   0.25139   0.27739
 Alpha virt. eigenvalues --    0.28779   0.29655   0.29988   0.32049   0.32336
 Alpha virt. eigenvalues --    0.34140   0.34747   0.35079   0.36350   0.37569
 Alpha virt. eigenvalues --    0.38128   0.39869   0.40966   0.42755   0.44127
 Alpha virt. eigenvalues --    0.45664   0.45908   0.46815   0.48206   0.49117
 Alpha virt. eigenvalues --    0.49956   0.50718   0.51237   0.52150   0.52855
 Alpha virt. eigenvalues --    0.53777   0.54012   0.54746   0.55312   0.56604
 Alpha virt. eigenvalues --    0.57901   0.58894   0.60001   0.61496   0.62506
 Alpha virt. eigenvalues --    0.63204   0.64582   0.64894   0.65334   0.67518
 Alpha virt. eigenvalues --    0.67840   0.68603   0.68880   0.69520   0.70114
 Alpha virt. eigenvalues --    0.70414   0.71555   0.71786   0.72203   0.72561
 Alpha virt. eigenvalues --    0.73358   0.74000   0.74506   0.75033   0.75900
 Alpha virt. eigenvalues --    0.76439   0.77362   0.77479   0.77983   0.78159
 Alpha virt. eigenvalues --    0.79060   0.79321   0.80506   0.80941   0.81763
 Alpha virt. eigenvalues --    0.82760   0.83856   0.84032   0.85195   0.85486
 Alpha virt. eigenvalues --    0.86693   0.87574   0.88159   0.89332   0.90999
 Alpha virt. eigenvalues --    0.92059   0.92481   0.96626   0.98744   1.00029
 Alpha virt. eigenvalues --    1.00508   1.01038   1.03654   1.05352   1.08212
 Alpha virt. eigenvalues --    1.10737   1.13105   1.13962   1.16706   1.19304
 Alpha virt. eigenvalues --    1.20715   1.22895   1.23762   1.25192   1.27248
 Alpha virt. eigenvalues --    1.28444   1.29658   1.31022   1.31927   1.32438
 Alpha virt. eigenvalues --    1.33978   1.34620   1.35687   1.37007   1.37666
 Alpha virt. eigenvalues --    1.38723   1.40398   1.43118   1.45410   1.48877
 Alpha virt. eigenvalues --    1.50642   1.51887   1.56147   1.56250   1.58662
 Alpha virt. eigenvalues --    1.59518   1.61333   1.62170   1.62984   1.66430
 Alpha virt. eigenvalues --    1.68102   1.70221   1.71728   1.72970   1.73591
 Alpha virt. eigenvalues --    1.73808   1.76169   1.76916   1.77945   1.79077
 Alpha virt. eigenvalues --    1.79271   1.79665   1.80596   1.81401   1.82361
 Alpha virt. eigenvalues --    1.82858   1.84084   1.84734   1.85388   1.86327
 Alpha virt. eigenvalues --    1.86584   1.88032   1.88499   1.88811   1.90752
 Alpha virt. eigenvalues --    1.92568   1.92917   1.94548   1.96350   1.97569
 Alpha virt. eigenvalues --    1.98357   1.99270   2.00246   2.01145   2.02446
 Alpha virt. eigenvalues --    2.03495   2.05766   2.06718   2.07936   2.08446
 Alpha virt. eigenvalues --    2.10154   2.12631   2.13631   2.15071   2.15526
 Alpha virt. eigenvalues --    2.17374   2.19171   2.20965   2.21233   2.22906
 Alpha virt. eigenvalues --    2.24704   2.25861   2.27659   2.28384   2.30498
 Alpha virt. eigenvalues --    2.30816   2.32190   2.32724   2.34534   2.37640
 Alpha virt. eigenvalues --    2.38594   2.39200   2.40528   2.40972   2.43658
 Alpha virt. eigenvalues --    2.46415   2.49338   2.50815   2.53555   2.54748
 Alpha virt. eigenvalues --    2.58197   2.58692   2.59583   2.60401   2.63532
 Alpha virt. eigenvalues --    2.64824   2.66356   2.67126   2.68537   2.72478
 Alpha virt. eigenvalues --    2.75491   2.76445   2.78057   2.78958   2.80697
 Alpha virt. eigenvalues --    2.83345   2.86668   2.87673   2.88101   2.91605
 Alpha virt. eigenvalues --    2.91890   2.93027   2.94329   2.96330   2.98126
 Alpha virt. eigenvalues --    2.99716   3.03177   3.05984   3.10828   3.13160
 Alpha virt. eigenvalues --    3.16151   3.18826   3.30722   3.39342   3.43566
 Alpha virt. eigenvalues --    3.62708   3.70149
          Condensed to atoms (all electrons):
               1          2          3          4          5          6
     1  C    5.097536   0.317579   0.088035  -0.151694   0.104740   0.213575
     2  C    0.317579   5.166307   0.299415   0.029224  -0.139515   0.088820
     3  C    0.088035   0.299415   5.370362   0.191771   0.000969  -0.142110
     4  C   -0.151694   0.029224   0.191771   5.865161   0.274437   0.085166
     5  C    0.104740  -0.139515   0.000969   0.274437   5.220533   0.241993
     6  C    0.213575   0.088820  -0.142110   0.085166   0.241993   5.176706
     7  H    0.452331  -0.065910   0.014850  -0.001075   0.013508  -0.073655
     8  H   -0.063909   0.451577  -0.065948   0.016037  -0.002107   0.013590
     9  H    0.013666  -0.002035   0.015471  -0.074258   0.461589  -0.072521
    10  H   -0.073859   0.013843  -0.001247   0.015103  -0.072795   0.458180
    11  C   -0.002869   0.017424   0.025425   0.079136  -0.113673   0.022155
    12  C    0.015148  -0.119023   0.236960   0.007283   0.022861  -0.002025
    13  C    0.000093  -0.003530  -0.120115  -0.025224   0.028401  -0.000690
    14  H    0.000002   0.000043  -0.001330   0.018496  -0.000509  -0.000005
    15  C   -0.000508   0.015361   0.063728  -0.101619  -0.005061   0.000227
    16  H    0.000003  -0.000376   0.016280  -0.002034   0.000040   0.000002
    17  O   -0.000043  -0.000042   0.004373  -0.139013   0.010550   0.001969
    18  Cl   0.000100  -0.005343  -0.071514   0.003151  -0.000135   0.000021
    19  C   -0.000011   0.000009   0.001035  -0.013222   0.000007   0.000187
    20  C    0.000001   0.000005   0.000386   0.002147  -0.000257   0.000005
    21  H    0.000000   0.000000  -0.000001  -0.000107  -0.000011   0.000000
    22  C    0.000000   0.000000  -0.000002   0.000726  -0.000182  -0.000010
    23  H    0.000000   0.000000   0.000000   0.000049  -0.000002   0.000000
    24  H    0.000000   0.000000  -0.000008  -0.000339   0.000005   0.000011
    25  H    0.000000   0.000000   0.000000   0.000001   0.000008   0.000000
    26  C    0.000055  -0.000061  -0.000288  -0.004368   0.001470  -0.000687
    27  H    0.000175   0.000091  -0.000744   0.002585   0.001839  -0.000644
    28  H   -0.000004  -0.000001   0.000063  -0.000514   0.000153   0.000075
    29  H    0.000033  -0.000017  -0.000145  -0.000639   0.002959   0.000010
    30  C   -0.000002  -0.000064  -0.000749  -0.010342  -0.000002   0.000014
    31  H    0.000000   0.000002   0.000307  -0.000201   0.000018  -0.000001
    32  H   -0.000046  -0.000059   0.002451   0.000818  -0.000775   0.000021
               7          8          9         10         11         12
     1  C    0.452331  -0.063909   0.013666  -0.073859  -0.002869   0.015148
     2  C   -0.065910   0.451577  -0.002035   0.013843   0.017424  -0.119023
     3  C    0.014850  -0.065948   0.015471  -0.001247   0.025425   0.236960
     4  C   -0.001075   0.016037  -0.074258   0.015103   0.079136   0.007283
     5  C    0.013508  -0.002107   0.461589  -0.072795  -0.113673   0.022861
     6  C   -0.073655   0.013590  -0.072521   0.458180   0.022155  -0.002025
     7  H    0.650728  -0.011651  -0.000219  -0.011122   0.000039  -0.000413
     8  H   -0.011651   0.647377   0.000023  -0.000214  -0.000074  -0.027801
     9  H   -0.000219   0.000023   0.649670  -0.010993  -0.023608  -0.000062
    10  H   -0.011122  -0.000214  -0.010993   0.652551  -0.000365   0.000044
    11  C    0.000039  -0.000074  -0.023608  -0.000365   5.170339  -0.148703
    12  C   -0.000413  -0.027801  -0.000062   0.000044  -0.148703   5.320663
    13  C    0.000000  -0.000088   0.002525   0.000003   0.172228   0.121117
    14  H    0.000000   0.000001  -0.000038   0.000000  -0.040126   0.012682
    15  C    0.000003   0.000519  -0.000283   0.000001   0.124834   0.372557
    16  H    0.000000  -0.000006   0.000002   0.000000   0.012366  -0.067468
    17  O    0.000000   0.000001   0.016454  -0.000009   0.607694  -0.000395
    18  Cl  -0.000023   0.022263   0.000001   0.000000   0.000437   0.240306
    19  C    0.000000   0.000000  -0.001124   0.000003  -0.039461  -0.000356
    20  C    0.000000   0.000000  -0.000023   0.000000  -0.024104   0.000184
    21  H    0.000000   0.000000  -0.000001   0.000000  -0.000674   0.000004
    22  C    0.000000   0.000000  -0.000355   0.000000   0.001259   0.000002
    23  H    0.000000   0.000000  -0.000013   0.000000  -0.000136   0.000000
    24  H    0.000000   0.000000   0.000464   0.000000   0.000624   0.000001
    25  H    0.000000   0.000000  -0.000005   0.000000  -0.000087   0.000000
    26  C    0.000000   0.000001   0.000865  -0.000003  -0.001241  -0.000065
    27  H   -0.000001  -0.000006  -0.001133   0.000000   0.002206  -0.000330
    28  H    0.000000   0.000000   0.000109   0.000000  -0.000027   0.000003
    29  H    0.000000   0.000000   0.000771   0.000010   0.000797   0.000015
    30  C    0.000000   0.000000   0.000111   0.000000  -0.016670  -0.005871
    31  H    0.000000   0.000000   0.000001   0.000000   0.001102  -0.001643
    32  H    0.000000   0.000007  -0.000029   0.000000  -0.005286   0.003721
              13         14         15         16         17         18
     1  C    0.000093   0.000002  -0.000508   0.000003  -0.000043   0.000100
     2  C   -0.003530   0.000043   0.015361  -0.000376  -0.000042  -0.005343
     3  C   -0.120115  -0.001330   0.063728   0.016280   0.004373  -0.071514
     4  C   -0.025224   0.018496  -0.101619  -0.002034  -0.139013   0.003151
     5  C    0.028401  -0.000509  -0.005061   0.000040   0.010550  -0.000135
     6  C   -0.000690  -0.000005   0.000227   0.000002   0.001969   0.000021
     7  H    0.000000   0.000000   0.000003   0.000000   0.000000  -0.000023
     8  H   -0.000088   0.000001   0.000519  -0.000006   0.000001   0.022263
     9  H    0.002525  -0.000038  -0.000283   0.000002   0.016454   0.000001
    10  H    0.000003   0.000000   0.000001   0.000000  -0.000009   0.000000
    11  C    0.172228  -0.040126   0.124834   0.012366   0.607694   0.000437
    12  C    0.121117   0.012682   0.372557  -0.067468  -0.000395   0.240306
    13  C    5.606197   0.404906   0.073433  -0.060194  -0.091107   0.003592
    14  H    0.404906   0.640909  -0.055667  -0.011083   0.004300  -0.000115
    15  C    0.073433  -0.055667   5.131735   0.442450   0.006645  -0.065795
    16  H   -0.060194  -0.011083   0.442450   0.642291  -0.000093   0.000830
    17  O   -0.091107   0.004300   0.006645  -0.000093   7.901426   0.000000
    18  Cl   0.003592  -0.000115  -0.065795   0.000830   0.000000  16.982187
    19  C   -0.046681  -0.005769   0.003312   0.000012   0.111053   0.000000
    20  C   -0.052131   0.001464   0.005280  -0.000002  -0.018409  -0.000001
    21  H   -0.001977   0.002385   0.000243  -0.000002  -0.000194   0.000000
    22  C    0.000568   0.000066  -0.000013  -0.000001  -0.024033   0.000000
    23  H   -0.000044   0.000048   0.000005   0.000000   0.000900   0.000000
    24  H    0.000430  -0.000021  -0.000013   0.000000   0.004860   0.000000
    25  H   -0.000065   0.000010   0.000001   0.000000   0.001471   0.000000
    26  C    0.000582   0.000276   0.000042   0.000001  -0.020386   0.000000
    27  H   -0.001099  -0.000082   0.000278  -0.000004  -0.004422   0.000002
    28  H   -0.000203  -0.000008   0.000007   0.000000   0.001922   0.000000
    29  H    0.000287   0.000009  -0.000027   0.000000  -0.002229   0.000000
    30  C    0.157619  -0.009930  -0.035703  -0.000104  -0.033866   0.000079
    31  H   -0.004910  -0.005816   0.001906   0.001280   0.000286  -0.000023
    32  H   -0.017834   0.002875  -0.000978  -0.000268   0.000065  -0.000128
              19         20         21         22         23         24
     1  C   -0.000011   0.000001   0.000000   0.000000   0.000000   0.000000
     2  C    0.000009   0.000005   0.000000   0.000000   0.000000   0.000000
     3  C    0.001035   0.000386  -0.000001  -0.000002   0.000000  -0.000008
     4  C   -0.013222   0.002147  -0.000107   0.000726   0.000049  -0.000339
     5  C    0.000007  -0.000257  -0.000011  -0.000182  -0.000002   0.000005
     6  C    0.000187   0.000005   0.000000  -0.000010   0.000000   0.000011
     7  H    0.000000   0.000000   0.000000   0.000000   0.000000   0.000000
     8  H    0.000000   0.000000   0.000000   0.000000   0.000000   0.000000
     9  H   -0.001124  -0.000023  -0.000001  -0.000355  -0.000013   0.000464
    10  H    0.000003   0.000000   0.000000   0.000000   0.000000   0.000000
    11  C   -0.039461  -0.024104  -0.000674   0.001259  -0.000136   0.000624
    12  C   -0.000356   0.000184   0.000004   0.000002   0.000000   0.000001
    13  C   -0.046681  -0.052131  -0.001977   0.000568  -0.000044   0.000430
    14  H   -0.005769   0.001464   0.002385   0.000066   0.000048  -0.000021
    15  C    0.003312   0.005280   0.000243  -0.000013   0.000005  -0.000013
    16  H    0.000012  -0.000002  -0.000002  -0.000001   0.000000   0.000000
    17  O    0.111053  -0.018409  -0.000194  -0.024033   0.000900   0.004860
    18  Cl   0.000000  -0.000001   0.000000   0.000000   0.000000   0.000000
    19  C    5.108834   0.447229  -0.041673   0.401886  -0.012699  -0.015520
    20  C    0.447229   4.926730   0.414053  -0.063144  -0.013002   0.007611
    21  H   -0.041673   0.414053   0.640513  -0.014215   0.006045   0.000354
    22  C    0.401886  -0.063144  -0.014215   4.571710   0.391242   0.379129
    23  H   -0.012699  -0.013002   0.006045   0.391242   0.608783  -0.019743
    24  H   -0.015520   0.007611   0.000354   0.379129  -0.019743   0.601376
    25  H   -0.016489  -0.004517   0.000215   0.387852  -0.018941  -0.018737
    26  C    0.384965  -0.067920   0.008719  -0.058247   0.007451  -0.006186
    27  H   -0.003403  -0.019708  -0.000157   0.007437  -0.000360  -0.000150
    28  H   -0.015253  -0.004181  -0.000111  -0.004147  -0.000173  -0.000408
    29  H   -0.023200   0.010131  -0.000284  -0.005072   0.000058   0.005193
    30  C   -0.042137   0.514189  -0.040828   0.011768   0.000515  -0.000327
    31  H    0.011956  -0.013557  -0.012014  -0.000315  -0.000024   0.000008
    32  H   -0.021206  -0.006739   0.007023   0.000078  -0.000001  -0.000012
              25         26         27         28         29         30
     1  C    0.000000   0.000055   0.000175  -0.000004   0.000033  -0.000002
     2  C    0.000000  -0.000061   0.000091  -0.000001  -0.000017  -0.000064
     3  C    0.000000  -0.000288  -0.000744   0.000063  -0.000145  -0.000749
     4  C    0.000001  -0.004368   0.002585  -0.000514  -0.000639  -0.010342
     5  C    0.000008   0.001470   0.001839   0.000153   0.002959  -0.000002
     6  C    0.000000  -0.000687  -0.000644   0.000075   0.000010   0.000014
     7  H    0.000000   0.000000  -0.000001   0.000000   0.000000   0.000000
     8  H    0.000000   0.000001  -0.000006   0.000000   0.000000   0.000000
     9  H   -0.000005   0.000865  -0.001133   0.000109   0.000771   0.000111
    10  H    0.000000  -0.000003   0.000000   0.000000   0.000010   0.000000
    11  C   -0.000087  -0.001241   0.002206  -0.000027   0.000797  -0.016670
    12  C    0.000000  -0.000065  -0.000330   0.000003   0.000015  -0.005871
    13  C   -0.000065   0.000582  -0.001099  -0.000203   0.000287   0.157619
    14  H    0.000010   0.000276  -0.000082  -0.000008   0.000009  -0.009930
    15  C    0.000001   0.000042   0.000278   0.000007  -0.000027  -0.035703
    16  H    0.000000   0.000001  -0.000004   0.000000   0.000000  -0.000104
    17  O    0.001471  -0.020386  -0.004422   0.001922  -0.002229  -0.033866
    18  Cl   0.000000   0.000000   0.000002   0.000000   0.000000   0.000079
    19  C   -0.016489   0.384965  -0.003403  -0.015253  -0.023200  -0.042137
    20  C   -0.004517  -0.067920  -0.019708  -0.004181   0.010131   0.514189
    21  H    0.000215   0.008719  -0.000157  -0.000111  -0.000284  -0.040828
    22  C    0.387852  -0.058247   0.007437  -0.004147  -0.005072   0.011768
    23  H   -0.018941   0.007451  -0.000360  -0.000173   0.000058   0.000515
    24  H   -0.018737  -0.006186  -0.000150  -0.000408   0.005193  -0.000327
    25  H    0.606109  -0.002206   0.000040   0.002199  -0.000926  -0.000540
    26  C   -0.002206   4.598009   0.389020   0.382302   0.390351  -0.007433
    27  H    0.000040   0.389020   0.594460  -0.017132  -0.021975   0.009315
    28  H    0.002199   0.382302  -0.017132   0.603991  -0.018551  -0.001534
    29  H   -0.000926   0.390351  -0.021975  -0.018551   0.606760   0.000010
    30  C   -0.000540  -0.007433   0.009315  -0.001534   0.000010   4.768113
    31  H    0.000011  -0.000052  -0.000074   0.000020  -0.000004   0.379005
    32  H    0.000014   0.005569   0.001036   0.000409  -0.000262   0.385653
              31         32
     1  C    0.000000  -0.000046
     2  C    0.000002  -0.000059
     3  C    0.000307   0.002451
     4  C   -0.000201   0.000818
     5  C    0.000018  -0.000775
     6  C   -0.000001   0.000021
     7  H    0.000000   0.000000
     8  H    0.000000   0.000007
     9  H    0.000001  -0.000029
    10  H    0.000000   0.000000
    11  C    0.001102  -0.005286
    12  C   -0.001643   0.003721
    13  C   -0.004910  -0.017834
    14  H   -0.005816   0.002875
    15  C    0.001906  -0.000978
    16  H    0.001280  -0.000268
    17  O    0.000286   0.000065
    18  Cl  -0.000023  -0.000128
    19  C    0.011956  -0.021206
    20  C   -0.013557  -0.006739
    21  H   -0.012014   0.007023
    22  C   -0.000315   0.000078
    23  H   -0.000024  -0.000001
    24  H    0.000008  -0.000012
    25  H    0.000011   0.000014
    26  C   -0.000052   0.005569
    27  H   -0.000074   0.001036
    28  H    0.000020   0.000409
    29  H   -0.000004  -0.000262
    30  C    0.379005   0.385653
    31  H    0.603933  -0.034181
    32  H   -0.034181   0.605207
 Mulliken charges:
               1
     1  C   -0.010128
     2  C   -0.063723
     3  C    0.072320
     4  C   -0.066640
     5  C   -0.051054
     6  C   -0.010382
     7  H    0.032609
     8  H    0.020408
     9  H    0.024977
    10  H    0.030869
    11  C    0.179040
    12  C    0.020603
    13  C   -0.146085
    14  H    0.042025
    15  C    0.023100
    16  H    0.026077
    17  O   -0.339728
    18  Cl  -0.109893
    19  C   -0.172284
    20  C   -0.041720
    21  H    0.032696
    22  C    0.016009
    23  H    0.050044
    24  H    0.061397
    25  H    0.064582
    26  C   -0.000536
    27  H    0.062941
    28  H    0.070992
    29  H    0.055936
    30  C   -0.020290
    31  H    0.072981
    32  H    0.072858
 Sum of Mulliken charges =   0.00000
 Mulliken charges with hydrogens summed into heavy atoms:
               1
     1  C    0.022480
     2  C   -0.043315
     3  C    0.072320
     4  C   -0.066640
     5  C   -0.026078
     6  C    0.020486
    11  C    0.179040
    12  C    0.020603
    13  C   -0.104059
    15  C    0.049177
    17  O   -0.339728
    18  Cl  -0.109893
    19  C   -0.172284
    20  C   -0.009024
    22  C    0.192032
    26  C    0.189333
    30  C    0.125550
 APT charges:
               1
     1  C   -0.022718
     2  C   -0.125122
     3  C   -0.012469
     4  C   -0.034956
     5  C   -0.094730
     6  C   -0.021143
     7  H    0.046016
     8  H    0.081596
     9  H    0.086253
    10  H    0.045689
    11  C    0.395242
    12  C    0.358756
    13  C   -0.329803
    14  H    0.053138
    15  C    0.051857
    16  H    0.068377
    17  O   -0.664977
    18  Cl  -0.421258
    19  C    0.543548
    20  C   -0.540020
    21  H    0.042832
    22  C   -0.079986
    23  H    0.011411
    24  H    0.037755
    25  H   -0.011955
    26  C   -0.109371
    27  H    0.030608
    28  H    0.021119
    29  H    0.042129
    30  C    0.510754
    31  H    0.041072
    32  H    0.000355
 Sum of APT charges =   0.00000
 APT charges with hydrogens summed into heavy atoms:
               1
     1  C    0.023298
     2  C   -0.043526
     3  C   -0.012469
     4  C   -0.034956
     5  C   -0.008477
     6  C    0.024546
    11  C    0.395242
    12  C    0.358756
    13  C   -0.276665
    15  C    0.120235
    17  O   -0.664977
    18  Cl  -0.421258
    19  C    0.543548
    20  C   -0.497188
    22  C   -0.042774
    26  C   -0.015515
    30  C    0.552181
 Electronic spatial extent (au):  <R**2>=           4411.0256
 Charge=              0.0000 electrons
 Dipole moment (field-independent basis, Debye):
    X=              2.4032    Y=             -0.1266    Z=              2.0563  Tot=              3.1654
 Quadrupole moment (field-independent basis, Debye-Ang):
   XX=           -102.6667   YY=            -95.3108   ZZ=           -112.0836
   XY=             -3.7872   XZ=              1.5745   YZ=              2.9461
 Traceless Quadrupole moment (field-independent basis, Debye-Ang):
   XX=              0.6870   YY=              8.0429   ZZ=             -8.7299
   XY=             -3.7872   XZ=              1.5745   YZ=              2.9461
 Octapole moment (field-independent basis, Debye-Ang**2):
  XXX=             35.6391  YYY=             -1.1757  ZZZ=              4.6182  XYY=              0.7844
  XXY=             15.9815  XXZ=             11.6982  XZZ=             -0.5356  YZZ=             -5.9520
  YYZ=             -2.8892  XYZ=              0.7089
 Hexadecapole moment (field-independent basis, Debye-Ang**3):
 XXXX=          -3551.6904 YYYY=          -1603.1743 ZZZZ=           -441.2314 XXXY=             -0.0523
 XXXZ=            -35.7403 YYYX=             -8.3724 YYYZ=             13.2994 ZZZX=             -8.0579
 ZZZY=              3.1157 XXYY=           -886.1429 XXZZ=           -711.6375 YYZZ=           -384.5403
 XXYZ=             34.5204 YYXZ=            -27.9002 ZZXY=             21.0658
 N-N= 1.298762935703D+03 E-N=-5.209598488046D+03  KE= 1.107241314883D+03
  Exact polarizability: 303.945  -9.633 245.295  -3.952   4.578 130.731
 Approx polarizability: 316.579  -1.333 275.289 -11.067   1.539 162.606
   1 Symmetry operations used in ECPInt.
 ECPInt:  NShTT=   11175 NPrTT=   41031 LenC2=   10636 LenP2D=   28345.
 LDataN:  DoStor=T MaxTD1= 6 Len=  172
 D2PCM: C-PCM CHGder 2nd derivatives, FixD1E=F FixD2E=F DoIter=F DoCFld=F I1PDM=0
 Calling FoFJK, ICntrl=    100127 FMM=F ISym2X=0 I1Cent= 0 IOpClX= 0 NMat=1 NMatS=1 NMatT=0.
 Full mass-weighted force constant matrix:
 Low frequencies --- -428.5408  -14.1092   -8.3002    0.0015    0.0016    0.0018
 Low frequencies ---    4.1249   52.1838   72.8426
 ******    1 imaginary frequencies (negative Signs) ****** 
 Diagonal vibrational polarizability:
       56.3834489      12.4471459      25.6953112
 Harmonic frequencies (cm**-1), IR intensities (KM/Mole), Raman scattering
 activities (A**4/AMU), depolarization ratios for plane and unpolarized
 incident light, reduced masses (AMU), force constants (mDyne/A),
 and normal coordinates:
                      1                      2                      3
                      A                      A                      A
 Frequencies --   -428.5402                52.1232                72.8335
 Red. masses --      8.8315                 4.0938                 4.2948
 Frc consts  --      0.9556                 0.0066                 0.0134
 IR Inten    --     90.9764                 0.0362                 0.9138
  Atom  AN      X      Y      Z        X      Y      Z        X      Y      Z
     1   6     0.00  -0.01   0.00     0.04   0.02  -0.05     0.13  -0.04   0.19
     2   6     0.00   0.01   0.00     0.04   0.02  -0.01     0.10  -0.03   0.15
     3   6     0.00  -0.02  -0.01     0.03   0.01  -0.01     0.05  -0.03   0.00
     4   6     0.03  -0.03  -0.01     0.02   0.01  -0.05     0.02  -0.03  -0.09
     5   6     0.02   0.00   0.01     0.02   0.01  -0.09     0.03  -0.04  -0.08
     6   6     0.02  -0.01  -0.01     0.03   0.02  -0.09     0.09  -0.04   0.06
     7   1     0.00   0.00   0.00     0.04   0.03  -0.05     0.18  -0.05   0.32
     8   1     0.00   0.01   0.00     0.05   0.03   0.03     0.13  -0.03   0.24
     9   1     0.02   0.02   0.02     0.01   0.00  -0.11     0.01  -0.04  -0.16
    10   1     0.01  -0.01  -0.02     0.02   0.02  -0.12     0.11  -0.04   0.08
    11   6    -0.03  -0.04   0.05     0.01   0.00  -0.05     0.00  -0.04  -0.11
    12   6    -0.01   0.03   0.00     0.02   0.01   0.01     0.02  -0.02  -0.04
    13   6    -0.16   0.09  -0.31    -0.01   0.00  -0.09    -0.01  -0.03  -0.08
    14   1     0.03  -0.01   0.08    -0.03   0.01  -0.13     0.02  -0.06  -0.02
    15   6    -0.01   0.03  -0.09     0.00   0.01  -0.05    -0.01  -0.03  -0.09
    16   1     0.00   0.03  -0.08    -0.01   0.01  -0.04    -0.02  -0.02  -0.10
    17   8     0.20  -0.06   0.28     0.02   0.00  -0.02     0.01  -0.05  -0.09
    18  17     0.00   0.00   0.01     0.06   0.02   0.14     0.02  -0.01   0.00
    19   6    -0.26   0.13  -0.33    -0.07   0.00   0.05    -0.08   0.06   0.03
    20   6    -0.03  -0.05   0.05     0.00  -0.04  -0.08    -0.11   0.08   0.11
    21   1     0.07  -0.04   0.15     0.06   0.04  -0.12    -0.07   0.03   0.23
    22   6    -0.09   0.02  -0.08    -0.05   0.14   0.16    -0.03  -0.01   0.08
    23   1    -0.10   0.04  -0.11     0.04   0.22   0.10     0.01  -0.08   0.19
    24   1     0.15   0.11   0.01    -0.07   0.19   0.24     0.01  -0.07  -0.02
    25   1    -0.21  -0.20   0.10    -0.11   0.12   0.22    -0.08   0.06   0.12
    26   6    -0.02   0.01  -0.03    -0.21  -0.11   0.10    -0.11   0.14  -0.09
    27   1    -0.02   0.06   0.03    -0.22  -0.19   0.00    -0.12   0.17  -0.12
    28   1     0.07  -0.22  -0.09    -0.29  -0.17   0.15    -0.15   0.20  -0.06
    29   1     0.02   0.07   0.11    -0.22  -0.06   0.20    -0.07   0.10  -0.16
    30   6     0.25  -0.08   0.34     0.02  -0.14  -0.13    -0.14   0.13   0.04
    31   1     0.12  -0.05   0.17     0.07  -0.16  -0.24    -0.16   0.13   0.12
    32   1     0.04   0.05  -0.03    -0.02  -0.23  -0.08    -0.19   0.19  -0.07
                      4                      5                      6
                      A                      A                      A
 Frequencies --     83.4729               133.9024               154.2683
 Red. masses --      5.2094                 3.5172                 1.2179
 Frc consts  --      0.0214                 0.0372                 0.0171
 IR Inten    --      0.7152                 0.6112                 0.6160
  Atom  AN      X      Y      Z        X      Y      Z        X      Y      Z
     1   6     0.10   0.00   0.06    -0.02   0.00   0.06    -0.02   0.00   0.01
     2   6     0.05   0.01   0.07     0.06  -0.02   0.23     0.00   0.00   0.04
     3   6     0.01  -0.02   0.05     0.04   0.00   0.13     0.00   0.00   0.02
     4   6     0.01  -0.06   0.02     0.00   0.03   0.01    -0.01   0.01   0.01
     5   6     0.05  -0.07  -0.01    -0.09   0.05  -0.18    -0.03   0.02  -0.02
     6   6     0.10  -0.04   0.01    -0.11   0.04  -0.20    -0.04   0.01  -0.03
     7   1     0.14   0.03   0.09    -0.01  -0.02   0.11    -0.03   0.00   0.01
     8   1     0.05   0.05   0.10     0.12  -0.05   0.39     0.01  -0.01   0.06
     9   1     0.05  -0.11  -0.05    -0.15   0.08  -0.33    -0.03   0.03  -0.03
    10   1     0.13  -0.05   0.00    -0.20   0.05  -0.38    -0.05   0.01  -0.05
    11   6    -0.02  -0.10   0.03     0.01   0.04   0.03     0.00   0.01   0.00
    12   6    -0.03  -0.01   0.05     0.04   0.00   0.08    -0.01   0.01   0.01
    13   6    -0.02  -0.09   0.13     0.02   0.03   0.03    -0.02   0.01  -0.03
    14   1    -0.05  -0.12   0.12     0.02   0.05   0.00    -0.01   0.01  -0.02
    15   6    -0.03  -0.05   0.14     0.03   0.02   0.01    -0.01   0.01  -0.02
    16   1    -0.06  -0.04   0.15     0.01   0.03  -0.07    -0.01   0.01  -0.04
    17   8    -0.04  -0.10  -0.05     0.02   0.03   0.04     0.00   0.00   0.01
    18  17    -0.11   0.08  -0.14     0.00   0.00  -0.08    -0.01   0.01   0.00
    19   6     0.00   0.08  -0.02     0.00  -0.04   0.00     0.03  -0.02   0.00
    20   6     0.12   0.05  -0.05     0.00  -0.04   0.00     0.03  -0.03   0.00
    21   1     0.16   0.12  -0.11    -0.01  -0.04  -0.01     0.04  -0.03   0.01
    22   6    -0.05   0.24  -0.05     0.00  -0.06   0.01     0.05  -0.02   0.03
    23   1     0.05   0.28  -0.04    -0.13   0.02  -0.16     0.35  -0.20   0.41
    24   1    -0.19   0.22  -0.05     0.11   0.07   0.18    -0.11  -0.29  -0.36
    25   1    -0.07   0.36  -0.06     0.06  -0.32   0.01    -0.10   0.51   0.06
    26   6    -0.10   0.01   0.00     0.01  -0.04   0.02     0.00  -0.01  -0.04
    27   1    -0.10  -0.08  -0.03     0.05  -0.11   0.14    -0.06   0.08  -0.23
    28   1    -0.13   0.01   0.02     0.12   0.05  -0.05    -0.16  -0.12   0.06
    29   1    -0.16   0.04   0.05    -0.12  -0.05  -0.04     0.17   0.00   0.02
    30   6     0.18  -0.07   0.02     0.00  -0.04  -0.01     0.04  -0.02   0.02
    31   1     0.27  -0.09   0.00    -0.01  -0.04  -0.03     0.02  -0.01   0.01
    32   1     0.17  -0.14   0.10     0.00  -0.05   0.01     0.04   0.00   0.01
                      7                      8                      9
                      A                      A                      A
 Frequencies --    187.9584               193.5316               208.7797
 Red. masses --      2.4090                 1.7818                 2.7186
 Frc consts  --      0.0501                 0.0393                 0.0698
 IR Inten    --      9.2512                11.3310                 9.3026
  Atom  AN      X      Y      Z        X      Y      Z        X      Y      Z
     1   6     0.01   0.03  -0.02    -0.03  -0.02   0.03    -0.06  -0.02  -0.08
     2   6     0.01   0.02  -0.01    -0.03  -0.02  -0.01     0.00  -0.03  -0.01
     3   6     0.03   0.02   0.02    -0.02   0.00  -0.03     0.05  -0.02   0.10
     4   6     0.03   0.03   0.03    -0.02   0.00  -0.03     0.06  -0.01   0.13
     5   6     0.03   0.04   0.03    -0.04   0.01  -0.01     0.03   0.00   0.13
     6   6     0.02   0.03   0.02    -0.04  -0.01   0.03    -0.03  -0.01   0.01
     7   1    -0.01   0.02  -0.04    -0.03  -0.03   0.06    -0.11  -0.02  -0.22
     8   1     0.01   0.02  -0.03    -0.02  -0.03  -0.01    -0.02  -0.04  -0.07
     9   1     0.04   0.04   0.06    -0.04   0.02   0.00     0.03   0.03   0.15
    10   1     0.01   0.03   0.03    -0.04  -0.01   0.06    -0.06   0.00  -0.03
    11   6     0.01   0.03   0.02     0.00   0.00  -0.02     0.02   0.00   0.04
    12   6     0.06   0.01   0.05    -0.02   0.00  -0.01     0.04  -0.01   0.07
    13   6     0.06   0.02   0.10    -0.02   0.00   0.00     0.01   0.00  -0.01
    14   1     0.05   0.03   0.07    -0.01  -0.01   0.03    -0.01   0.02  -0.08
    15   6     0.07   0.01   0.10    -0.01   0.00   0.02     0.02  -0.01   0.01
    16   1     0.08   0.00   0.14     0.00  -0.01   0.04     0.00   0.00  -0.05
    17   8     0.01   0.02  -0.01     0.00  -0.01  -0.05     0.02  -0.02   0.00
    18  17     0.06  -0.04  -0.04    -0.03   0.03   0.01     0.01   0.05  -0.02
    19   6    -0.08  -0.03  -0.06     0.05   0.00  -0.02    -0.06   0.01  -0.07
    20   6    -0.05  -0.03  -0.01     0.05   0.00  -0.02    -0.02   0.00  -0.01
    21   1    -0.07  -0.05   0.00     0.06   0.00  -0.01     0.05   0.00   0.05
    22   6    -0.09  -0.03  -0.08     0.13  -0.04   0.10     0.03  -0.03   0.08
    23   1    -0.13  -0.03  -0.11     0.00   0.08  -0.10     0.11  -0.06   0.15
    24   1    -0.09  -0.02  -0.06     0.36   0.16   0.36     0.14  -0.05   0.02
    25   1    -0.06  -0.07  -0.10     0.12  -0.43   0.21    -0.07  -0.02   0.18
    26   6    -0.13  -0.05  -0.06    -0.03   0.01  -0.08    -0.10   0.07  -0.17
    27   1    -0.26   0.14  -0.47    -0.12   0.13  -0.39    -0.02  -0.09   0.09
    28   1    -0.49  -0.33   0.15    -0.30  -0.12   0.08     0.11   0.39  -0.31
    29   1     0.24   0.01   0.14     0.21   0.03   0.01    -0.40  -0.01  -0.41
    30   6    -0.06   0.01   0.01     0.08   0.00   0.03    -0.03  -0.05  -0.09
    31   1    -0.08   0.01   0.05     0.07   0.00   0.04     0.02  -0.06  -0.11
    32   1    -0.02   0.03   0.03     0.09   0.02   0.03    -0.07  -0.09  -0.09
                     10                     11                     12
                      A                      A                      A
 Frequencies --    215.0389               225.3246               280.1403
 Red. masses --      2.6924                 6.5770                 4.5568
 Frc consts  --      0.0734                 0.1967                 0.2107
 IR Inten    --      0.9220                 6.3120                13.3709
  Atom  AN      X      Y      Z        X      Y      Z        X      Y      Z
     1   6    -0.01   0.00   0.12     0.13   0.19  -0.02     0.06  -0.04   0.06
     2   6    -0.03   0.01  -0.06     0.01   0.20   0.02     0.00  -0.02  -0.04
     3   6    -0.03   0.04  -0.14    -0.09   0.09   0.05    -0.03  -0.03  -0.08
     4   6    -0.03   0.06  -0.13    -0.05   0.02   0.04    -0.03  -0.03  -0.07
     5   6    -0.06   0.06  -0.08     0.07  -0.01  -0.01    -0.01  -0.04  -0.10
     6   6    -0.03   0.03   0.10     0.16   0.09  -0.04     0.04  -0.04   0.00
     7   1     0.02  -0.03   0.27     0.19   0.26  -0.05     0.11  -0.04   0.16
     8   1    -0.02  -0.02  -0.06    -0.03   0.29   0.03     0.00   0.00  -0.02
     9   1    -0.08   0.11  -0.11     0.09  -0.12  -0.05    -0.01  -0.07  -0.12
    10   1    -0.01   0.03   0.21     0.24   0.07  -0.08     0.07  -0.05   0.05
    11   6     0.00   0.03  -0.01    -0.06   0.02   0.02     0.02  -0.01   0.06
    12   6     0.01   0.03  -0.05    -0.09   0.06   0.05    -0.01  -0.04   0.03
    13   6     0.04   0.02   0.09    -0.08   0.04   0.00     0.05  -0.01   0.10
    14   1     0.05   0.01   0.12    -0.11   0.01   0.00     0.00  -0.02   0.05
    15   6     0.05   0.01   0.10    -0.07   0.09   0.04     0.04  -0.04   0.14
    16   1     0.09  -0.01   0.22    -0.09   0.09   0.04     0.10  -0.06   0.23
    17   8     0.02   0.00   0.01    -0.06   0.02  -0.01     0.06   0.05   0.22
    18  17     0.04   0.01   0.00    -0.03  -0.29  -0.03    -0.05   0.01   0.01
    19   6    -0.02  -0.05  -0.01     0.01   0.01  -0.02    -0.09   0.07  -0.14
    20   6     0.03  -0.06   0.04     0.02   0.00  -0.05    -0.09   0.05  -0.16
    21   1     0.05  -0.05   0.05     0.04   0.02  -0.04    -0.10   0.08  -0.22
    22   6    -0.02  -0.04   0.00     0.10  -0.03   0.11     0.06  -0.01   0.08
    23   1     0.04  -0.08   0.09     0.15  -0.02   0.14     0.21  -0.06   0.23
    24   1    -0.05  -0.10  -0.09     0.23   0.00   0.13     0.23  -0.04  -0.01
    25   1    -0.05   0.07   0.01     0.00  -0.09   0.23    -0.13   0.03   0.26
    26   6    -0.07  -0.03  -0.07    -0.01   0.04  -0.08     0.10   0.06   0.01
    27   1     0.03  -0.24   0.23     0.04  -0.05   0.07     0.08   0.21   0.02
    28   1     0.17   0.28  -0.21     0.11   0.22  -0.16     0.13  -0.16  -0.01
    29   1    -0.42  -0.09  -0.27    -0.17  -0.01  -0.21     0.26   0.09   0.12
    30   6     0.05  -0.10   0.05     0.05  -0.03   0.00    -0.11   0.03  -0.23
    31   1     0.08  -0.10   0.03     0.07  -0.04  -0.04    -0.07   0.03  -0.22
    32   1     0.04  -0.13   0.08     0.05  -0.06   0.02    -0.07  -0.01  -0.14
                     13                     14                     15
                      A                      A                      A
 Frequencies --    299.3196               333.9005               346.9676
 Red. masses --      2.9413                 3.2413                 6.3805
 Frc consts  --      0.1553                 0.2129                 0.4526
 IR Inten    --     13.8471                12.1406                28.0488
  Atom  AN      X      Y      Z        X      Y      Z        X      Y      Z
     1   6     0.04   0.01   0.02    -0.02   0.00  -0.02     0.11  -0.05  -0.06
     2   6     0.00   0.02   0.01    -0.01   0.00  -0.01     0.00  -0.03  -0.02
     3   6    -0.03   0.00  -0.02     0.02   0.01   0.02    -0.05  -0.10   0.04
     4   6    -0.02  -0.01   0.02    -0.01   0.01  -0.04    -0.09  -0.08   0.01
     5   6     0.00  -0.02  -0.02     0.00   0.01   0.00     0.05  -0.14  -0.02
     6   6     0.02   0.00  -0.03     0.00   0.00   0.03     0.14  -0.09  -0.02
     7   1     0.06   0.02   0.06    -0.04   0.00  -0.05     0.14   0.00  -0.11
     8   1    -0.01   0.04   0.02    -0.01  -0.01  -0.02    -0.03   0.08  -0.02
     9   1     0.01  -0.06  -0.03     0.00   0.02   0.02     0.07  -0.28  -0.06
    10   1     0.04   0.00  -0.05     0.01   0.00   0.08     0.19  -0.10  -0.02
    11   6     0.01  -0.01   0.09    -0.04   0.00  -0.10    -0.03   0.08  -0.04
    12   6    -0.03   0.00  -0.09     0.05   0.00   0.12     0.02  -0.11   0.06
    13   6     0.03  -0.02   0.03    -0.04   0.01  -0.10     0.08   0.06  -0.09
    14   1     0.02   0.02  -0.05    -0.05   0.00  -0.10     0.12   0.06  -0.03
    15   6    -0.03   0.00  -0.11     0.04  -0.01   0.12     0.11  -0.03   0.02
    16   1    -0.05   0.01  -0.18     0.04  -0.02   0.20     0.20  -0.05   0.01
    17   8    -0.01   0.04   0.15    -0.04   0.00  -0.12    -0.13   0.42   0.00
    18  17    -0.01   0.00   0.03     0.02   0.01  -0.03    -0.06   0.06   0.01
    19   6     0.04   0.02   0.11    -0.07   0.09   0.06     0.00   0.00  -0.01
    20   6     0.07   0.01   0.10    -0.05   0.07   0.00     0.02   0.00   0.00
    21   1     0.17   0.08   0.13     0.03   0.18  -0.06     0.01  -0.03   0.03
    22   6    -0.05  -0.05  -0.09    -0.05  -0.12   0.03     0.01  -0.11  -0.02
    23   1    -0.24  -0.08  -0.16    -0.16  -0.26   0.15    -0.03  -0.20   0.08
    24   1    -0.10  -0.05  -0.08     0.08  -0.19  -0.11     0.09  -0.16  -0.12
    25   1     0.12  -0.11  -0.26    -0.02  -0.12   0.00     0.01  -0.08  -0.02
    26   6    -0.04   0.14  -0.07     0.08   0.14   0.11    -0.12  -0.08   0.00
    27   1    -0.11   0.23  -0.31     0.05   0.27   0.10    -0.08  -0.27   0.06
    28   1    -0.27   0.19   0.07     0.08  -0.02   0.11    -0.07   0.05  -0.02
    29   1     0.14   0.08  -0.15     0.25   0.15   0.17    -0.34  -0.07  -0.02
    30   6     0.03  -0.14  -0.11     0.05  -0.19   0.00     0.07   0.03   0.12
    31   1     0.17  -0.18  -0.22     0.23  -0.24  -0.21     0.03   0.04   0.14
    32   1    -0.06  -0.29  -0.03    -0.09  -0.36   0.05     0.07   0.08   0.05
                     16                     17                     18
                      A                      A                      A
 Frequencies --    372.0253               392.1511               408.5410
 Red. masses --      5.4302                 4.3503                 2.6994
 Frc consts  --      0.4428                 0.3942                 0.2655
 IR Inten    --      0.7397                 1.0535                 4.3656
  Atom  AN      X      Y      Z        X      Y      Z        X      Y      Z
     1   6     0.01   0.02   0.02     0.01  -0.05  -0.02     0.02  -0.03  -0.02
     2   6    -0.04   0.03   0.06     0.11  -0.07   0.04     0.05  -0.03   0.01
     3   6    -0.06   0.02  -0.02     0.07  -0.03  -0.07     0.02  -0.03  -0.02
     4   6    -0.06  -0.03   0.08     0.10   0.05   0.02     0.02   0.02  -0.01
     5   6     0.00  -0.06   0.03     0.06   0.07   0.07     0.03   0.02   0.02
     6   6     0.00  -0.02  -0.07    -0.03   0.04  -0.06     0.01   0.01  -0.02
     7   1     0.05   0.06   0.03    -0.04  -0.10  -0.01     0.00  -0.05  -0.03
     8   1    -0.03   0.06   0.11     0.14  -0.12   0.10     0.06  -0.03   0.05
     9   1     0.02  -0.11   0.04     0.07   0.12   0.14     0.05   0.01   0.06
    10   1     0.01  -0.02  -0.16    -0.12   0.06  -0.12    -0.02   0.02  -0.02
    11   6    -0.11  -0.07   0.11     0.10   0.06   0.01     0.02   0.05  -0.02
    12   6     0.01   0.04  -0.21    -0.09  -0.01  -0.15    -0.01  -0.03  -0.03
    13   6     0.03  -0.10   0.17     0.06   0.07   0.16     0.03   0.04   0.02
    14   1     0.09  -0.04   0.19     0.06   0.05   0.18     0.05   0.05   0.04
    15   6    -0.03  -0.04  -0.12    -0.01   0.03  -0.06     0.03   0.00   0.00
    16   1    -0.12  -0.01  -0.15     0.07   0.01  -0.10     0.09  -0.01   0.00
    17   8    -0.18   0.02  -0.02     0.10  -0.01  -0.10     0.00   0.08  -0.05
    18  17     0.19   0.06  -0.02    -0.13  -0.05   0.06    -0.05  -0.01   0.02
    19   6    -0.08   0.03  -0.07    -0.04   0.09  -0.02    -0.04  -0.11   0.01
    20   6    -0.10   0.04  -0.16    -0.05   0.10  -0.09    -0.06  -0.11   0.01
    21   1    -0.21   0.10  -0.38    -0.13   0.17  -0.29    -0.09  -0.11  -0.04
    22   6     0.00  -0.02   0.07     0.00  -0.10  -0.03    -0.08   0.12   0.07
    23   1     0.08  -0.05   0.14    -0.10  -0.27   0.13     0.11   0.32  -0.08
    24   1     0.17  -0.02   0.04     0.16  -0.20  -0.20    -0.25   0.22   0.26
    25   1    -0.11  -0.06   0.20     0.02  -0.10  -0.04    -0.15   0.15   0.14
    26   6     0.03   0.03   0.00    -0.08   0.01   0.07     0.14   0.06  -0.10
    27   1     0.04   0.09   0.08    -0.05  -0.13   0.12     0.10   0.35  -0.07
    28   1     0.11  -0.03  -0.05    -0.03  -0.01   0.04     0.16   0.05  -0.11
    29   1     0.07   0.04   0.03    -0.20   0.06   0.15     0.39  -0.04  -0.24
    30   6     0.03  -0.05   0.14     0.04  -0.02   0.06    -0.04  -0.12   0.08
    31   1     0.11  -0.07   0.13     0.15  -0.06  -0.04    -0.06  -0.12   0.04
    32   1     0.15  -0.12   0.34     0.09  -0.16   0.27     0.00  -0.12   0.13
                     19                     20                     21
                      A                      A                      A
 Frequencies --    438.5162               471.9766               488.3104
 Red. masses --      2.9602                 2.4230                 5.7490
 Frc consts  --      0.3354                 0.3180                 0.8077
 IR Inten    --      2.8706                 4.6214                 0.4210
  Atom  AN      X      Y      Z        X      Y      Z        X      Y      Z
     1   6    -0.03   0.03  -0.04     0.00  -0.03  -0.02     0.13  -0.06   0.06
     2   6     0.03   0.01   0.18     0.03  -0.03   0.03     0.13  -0.07  -0.12
     3   6    -0.07   0.03  -0.13     0.01   0.00  -0.05     0.08  -0.09  -0.10
     4   6    -0.04  -0.02  -0.06     0.00   0.01  -0.04     0.04   0.15   0.14
     5   6     0.05  -0.04   0.19     0.03   0.01   0.04     0.05   0.21   0.01
     6   6    -0.04   0.00  -0.11     0.00  -0.01  -0.02     0.01   0.20  -0.07
     7   1    -0.01   0.05  -0.02     0.00  -0.04  -0.01     0.06  -0.20   0.21
     8   1     0.13  -0.01   0.46     0.06  -0.05   0.12     0.11  -0.01  -0.15
     9   1     0.14  -0.07   0.44     0.06   0.01   0.12     0.03   0.17  -0.07
    10   1    -0.04   0.00  -0.20    -0.02   0.00  -0.01    -0.17   0.24  -0.16
    11   6    -0.02  -0.01  -0.07    -0.01   0.00  -0.01    -0.16   0.04   0.12
    12   6    -0.04   0.02  -0.12     0.00   0.01   0.03     0.03  -0.14  -0.06
    13   6     0.00  -0.02  -0.04    -0.08   0.02  -0.10    -0.15   0.01  -0.08
    14   1    -0.01  -0.05  -0.01    -0.06  -0.01  -0.03    -0.03   0.20  -0.20
    15   6     0.04  -0.01   0.12    -0.01  -0.02   0.07    -0.01  -0.25   0.06
    16   1     0.10  -0.05   0.39     0.01  -0.03   0.19     0.07  -0.28   0.18
    17   8     0.00   0.02   0.01     0.02  -0.02   0.11    -0.18  -0.02   0.03
    18  17     0.01   0.01   0.00     0.02   0.00  -0.01     0.00   0.00   0.00
    19   6    -0.01   0.00  -0.03     0.09  -0.03   0.15     0.00   0.01  -0.02
    20   6     0.05  -0.01   0.08    -0.06  -0.02  -0.17     0.04   0.00   0.05
    21   1     0.16  -0.05   0.26    -0.27   0.05  -0.52     0.13  -0.03   0.21
    22   6     0.01   0.00   0.00    -0.01  -0.01   0.00     0.02  -0.01   0.00
    23   1     0.02   0.00   0.01    -0.11   0.00  -0.06     0.03  -0.01   0.02
    24   1     0.03   0.00   0.00    -0.16  -0.03   0.01     0.07   0.01   0.01
    25   1    -0.02  -0.01   0.03     0.13   0.03  -0.16    -0.01  -0.03   0.04
    26   6     0.00  -0.02   0.00    -0.04   0.05  -0.02     0.00  -0.02   0.01
    27   1     0.01  -0.04   0.04    -0.07   0.03  -0.13     0.01  -0.03   0.01
    28   1     0.04  -0.07  -0.02    -0.16   0.36   0.05     0.01  -0.07   0.00
    29   1    -0.01   0.00   0.05    -0.09  -0.06  -0.25     0.00   0.01   0.06
    30   6     0.00   0.01  -0.07     0.02   0.04   0.06     0.01   0.03  -0.03
    31   1     0.00   0.01  -0.02    -0.13   0.08  -0.05     0.01   0.03   0.03
    32   1    -0.09   0.05  -0.20     0.20   0.08   0.21    -0.05   0.08  -0.16
                     22                     23                     24
                      A                      A                      A
 Frequencies --    492.9599               530.7941               538.9297
 Red. masses --      4.0772                 3.0712                 4.4966
 Frc consts  --      0.5838                 0.5098                 0.7695
 IR Inten    --      2.0424                 1.7274                 4.7038
  Atom  AN      X      Y      Z        X      Y      Z        X      Y      Z
     1   6     0.04  -0.03   0.20     0.01  -0.10  -0.03    -0.02   0.19   0.04
     2   6    -0.10   0.02  -0.11     0.00  -0.07   0.01     0.02   0.14   0.00
     3   6    -0.05   0.03  -0.05     0.03   0.02  -0.02    -0.07  -0.05   0.00
     4   6     0.10  -0.08   0.27     0.02   0.03  -0.03    -0.06  -0.05   0.03
     5   6     0.00  -0.09   0.00     0.07   0.00  -0.02    -0.14  -0.01   0.06
     6   6    -0.05  -0.09  -0.14     0.02  -0.08  -0.01    -0.03   0.15   0.00
     7   1     0.16   0.01   0.39     0.03  -0.08  -0.03    -0.05   0.15   0.08
     8   1    -0.15   0.02  -0.26     0.02  -0.11   0.03     0.00   0.22   0.02
     9   1    -0.08  -0.06  -0.21     0.08   0.01   0.01    -0.13  -0.05   0.05
    10   1    -0.11  -0.07  -0.43    -0.05  -0.06   0.04     0.11   0.12  -0.07
    11   6     0.08   0.00   0.05    -0.02   0.03   0.02     0.04  -0.04  -0.02
    12   6    -0.05   0.07  -0.09    -0.03   0.07   0.03     0.07  -0.15  -0.01
    13   6    -0.01   0.05  -0.12    -0.10   0.04   0.02     0.13  -0.07  -0.10
    14   1    -0.07   0.01  -0.14    -0.12   0.01   0.04     0.20  -0.02  -0.08
    15   6     0.05   0.08   0.12    -0.08   0.05   0.04     0.14  -0.14  -0.03
    16   1     0.12   0.05   0.37    -0.09   0.06   0.06     0.21  -0.16   0.01
    17   8     0.06   0.01  -0.10    -0.02   0.04   0.02     0.06  -0.05   0.01
    18  17     0.01   0.00   0.00     0.03   0.00  -0.01    -0.05   0.01   0.01
    19   6     0.01  -0.01   0.03     0.11   0.04  -0.05     0.08   0.02  -0.01
    20   6    -0.03  -0.01   0.00    -0.13   0.09   0.09    -0.15   0.08   0.00
    21   1    -0.05  -0.01  -0.02    -0.18   0.02   0.14    -0.28   0.04  -0.11
    22   6    -0.02   0.00   0.00     0.16   0.08  -0.07     0.11   0.06  -0.05
    23   1    -0.03   0.01  -0.02     0.20   0.13  -0.12     0.13   0.09  -0.09
    24   1    -0.07   0.00   0.00     0.11   0.10  -0.03     0.04   0.07  -0.02
    25   1     0.02   0.03  -0.04     0.16   0.09  -0.08     0.13   0.08  -0.08
    26   6     0.00   0.01   0.00     0.01  -0.06  -0.03     0.00  -0.04  -0.02
    27   1    -0.01   0.03  -0.01     0.02  -0.30  -0.13     0.00  -0.20  -0.11
    28   1    -0.02   0.02   0.02    -0.08  -0.08   0.02    -0.08  -0.01   0.03
    29   1     0.02   0.00  -0.02    -0.13   0.01   0.09    -0.10   0.00   0.03
    30   6    -0.02   0.00   0.01    -0.12  -0.10   0.06    -0.09  -0.07   0.09
    31   1    -0.06   0.00  -0.07     0.17  -0.19  -0.18     0.11  -0.13  -0.08
    32   1    -0.04   0.00  -0.02    -0.36  -0.41   0.16    -0.24  -0.28   0.18
                     25                     26                     27
                      A                      A                      A
 Frequencies --    586.5636               618.4616               663.3318
 Red. masses --      5.1295                 3.2900                 6.9754
 Frc consts  --      1.0398                 0.7414                 1.8083
 IR Inten    --      6.0499                 1.3660                30.9686
  Atom  AN      X      Y      Z        X      Y      Z        X      Y      Z
     1   6     0.09  -0.08  -0.06     0.03  -0.01   0.10     0.04   0.08   0.00
     2   6    -0.13  -0.04   0.06    -0.03   0.01  -0.10     0.24   0.01  -0.10
     3   6    -0.17  -0.07   0.01    -0.04   0.03  -0.16     0.01  -0.19  -0.02
     4   6    -0.17   0.06   0.01    -0.01   0.00  -0.07    -0.06  -0.15  -0.01
     5   6     0.04  -0.04  -0.02     0.05  -0.01   0.12    -0.26  -0.15   0.09
     6   6     0.09  -0.03  -0.03    -0.06   0.00  -0.15    -0.02   0.11   0.00
     7   1     0.18   0.00  -0.05     0.17  -0.04   0.50    -0.11  -0.11   0.09
     8   1    -0.16   0.13   0.18     0.06  -0.04   0.16     0.23   0.07  -0.08
     9   1     0.12  -0.24   0.03     0.15  -0.01   0.41    -0.22  -0.28   0.11
    10   1     0.06  -0.03   0.06    -0.05   0.00  -0.13     0.21   0.06  -0.08
    11   6    -0.07   0.19   0.09     0.02  -0.02   0.04     0.09   0.09  -0.03
    12   6     0.01  -0.10   0.01     0.09  -0.02   0.28    -0.18  -0.10   0.06
    13   6     0.01   0.28   0.03     0.03  -0.03   0.04    -0.21   0.17   0.13
    14   1     0.16   0.49  -0.06    -0.01   0.00  -0.05    -0.28   0.04   0.24
    15   6     0.13   0.03  -0.03    -0.03   0.04  -0.11    -0.19  -0.01   0.03
    16   1     0.34  -0.02  -0.14    -0.16   0.09  -0.47    -0.06  -0.04  -0.11
    17   8     0.04  -0.24  -0.06    -0.02   0.01  -0.02     0.14   0.07  -0.06
[...]
 2144,-0.00037909,-0.00000223,-0.00001466,0.00000810,0.00000697,0.00000
 581,0.00000997,0.00021050,-0.00015414,0.00032230,0.00001835,-0.0000124
 2,0.00000232,0.00114499,0.00054144,-0.00033398,-0.00005946,0.00040974,
 -0.00000308,-0.00020580,-0.00054631,0.00026049,-0.00001480,0.00000855,
 -0.00005196,0.00036200,-0.00019949,-0.00015154,0.00001825,0.00001209,-
 0.00001033,-0.00099515,-0.00006587,-0.00056738,0.00009118,0.00001799,-
 0.00002683,-0.00792783,-0.00165688,0.00172543,0.00024328,-0.00036857,0
 .00050611,-0.00000111,0.00006105,-0.00008207,0.00042922,0.00209847,0.0
 0066230,-0.00036294,-0.00029939,0.00019733,0.00004196,-0.00002700,-0.0
 0007691,0.00025838,-0.00004390,-0.00020621,-0.30802398,-0.03843857,0.0
 6348576,0.32919492,-0.00014551,-0.00019707,0.00004485,-0.00010990,0.00
 022029,0.00011228,0.00003072,-0.00015483,-0.00006130,-0.00002769,0.000
 05831,-0.00009777,-0.00013322,0.00016444,0.00008360,0.00025889,-0.0002
 3441,-0.00028629,-0.00001228,-0.00000579,0.00001550,0.00000029,0.00000
 555,-0.00000904,-0.00023755,-0.00016772,0.00018816,0.00000182,-0.00000
 657,0.00000196,-0.00086700,-0.00006934,-0.00017311,-0.00005652,0.00031
 489,0.00008096,-0.00065371,0.00015685,-0.00047951,0.00005897,-0.000037
 81,0.00009093,0.00021813,-0.00017196,-0.00016319,0.00000444,0.00000056
 ,-0.00001708,0.00118109,-0.00023633,0.00071403,0.00001788,-0.00003229,
 -0.00000728,0.02379331,0.00849215,-0.00333884,-0.00165205,-0.00030725,
 0.00119956,-0.00013469,0.00022893,-0.00018751,0.00029381,-0.00303565,-
 0.00262147,0.00087146,0.00037275,-0.00080223,0.00009777,0.00007034,-0.
 00027756,-0.00024529,-0.00018758,0.00020048,-0.03917202,-0.05370622,0.
 00868673,0.04251009,0.05554659,-0.00004638,-0.00006281,-0.00004835,0.0
 0004149,0.00006311,-0.00006042,-0.00027515,-0.00028134,0.00018467,-0.0
 0030995,-0.00020475,-0.00009606,-0.00013558,0.00050390,-0.00007664,0.0
 0007900,0.00000280,0.00009366,0.00003157,-0.00001578,-0.00000210,0.000
 02930,-0.00001122,0.00000596,0.00017548,0.00023213,-0.00015331,0.00001
 671,-0.00003861,-0.00001084,-0.00081818,-0.00122628,-0.00144999,-0.000
 22539,0.00017300,0.00010747,-0.00030226,0.00032411,-0.00014954,0.00003
 774,0.00003425,0.00004108,0.00018755,0.00000645,-0.00006992,0.00001709
 ,0.00001680,-0.00000153,0.00084855,0.00036904,0.00120776,0.00016217,0.
 00007403,-0.00004889,0.01939403,0.00496848,-0.00726710,-0.00105664,0.0
 0028470,0.00022018,-0.00000410,0.00007074,-0.00015462,0.00057377,-0.00
 405441,-0.00193095,0.00119577,0.00003020,-0.00035723,-0.00027279,-0.00
 007912,0.00029320,0.00005781,0.00012843,0.00025408,0.06042429,0.008653
 18,-0.05582998,-0.06727455,-0.00684053,0.05954702,-0.00022318,-0.00019
 113,0.00010244,-0.00010128,0.00024721,0.00011295,0.00028154,0.00006712
 ,-0.00017299,-0.00020702,0.00011118,-0.00002038,-0.00037308,0.00024544
 ,-0.00031093,0.00028724,-0.00021543,-0.00024581,-0.00001484,-0.0000027
 9,0.00000393,-0.00000776,0.00001216,0.00000424,-0.00003649,-0.00007929
 ,0.00015307,0.00000264,0.00001281,0.00000272,0.00025250,0.00067801,0.0
 0072804,0.00011557,0.00012925,-0.00007523,0.00028895,-0.00022083,0.000
 18522,-0.00000461,-0.00000678,-0.00006099,-0.00005259,-0.00020433,0.00
 002368,0.00000963,0.00000720,-0.00000848,0.00065239,0.00010714,0.00071
 833,0.00007982,-0.00000390,-0.00003166,0.00544895,-0.00139918,0.008976
 98,0.00056207,0.00067303,0.00004391,-0.00025524,-0.00002700,-0.0004381
 8,-0.00043251,-0.00049989,-0.00053804,0.00004517,0.00000535,-0.0002659
 8,0.00008574,0.00021304,0.00005911,-0.00029049,0.00021197,0.00018471,-
 0.11816996,0.00204686,-0.11974012,-0.01256268,0.00053053,-0.02549204,0
 .12350573,-0.00014364,-0.00009247,-0.00000723,0.00002388,0.00020440,0.
 00002016,-0.00017699,-0.00049937,-0.00006056,0.00024925,-0.00032936,0.
 00012654,-0.00006508,-0.00001458,0.00029028,0.00023518,0.00008732,-0.0
 0002065,0.00000913,0.00000850,-0.00001207,-0.00000423,-0.00000323,0.00
 000849,0.00005789,0.00011691,-0.00021497,0.00000482,0.00000759,0.00002
 517,0.00052998,-0.00014858,0.00024269,-0.00008319,0.00050383,0.0001202
 9,-0.00102384,0.00014371,-0.00034532,0.00005816,-0.00003052,0.00012886
 ,0.00056843,0.00009679,-0.00023360,-0.00002309,-0.00001888,-0.00001104
 ,0.00011008,0.00000233,-0.00164901,-0.00019661,-0.00005941,0.00006261,
 -0.01300610,-0.00172107,-0.01916861,0.00041533,-0.00123289,0.00015005,
 0.00046125,-0.00007452,0.00082033,-0.00019064,0.00023041,0.00056391,-0
 .00003212,-0.00008664,0.00025126,-0.00001951,0.00006847,0.00011978,0.0
 0015616,0.00014925,-0.00004180,0.00066298,-0.04339869,0.00018771,-0.00
 222618,-0.00104801,-0.00398949,-0.00233253,0.04472428,0.00007221,0.000
 02856,-0.00001055,-0.00000909,-0.00003078,-0.00001858,-0.00004991,-0.0
 0004275,0.00003386,-0.00001968,0.00008841,0.00015287,0.00000473,0.0000
 6208,-0.00006333,-0.00007178,0.00002513,0.00002188,-0.00001166,0.00000
 771,0.00000543,-0.00000306,-0.00000579,-0.00000746,-0.00000573,-0.0000
 8923,0.00005869,-0.00000612,0.00001025,-0.00000345,0.00143201,0.000125
 33,-0.00045655,0.00008374,-0.00010152,-0.00003229,-0.00004041,-0.00026
 649,0.00036093,-0.00000340,0.00001188,-0.00002589,-0.00002508,0.000184
 90,0.00004322,-0.00003233,-0.00002031,0.00000589,-0.00094083,-0.001113
 04,-0.00121000,-0.00020122,-0.00004934,0.00006680,-0.00961264,-0.00161
 111,-0.01607504,0.00204783,0.00124375,0.00056199,0.00024897,-0.0001476
 8,0.00038530,-0.00008450,0.00004952,0.00064523,0.00028679,-0.00012923,
 0.00035528,-0.00016816,-0.00018486,0.00016258,0.00059951,0.00001313,-0
 .00012239,-0.12221971,0.00267160,-0.23960492,0.00451141,0.00002698,0.0
 0751672,0.13143107,0.00076446,0.25765170,0.00014953,0.00014250,-0.0000
 6049,0.00015355,-0.00017865,-0.00008305,0.00004147,0.00032272,0.000007
 10,-0.00011400,0.00002121,-0.00006214,-0.00037170,-0.00043065,0.000158
 02,-0.00013068,0.00027077,0.00024278,0.00003365,0.00000359,-0.00002165
 ,0.00000542,-0.00000213,-0.00000088,-0.00036767,0.00038909,-0.00099261
 ,-0.00001692,0.00000535,-0.00000929,0.00042968,-0.00021998,-0.00016985
 ,0.00001996,-0.00043468,-0.00007278,0.00061708,-0.00007496,0.00046226,
 -0.00001660,0.00002666,-0.00008097,-0.00036377,0.00011377,0.00017332,0
 .00000583,0.00000741,0.00001663,-0.00094885,0.00024474,-0.00023210,0.0
 0006858,0.00006394,-0.00002013,0.00091316,0.00808524,-0.00687301,0.000
 68942,0.00215635,0.00188677,0.00045338,0.00039352,0.00030837,0.0000505
 7,0.00061302,-0.00033839,0.00001305,-0.00016615,-0.00014314,0.00005276
 ,0.00023968,0.00043924,-0.00014613,0.00008521,-0.00013598,-0.05102211,
 -0.02784629,0.01638080,-0.00057842,-0.02611673,0.01249659,0.00165127,0
 .01524621,-0.00612395,0.04968088,-0.00012931,-0.00002562,-0.00004564,0
 .00007249,0.00011463,-0.00001941,-0.00007384,-0.00037019,0.00001022,0.
 00013891,-0.00036560,-0.00039478,0.00025886,-0.00023267,0.00060228,0.0
 0019194,0.00005916,-0.00003128,0.00001528,0.00000243,-0.00000827,-0.00
 000028,-0.00000493,0.00001749,0.00027350,0.00028650,0.00008652,0.00001
 402,-0.00000561,0.00003651,-0.00178046,-0.00094051,0.00032604,-0.00002
 518,0.00031337,0.00010396,-0.00037932,0.00080784,-0.00070071,0.0000269
 2,-0.00001547,0.00012655,0.00026098,0.00007770,-0.00012899,-0.00000120
 ,-0.00000339,0.00000179,0.00192298,0.00116659,0.00097404,-0.00010100,-
 0.00002727,0.00001865,-0.00365790,-0.02012659,0.00990593,0.00173028,-0
 .00267360,-0.00244786,-0.00060345,-0.00093340,-0.00044368,-0.00120658,
 0.00107771,0.00092888,-0.00032132,0.00033812,-0.00012171,0.00059980,0.
 00035851,-0.00060704,0.00003552,-0.00008740,-0.00008897,-0.02767746,-0
 .26967294,0.11014886,0.00087574,-0.00197249,0.00029168,0.00038377,0.00
 217963,-0.00153242,0.02742818,0.29021303,-0.00001655,-0.00012902,0.000
 03954,-0.00004321,0.00010000,0.00000407,-0.00002814,-0.00006653,0.0000
 1123,0.00018096,-0.00007052,0.00008585,-0.00066049,0.00018639,-0.00020
 791,0.00017167,0.00003938,-0.00011966,0.00001724,0.00000119,0.00000601
 ,0.00000396,0.00000019,-0.00001014,-0.00070398,0.00023126,-0.00047724,
 0.00000770,-0.00002195,-0.00000467,-0.00061190,-0.00028056,0.00006851,
 -0.00000985,0.00008734,0.00001423,-0.00001560,0.00017710,-0.00025220,0
 .00001764,-0.00001083,0.00001433,0.00011756,-0.00000989,0.00000420,0.0
 0000538,0.00000390,-0.00001049,0.00083384,0.00007500,0.00055682,0.0000
 3589,0.00001380,-0.00000267,-0.00305505,-0.02007049,0.00770457,0.00202
 542,-0.00255909,-0.00192486,-0.00053472,-0.00089629,-0.00022769,-0.000
 44156,-0.00048639,0.00062622,-0.00019031,0.00002231,0.00007307,0.00014
 929,0.00008117,-0.00030853,-0.00002967,0.00016089,0.00003327,0.0155383
 6,0.11434744,-0.09854192,-0.00075539,0.00408418,-0.00295137,0.00435216
 ,0.02235983,-0.00978597,-0.01662746,-0.11742416,0.10529832,0.00369179,
 0.00368563,-0.00094530,0.00154617,-0.00584780,-0.00111145,0.00288016,0
 .01194869,0.00067669,-0.00795922,0.00730225,0.00449501,0.00129188,-0.0
 0510834,-0.00128591,-0.00445247,0.00076850,0.00170710,0.00007515,-0.00
 002007,-0.00003540,0.00006768,-0.00005313,0.00000104,-0.00000279,-0.00
 019044,0.00008101,-0.00001467,-0.00014853,0.00003636,0.04529773,0.0412
 1228,-0.02141402,0.00459484,-0.01742515,-0.00641870,0.03169186,-0.0310
 8714,0.05254976,-0.00289787,0.00177638,-0.00611845,-0.03221638,0.00319
 977,0.00025998,0.00048235,0.00026631,0.00051045,-0.06206044,-0.0070603
 3,-0.01647408,0.00106808,0.00054865,0.00015229,0.00449451,-0.07380062,
 0.03731982,-0.33171062,-0.02911012,0.11502879,-0.01431735,-0.00700361,
 0.00284084,0.00433713,0.00091242,0.00313442,0.00028128,0.00008045,-0.0
 0043636,0.00000723,0.00002271,-0.00127755,0.00086690,0.00097659,-0.001
 45719,-0.00190798,0.00329814,-0.00133252,-0.00100014,0.00088505,0.0007
 2131,-0.00061305,0.00090130,-0.00112943,-0.00165015,0.00182578,0.00049
 091,0.56411243,0.00002356,-0.00014553,0.00001717,0.00001244,0.00007527
 ,-0.00002773,0.00014499,-0.00072235,0.00006848,0.00064710,-0.00028107,
 -0.00088393,-0.00023205,0.00023959,0.00018108,0.00035929,0.00015630,-0
 .00002010,0.00000144,0.00001270,-0.00000050,0.00002881,-0.00002301,-0.
 00000527,-0.00002023,0.00019364,0.00001044,-0.00001352,-0.00000861,-0.
 00004275,0.00051782,-0.00029207,0.00590157,0.00009829,-0.00015874,-0.0
 0002390,0.00127505,-0.01618313,-0.00133968,-0.00234314,0.00083645,-0.0
 0441268,-0.00027478,0.00054407,-0.00094707,-0.00017354,-0.00010193,-0.
 00012813,-0.00371308,-0.00361798,0.00114827,-0.00032107,-0.00010221,0.
 00013284,-0.03070534,-0.01335325,0.01632419,-0.08504937,-0.12738771,0.
 01951421,0.01884977,0.00901492,-0.00820957,0.00045950,-0.00473161,0.00
 017635,0.00000898,0.00024757,0.00019000,-0.00112074,-0.00005650,0.0003
 4771,-0.00025717,0.00001301,-0.00005594,0.00007689,-0.00080998,0.00137
 695,-0.00133728,-0.00125068,0.00024848,-0.00030394,0.00029251,0.000094
 85,-0.00045470,0.00028940,0.00001284,0.06696239,0.66164036,0.00278601,
 0.00265889,-0.00073525,0.00116015,-0.00445948,-0.00097048,0.00236849,0
 .00921873,0.00102111,-0.00449754,0.00501273,0.00200767,0.00102288,-0.0
 0368401,-0.00073461,-0.00327490,0.00064235,0.00117172,0.00006365,-0.00
 002053,-0.00002386,0.00005978,-0.00002918,0.00000006,-0.00003120,-0.00
 007436,0.00004622,-0.00002124,-0.00010670,0.00004225,0.01967068,0.0197
 1789,-0.01551395,0.00510307,-0.01310917,-0.00256241,0.03229244,-0.0166
 2192,0.01592010,-0.00667577,0.00280045,-0.01159133,-0.01858848,0.00102
 488,0.00373022,0.00033532,0.00019158,0.00031832,-0.02361052,-0.0028394
 7,-0.00270226,0.00109139,0.00074094,-0.00047499,0.00724319,-0.01037216
 ,0.01180056,0.14358917,0.03344638,-0.10611041,0.01450501,0.00585712,-0
 .00349570,0.00329832,-0.00046422,0.00410967,-0.00033312,0.00008190,0.0
 0030703,-0.00044093,-0.00005823,0.00030956,0.00077421,0.00078589,-0.00
 054472,-0.00334999,0.00214443,-0.00282678,0.00050867,-0.00010217,0.000
 51557,0.00064116,-0.00039367,-0.00063741,-0.00015218,0.00057809,0.0003
 1732,-0.28586407,0.06199240,0.27016543,0.00005782,0.00013445,-0.000006
 16,0.00005415,-0.00014585,-0.00000833,-0.00003468,0.00031087,-0.000117
 20,-0.00032128,0.00028631,0.00006811,0.00006715,-0.00025385,-0.0000311
 9,-0.00021390,-0.00002444,0.00005784,0.00000181,-0.00000315,-0.0000023
 2,-0.00001556,0.00001638,0.00000262,0.00000267,-0.00003237,0.00000385,
 -0.00000306,0.00000613,0.00000654,-0.00036521,-0.00166071,0.00064521,-
 0.00015314,0.00012859,0.00022285,-0.00168662,0.00462403,-0.00322249,0.
 00045592,-0.00010799,0.00047321,0.00056641,0.00061992,-0.00037888,-0.0
 0015586,-0.00019146,-0.00005634,0.00109646,0.00073111,-0.00021352,0.00
 009440,0.00001527,-0.00004196,-0.00450877,0.00025112,0.00418620,-0.001
 04543,-0.03011932,0.00195135,-0.00027179,0.00081554,-0.00239294,-0.000
 20692,-0.00104925,-0.00039996,0.00003895,0.00008421,-0.00001997,-0.000
 26321,-0.00012348,0.00010364,-0.00021831,-0.00011632,0.00012854,-0.000
 22890,0.00065773,0.00018547,0.00028449,-0.00005423,-0.00013412,0.00006
 416,-0.00003214,-0.00003529,0.00017922,-0.00008017,-0.00005688,-0.0632
 5431,-0.06430014,0.01106273,0.06466148,0.00010798,0.00014359,-0.000023
 34,0.00009000,-0.00017897,-0.00004580,0.00000842,0.00040829,0.00011341
 ,-0.00008585,0.00020826,0.00014723,-0.00000201,-0.00009878,0.00004161,
 -0.00013073,0.00006148,0.00003972,0.00000089,0.00000437,-0.00000158,0.
 00000268,-0.00000910,0.00000084,0.00000247,0.00001219,-0.00000716,-0.0
 0000466,0.00000344,-0.00000618,-0.00052698,-0.00016221,-0.00030032,0.0
 0033571,-0.00066868,-0.00030474,0.00072707,-0.00009674,0.00018399,-0.0
 0019779,0.00027143,-0.00004445,-0.00078037,0.00057396,-0.00008458,0.00
 015479,-0.00004447,0.00018532,0.00040440,0.00018209,-0.00019411,-0.000
 06858,0.00000311,0.00002198,-0.00134708,0.00090447,-0.00078201,0.00251
 947,-0.00120856,-0.00149365,0.00025146,0.00055408,0.00043552,0.0003369
 5,-0.00033621,0.00022944,-0.00001417,0.00001769,-0.00000665,-0.0001462
 4,-0.00001564,0.00003835,0.00002733,0.00000301,-0.00004014,0.00022364,
 -0.00003122,0.00016842,-0.00022196,0.00014804,0.00008721,-0.00006445,0
 .00000078,0.00001718,-0.00011154,-0.00002791,-0.00000495,-0.07020079,-
 0.33703120,0.01037068,0.07445614,0.34690156,-0.00039992,-0.00029597,0.
 00010676,-0.00016811,0.00050891,0.00013555,-0.00030356,-0.00088573,-0.
 00007233,0.00046944,-0.00074125,0.00015938,-0.00002466,0.00045030,0.00
 008486,0.00032049,-0.00019271,-0.00015687,-0.00000492,-0.00000907,0.00
 000160,-0.00002036,0.00002020,0.00000216,0.00000970,-0.00005887,-0.000
 00796,0.00000404,0.00001489,0.00000092,-0.00237748,-0.00370691,0.00039
 000,-0.00061869,0.00149439,0.00050372,-0.00477401,0.00934486,-0.007311
 36,0.00056761,0.00033380,0.00063657,0.00265732,-0.00003055,-0.00070885
 ,-0.00023549,-0.00011159,-0.00001063,0.00427939,0.00147565,0.00049319,
 0.00011897,-0.00000781,-0.00006063,0.00246384,0.00235970,0.00251849,-0
 .00136603,0.00333217,0.00400014,-0.00226604,0.00109465,-0.00310412,-0.
 00051302,0.00049453,-0.00043456,-0.00002173,-0.00000542,-0.00000795,0.
 00009644,-0.00005802,-0.00004677,-0.00007921,-0.00010289,0.00019011,0.
 00024315,-0.00019988,0.00016932,-0.00022017,0.00028349,-0.00003032,0.0
 0006021,-0.00000755,-0.00002917,-0.00027947,-0.00005503,0.00002076,0.0
 1731410,0.01131602,-0.03786448,-0.01074236,-0.01124091,0.03593969,-0.0
 0008314,-0.00019733,0.00000217,-0.00014231,0.00024472,0.00007318,0.000
 04095,-0.00010130,0.00019731,0.00046666,-0.00031728,-0.00044413,-0.000
 04693,0.00021958,0.00018434,0.00020376,0.00003380,-0.00008281,-0.00000
 839,-0.00000239,-0.00000151,0.00000251,0.00000213,-0.00001083,0.000000
 02,-0.00001841,-0.00000009,-0.00000482,-0.00000207,-0.00000419,-0.0015
 6337,-0.00194844,-0.00021874,0.00015720,0.00018315,0.00125193,-0.00137
 089,-0.00080240,-0.00678743,-0.00036863,0.00007898,-0.00045957,0.00220
 795,-0.00034874,-0.00115168,-0.00002576,-0.00003478,-0.00002221,0.0019
 8458,0.00061729,0.00037190,-0.00016472,0.00001115,-0.00002792,-0.00085
 279,0.00365673,-0.00341615,-0.01201538,0.01757254,0.01598306,-0.002142
 63,-0.00297362,0.00430298,-0.00016330,-0.00019019,-0.00028665,0.000139
 94,-0.00006322,-0.00011597,-0.00001401,-0.00006227,0.00005617,-0.00008
 507,-0.00008647,0.00001553,-0.00014973,-0.00000249,-0.00012615,0.00097
 059,-0.00113588,-0.00014312,0.00001139,-0.00013415,0.00007571,0.000518
 54,-0.00001747,-0.00016725,-0.14272973,0.10115374,0.09926361,0.0053218
 7,-0.00574625,-0.00418949,0.14990561,0.00015116,0.00024931,-0.00002715
 ,0.00013871,-0.00031554,-0.00004194,0.00001968,0.00060923,-0.00024497,
 -0.00060609,0.00055024,0.00019227,0.00004713,-0.00037102,-0.00016340,-
 0.00028608,-0.00005337,0.00010358,0.00000259,-0.00000007,-0.00000324,-
 0.00000991,0.00000687,0.00000252,-0.00000179,-0.00000925,0.00002442,0.
 00000280,0.00000267,0.00001193,0.00168532,0.00124761,0.00163222,-0.000
 08075,-0.00032748,-0.00051881,0.00130190,-0.00023567,0.00417648,0.0000
 3263,0.00002463,0.00028581,-0.00145101,-0.00009115,0.00053807,0.000057
 13,-0.00000022,-0.00003768,-0.00139315,-0.00051092,-0.00050517,0.00004
 160,-0.00001354,-0.00000313,0.00094309,-0.00104962,0.00142741,-0.00238
 884,0.01069924,0.00469934,-0.00232619,0.00038556,-0.00011815,-0.000069
 54,0.00005150,-0.00031453,0.00008064,0.00003164,-0.00006463,0.00007041
 ,0.00003459,-0.00004887,-0.00003753,-0.00001421,-0.00003234,-0.0006685
 6,-0.00097264,-0.00024846,-0.00135322,-0.00295766,0.00024165,-0.000130
 60,-0.00005852,-0.00010117,0.00017728,0.00020100,0.00004647,0.10048279
 ,-0.16729822,-0.10493009,0.01515707,-0.01049214,-0.01481341,-0.1095886
 6,0.17067714,-0.00037335,-0.00042196,0.00010237,-0.00021068,0.00058493
 ,0.00009959,-0.00037451,-0.00094383,-0.00004719,0.00078315,-0.00071440
 ,-0.00044709,-0.00018809,0.00070097,0.00017236,0.00055723,-0.00006813,
 -0.00021929,-0.00000317,-0.00000748,0.00000412,0.00000889,-0.00000130,
 -0.00000331,-0.00000410,0.00001323,-0.00001320,-0.00000252,0.00000233,
 -0.00002024,-0.00425730,-0.00356556,-0.00076022,-0.00061137,0.00144225
 ,0.00110343,-0.00258140,0.00005464,-0.01120187,-0.00044762,0.00012100,
 -0.00054463,0.00357866,-0.00021057,-0.00061063,-0.00005261,-0.00002416
 ,-0.00002729,0.00411000,0.00114211,0.00108825,-0.00010091,-0.00000464,
 -0.00004833,-0.00210437,0.00348322,-0.00485547,-0.00262135,-0.00783315
 ,0.00234643,0.00298322,-0.00067660,0.00542580,-0.00016161,-0.00012067,
 -0.00012052,-0.00000964,0.00003087,0.00005480,-0.00005317,0.00004699,0
 .00010360,-0.00002202,-0.00008931,0.00002520,0.00093648,-0.00077566,0.
 00011119,-0.00092265,-0.00034879,0.00070176,-0.00038312,-0.00008685,0.
 00005463,-0.00009237,-0.00010754,-0.00005301,0.10798058,-0.10295662,-0
 .12499415,-0.00123828,0.00249969,0.00449276,-0.10412200,0.10883498,0.1
 2808016\\-0.00000224,-0.00000248,-0.00000247,-0.00000111,-0.00000370,0
 .00000477,-0.00000182,-0.00000393,0.00000760,-0.00000249,-0.00000367,0
 .00000044,-0.00000545,-0.00000397,-0.00000721,-0.00000350,-0.00000364,
 -0.00000856,-0.00000270,-0.00000239,-0.00000368,0.00000081,-0.00000324
 ,0.00001030,-0.00000602,-0.00000420,-0.00001276,-0.00000588,-0.0000027
 9,-0.00001481,-0.00000275,-0.00000641,0.00000176,0.00000175,-0.0000045
 5,0.00001248,-0.00000123,-0.00000507,0.00000941,-0.00000146,-0.0000074
 0,0.00001087,-0.00000050,-0.00000536,0.00001632,0.00000213,-0.00000617
 ,0.00002213,-0.00000423,-0.00000416,-0.00000354,0.00000282,-0.00000505
 ,0.00002453,0.00000213,0.00000491,-0.00000673,0.00000336,0.00000541,0.
 00000186,0.00000322,0.00000327,0.00000348,-0.00000182,0.00000244,-0.00
 001171,-0.00000202,0.00000023,-0.00000925,-0.00000482,0.00000010,-0.00
 001606,0.00000120,0.00000767,-0.00001541,0.00000329,0.00000903,-0.0000
 0978,0.00000353,0.00000797,-0.00000495,0.00000607,0.00001347,-0.000011
 53,-0.00000004,0.00000597,-0.00001480,0.00000560,0.00000438,0.00000728
 ,0.00000749,0.00000568,0.00001372,0.00000671,0.00000764,0.00000630\\\@


 Statistics are no substitute for judgment.
                            -- Henry Clay
 Job cpu time:       0 days  1 hours 45 minutes 56.6 seconds.
 File lengths (MBytes):  RWF=    424 Int=      0 D2E=      0 Chk=     14 Scr=      1
 Normal termination of Gaussian 09 at Wed Sep 16 19:02:51 2020.
termination of Gaussian 09 at Wed Sep 16 18:41:54 2020.
