 Entering Gaussian System, Link 0=g09
 Input=m062x_sm_claisen_PM6_toluene_gd3.com
 Output=m062x_sm_claisen_PM6_toluene_gd3.log
 Initial command:
 /apps/applications/gaussian/G09.D01/2/default/g09/l1.exe "/local/730604.1.40core-192G.q/Gau-69188.inp" -scrdir="/local/730604.1.40core-192G.q/"
 Entering Link 1 = /apps/applications/gaussian/G09.D01/2/default/g09/l1.exe PID=     69189.
  
 Copyright (c) 1988,1990,1992,1993,1995,1998,2003,2009,2013,
            Gaussian, Inc.  All Rights Reserved.
  
 This is part of the Gaussian(R) 09 program.  It is based on
 the Gaussian(R) 03 system (copyright 2003, Gaussian, Inc.),
 the Gaussian(R) 98 system (copyright 1998, Gaussian, Inc.),
 the Gaussian(R) 94 system (copyright 1995, Gaussian, Inc.),
 the Gaussian 92(TM) system (copyright 1992, Gaussian, Inc.),
 the Gaussian 90(TM) system (copyright 1990, Gaussian, Inc.),
 the Gaussian 88(TM) system (copyright 1988, Gaussian, Inc.),
 the Gaussian 86(TM) system (copyright 1986, Carnegie Mellon
 University), and the Gaussian 82(TM) system (copyright 1983,
 Carnegie Mellon University). Gaussian is a federally registered
 trademark of Gaussian, Inc.
  
 This software contains proprietary and confidential information,
 including trade secrets, belonging to Gaussian, Inc.
  
 This software is provided under written license and may be
 used, copied, transmitted, or stored only in accord with that
 written license.
  
 The following legend is applicable only to US Government
 contracts under FAR:
  
                    RESTRICTED RIGHTS LEGEND
  
 Use, reproduction and disclosure by the US Government is
 subject to restrictions as set forth in subparagraphs (a)
 and (c) of the Commercial Computer Software - Restricted
 Rights clause in FAR 52.227-19.
  
 Gaussian, Inc.
 340 Quinnipiac St., Bldg. 40, Wallingford CT 06492
  
  
 ---------------------------------------------------------------
 Warning -- This program may not be used in any manner that
 competes with the business of Gaussian, Inc. or will provide
 assistance to any competitor of Gaussian, Inc.  The licensee
 of this program is prohibited from giving any competitor of
 Gaussian, Inc. access to this program.  By using this program,
 the user acknowledges that Gaussian, Inc. is engaged in the
 business of creating and licensing software in the field of
 computational chemistry and represents and warrants to the
 licensee that it is not a competitor of Gaussian, Inc. and that
 it will not use this program in any manner prohibited above.
 ---------------------------------------------------------------
  

 Cite this work as:
 Gaussian 09, Revision D.01,
 M. J. Frisch, G. W. Trucks, H. B. Schlegel, G. E. Scuseria, 
 M. A. Robb, J. R. Cheeseman, G. Scalmani, V. Barone, B. Mennucci, 
 G. A. Petersson, H. Nakatsuji, M. Caricato, X. Li, H. P. Hratchian, 
 A. F. Izmaylov, J. Bloino, G. Zheng, J. L. Sonnenberg, M. Hada, 
 M. Ehara, K. Toyota, R. Fukuda, J. Hasegawa, M. Ishida, T. Nakajima, 
 Y. Honda, O. Kitao, H. Nakai, T. Vreven, J. A. Montgomery, Jr., 
 J. E. Peralta, F. Ogliaro, M. Bearpark, J. J. Heyd, E. Brothers, 
 K. N. Kudin, V. N. Staroverov, T. Keith, R. Kobayashi, J. Normand, 
 K. Raghavachari, A. Rendell, J. C. Burant, S. S. Iyengar, J. Tomasi, 
 M. Cossi, N. Rega, J. M. Millam, M. Klene, J. E. Knox, J. B. Cross, 
 V. Bakken, C. Adamo, J. Jaramillo, R. Gomperts, R. E. Stratmann, 
 O. Yazyev, A. J. Austin, R. Cammi, C. Pomelli, J. W. Ochterski, 
 R. L. Martin, K. Morokuma, V. G. Zakrzewski, G. A. Voth, 
 P. Salvador, J. J. Dannenberg, S. Dapprich, A. D. Daniels, 
 O. Farkas, J. B. Foresman, J. V. Ortiz, J. Cioslowski, 
 and D. J. Fox, Gaussian, Inc., Wallingford CT, 2013.
 
 ******************************************
 Gaussian 09:  ES64L-G09RevD.01 24-Apr-2013
                 9-Sep-2020 
 ******************************************
 %nprocshared=4
 Will use up to    4 processors via shared memory.
 %chk=m062x_sm_claisen_PM6_toluene_gd3.chk
 ----------------------------------------------------------------------
 # opt freq scrf=(cpcm,solvent=toluene) geom=connectivity def2svp m062x
  empiricaldispersion=gd3
 ----------------------------------------------------------------------
 1/14=-1,18=20,19=15,26=3,38=1,57=2/1,3;
 2/9=110,12=2,17=6,18=5,40=1/2;
 3/5=43,7=101,11=2,16=1,25=1,30=1,70=2101,71=1,72=13,74=-55,124=31/1,2,3;
 4//1;
 5/5=2,38=5,53=13/2;
 6/7=2,8=2,9=2,10=2,28=1/1;
 7//1,2,3,16;
 1/14=-1,18=20,19=15,26=3/3(2);
 2/9=110/2;
 99//99;
 2/9=110/2;
 3/5=43,7=101,11=2,16=1,25=1,30=1,70=2105,71=1,72=13,74=-55,124=31/1,2,3;
 4/5=5,16=3,69=1/1;
 5/5=2,38=5,53=13/2;
 7//1,2,3,16;
 1/14=-1,18=20,19=15,26=3/3(-5);
 2/9=110/2;
 6/7=2,8=2,9=2,10=2,19=2,28=1/1;
 99/9=1/99;
 -------------------
 Title Card Required
 -------------------
 Symbolic Z-matrix:
 Charge =  0 Multiplicity = 1
 C                    -2.83435   2.49668   0.15394 
 C                    -3.01462   1.13664   0.06932 
 C                    -1.89961   0.2586    0.01402 
 C                    -0.5866    0.81314   0.0467 
 C                    -0.4325    2.22192   0.13131 
 C                    -1.53136   3.04642   0.18484 
 H                    -3.70231   3.15631   0.19558 
 H                    -4.01745   0.71124   0.04404 
 H                     0.57711   2.62974   0.15372 
 H                    -1.39979   4.12737   0.24997 
 C                     0.55941  -0.05279  -0.00362 
 C                    -2.02733  -1.15987  -0.07494 
 C                     0.38098  -1.41784  -0.07604 
 H                     1.23285  -2.09235  -0.07931 
 C                    -0.92238  -1.96748  -0.11886 
 H                    -1.04824  -3.04859  -0.17887 
 O                     1.74621   0.59001   0.06119 
 Cl                   -3.61409  -1.88526  -0.12109 
 C                     3.00012   0.01584  -0.32964 
 C                     3.4894   -1.00038   0.68178 
 H                     4.33543  -1.61121   0.34826 
 C                     2.9378   -0.56205  -1.74574 
 H                     3.95595  -0.81311  -2.07367 
 H                     2.32502  -1.46772  -1.8183 
 H                     2.52906   0.1943   -2.43057 
 C                     3.95702   1.20976  -0.31386 
 H                     3.93285   1.68398   0.67608 
 H                     4.98322   0.88046  -0.52487 
 H                     3.65189   1.9431   -1.07389 
 C                     3.00938  -1.13492   1.91549 
 H                     3.43401  -1.85878   2.61313 
 H                     2.16812  -0.5274    2.25946 
 

 GradGradGradGradGradGradGradGradGradGradGradGradGradGradGradGradGradGrad
 Berny optimization.
 Initialization pass.
                           ----------------------------
                           !    Initial Parameters    !
                           ! (Angstroms and Degrees)  !
 --------------------------                            --------------------------
 ! Name  Definition              Value          Derivative Info.                !
 --------------------------------------------------------------------------------
 ! R1    R(1,2)                  1.3745         estimate D2E/DX2                !
 ! R2    R(1,6)                  1.4146         estimate D2E/DX2                !
 ! R3    R(1,7)                  1.091          estimate D2E/DX2                !
 ! R4    R(2,3)                  1.4203         estimate D2E/DX2                !
 ! R5    R(2,8)                  1.0896         estimate D2E/DX2                !
 ! R6    R(3,4)                  1.4257         estimate D2E/DX2                !
 ! R7    R(3,12)                 1.427          estimate D2E/DX2                !
 ! R8    R(4,5)                  1.4197         estimate D2E/DX2                !
 ! R9    R(4,11)                 1.4373         estimate D2E/DX2                !
 ! R10   R(5,6)                  1.3748         estimate D2E/DX2                !
 ! R11   R(5,9)                  1.0891         estimate D2E/DX2                !
 ! R12   R(6,10)                 1.0909         estimate D2E/DX2                !
 ! R13   R(11,13)                1.3786         estimate D2E/DX2                !
 ! R14   R(11,17)                1.3513         estimate D2E/DX2                !
 ! R15   R(12,15)                1.3693         estimate D2E/DX2                !
 ! R16   R(12,18)                1.7453         estimate D2E/DX2                !
 ! R17   R(13,14)                1.0866         estimate D2E/DX2                !
 ! R18   R(13,15)                1.4152         estimate D2E/DX2                !
 ! R19   R(15,16)                1.0901         estimate D2E/DX2                !
 ! R20   R(17,19)                1.4334         estimate D2E/DX2                !
 ! R21   R(19,20)                1.5149         estimate D2E/DX2                !
 ! R22   R(19,22)                1.5307         estimate D2E/DX2                !
 ! R23   R(19,26)                1.5301         estimate D2E/DX2                !
 ! R24   R(20,21)                1.0955         estimate D2E/DX2                !
 ! R25   R(20,30)                1.3306         estimate D2E/DX2                !
 ! R26   R(22,23)                1.0987         estimate D2E/DX2                !
 ! R27   R(22,24)                1.0959         estimate D2E/DX2                !
 ! R28   R(22,25)                1.0991         estimate D2E/DX2                !
 ! R29   R(26,27)                1.0979         estimate D2E/DX2                !
 ! R30   R(26,28)                1.0982         estimate D2E/DX2                !
 ! R31   R(26,29)                1.0993         estimate D2E/DX2                !
 ! R32   R(30,31)                1.0913         estimate D2E/DX2                !
 ! R33   R(30,32)                1.0932         estimate D2E/DX2                !
 ! A1    A(2,1,6)              120.4431         estimate D2E/DX2                !
 ! A2    A(2,1,7)              119.7531         estimate D2E/DX2                !
 ! A3    A(6,1,7)              119.8037         estimate D2E/DX2                !
 ! A4    A(1,2,3)              120.739          estimate D2E/DX2                !
 ! A5    A(1,2,8)              120.5587         estimate D2E/DX2                !
 ! A6    A(3,2,8)              118.7023         estimate D2E/DX2                !
 ! A7    A(2,3,4)              118.7932         estimate D2E/DX2                !
 ! A8    A(2,3,12)             123.1398         estimate D2E/DX2                !
 ! A9    A(4,3,12)             118.067          estimate D2E/DX2                !
 ! A10   A(3,4,5)              119.1632         estimate D2E/DX2                !
 ! A11   A(3,4,11)             119.9464         estimate D2E/DX2                !
 ! A12   A(5,4,11)             120.8903         estimate D2E/DX2                !
 ! A13   A(4,5,6)              120.7081         estimate D2E/DX2                !
 ! A14   A(4,5,9)              118.2561         estimate D2E/DX2                !
 ! A15   A(6,5,9)              121.0358         estimate D2E/DX2                !
 ! A16   A(1,6,5)              120.1532         estimate D2E/DX2                !
 ! A17   A(1,6,10)             119.8351         estimate D2E/DX2                !
 ! A18   A(5,6,10)             120.0116         estimate D2E/DX2                !
 ! A19   A(4,11,13)            119.6841         estimate D2E/DX2                !
 ! A20   A(4,11,17)            114.3323         estimate D2E/DX2                !
 ! A21   A(13,11,17)           125.9616         estimate D2E/DX2                !
 ! A22   A(3,12,15)            121.0673         estimate D2E/DX2                !
 ! A23   A(3,12,18)            119.7465         estimate D2E/DX2                !
 ! A24   A(15,12,18)           119.1856         estimate D2E/DX2                !
 ! A25   A(11,13,14)           120.8881         estimate D2E/DX2                !
 ! A26   A(11,13,15)           120.3567         estimate D2E/DX2                !
 ! A27   A(14,13,15)           118.7416         estimate D2E/DX2                !
 ! A28   A(12,15,13)           120.8728         estimate D2E/DX2                !
 ! A29   A(12,15,16)           119.5733         estimate D2E/DX2                !
 ! A30   A(13,15,16)           119.5517         estimate D2E/DX2                !
 ! A31   A(11,17,19)           124.3795         estimate D2E/DX2                !
 ! A32   A(17,19,20)           111.665          estimate D2E/DX2                !
 ! A33   A(17,19,22)           111.5829         estimate D2E/DX2                !
 ! A34   A(17,19,26)           103.3967         estimate D2E/DX2                !
 ! A35   A(20,19,22)           112.1814         estimate D2E/DX2                !
 ! A36   A(20,19,26)           108.3324         estimate D2E/DX2                !
 ! A37   A(22,19,26)           109.2425         estimate D2E/DX2                !
 ! A38   A(19,20,21)           114.8464         estimate D2E/DX2                !
 ! A39   A(19,20,30)           124.7725         estimate D2E/DX2                !
 ! A40   A(21,20,30)           120.2975         estimate D2E/DX2                !
 ! A41   A(19,22,23)           108.9444         estimate D2E/DX2                !
 ! A42   A(19,22,24)           113.3289         estimate D2E/DX2                !
 ! A43   A(19,22,25)           109.3752         estimate D2E/DX2                !
 ! A44   A(23,22,24)           108.032          estimate D2E/DX2                !
 ! A45   A(23,22,25)           108.4137         estimate D2E/DX2                !
 ! A46   A(24,22,25)           108.6318         estimate D2E/DX2                !
 ! A47   A(19,26,27)           109.4239         estimate D2E/DX2                !
 ! A48   A(19,26,28)           110.3906         estimate D2E/DX2                !
 ! A49   A(19,26,29)           109.864          estimate D2E/DX2                !
 ! A50   A(27,26,28)           108.8644         estimate D2E/DX2                !
 ! A51   A(27,26,29)           109.2152         estimate D2E/DX2                !
 ! A52   A(28,26,29)           109.059          estimate D2E/DX2                !
 ! A53   A(20,30,31)           121.2923         estimate D2E/DX2                !
 ! A54   A(20,30,32)           120.8735         estimate D2E/DX2                !
 ! A55   A(31,30,32)           117.8319         estimate D2E/DX2                !
 ! D1    D(6,1,2,3)              0.1241         estimate D2E/DX2                !
 ! D2    D(6,1,2,8)           -179.9174         estimate D2E/DX2                !
 ! D3    D(7,1,2,3)           -179.9954         estimate D2E/DX2                !
 ! D4    D(7,1,2,8)             -0.0368         estimate D2E/DX2                !
 ! D5    D(2,1,6,5)             -0.0497         estimate D2E/DX2                !
 ! D6    D(2,1,6,10)           179.87           estimate D2E/DX2                !
 ! D7    D(7,1,6,5)           -179.9302         estimate D2E/DX2                !
 ! D8    D(7,1,6,10)            -0.0105         estimate D2E/DX2                !
 ! D9    D(1,2,3,4)             -0.0529         estimate D2E/DX2                !
 ! D10   D(1,2,3,12)          -179.9683         estimate D2E/DX2                !
 ! D11   D(8,2,3,4)            179.9877         estimate D2E/DX2                !
 ! D12   D(8,2,3,12)             0.0724         estimate D2E/DX2                !
 ! D13   D(2,3,4,5)             -0.0895         estimate D2E/DX2                !
 ! D14   D(2,3,4,11)           179.8038         estimate D2E/DX2                !
 ! D15   D(12,3,4,5)           179.8302         estimate D2E/DX2                !
 ! D16   D(12,3,4,11)           -0.2765         estimate D2E/DX2                !
 ! D17   D(2,3,12,15)         -179.661          estimate D2E/DX2                !
 ! D18   D(2,3,12,18)            0.0366         estimate D2E/DX2                !
 ! D19   D(4,3,12,15)            0.4231         estimate D2E/DX2                !
 ! D20   D(4,3,12,18)         -179.8794         estimate D2E/DX2                !
 ! D21   D(3,4,5,6)              0.1644         estimate D2E/DX2                !
 ! D22   D(3,4,5,9)           -179.9044         estimate D2E/DX2                !
 ! D23   D(11,4,5,6)          -179.728          estimate D2E/DX2                !
 ! D24   D(11,4,5,9)             0.2032         estimate D2E/DX2                !
 ! D25   D(3,4,11,13)           -0.3507         estimate D2E/DX2                !
 ! D26   D(3,4,11,17)         -178.7449         estimate D2E/DX2                !
 ! D27   D(5,4,11,13)          179.5408         estimate D2E/DX2                !
 ! D28   D(5,4,11,17)            1.1466         estimate D2E/DX2                !
 ! D29   D(4,5,6,1)             -0.0959         estimate D2E/DX2                !
 ! D30   D(4,5,6,10)           179.9845         estimate D2E/DX2                !
 ! D31   D(9,5,6,1)            179.9748         estimate D2E/DX2                !
 ! D32   D(9,5,6,10)             0.0553         estimate D2E/DX2                !
 ! D33   D(4,11,13,14)        -177.804          estimate D2E/DX2                !
 ! D34   D(4,11,13,15)           0.8409         estimate D2E/DX2                !
 ! D35   D(17,11,13,14)          0.3883         estimate D2E/DX2                !
 ! D36   D(17,11,13,15)        179.0331         estimate D2E/DX2                !
 ! D37   D(4,11,17,19)        -162.1285         estimate D2E/DX2                !
 ! D38   D(13,11,17,19)         19.5951         estimate D2E/DX2                !
 ! D39   D(3,12,15,13)           0.0564         estimate D2E/DX2                !
 ! D40   D(3,12,15,16)         179.5205         estimate D2E/DX2                !
 ! D41   D(18,12,15,13)       -179.6428         estimate D2E/DX2                !
 ! D42   D(18,12,15,16)         -0.1787         estimate D2E/DX2                !
 ! D43   D(11,13,15,12)         -0.7065         estimate D2E/DX2                !
 ! D44   D(11,13,15,16)        179.8293         estimate D2E/DX2                !
 ! D45   D(14,13,15,12)        177.9671         estimate D2E/DX2                !
 ! D46   D(14,13,15,16)         -1.497          estimate D2E/DX2                !
 ! D47   D(11,17,19,20)        -73.9644         estimate D2E/DX2                !
 ! D48   D(11,17,19,22)         52.4777         estimate D2E/DX2                !
 ! D49   D(11,17,19,26)        169.7711         estimate D2E/DX2                !
 ! D50   D(17,19,20,21)        168.6326         estimate D2E/DX2                !
 ! D51   D(17,19,20,30)        -14.6978         estimate D2E/DX2                !
 ! D52   D(22,19,20,21)         42.518          estimate D2E/DX2                !
 ! D53   D(22,19,20,30)       -140.8124         estimate D2E/DX2                !
 ! D54   D(26,19,20,21)        -78.1478         estimate D2E/DX2                !
 ! D55   D(26,19,20,30)         98.5218         estimate D2E/DX2                !
 ! D56   D(17,19,22,23)        169.2547         estimate D2E/DX2                !
 ! D57   D(17,19,22,24)        -70.451          estimate D2E/DX2                !
 ! D58   D(17,19,22,25)         50.9134         estimate D2E/DX2                !
 ! D59   D(20,19,22,23)        -64.5862         estimate D2E/DX2                !
 ! D60   D(20,19,22,24)         55.7081         estimate D2E/DX2                !
 ! D61   D(20,19,22,25)        177.0726         estimate D2E/DX2                !
 ! D62   D(26,19,22,23)         55.552          estimate D2E/DX2                !
 ! D63   D(26,19,22,24)        175.8463         estimate D2E/DX2                !
 ! D64   D(26,19,22,25)        -62.7892         estimate D2E/DX2                !
 ! D65   D(17,19,26,27)         55.8383         estimate D2E/DX2                !
 ! D66   D(17,19,26,28)        175.6291         estimate D2E/DX2                !
 ! D67   D(17,19,26,29)        -64.0594         estimate D2E/DX2                !
 ! D68   D(20,19,26,27)        -62.7632         estimate D2E/DX2                !
 ! D69   D(20,19,26,28)         57.0276         estimate D2E/DX2                !
 ! D70   D(20,19,26,29)        177.3391         estimate D2E/DX2                !
 ! D71   D(22,19,26,27)        174.7624         estimate D2E/DX2                !
 ! D72   D(22,19,26,28)        -65.4468         estimate D2E/DX2                !
 ! D73   D(22,19,26,29)         54.8647         estimate D2E/DX2                !
 ! D74   D(19,20,30,31)       -177.3118         estimate D2E/DX2                !
 ! D75   D(19,20,30,32)          3.2516         estimate D2E/DX2                !
 ! D76   D(21,20,30,31)         -0.8122         estimate D2E/DX2                !
 ! D77   D(21,20,30,32)        179.7512         estimate D2E/DX2                !
 --------------------------------------------------------------------------------
 Trust Radius=3.00D-01 FncErr=1.00D-07 GrdErr=1.00D-06
 Number of steps in this run=    175 maximum allowed number of steps=    192.
 GradGradGradGradGradGradGradGradGradGradGradGradGradGradGradGradGradGrad

                          Input orientation:                          
 ---------------------------------------------------------------------
 Center     Atomic      Atomic             Coordinates (Angstroms)
 Number     Number       Type             X           Y           Z
 ---------------------------------------------------------------------
      1          6           0       -2.834354    2.496677    0.153943
      2          6           0       -3.014619    1.136644    0.069320
      3          6           0       -1.899609    0.258598    0.014019
      4          6           0       -0.586596    0.813143    0.046695
      5          6           0       -0.432503    2.221922    0.131314
      6          6           0       -1.531362    3.046422    0.184836
      7          1           0       -3.702309    3.156305    0.195581
      8          1           0       -4.017451    0.711243    0.044044
      9          1           0        0.577112    2.629738    0.153719
     10          1           0       -1.399787    4.127369    0.249974
     11          6           0        0.559411   -0.052789   -0.003623
     12          6           0       -2.027328   -1.159869   -0.074935
     13          6           0        0.380979   -1.417842   -0.076040
     14          1           0        1.232848   -2.092353   -0.079311
     15          6           0       -0.922381   -1.967482   -0.118862
     16          1           0       -1.048242   -3.048590   -0.178873
     17          8           0        1.746209    0.590010    0.061194
     18         17           0       -3.614090   -1.885262   -0.121092
     19          6           0        3.000115    0.015837   -0.329642
     20          6           0        3.489400   -1.000377    0.681784
     21          1           0        4.335432   -1.611208    0.348264
     22          6           0        2.937800   -0.562046   -1.745736
     23          1           0        3.955951   -0.813107   -2.073666
     24          1           0        2.325017   -1.467723   -1.818304
     25          1           0        2.529060    0.194304   -2.430568
     26          6           0        3.957019    1.209756   -0.313855
     27          1           0        3.932849    1.683984    0.676082
     28          1           0        4.983223    0.880455   -0.524867
     29          1           0        3.651893    1.943099   -1.073894
     30          6           0        3.009385   -1.134920    1.915489
     31          1           0        3.434010   -1.858781    2.613127
     32          1           0        2.168115   -0.527404    2.259464
 ---------------------------------------------------------------------
                    Distance matrix (angstroms):
                    1          2          3          4          5
     1  C    0.000000
     2  C    1.374535   0.000000
     3  C    2.429470   1.420306   0.000000
     4  C    2.810375   2.449584   1.425690   0.000000
     5  C    2.417621   2.801606   2.453732   1.419705   0.000000
     6  C    1.414554   2.420877   2.817223   2.428827   1.374829
     7  H    1.090958   2.137262   3.417513   3.901313   3.401299
     8  H    2.144661   1.089622   2.165882   3.432369   3.891223
     9  H    3.414060   3.890628   3.431613   2.160020   1.089100
    10  H    2.174020   3.403638   3.908054   3.418581   2.140198
    11  C    4.247616   3.767461   2.478720   1.437255   2.485239
    12  C    3.751534   2.503902   1.426981   2.446074   3.744665
    13  C    5.070968   4.251660   2.831897   2.434863   3.735322
    14  H    6.136427   5.337555   3.917648   3.430475   4.629333
    15  C    4.864029   3.748129   2.434762   2.805715   4.225361
    16  H    5.835319   4.630812   3.420457   3.895764   5.315416
    17  O    4.962413   4.792114   3.661154   2.343497   2.723020
    18  Cl   4.459262   3.086671   2.748424   4.058973   5.201458
    19  C    6.358416   6.131264   4.917757   3.693484   4.106356
    20  C    7.245541   6.873444   5.574257   4.506211   5.105639
    21  H    8.265489   7.851863   6.517947   5.494978   6.121532
    22  C    6.803112   6.450680   5.212554   4.186325   4.757388
    23  H    7.875605   7.548693   6.308293   5.270233   5.773376
    24  H    6.798922   6.233584   4.917830   4.142229   5.001840
    25  H    6.383324   6.153846   5.058977   4.028288   4.409686
    26  C    6.928041   6.982543   5.942415   4.575121   4.526650
    27  H    6.835798   6.995359   6.040498   4.645414   4.431980
    28  H    8.011708   8.023975   6.931845   5.599473   5.617846
    29  H    6.624608   6.811732   5.902565   4.527395   4.267618
    30  C    7.102171   6.697534   5.445705   4.496490   5.128183
    31  H    8.019351   7.551711   6.299694   5.467268   6.145035
    32  H    6.213130   5.867412   4.712346   3.779133   4.341777
                    6          7          8          9         10
     6  C    0.000000
     7  H    2.173753   0.000000
     8  H    3.413726   2.469941   0.000000
     9  H    2.149478   4.311899   4.980227   0.000000
    10  H    1.090872   2.499506   4.308653   2.481994   0.000000
    11  C    3.743255   5.338560   4.640440   2.687196   4.623472
    12  C    4.243389   4.637682   2.734192   4.603967   5.334253
    13  C    4.863616   6.137576   4.888109   4.058837   5.833248
    14  H    5.841031   7.209698   5.953235   4.773095   6.761963
    15  C    5.059874   5.837814   4.096531   4.843265   6.124636
    16  H    6.124938   6.759069   4.796065   5.915725   7.197352
    17  O    4.097770   6.024141   5.764960   2.352836   4.737704
    18  Cl   5.362169   5.052273   2.632833   6.166597   6.418143
    19  C    5.475712   7.420302   7.061831   3.596812   6.049776
    20  C    6.467735   8.320762   7.725876   4.683803   7.098196
    21  H    7.492630   9.346538   8.675078   5.669959   8.113795
    22  C    6.059832   7.854037   7.293839   4.400939   6.692394
    23  H    7.078658   8.919342   8.389486   5.313283   7.647976
    24  H    6.265918   7.859136   6.960110   4.871677   7.032567
    25  H    5.609095   7.382416   7.017673   4.052157   6.171721
    26  C    5.808990   7.919210   7.998048   3.695774   6.125826
    27  H    5.652890   7.790651   8.034486   3.525377   5.881216
    28  H    6.901805   9.007608   9.020223   4.788975   7.203169
    29  H    5.446821   7.560934   7.847681   3.381240   5.660665
    30  C    6.410707   8.149818   7.502469   4.815853   7.064448
    31  H    7.390029   9.051114   8.290325   5.861515   8.048856
    32  H    5.546390   7.231266   6.686072   4.114972   6.199588
                   11         12         13         14         15
    11  C    0.000000
    12  C    2.814592   0.000000
    13  C    1.378569   2.422085   0.000000
    14  H    2.149202   3.390913   1.086580   0.000000
    15  C    2.423848   1.369334   1.415163   2.159206   0.000000
    16  H    3.404421   2.129948   2.170849   2.475414   1.090063
    17  O    1.351252   4.161753   2.431904   2.734658   3.700616
    18  Cl   4.559591   1.745319   4.022572   4.851540   2.692965
    19  C    2.463338   5.169366   2.996602   2.762311   4.400450
    20  C    3.154765   5.570669   3.226586   2.619867   4.586953
    21  H    4.100101   6.392771   3.981849   3.168651   5.290533
    22  C    2.991828   5.272709   3.171373   2.832962   4.418480
    23  H    4.049648   6.317816   4.139642   3.609600   5.380703
    24  H    2.900426   4.698619   2.610987   2.146414   3.699116
    25  H    3.135384   5.305041   3.571704   3.526666   4.682921
    26  C    3.637857   6.440855   4.443972   4.287195   5.825926
    27  H    3.854668   6.646445   4.775227   4.703333   6.126859
    28  H    4.551126   7.315271   5.163745   4.806394   6.568999
    29  H    3.833079   6.548273   4.794843   4.808934   6.093333
    30  C    3.294901   5.415800   3.309796   2.837603   4.504501
    31  H    4.286293   6.127020   4.092315   3.485526   5.143318
    32  H    2.816869   4.842641   3.072672   2.965410   4.157093
                   16         17         18         19         20
    16  H    0.000000
    17  O    4.594127   0.000000
    18  Cl   2.817844   5.907030   0.000000
    19  C    5.079630   1.433425   6.885156   0.000000
    20  C    5.052336   2.439913   7.203277   1.514950   0.000000
    21  H    5.597132   3.410549   7.968080   2.211313   1.095500
    22  C    4.952423   2.451962   6.878781   1.530736   2.527697
    23  H    5.799101   3.377769   7.890981   2.154621   2.800936
    24  H    4.070105   2.846365   6.190950   2.207447   2.797256
    25  H    5.327624   2.641650   6.884516   2.160471   3.469330
    26  C    6.573003   2.326462   8.181564   1.530149   2.468735
    27  H    6.923834   2.521163   8.386375   2.159673   2.720749
    28  H    7.206641   3.302436   9.040244   2.172187   2.687944
    29  H    6.914426   2.598251   8.267931   2.166348   3.431160
    30  C    4.951043   2.830090   6.970014   2.522883   1.330618
    31  H    5.413085   3.918879   7.559919   3.516013   2.114240
    32  H    4.758867   2.501801   6.398806   2.773230   2.111533
                   21         22         23         24         25
    21  H    0.000000
    22  C    2.727444   0.000000
    23  H    2.578123   1.098727   0.000000
    24  H    2.959117   1.095911   1.775860   0.000000
    25  H    3.774223   1.099149   1.782771   1.782929   0.000000
    26  C    2.922231   2.495671   2.681214   3.477886   2.747851
    27  H    3.335840   3.449634   3.714446   4.329012   3.720355
    28  H    2.718524   2.784795   2.514402   3.775312   3.182046
    29  H    3.888812   2.690177   2.947654   3.734763   2.481855
    30  C    2.107474   3.706464   4.112531   3.810555   4.570094
    31  H    2.450196   4.574651   4.830309   4.584798   5.520231
    32  H    3.086192   4.078632   4.696169   4.187721   4.758944
                   26         27         28         29         30
    26  C    0.000000
    27  H    1.097931   0.000000
    28  H    1.098208   1.786399   0.000000
    29  H    1.099342   1.791227   1.789716   0.000000
    30  C    3.371274   3.214831   3.730028   4.338597   0.000000
    31  H    4.272784   4.068436   4.444151   5.300555   1.091320
    32  H    3.583277   3.242163   4.202309   4.406388   1.093220
                   31         32
    31  H    0.000000
    32  H    1.870864   0.000000
 Stoichiometry    C15H15ClO
 Framework group  C1[X(C15H15ClO)]
 Deg. of freedom    90
 Full point group                 C1      NOp   1
 Largest Abelian subgroup         C1      NOp   1
 Largest concise Abelian subgroup C1      NOp   1
                         Standard orientation:                         
 ---------------------------------------------------------------------
 Center     Atomic      Atomic             Coordinates (Angstroms)
 Number     Number       Type             X           Y           Z
 ---------------------------------------------------------------------
      1          6           0       -2.834354    2.496677    0.153943
      2          6           0       -3.014619    1.136644    0.069320
      3          6           0       -1.899609    0.258598    0.014019
      4          6           0       -0.586596    0.813143    0.046695
      5          6           0       -0.432503    2.221922    0.131314
      6          6           0       -1.531362    3.046422    0.184836
      7          1           0       -3.702309    3.156305    0.195581
      8          1           0       -4.017451    0.711243    0.044044
      9          1           0        0.577112    2.629738    0.153719
     10          1           0       -1.399787    4.127369    0.249974
     11          6           0        0.559411   -0.052789   -0.003623
     12          6           0       -2.027328   -1.159869   -0.074935
     13          6           0        0.380979   -1.417842   -0.076040
     14          1           0        1.232848   -2.092353   -0.079311
     15          6           0       -0.922381   -1.967482   -0.118862
     16          1           0       -1.048242   -3.048590   -0.178873
     17          8           0        1.746209    0.590010    0.061194
     18         17           0       -3.614090   -1.885262   -0.121092
     19          6           0        3.000115    0.015837   -0.329642
     20          6           0        3.489400   -1.000377    0.681784
     21          1           0        4.335432   -1.611208    0.348264
     22          6           0        2.937800   -0.562046   -1.745736
     23          1           0        3.955951   -0.813107   -2.073666
     24          1           0        2.325017   -1.467723   -1.818304
     25          1           0        2.529060    0.194304   -2.430568
     26          6           0        3.957019    1.209756   -0.313855
     27          1           0        3.932849    1.683984    0.676082
     28          1           0        4.983223    0.880455   -0.524867
     29          1           0        3.651893    1.943099   -1.073894
     30          6           0        3.009385   -1.134920    1.915489
     31          1           0        3.434010   -1.858781    2.613127
     32          1           0        2.168115   -0.527404    2.259464
 ---------------------------------------------------------------------
 Rotational constants (GHZ):      0.7041100      0.2844619      0.2238407
 Standard basis: def2SVP (5D, 7F)
 There are   334 symmetry adapted cartesian basis functions of A   symmetry.
 There are   317 symmetry adapted basis functions of A   symmetry.
   317 basis functions,   542 primitive gaussians,   334 cartesian basis functions
    65 alpha electrons       65 beta electrons
       nuclear repulsion energy      1274.2302738369 Hartrees.
 NAtoms=   32 NActive=   32 NUniq=   32 SFac= 1.00D+00 NAtFMM=   60 NAOKFM=F Big=F
 Integral buffers will be    131072 words long.
 Raffenetti 2 integral format.
 Two-electron integral symmetry is turned on.
 Nuclear repulsion after empirical dispersion term =     1274.2283985606 Hartrees.
 ------------------------------------------------------------------------------
 Polarizable Continuum Model (PCM)
 =================================
 Model                : C-PCM.
 Atomic radii         : UFF (Universal Force Field).
 Polarization charges : Total charges.
 Charge compensation  : None.
 Solution method      : On-the-fly selection.
 Cavity type          : Scaled VdW (van der Waals Surface) (Alpha=1.100).
 Cavity algorithm     : GePol (No added spheres)
                        Default sphere list used, NSphG=   32.
                        Lebedev-Laikov grids with approx.  5.0 points / Ang**2.
                        Smoothing algorithm: Karplus/York (Gamma=1.0000).
                        Polarization charges: spherical gaussians, with
                                              point-specific exponents (IZeta= 3).
                        Self-potential: point-specific (ISelfS= 7).
                        Self-field    : sphere-specific E.n sum rule (ISelfD= 2).
 1st derivatives      : Analytical E(r).r(x)/FMM algorithm (CHGder, D1EAlg=3).
                        Cavity 1st derivative terms included.
 Solvent              : Toluene, Eps=   2.374100 Eps(inf)=   2.238315
 ------------------------------------------------------------------------------
 One-electron integrals computed using PRISM.
   1 Symmetry operations used in ECPInt.
 ECPInt:  NShTT=   11175 NPrTT=   41031 LenC2=   10476 LenP2D=   27506.
 LDataN:  DoStor=T MaxTD1= 4 Len=   56
 NBasis=   317 RedAO= T EigKep=  1.99D-04  NBF=   317
 NBsUse=   317 1.00D-06 EigRej= -1.00D+00 NBFU=   317
 ExpMin= 1.22D-01 ExpMax= 1.04D+04 ExpMxC= 1.57D+03 IAcc=1 IRadAn=         1 AccDes= 0.00D+00
 Harris functional with IExCor= 1009 and IRadAn=       1 diagonalized for initial guess.
 HarFok:  IExCor= 1009 AccDes= 0.00D+00 IRadAn=         1 IDoV= 1 UseB2=F ITyADJ=14
 ICtDFT=  3500011 ScaDFX=  1.000000  1.000000  1.000000  1.000000
 FoFCou: FMM=F IPFlag=           0 FMFlag=      100000 FMFlg1=           0
         NFxFlg=           0 DoJE=T BraDBF=F KetDBF=T FulRan=T
         wScrn=  0.000000 ICntrl=     500 IOpCl=  0 I1Cent=   200000004 NGrid=           0
         NMat0=    1 NMatS0=      1 NMatT0=    0 NMatD0=    1 NMtDS0=    0 NMtDT0=    0
 Petite list used in FoFCou.
 Requested convergence on RMS density matrix=1.00D-08 within 128 cycles.
 Requested convergence on MAX density matrix=1.00D-06.
 Requested convergence on             energy=1.00D-06.
 No special actions if energy rises.
 Inv3:  Mode=1 IEnd=    16893387.
 Iteration    1 A*A^-1 deviation from unit magnitude is 5.33D-15 for   2334.
 Iteration    1 A*A^-1 deviation from orthogonality  is 2.57D-15 for   2369   2284.
 Iteration    1 A^-1*A deviation from unit magnitude is 5.55D-15 for   2334.
 Iteration    1 A^-1*A deviation from orthogonality  is 2.35D-15 for   2369   2284.
 Error on total polarization charges =  0.00719
 SCF Done:  E(RM062X) =  -1115.12072675     A.U. after   14 cycles
            NFock= 14  Conv=0.47D-08     -V/T= 2.0070

 **********************************************************************

            Population analysis using the SCF density.

 **********************************************************************

 Orbital symmetries:
       Occupied  (A) (A) (A) (A) (A) (A) (A) (A) (A) (A) (A) (A)
                 (A) (A) (A) (A) (A) (A) (A) (A) (A) (A) (A) (A)
                 (A) (A) (A) (A) (A) (A) (A) (A) (A) (A) (A) (A)
                 (A) (A) (A) (A) (A) (A) (A) (A) (A) (A) (A) (A)
                 (A) (A) (A) (A) (A) (A) (A) (A) (A) (A) (A) (A)
                 (A) (A) (A) (A) (A)
       Virtual   (A) (A) (A) (A) (A) (A) (A) (A) (A) (A) (A) (A)
                 (A) (A) (A) (A) (A) (A) (A) (A) (A) (A) (A) (A)
                 (A) (A) (A) (A) (A) (A) (A) (A) (A) (A) (A) (A)
                 (A) (A) (A) (A) (A) (A) (A) (A) (A) (A) (A) (A)
                 (A) (A) (A) (A) (A) (A) (A) (A) (A) (A) (A) (A)
                 (A) (A) (A) (A) (A) (A) (A) (A) (A) (A) (A) (A)
                 (A) (A) (A) (A) (A) (A) (A) (A) (A) (A) (A) (A)
                 (A) (A) (A) (A) (A) (A) (A) (A) (A) (A) (A) (A)
                 (A) (A) (A) (A) (A) (A) (A) (A) (A) (A) (A) (A)
                 (A) (A) (A) (A) (A) (A) (A) (A) (A) (A) (A) (A)
                 (A) (A) (A) (A) (A) (A) (A) (A) (A) (A) (A) (A)
                 (A) (A) (A) (A) (A) (A) (A) (A) (A) (A) (A) (A)
                 (A) (A) (A) (A) (A) (A) (A) (A) (A) (A) (A) (A)
                 (A) (A) (A) (A) (A) (A) (A) (A) (A) (A) (A) (A)
                 (A) (A) (A) (A) (A) (A) (A) (A) (A) (A) (A) (A)
                 (A) (A) (A) (A) (A) (A) (A) (A) (A) (A) (A) (A)
                 (A) (A) (A) (A) (A) (A) (A) (A) (A) (A) (A) (A)
                 (A) (A) (A) (A) (A) (A) (A) (A) (A) (A) (A) (A)
                 (A) (A) (A) (A) (A) (A) (A) (A) (A) (A) (A) (A)
                 (A) (A) (A) (A) (A) (A) (A) (A) (A) (A) (A) (A)
                 (A) (A) (A) (A) (A) (A) (A) (A) (A) (A) (A) (A)
 The electronic state is 1-A.
 Alpha  occ. eigenvalues -- -102.63806 -19.66743 -10.62904 -10.62836 -10.61036
 Alpha  occ. eigenvalues --  -10.57832 -10.57278 -10.57058 -10.56337 -10.56326
 Alpha  occ. eigenvalues --  -10.56248 -10.56220 -10.56130 -10.56109 -10.55535
 Alpha  occ. eigenvalues --  -10.55415 -10.55200  -9.80800  -7.53501  -7.52826
 Alpha  occ. eigenvalues --   -7.52826  -1.18597  -0.99635  -0.95213  -0.92704
 Alpha  occ. eigenvalues --   -0.90428  -0.85013  -0.83844  -0.83772  -0.80174
 Alpha  occ. eigenvalues --   -0.77784  -0.72259  -0.70825  -0.69492  -0.67604
 Alpha  occ. eigenvalues --   -0.63261  -0.60044  -0.58624  -0.57436  -0.56402
 Alpha  occ. eigenvalues --   -0.54651  -0.53821  -0.51481  -0.50521  -0.50114
 Alpha  occ. eigenvalues --   -0.49869  -0.48668  -0.48333  -0.46984  -0.46251
 Alpha  occ. eigenvalues --   -0.45362  -0.44934  -0.44549  -0.43517  -0.42266
 Alpha  occ. eigenvalues --   -0.41485  -0.40706  -0.40413  -0.38336  -0.37303
 Alpha  occ. eigenvalues --   -0.36517  -0.32611  -0.32594  -0.30639  -0.25701
 Alpha virt. eigenvalues --   -0.01676   0.00648   0.04033   0.06301   0.09088
 Alpha virt. eigenvalues --    0.09402   0.11509   0.12183   0.12936   0.13609
 Alpha virt. eigenvalues --    0.14143   0.15330   0.15791   0.16555   0.16796
 Alpha virt. eigenvalues --    0.18868   0.19290   0.19920   0.20532   0.20869
 Alpha virt. eigenvalues --    0.21621   0.22375   0.24141   0.25203   0.25773
 Alpha virt. eigenvalues --    0.28117   0.29740   0.29804   0.31144   0.32074
 Alpha virt. eigenvalues --    0.32938   0.34342   0.34574   0.35690   0.36875
 Alpha virt. eigenvalues --    0.38645   0.39298   0.40236   0.42137   0.42738
 Alpha virt. eigenvalues --    0.45390   0.45537   0.47288   0.47696   0.49412
 Alpha virt. eigenvalues --    0.49915   0.50380   0.50657   0.51357   0.52408
 Alpha virt. eigenvalues --    0.52918   0.53693   0.54262   0.55475   0.55948
 Alpha virt. eigenvalues --    0.57420   0.58365   0.59450   0.59886   0.61647
 Alpha virt. eigenvalues --    0.62117   0.64048   0.64228   0.64713   0.65297
 Alpha virt. eigenvalues --    0.66226   0.67967   0.68247   0.69226   0.69800
 Alpha virt. eigenvalues --    0.70463   0.70734   0.71574   0.71752   0.72068
 Alpha virt. eigenvalues --    0.72547   0.73171   0.73629   0.74021   0.74418
 Alpha virt. eigenvalues --    0.75230   0.76021   0.76497   0.76701   0.77494
 Alpha virt. eigenvalues --    0.77922   0.78114   0.78641   0.79564   0.80522
 Alpha virt. eigenvalues --    0.81619   0.82442   0.84110   0.84644   0.85738
 Alpha virt. eigenvalues --    0.86124   0.86622   0.86954   0.88771   0.89347
 Alpha virt. eigenvalues --    0.90521   0.91779   0.93802   0.95295   0.98489
 Alpha virt. eigenvalues --    1.00587   1.02351   1.03376   1.06817   1.10171
 Alpha virt. eigenvalues --    1.11313   1.11981   1.15766   1.17611   1.18232
 Alpha virt. eigenvalues --    1.19962   1.20763   1.22286   1.25267   1.27094
 Alpha virt. eigenvalues --    1.28668   1.29618   1.30287   1.30905   1.31264
 Alpha virt. eigenvalues --    1.31710   1.34228   1.34809   1.35462   1.37355
 Alpha virt. eigenvalues --    1.38364   1.40373   1.41723   1.43372   1.47846
 Alpha virt. eigenvalues --    1.47897   1.52820   1.55910   1.57064   1.57701
 Alpha virt. eigenvalues --    1.59284   1.60328   1.61927   1.65200   1.66738
 Alpha virt. eigenvalues --    1.70647   1.70748   1.71424   1.72318   1.72889
 Alpha virt. eigenvalues --    1.73507   1.75303   1.77551   1.77772   1.77975
 Alpha virt. eigenvalues --    1.78439   1.79547   1.79790   1.80195   1.82250
 Alpha virt. eigenvalues --    1.83072   1.83917   1.84669   1.84890   1.85214
 Alpha virt. eigenvalues --    1.87037   1.87832   1.88684   1.89971   1.90527
 Alpha virt. eigenvalues --    1.91106   1.92425   1.93623   1.94122   1.95917
 Alpha virt. eigenvalues --    1.97506   1.97972   1.98095   2.00562   2.01754
 Alpha virt. eigenvalues --    2.02585   2.04488   2.05261   2.06405   2.09579
 Alpha virt. eigenvalues --    2.10358   2.11975   2.12642   2.14543   2.15376
 Alpha virt. eigenvalues --    2.16633   2.18535   2.19153   2.20390   2.21171
 Alpha virt. eigenvalues --    2.23014   2.25337   2.26673   2.27361   2.28933
 Alpha virt. eigenvalues --    2.30229   2.31324   2.34077   2.35714   2.38141
 Alpha virt. eigenvalues --    2.39235   2.40657   2.41426   2.42904   2.43208
 Alpha virt. eigenvalues --    2.45349   2.47457   2.48747   2.50726   2.52230
 Alpha virt. eigenvalues --    2.56186   2.58150   2.60300   2.60334   2.62695
 Alpha virt. eigenvalues --    2.64549   2.65832   2.67461   2.67578   2.70325
 Alpha virt. eigenvalues --    2.75471   2.75865   2.78963   2.80309   2.81090
 Alpha virt. eigenvalues --    2.81588   2.85023   2.88986   2.90114   2.92595
 Alpha virt. eigenvalues --    2.93503   2.94106   2.94658   2.95989   2.99491
 Alpha virt. eigenvalues --    3.02444   3.03729   3.04662   3.08393   3.11284
 Alpha virt. eigenvalues --    3.15541   3.22377   3.33103   3.37942   3.55092
 Alpha virt. eigenvalues --    3.62478   3.69232
          Condensed to atoms (all electrons):
               1          2          3          4          5          6
     1  C    5.090085   0.329846   0.089563  -0.146234   0.094443   0.211829
     2  C    0.329846   5.155545   0.291903   0.027264  -0.137114   0.088289
     3  C    0.089563   0.291903   5.321037   0.261618   0.015990  -0.146226
     4  C   -0.146234   0.027264   0.261618   5.525734   0.260700   0.088059
     5  C    0.094443  -0.137114   0.015990   0.260700   5.167199   0.289971
     6  C    0.211829   0.088289  -0.146226   0.088059   0.289971   5.143563
     7  H    0.451644  -0.065267   0.014581  -0.000952   0.013158  -0.072967
     8  H   -0.063675   0.451907  -0.066014   0.016087  -0.001909   0.013311
     9  H    0.013911  -0.002083   0.015437  -0.062556   0.465785  -0.076262
    10  H   -0.072866   0.013606  -0.001104   0.014567  -0.069441   0.454836
    11  C   -0.002617   0.021109   0.001587   0.239576  -0.124783   0.020743
    12  C    0.015589  -0.122499   0.272710  -0.000289   0.022378  -0.002196
    13  C    0.000104  -0.002914  -0.120628   0.017279   0.025028  -0.000795
    14  H    0.000001   0.000028  -0.001570   0.014765  -0.000353  -0.000001
    15  C   -0.000564   0.014468   0.066177  -0.102916  -0.003875   0.000242
    16  H    0.000006  -0.000379   0.016533  -0.001667   0.000036   0.000001
    17  O    0.000001  -0.000072   0.001237  -0.122612   0.015623   0.001155
    18  Cl   0.000107  -0.005064  -0.071070   0.002886  -0.000141   0.000024
    19  C    0.000000   0.000008   0.000074   0.005884  -0.000803  -0.000002
    20  C    0.000000   0.000000  -0.000033  -0.000446   0.000073   0.000001
    21  H    0.000000   0.000000   0.000000   0.000063  -0.000002   0.000000
    22  C    0.000000   0.000001  -0.000040  -0.000949   0.000010   0.000000
    23  H    0.000000   0.000000   0.000001   0.000036  -0.000004   0.000000
    24  H    0.000000   0.000000   0.000042   0.000175  -0.000084  -0.000001
    25  H    0.000000  -0.000002  -0.000047  -0.000731   0.000246   0.000007
    26  C    0.000000   0.000000   0.000025   0.001075  -0.000665  -0.000022
    27  H    0.000000   0.000000  -0.000001  -0.000083  -0.000021   0.000002
    28  H    0.000000   0.000000  -0.000001  -0.000024   0.000018   0.000000
    29  H    0.000000   0.000000   0.000004  -0.000156  -0.000039   0.000008
    30  C    0.000000   0.000000  -0.000064  -0.000311   0.000055   0.000001
    31  H    0.000000   0.000000   0.000001  -0.000026   0.000000   0.000000
    32  H    0.000001  -0.000004  -0.000108   0.000545   0.000273  -0.000006
               7          8          9         10         11         12
     1  C    0.451644  -0.063675   0.013911  -0.072866  -0.002617   0.015589
     2  C   -0.065267   0.451907  -0.002083   0.013606   0.021109  -0.122499
     3  C    0.014581  -0.066014   0.015437  -0.001104   0.001587   0.272710
     4  C   -0.000952   0.016087  -0.062556   0.014567   0.239576  -0.000289
     5  C    0.013158  -0.001909   0.465785  -0.069441  -0.124783   0.022378
     6  C   -0.072967   0.013311  -0.076262   0.454836   0.020743  -0.002196
     7  H    0.650266  -0.011742  -0.000217  -0.010950   0.000052  -0.000439
     8  H   -0.011742   0.646668   0.000020  -0.000217  -0.000180  -0.028191
     9  H   -0.000217   0.000020   0.647927  -0.011368  -0.029738  -0.000104
    10  H   -0.010950  -0.000217  -0.011368   0.651591  -0.000429   0.000049
    11  C    0.000052  -0.000180  -0.029738  -0.000429   5.162533  -0.172527
    12  C   -0.000439  -0.028191  -0.000104   0.000049  -0.172527   5.366582
    13  C    0.000000  -0.000076   0.001181   0.000004   0.214392   0.107480
    14  H    0.000000   0.000002   0.000001   0.000000  -0.083777   0.016254
    15  C    0.000002   0.000508  -0.000156   0.000000   0.138772   0.333968
    16  H    0.000000  -0.000012   0.000001   0.000000   0.015285  -0.078013
    17  O    0.000000   0.000001   0.013691  -0.000023   0.408524   0.000023
    18  Cl  -0.000023   0.022293   0.000001   0.000000   0.000827   0.234570
    19  C    0.000000   0.000000  -0.000686   0.000000  -0.061759   0.000014
    20  C    0.000000   0.000000   0.000090   0.000000  -0.002059   0.000001
    21  H    0.000000   0.000000  -0.000004   0.000000   0.000750   0.000000
    22  C    0.000000   0.000000   0.000035   0.000000  -0.003856  -0.000084
    23  H    0.000000   0.000000  -0.000003   0.000000   0.000456   0.000000
    24  H    0.000000   0.000000  -0.000022   0.000000   0.000760  -0.000063
    25  H    0.000000   0.000000   0.000092   0.000000   0.002274   0.000034
    26  C    0.000000   0.000000  -0.000306   0.000000   0.004831   0.000000
    27  H    0.000000   0.000000   0.000382   0.000000  -0.000216   0.000000
    28  H    0.000000   0.000000   0.000013   0.000000  -0.000075   0.000000
    29  H    0.000000   0.000000   0.000595   0.000000  -0.000545   0.000000
    30  C    0.000000   0.000000   0.000012   0.000000  -0.001667   0.000007
    31  H    0.000000   0.000000   0.000000   0.000000  -0.000375  -0.000001
    32  H    0.000000   0.000000   0.000046   0.000000   0.002916   0.000104
              13         14         15         16         17         18
     1  C    0.000104   0.000001  -0.000564   0.000006   0.000001   0.000107
     2  C   -0.002914   0.000028   0.014468  -0.000379  -0.000072  -0.005064
     3  C   -0.120628  -0.001570   0.066177   0.016533   0.001237  -0.071070
     4  C    0.017279   0.014765  -0.102916  -0.001667  -0.122612   0.002886
     5  C    0.025028  -0.000353  -0.003875   0.000036   0.015623  -0.000141
     6  C   -0.000795  -0.000001   0.000242   0.000001   0.001155   0.000024
     7  H    0.000000   0.000000   0.000002   0.000000   0.000000  -0.000023
     8  H   -0.000076   0.000002   0.000508  -0.000012   0.000001   0.022293
     9  H    0.001181   0.000001  -0.000156   0.000001   0.013691   0.000001
    10  H    0.000004   0.000000   0.000000   0.000000  -0.000023   0.000000
    11  C    0.214392  -0.083777   0.138772   0.015285   0.408524   0.000827
    12  C    0.107480   0.016254   0.333968  -0.078013   0.000023   0.234570
    13  C    5.388217   0.461665   0.194122  -0.058826  -0.086809   0.003383
    14  H    0.461665   0.643377  -0.064281  -0.013673  -0.006505  -0.000133
    15  C    0.194122  -0.064281   5.046518   0.448473   0.004658  -0.061570
    16  H   -0.058826  -0.013673   0.448473   0.646777  -0.000065   0.001210
    17  O   -0.086809  -0.006505   0.004658  -0.000065   8.039031   0.000000
    18  Cl   0.003383  -0.000133  -0.061570   0.001210   0.000000  16.983415
    19  C   -0.002328   0.003527   0.000206  -0.000027   0.245527   0.000000
    20  C   -0.002694   0.003696  -0.000336   0.000015  -0.068980   0.000000
    21  H   -0.000621   0.000405  -0.000016  -0.000002   0.003487   0.000000
    22  C   -0.004506  -0.006039   0.000108   0.000012  -0.051980   0.000000
    23  H   -0.000197   0.000134   0.000004  -0.000001   0.004123   0.000000
    24  H    0.001701   0.003229   0.000530   0.000005  -0.002297   0.000000
    25  H   -0.000273  -0.000060  -0.000203   0.000001  -0.000908   0.000000
    26  C   -0.000040   0.000495   0.000013   0.000000  -0.054795   0.000000
    27  H   -0.000013  -0.000002  -0.000001   0.000000   0.001271   0.000000
    28  H    0.000053   0.000021  -0.000001   0.000000   0.004339   0.000000
    29  H   -0.000013  -0.000047  -0.000001   0.000000   0.000608   0.000000
    30  C   -0.004332   0.002643  -0.000050   0.000009   0.003100   0.000000
    31  H    0.000008   0.000092   0.000028  -0.000001   0.000315   0.000000
    32  H   -0.001783  -0.000712  -0.000437  -0.000004   0.007406   0.000000
              19         20         21         22         23         24
     1  C    0.000000   0.000000   0.000000   0.000000   0.000000   0.000000
     2  C    0.000008   0.000000   0.000000   0.000001   0.000000   0.000000
     3  C    0.000074  -0.000033   0.000000  -0.000040   0.000001   0.000042
     4  C    0.005884  -0.000446   0.000063  -0.000949   0.000036   0.000175
     5  C   -0.000803   0.000073  -0.000002   0.000010  -0.000004  -0.000084
     6  C   -0.000002   0.000001   0.000000   0.000000   0.000000  -0.000001
     7  H    0.000000   0.000000   0.000000   0.000000   0.000000   0.000000
     8  H    0.000000   0.000000   0.000000   0.000000   0.000000   0.000000
     9  H   -0.000686   0.000090  -0.000004   0.000035  -0.000003  -0.000022
    10  H    0.000000   0.000000   0.000000   0.000000   0.000000   0.000000
    11  C   -0.061759  -0.002059   0.000750  -0.003856   0.000456   0.000760
    12  C    0.000014   0.000001   0.000000  -0.000084   0.000000  -0.000063
    13  C   -0.002328  -0.002694  -0.000621  -0.004506  -0.000197   0.001701
    14  H    0.003527   0.003696   0.000405  -0.006039   0.000134   0.003229
    15  C    0.000206  -0.000336  -0.000016   0.000108   0.000004   0.000530
    16  H   -0.000027   0.000015  -0.000002   0.000012  -0.000001   0.000005
    17  O    0.245527  -0.068980   0.003487  -0.051980   0.004123  -0.002297
    18  Cl   0.000000   0.000000   0.000000   0.000000   0.000000   0.000000
    19  C    5.000088   0.273550  -0.053699   0.408753  -0.016854  -0.020749
    20  C    0.273550   4.999197   0.410622  -0.093619  -0.003817  -0.006950
    21  H   -0.053699   0.410622   0.635789  -0.001152   0.002459  -0.000339
    22  C    0.408753  -0.093619  -0.001152   4.663060   0.384767   0.400882
    23  H   -0.016854  -0.003817   0.002459   0.384767   0.610379  -0.018990
    24  H   -0.020749  -0.006950  -0.000339   0.400882  -0.018990   0.600837
    25  H   -0.013359   0.009764  -0.000055   0.380524  -0.015927  -0.021159
    26  C    0.417779  -0.077947  -0.000206  -0.064327  -0.003739   0.007480
    27  H   -0.015576  -0.006168  -0.000106   0.010003   0.000000  -0.000436
    28  H   -0.017661  -0.001600   0.001664  -0.005122   0.002723  -0.000088
    29  H   -0.020812   0.010341  -0.000284  -0.008055  -0.000849   0.000126
    30  C   -0.042685   0.669462  -0.036253   0.008067  -0.000056   0.000393
    31  H    0.009728  -0.017768  -0.013699  -0.000307   0.000000  -0.000037
    32  H   -0.026309  -0.012605   0.007992   0.001039  -0.000042   0.000018
              25         26         27         28         29         30
     1  C    0.000000   0.000000   0.000000   0.000000   0.000000   0.000000
     2  C   -0.000002   0.000000   0.000000   0.000000   0.000000   0.000000
     3  C   -0.000047   0.000025  -0.000001  -0.000001   0.000004  -0.000064
     4  C   -0.000731   0.001075  -0.000083  -0.000024  -0.000156  -0.000311
     5  C    0.000246  -0.000665  -0.000021   0.000018  -0.000039   0.000055
     6  C    0.000007  -0.000022   0.000002   0.000000   0.000008   0.000001
     7  H    0.000000   0.000000   0.000000   0.000000   0.000000   0.000000
     8  H    0.000000   0.000000   0.000000   0.000000   0.000000   0.000000
     9  H    0.000092  -0.000306   0.000382   0.000013   0.000595   0.000012
    10  H    0.000000   0.000000   0.000000   0.000000   0.000000   0.000000
    11  C    0.002274   0.004831  -0.000216  -0.000075  -0.000545  -0.001667
    12  C    0.000034   0.000000   0.000000   0.000000   0.000000   0.000007
    13  C   -0.000273  -0.000040  -0.000013   0.000053  -0.000013  -0.004332
    14  H   -0.000060   0.000495  -0.000002   0.000021  -0.000047   0.002643
    15  C   -0.000203   0.000013  -0.000001  -0.000001  -0.000001  -0.000050
    16  H    0.000001   0.000000   0.000000   0.000000   0.000000   0.000009
    17  O   -0.000908  -0.054795   0.001271   0.004339   0.000608   0.003100
    18  Cl   0.000000   0.000000   0.000000   0.000000   0.000000   0.000000
    19  C   -0.013359   0.417779  -0.015576  -0.017661  -0.020812  -0.042685
    20  C    0.009764  -0.077947  -0.006168  -0.001600   0.010341   0.669462
    21  H   -0.000055  -0.000206  -0.000106   0.001664  -0.000284  -0.036253
    22  C    0.380524  -0.064327   0.010003  -0.005122  -0.008055   0.008067
    23  H   -0.015927  -0.003739   0.000000   0.002723  -0.000849  -0.000056
    24  H   -0.021159   0.007480  -0.000436  -0.000088   0.000126   0.000393
    25  H    0.605868  -0.009488  -0.000122  -0.000317   0.005267  -0.000388
    26  C   -0.009488   4.611806   0.380141   0.386989   0.387980  -0.013069
    27  H   -0.000122   0.380141   0.614843  -0.017650  -0.020814   0.005014
    28  H   -0.000317   0.386989  -0.017650   0.619572  -0.018825  -0.000133
    29  H    0.005267   0.387980  -0.020814  -0.018825   0.613502  -0.000037
    30  C   -0.000388  -0.013069   0.005014  -0.000133  -0.000037   4.693462
    31  H    0.000010  -0.000073  -0.000171  -0.000013   0.000016   0.390143
    32  H   -0.000020  -0.001011   0.001085   0.000080  -0.000085   0.392096
              31         32
     1  C    0.000000   0.000001
     2  C    0.000000  -0.000004
     3  C    0.000001  -0.000108
     4  C   -0.000026   0.000545
     5  C    0.000000   0.000273
     6  C    0.000000  -0.000006
     7  H    0.000000   0.000000
     8  H    0.000000   0.000000
     9  H    0.000000   0.000046
    10  H    0.000000   0.000000
    11  C   -0.000375   0.002916
    12  C   -0.000001   0.000104
    13  C    0.000008  -0.001783
    14  H    0.000092  -0.000712
    15  C    0.000028  -0.000437
    16  H   -0.000001  -0.000004
    17  O    0.000315   0.007406
    18  Cl   0.000000   0.000000
    19  C    0.009728  -0.026309
    20  C   -0.017768  -0.012605
    21  H   -0.013699   0.007992
    22  C   -0.000307   0.001039
    23  H    0.000000  -0.000042
    24  H   -0.000037   0.000018
    25  H    0.000010  -0.000020
    26  C   -0.000073  -0.001011
    27  H   -0.000171   0.001085
    28  H   -0.000013   0.000080
    29  H    0.000016  -0.000085
    30  C    0.390143   0.392096
    31  H    0.610840  -0.040921
    32  H   -0.040921   0.602953
 Mulliken charges:
               1
     1  C   -0.011174
     2  C   -0.058576
     3  C    0.038386
     4  C   -0.036364
     5  C   -0.031749
     6  C   -0.013565
     7  H    0.032852
     8  H    0.021221
     9  H    0.024286
    10  H    0.031745
    11  C    0.249217
    12  C    0.034641
    13  C   -0.127770
    14  H    0.026816
    15  C   -0.014390
    16  H    0.024306
    17  O   -0.359075
    18  Cl  -0.110715
    19  C   -0.071830
    20  C   -0.081791
    21  H    0.043207
    22  C   -0.017227
    23  H    0.055395
    24  H    0.055036
    25  H    0.058971
    26  C    0.027071
    27  H    0.048639
    28  H    0.046034
    29  H    0.052115
    30  C   -0.065419
    31  H    0.062212
    32  H    0.067494
 Sum of Mulliken charges =   0.00000
 Mulliken charges with hydrogens summed into heavy atoms:
               1
     1  C    0.021678
     2  C   -0.037356
     3  C    0.038386
     4  C   -0.036364
     5  C   -0.007463
     6  C    0.018180
    11  C    0.249217
    12  C    0.034641
    13  C   -0.100954
    15  C    0.009916
    17  O   -0.359075
    18  Cl  -0.110715
    19  C   -0.071830
    20  C   -0.038584
    22  C    0.152176
    26  C    0.173860
    30  C    0.064287
 Electronic spatial extent (au):  <R**2>=           4879.4691
 Charge=              0.0000 electrons
 Dipole moment (field-independent basis, Debye):
    X=              3.4046    Y=              0.2523    Z=             -0.6145  Tot=              3.4688
 Quadrupole moment (field-independent basis, Debye-Ang):
   XX=            -98.7434   YY=            -99.7531   ZZ=           -109.7533
   XY=             -7.6440   XZ=             -3.0684   YZ=             -0.0976
 Traceless Quadrupole moment (field-independent basis, Debye-Ang):
   XX=              4.0065   YY=              2.9969   ZZ=             -7.0034
   XY=             -7.6440   XZ=             -3.0684   YZ=             -0.0976
 Octapole moment (field-independent basis, Debye-Ang**2):
  XXX=             31.0058  YYY=              8.2238  ZZZ=              0.8206  XYY=             -2.4357
  XXY=              7.9722  XXZ=            -10.2251  XZZ=             11.8198  YZZ=             -8.1469
  YYZ=              1.5681  XYZ=             -3.9264
 Hexadecapole moment (field-independent basis, Debye-Ang**3):
 XXXX=          -4200.9011 YYYY=          -1569.7148 ZZZZ=           -463.9934 XXXY=            -75.6896
 XXXZ=            -55.0049 YYYX=            -11.4375 YYYZ=             11.6533 ZZZX=              7.5844
 ZZZY=            -13.9629 XXYY=           -976.0926 XXZZ=           -827.2257 YYZZ=           -377.9241
 XXYZ=             -7.1713 YYXZ=              1.6080 ZZXY=             11.3601
 N-N= 1.274228398561D+03 E-N=-5.160138097755D+03  KE= 1.107318807689D+03
   1 Symmetry operations used in ECPInt.
 ECPInt:  NShTT=   11175 NPrTT=   41031 LenC2=   10476 LenP2D=   27506.
 LDataN:  DoStor=T MaxTD1= 5 Len=  102
 D1PCM: C-PCM CHGder 1st derivatives, ID1Alg=3 FixD1E=F DoIter=F DoCFld=F I1PDM=0.
 Calling FoFJK, ICntrl=      2127 FMM=F ISym2X=0 I1Cent= 0 IOpClX= 0 NMat=1 NMatS=1 NMatT=0.
 ***** Axes restored to original set *****
 -------------------------------------------------------------------
 Center     Atomic                   Forces (Hartrees/Bohr)
 Number     Number              X              Y              Z
 -------------------------------------------------------------------
      1        6          -0.000003151   -0.000000140   -0.000009795
      2        6          -0.000000411   -0.000020527   -0.000007738
      3        6          -0.000001850   -0.000013585   -0.000004327
      4        6           0.000003088    0.000011961   -0.000002306
      5        6          -0.000007171    0.000016294   -0.000004614
      6        6           0.000007301   -0.000000846   -0.000009095
      7        1          -0.000010143   -0.000022007   -0.000011994
      8        1          -0.000004036   -0.000018543   -0.000007617
      9        1          -0.000011502    0.000001345   -0.000002222
     10        1          -0.000003890   -0.000015729   -0.000011800
     11        6          -0.000026688   -0.000004977    0.000001049
     12        6           0.000000409   -0.000018343   -0.000002823
     13        6           0.000006411   -0.000015437    0.000002391
     14        1          -0.000004240   -0.000001403    0.000004331
     15        6           0.000008103   -0.000028581   -0.000002027
     16        1           0.000029621    0.000006573    0.000007233
     17        8          -0.000002500    0.000018266    0.000007500
     18       17           0.000011821   -0.000024619   -0.000001901
     19        6          -0.000010321    0.000019046   -0.000000051
     20        6           0.000005930    0.000004117    0.000014117
     21        1           0.000017674   -0.000001795    0.000013003
     22        6           0.000012040   -0.000000866   -0.000007790
     23        1           0.000009464    0.000002867   -0.000005930
     24        1          -0.000004279   -0.000002656   -0.000002862
     25        1          -0.000008732    0.000001987   -0.000011291
     26        6           0.000008385    0.000017341   -0.000002700
     27        1          -0.000004315    0.000023772    0.000008276
     28        1          -0.000003035    0.000018997    0.000008507
     29        1          -0.000005353    0.000016840   -0.000001268
     30        6          -0.000001250    0.000005986    0.000021269
     31        1           0.000002057    0.000012984    0.000011922
     32        1          -0.000009438    0.000011677    0.000010553
 -------------------------------------------------------------------
 Cartesian Forces:  Max     0.000029621 RMS     0.000011293

 GradGradGradGradGradGradGradGradGradGradGradGradGradGradGradGradGradGrad
 Berny optimization.
 FormGI is forming the generalized inverse of G from B-inverse, IUseBI=4.
 Internal  Forces:  Max     0.000048769 RMS     0.000011198
 Search for a local minimum.
 Step number   1 out of a maximum of  175
 All quantities printed in internal units (Hartrees-Bohrs-Radians)
 Mixed Optimization -- En-DIIS/RFO-DIIS
 Second derivative matrix not updated -- first step.
 ITU=  0
     Eigenvalues ---    0.00359   0.00367   0.00568   0.01250   0.01608
     Eigenvalues ---    0.01721   0.01743   0.01781   0.01957   0.02007
     Eigenvalues ---    0.02031   0.02036   0.02102   0.02131   0.02150
     Eigenvalues ---    0.02155   0.02176   0.02209   0.02277   0.02297
     Eigenvalues ---    0.02337   0.03007   0.03007   0.05007   0.05357
     Eigenvalues ---    0.05683   0.05771   0.05828   0.05949   0.07556
     Eigenvalues ---    0.15984   0.15996   0.15999   0.16000   0.16000
     Eigenvalues ---    0.16000   0.16000   0.16000   0.16000   0.16000
     Eigenvalues ---    0.16000   0.16000   0.16000   0.16000   0.16000
     Eigenvalues ---    0.16402   0.16949   0.22000   0.22004   0.22489
     Eigenvalues ---    0.22560   0.24487   0.24496   0.24988   0.24999
     Eigenvalues ---    0.25000   0.25000   0.29356   0.29410   0.30858
     Eigenvalues ---    0.30945   0.33755   0.33776   0.33823   0.33881
     Eigenvalues ---    0.33912   0.34138   0.34185   0.34443   0.34661
     Eigenvalues ---    0.34702   0.34712   0.34805   0.34856   0.34917
     Eigenvalues ---    0.35211   0.36949   0.38686   0.40121   0.40501
     Eigenvalues ---    0.40539   0.41822   0.42609   0.42910   0.47962
     Eigenvalues ---    0.48279   0.49504   0.50010   0.54756   0.59360
 RFO step:  Lambda=-9.69635578D-08 EMin= 3.59362876D-03
 Linear search not attempted -- first point.
 Iteration  1 RMS(Cart)=  0.00028820 RMS(Int)=  0.00000002
 Iteration  2 RMS(Cart)=  0.00000003 RMS(Int)=  0.00000000
 Variable       Old X    -DE/DX   Delta X   Delta X   Delta X     New X
                                 (Linear)    (Quad)   (Total)
    R1        2.59749   0.00002   0.00000   0.00005   0.00005   2.59754
    R2        2.67312   0.00001   0.00000   0.00003   0.00003   2.67315
    R3        2.06161   0.00000   0.00000  -0.00001  -0.00001   2.06160
    R4        2.68399   0.00000   0.00000   0.00000   0.00000   2.68399
    R5        2.05909   0.00000   0.00000   0.00001   0.00001   2.05910
    R6        2.69416   0.00000   0.00000   0.00001   0.00001   2.69417
    R7        2.69660   0.00003   0.00000   0.00008   0.00008   2.69669
    R8        2.68285   0.00001   0.00000   0.00001   0.00001   2.68287
    R9        2.71602  -0.00003   0.00000  -0.00008  -0.00008   2.71594
   R10        2.59805  -0.00003   0.00000  -0.00006  -0.00006   2.59799
   R11        2.05810   0.00000   0.00000  -0.00001  -0.00001   2.05810
   R12        2.06145  -0.00001   0.00000  -0.00002  -0.00002   2.06143
   R13        2.60512   0.00001   0.00000   0.00001   0.00001   2.60513
   R14        2.55350   0.00000   0.00000  -0.00001  -0.00001   2.55349
   R15        2.58767   0.00001   0.00000   0.00002   0.00002   2.58768
   R16        3.29818   0.00000   0.00000   0.00000   0.00000   3.29817
   R17        2.05334  -0.00001   0.00000  -0.00002  -0.00002   2.05332
   R18        2.67427  -0.00002   0.00000  -0.00005  -0.00005   2.67422
   R19        2.05992  -0.00002   0.00000  -0.00004  -0.00004   2.05988
   R20        2.70878  -0.00001   0.00000  -0.00003  -0.00003   2.70875
   R21        2.86284   0.00004   0.00000   0.00015   0.00015   2.86299
   R22        2.89267   0.00005   0.00000   0.00017   0.00017   2.89284
   R23        2.89156   0.00003   0.00000   0.00011   0.00011   2.89167
   R24        2.07019   0.00002   0.00000   0.00005   0.00005   2.07024
   R25        2.51450   0.00003   0.00000   0.00005   0.00005   2.51455
   R26        2.07629   0.00001   0.00000   0.00002   0.00002   2.07632
   R27        2.07097   0.00001   0.00000   0.00003   0.00003   2.07100
   R28        2.07709   0.00001   0.00000   0.00004   0.00004   2.07713
   R29        2.07479   0.00001   0.00000   0.00003   0.00003   2.07482
   R30        2.07531   0.00000   0.00000  -0.00001  -0.00001   2.07530
   R31        2.07746   0.00001   0.00000   0.00002   0.00002   2.07748
   R32        2.06230   0.00000   0.00000   0.00001   0.00001   2.06231
   R33        2.06589   0.00001   0.00000   0.00003   0.00003   2.06592
    A1        2.10213   0.00001   0.00000   0.00005   0.00005   2.10218
    A2        2.09009  -0.00001   0.00000  -0.00006  -0.00006   2.09003
    A3        2.09097   0.00000   0.00000   0.00001   0.00001   2.09097
    A4        2.10729   0.00000   0.00000   0.00001   0.00001   2.10730
    A5        2.10415   0.00000   0.00000   0.00000   0.00000   2.10415
    A6        2.07175   0.00000   0.00000  -0.00001  -0.00001   2.07174
    A7        2.07333  -0.00003   0.00000  -0.00010  -0.00010   2.07323
    A8        2.14919   0.00002   0.00000   0.00009   0.00009   2.14928
    A9        2.06066   0.00000   0.00000   0.00001   0.00001   2.06067
   A10        2.07979   0.00003   0.00000   0.00011   0.00011   2.07990
   A11        2.09346  -0.00001   0.00000  -0.00006  -0.00006   2.09340
   A12        2.10993  -0.00001   0.00000  -0.00006  -0.00006   2.10988
   A13        2.10675   0.00000   0.00000  -0.00003  -0.00003   2.10673
   A14        2.06396   0.00000   0.00000   0.00003   0.00003   2.06399
   A15        2.11247   0.00000   0.00000   0.00000   0.00000   2.11247
   A16        2.09707  -0.00001   0.00000  -0.00004  -0.00004   2.09703
   A17        2.09152   0.00002   0.00000   0.00009   0.00009   2.09161
   A18        2.09460  -0.00001   0.00000  -0.00005  -0.00005   2.09455
   A19        2.08888   0.00002   0.00000   0.00008   0.00008   2.08896
   A20        1.99548  -0.00003   0.00000  -0.00010  -0.00010   1.99538
   A21        2.19844   0.00001   0.00000   0.00003   0.00003   2.19847
   A22        2.11302   0.00000   0.00000   0.00000   0.00000   2.11302
   A23        2.08997   0.00002   0.00000   0.00007   0.00007   2.09004
   A24        2.08018  -0.00001   0.00000  -0.00006  -0.00006   2.08012
   A25        2.10990   0.00001   0.00000   0.00007   0.00007   2.10996
   A26        2.10062   0.00000   0.00000   0.00000   0.00000   2.10062
   A27        2.07243  -0.00001   0.00000  -0.00006  -0.00006   2.07237
   A28        2.10963  -0.00001   0.00000  -0.00002  -0.00002   2.10960
   A29        2.08695   0.00002   0.00000   0.00012   0.00012   2.08706
   A30        2.08657  -0.00001   0.00000  -0.00009  -0.00009   2.08648
   A31        2.17083  -0.00003   0.00000  -0.00011  -0.00011   2.17072
   A32        1.94892  -0.00001   0.00000  -0.00017  -0.00017   1.94876
   A33        1.94749   0.00000   0.00000  -0.00010  -0.00010   1.94739
   A34        1.80461   0.00000   0.00000  -0.00005  -0.00005   1.80457
   A35        1.95793   0.00001   0.00000   0.00011   0.00011   1.95804
   A36        1.89076   0.00000   0.00000   0.00010   0.00010   1.89086
   A37        1.90664   0.00000   0.00000   0.00010   0.00010   1.90674
   A38        2.00445   0.00001   0.00000   0.00009   0.00009   2.00454
   A39        2.17769  -0.00001   0.00000  -0.00003  -0.00003   2.17767
   A40        2.09959  -0.00001   0.00000  -0.00006  -0.00006   2.09953
   A41        1.90144   0.00002   0.00000   0.00013   0.00013   1.90157
   A42        1.97796   0.00000   0.00000   0.00000   0.00000   1.97796
   A43        1.90896   0.00001   0.00000   0.00003   0.00003   1.90899
   A44        1.88551  -0.00001   0.00000   0.00000   0.00000   1.88551
   A45        1.89218  -0.00001   0.00000  -0.00002  -0.00002   1.89216
   A46        1.89598  -0.00001   0.00000  -0.00014  -0.00014   1.89584
   A47        1.90981   0.00001   0.00000   0.00004   0.00004   1.90984
   A48        1.92668   0.00001   0.00000   0.00004   0.00004   1.92672
   A49        1.91749   0.00000   0.00000   0.00002   0.00002   1.91751
   A50        1.90004  -0.00001   0.00000  -0.00003  -0.00003   1.90001
   A51        1.90616  -0.00001   0.00000  -0.00006  -0.00006   1.90610
   A52        1.90344   0.00000   0.00000   0.00000   0.00000   1.90343
   A53        2.11695   0.00000   0.00000   0.00001   0.00001   2.11696
   A54        2.10964   0.00000   0.00000   0.00003   0.00003   2.10967
   A55        2.05655  -0.00001   0.00000  -0.00004  -0.00004   2.05652
    D1        0.00217   0.00000   0.00000  -0.00002  -0.00002   0.00214
    D2       -3.14015   0.00000   0.00000  -0.00003  -0.00003  -3.14018
    D3       -3.14151   0.00000   0.00000   0.00001   0.00001  -3.14150
    D4       -0.00064   0.00000   0.00000   0.00001   0.00001  -0.00063
    D5       -0.00087   0.00000   0.00000   0.00001   0.00001  -0.00086
    D6        3.13932   0.00000   0.00000   0.00003   0.00003   3.13935
    D7       -3.14037   0.00000   0.00000  -0.00002  -0.00002  -3.14040
    D8       -0.00018   0.00000   0.00000  -0.00001  -0.00001  -0.00019
    D9       -0.00092   0.00000   0.00000   0.00000   0.00000  -0.00092
   D10       -3.14104   0.00000   0.00000  -0.00001  -0.00001  -3.14105
   D11        3.14138   0.00000   0.00000   0.00000   0.00000   3.14138
   D12        0.00126   0.00000   0.00000  -0.00001  -0.00001   0.00125
   D13       -0.00156   0.00000   0.00000   0.00004   0.00004  -0.00153
   D14        3.13817   0.00000   0.00000   0.00004   0.00004   3.13821
   D15        3.13863   0.00000   0.00000   0.00005   0.00005   3.13868
   D16       -0.00483   0.00000   0.00000   0.00006   0.00006  -0.00477
   D17       -3.13568   0.00000   0.00000  -0.00001  -0.00001  -3.13568
   D18        0.00064   0.00000   0.00000  -0.00004  -0.00004   0.00060
   D19        0.00738   0.00000   0.00000  -0.00002  -0.00002   0.00736
   D20       -3.13949   0.00000   0.00000  -0.00005  -0.00005  -3.13954
   D21        0.00287   0.00000   0.00000  -0.00005  -0.00005   0.00282
   D22       -3.13992   0.00000   0.00000  -0.00008  -0.00008  -3.14000
   D23       -3.13684   0.00000   0.00000  -0.00005  -0.00005  -3.13690
   D24        0.00355   0.00000   0.00000  -0.00008  -0.00008   0.00346
   D25       -0.00612   0.00000   0.00000  -0.00005  -0.00005  -0.00617
   D26       -3.11969   0.00000   0.00000  -0.00013  -0.00013  -3.11982
   D27        3.13358   0.00000   0.00000  -0.00004  -0.00004   3.13354
   D28        0.02001   0.00000   0.00000  -0.00012  -0.00012   0.01989
   D29       -0.00167   0.00000   0.00000   0.00002   0.00002  -0.00165
   D30        3.14132   0.00000   0.00000   0.00001   0.00001   3.14133
   D31        3.14115   0.00000   0.00000   0.00005   0.00005   3.14121
   D32        0.00096   0.00000   0.00000   0.00004   0.00004   0.00100
   D33       -3.10327   0.00000   0.00000  -0.00001  -0.00001  -3.10328
   D34        0.01468   0.00000   0.00000   0.00000   0.00000   0.01468
   D35        0.00678   0.00000   0.00000   0.00008   0.00008   0.00685
   D36        3.12472   0.00000   0.00000   0.00009   0.00009   3.12481
   D37       -2.82968   0.00000   0.00000   0.00009   0.00009  -2.82959
   D38        0.34200   0.00000   0.00000   0.00000   0.00000   0.34200
   D39        0.00099   0.00000   0.00000  -0.00002  -0.00002   0.00096
   D40        3.13322   0.00000   0.00000  -0.00005  -0.00005   3.13317
   D41       -3.13536   0.00000   0.00000   0.00001   0.00001  -3.13535
   D42       -0.00312   0.00000   0.00000  -0.00002  -0.00002  -0.00314
   D43       -0.01233   0.00000   0.00000   0.00003   0.00003  -0.01230
   D44        3.13861   0.00000   0.00000   0.00006   0.00006   3.13867
   D45        3.10611   0.00000   0.00000   0.00005   0.00005   3.10616
   D46       -0.02613   0.00000   0.00000   0.00008   0.00008  -0.02605
   D47       -1.29092   0.00000   0.00000   0.00005   0.00005  -1.29087
   D48        0.91591   0.00000   0.00000  -0.00001  -0.00001   0.91590
   D49        2.96306   0.00000   0.00000   0.00004   0.00004   2.96310
   D50        2.94319   0.00000   0.00000   0.00016   0.00016   2.94336
   D51       -0.25653   0.00000   0.00000   0.00031   0.00031  -0.25622
   D52        0.74208   0.00001   0.00000   0.00034   0.00034   0.74242
   D53       -2.45764   0.00001   0.00000   0.00048   0.00048  -2.45716
   D54       -1.36394   0.00000   0.00000   0.00008   0.00008  -1.36386
   D55        1.71953   0.00000   0.00000   0.00022   0.00022   1.71975
   D56        2.95405   0.00000   0.00000   0.00002   0.00002   2.95407
   D57       -1.22960   0.00001   0.00000   0.00010   0.00010  -1.22950
   D58        0.88861   0.00000   0.00000  -0.00006  -0.00006   0.88855
   D59       -1.12724  -0.00001   0.00000  -0.00020  -0.00020  -1.12744
   D60        0.97229   0.00000   0.00000  -0.00011  -0.00011   0.97218
   D61        3.09050  -0.00001   0.00000  -0.00027  -0.00027   3.09023
   D62        0.96957   0.00000   0.00000   0.00006   0.00006   0.96963
   D63        3.06910   0.00001   0.00000   0.00015   0.00015   3.06925
   D64       -1.09588   0.00000   0.00000  -0.00001  -0.00001  -1.09589
   D65        0.97456   0.00000   0.00000  -0.00022  -0.00022   0.97434
   D66        3.06531   0.00000   0.00000  -0.00022  -0.00022   3.06509
   D67       -1.11805   0.00000   0.00000  -0.00018  -0.00018  -1.11823
   D68       -1.09542   0.00001   0.00000  -0.00005  -0.00005  -1.09548
   D69        0.99532   0.00001   0.00000  -0.00005  -0.00005   0.99527
   D70        3.09515   0.00001   0.00000  -0.00001  -0.00001   3.09514
   D71        3.05018  -0.00001   0.00000  -0.00031  -0.00031   3.04987
   D72       -1.14226  -0.00001   0.00000  -0.00030  -0.00030  -1.14257
   D73        0.95757  -0.00001   0.00000  -0.00027  -0.00027   0.95730
   D74       -3.09467   0.00000   0.00000  -0.00010  -0.00010  -3.09478
   D75        0.05675   0.00000   0.00000  -0.00003  -0.00003   0.05673
   D76       -0.01418   0.00000   0.00000   0.00005   0.00005  -0.01412
   D77        3.13725   0.00000   0.00000   0.00013   0.00013   3.13738
         Item               Value     Threshold  Converged?
 Maximum Force            0.000049     0.000450     YES
 RMS     Force            0.000011     0.000300     YES
 Maximum Displacement     0.001258     0.001800     YES
 RMS     Displacement     0.000288     0.001200     YES
 Predicted change in Energy=-4.848370D-08
 Optimization completed.
    -- Stationary point found.
                           ----------------------------
                           !   Optimized Parameters   !
                           ! (Angstroms and Degrees)  !
 --------------------------                            --------------------------
 ! Name  Definition              Value          Derivative Info.                !
 --------------------------------------------------------------------------------
 ! R1    R(1,2)                  1.3745         -DE/DX =    0.0                 !
 ! R2    R(1,6)                  1.4146         -DE/DX =    0.0                 !
 ! R3    R(1,7)                  1.091          -DE/DX =    0.0                 !
 ! R4    R(2,3)                  1.4203         -DE/DX =    0.0                 !
 ! R5    R(2,8)                  1.0896         -DE/DX =    0.0                 !
 ! R6    R(3,4)                  1.4257         -DE/DX =    0.0                 !
 ! R7    R(3,12)                 1.427          -DE/DX =    0.0                 !
 ! R8    R(4,5)                  1.4197         -DE/DX =    0.0                 !
 ! R9    R(4,11)                 1.4373         -DE/DX =    0.0                 !
 ! R10   R(5,6)                  1.3748         -DE/DX =    0.0                 !
[...]
 0.00007491,-0.00000375,-0.00000162,0.00000077,-0.00034381,-0.00006088,
 -0.00003982,-0.00003026,-0.00000088,-0.00000097,0.00017142,0.00006126,
 0.00000999,0.00001529,0.00004586,-0.00004441,-0.00001319,0.00002915,0.
 00000729,0.00001332,0.00000802,-0.00000144,0.00257437,0.00051700,-0.00
 042462,0.00004829,0.00002585,0.00000109,-0.00163128,-0.00951510,-0.018
 30611,-0.00006712,0.00139849,-0.00055842,0.00004250,0.00001801,-0.0000
 0128,-0.00266951,-0.00313617,0.00052906,0.00027860,-0.00005115,-0.0000
 8627,0.00018328,-0.00069523,-0.00107112,0.00002847,0.00003376,0.000290
 76,-0.04458232,0.00564792,0.00908993,0.04461480,-0.00000833,-0.0000033
 3,0.00000236,-0.00000405,0.00000559,0.00000228,-0.00001064,-0.00001289
 ,-0.00001063,0.00000618,-0.00001712,-0.00001865,0.00001368,0.00002736,
 -0.00000215,-0.00000253,-0.00000964,0.00000230,-0.00000141,-0.00000029
 ,-0.00000053,-0.00000044,-0.00000018,-0.00000202,-0.00001069,-0.000002
 75,0.00000470,0.00000378,-0.00000014,-0.00000147,-0.00004940,0.0001368
 5,0.00019454,-0.00000857,0.00002359,-0.00000109,0.00011260,0.00000694,
 0.00003771,0.00001863,0.00003899,-0.00006620,0.00001942,0.00002766,0.0
 0000270,0.00000546,0.00000225,-0.00000336,0.00241999,0.00132522,0.0007
 8137,0.00000317,0.00000034,0.00000163,0.00184259,-0.01249801,-0.022499
 19,0.00039189,0.00127818,-0.00222278,-0.00012897,-0.00006442,-0.000040
 85,-0.00358259,-0.00400866,0.00065191,-0.00009164,0.00009848,0.0003676
 1,-0.00032953,-0.00018445,-0.00161202,-0.00014799,0.00009922,-0.000154
 68,0.00354075,-0.09524148,-0.10459435,-0.00142186,0.10255421,-0.000011
 95,-0.00000816,-0.00000215,0.00000537,0.00001427,0.00000338,-0.0000046
 9,-0.00001057,-0.00001102,0.00002143,-0.00005942,0.00000385,-0.0000499
 5,-0.00002720,0.00001751,0.00003282,0.00001850,0.00000399,0.00000343,0
 .00000131,-0.00000060,-0.00000060,0.00000084,-0.00000107,-0.00010468,0
 .00002396,-0.00004153,-0.00000681,0.00000343,-0.00000070,-0.00018105,0
 .00018610,0.00017759,-0.00001776,0.00002738,-0.00000121,0.00007471,0.0
 0005166,0.00004850,0.00000278,0.00003160,0.00000435,0.00003361,0.00003
 005,-0.00001147,0.00000558,0.00000236,-0.00000127,0.00017373,0.0006318
 2,0.00074457,0.00000044,0.00000321,0.00000201,0.00064364,0.00127249,-0
 .00110915,-0.00004197,0.00087185,0.00098974,0.00004602,0.00014045,0.00
 004576,-0.00055741,-0.00077130,0.00099918,0.00005695,0.00026944,0.0001
 0350,0.00022249,-0.00011285,-0.00003571,0.00021372,0.00010049,0.000258
 39,0.00692321,-0.10837102,-0.27620831,-0.00782400,0.11601295,0.2915098
 7,0.00001303,0.00001797,0.00000237,-0.00002190,-0.00001893,-0.00000300
 ,-0.00002596,0.00005948,-0.00001390,-0.00033833,-0.00014899,0.00002234
 ,0.00001610,-0.00004991,-0.00000123,-0.00003167,0.00002517,0.00000584,
 -0.00000877,0.00000552,-0.00000014,-0.00001072,0.00000480,-0.00000112,
 0.00001130,-0.00004403,-0.00000907,-0.00000540,0.00000999,-0.00000035,
 0.00138361,0.00096579,0.00058312,0.00005296,0.00002221,0.00000454,-0.0
 0029047,-0.00029988,-0.00008118,0.00000647,0.00000507,0.00001450,0.000
 07149,-0.00001331,-0.00003486,-0.00003567,-0.00001816,0.00000055,-0.00
 593118,-0.00371428,0.00008133,-0.00012430,-0.00005480,-0.00000064,-0.0
 1360139,0.00947078,0.00335143,0.00013152,0.00093531,-0.00063147,0.0002
 6050,-0.00036302,0.00022488,0.00029785,0.00095496,0.00063317,0.0003905
 7,-0.00029256,-0.00041300,0.00037402,-0.00019464,-0.00005143,0.0000496
 9,-0.00011895,0.00007129,-0.28848006,0.07817941,0.04986797,0.00182197,
 -0.00103206,-0.00110647,0.30914328,0.00000459,0.00000863,0.00000320,-0
 .00001402,-0.00001954,-0.00000170,-0.00004410,0.00008181,-0.00001938,-
 0.00028830,-0.00023485,0.00000148,-0.00003671,-0.00006769,-0.00000300,
 0.00000824,0.00004557,0.00000386,0.00000121,0.00000447,-0.00000022,-0.
 00000993,0.00000712,-0.00000163,-0.00005391,0.00000591,0.00001121,-0.0
 0000904,0.00000914,-0.00000024,-0.00032285,0.00091243,0.00048129,0.000
 01243,0.00001003,0.00000393,-0.00010015,-0.00005210,-0.00002243,0.0000
 1697,-0.00001151,-0.00000904,0.00004212,-0.00001209,-0.00001279,-0.000
 02037,-0.00001053,0.00000077,-0.00671692,-0.00312570,0.00024868,-0.000
 05496,-0.00002272,-0.00000051,-0.01934586,0.00917878,0.00461263,-0.000
 22309,0.00042072,0.00041431,-0.00009028,-0.00052333,0.00020937,0.00010
 421,0.00060947,0.00037782,-0.00021106,-0.00020646,-0.00043012,0.000166
 43,0.00002649,0.00019115,-0.00001441,-0.00000776,-0.00009459,0.0822819
 3,-0.07406868,-0.01746076,0.01176529,-0.00405187,-0.00043670,-0.084530
 47,0.07618669,-0.00000127,-0.00000423,-0.00000098,0.00000472,0.0000057
 2,-0.00000075,0.00000524,-0.00002136,-0.00001704,0.00006279,0.00003190
 ,0.00000766,-0.00000645,0.00000619,0.00000985,0.00000815,-0.00000053,0
 .00000773,0.00000151,-0.00000061,-0.00000066,0.00000212,-0.00000115,-0
 .00000226,-0.00000311,0.00001183,-0.00003012,0.00000065,-0.00000173,-0
 .00000160,-0.00022503,-0.00016467,0.00050081,-0.00001355,-0.00000220,0
 .00000451,0.00005089,0.00003334,-0.00001925,0.00000212,0.00000312,0.00
 003644,-0.00000660,0.00001961,-0.00005037,0.00000701,0.00000245,0.0000
 0303,0.00076503,0.00018248,0.00088774,0.00001503,0.00000683,0.00000358
 ,-0.00116130,-0.00015085,-0.00279273,0.00024446,0.00002095,0.00001078,
 0.00005636,0.00025110,0.00003044,-0.00024539,0.00003499,-0.00018870,-0
 .00039554,-0.00055776,-0.00022632,0.00009988,0.00010608,-0.00000546,-0
 .00010540,-0.00003399,0.00003571,0.05042218,-0.01635636,-0.05553589,0.
 02595921,-0.00637374,-0.00295529,-0.05479529,0.01816949,0.05504544,-0.
 00000672,-0.00000013,0.00000662,0.00001717,0.00000392,-0.00000584,0.00
 000145,-0.00000992,0.00000595,0.00010316,0.00000512,-0.00000326,-0.000
 06429,-0.00002192,-0.00001268,0.00001563,0.00002549,-0.00001656,0.0000
 0715,-0.00000067,0.00000141,0.00000214,-0.00000022,-0.00000072,0.00001
 210,0.00005626,0.00004448,-0.00000144,-0.00000332,-0.00000181,-0.00029
 494,-0.00013470,-0.00006784,-0.00002413,-0.00001089,-0.00000416,0.0001
 5648,0.00007280,0.00004731,0.00004894,0.00003982,0.00003216,-0.0000243
 1,0.00003224,0.00000752,0.00000913,0.00000606,-0.00000003,0.00250147,0
 .00040020,-0.00058150,0.00003731,0.00002063,0.00000157,0.00353373,-0.0
 1540460,0.01448134,-0.00235671,-0.00204660,-0.00058140,0.00017260,-0.0
 0024883,0.00013246,0.00065980,0.00049930,0.00099796,0.00002129,0.00010
 765,-0.00015772,-0.00006795,0.00012526,0.00015664,0.00001735,0.0000485
 8,-0.00031544,-0.06785383,0.05450500,-0.05620016,-0.00045216,-0.001415
 79,0.00148748,-0.00536175,0.01762552,-0.02060059,0.06880255,-0.0000151
 9,-0.00000502,-0.00000083,-0.00000344,0.00001059,-0.00000159,-0.000019
 95,-0.00001680,-0.00000100,-0.00000230,-0.00006150,0.00000342,-0.00000
 619,0.00001656,-0.00000547,0.00001059,0.00000334,-0.00000727,0.0000004
 2,0.00000015,0.00000152,-0.00000153,0.00000046,0.00000202,-0.00008673,
 0.00001254,0.00004781,0.00000017,0.00000241,0.00000301,-0.00023398,0.0
 0014405,-0.00016227,-0.00002058,0.00003771,0.00000655,0.00008933,0.000
 01013,-0.00005974,0.00007772,0.00005876,0.00006225,0.00003095,0.000037
 09,0.00000539,0.00000482,0.00000095,0.00000539,0.00167954,0.00166161,-
 0.00124007,-0.00000146,0.00000168,-0.00000135,0.00818576,-0.01876032,0
 .01760518,-0.00502954,-0.00258226,-0.00015730,0.00028594,0.00013901,-0
 .00005939,0.00111473,0.00129295,0.00112785,0.00001733,-0.00012096,-0.0
 0009609,-0.00008921,0.00047654,-0.00010636,-0.00048529,-0.00022907,-0.
 00083366,0.05188235,-0.16449849,0.12451710,-0.00471765,0.01023479,-0.0
 0969942,0.00048383,-0.00504525,0.00491775,-0.05382292,0.17768369,0.000
 01490,0.00000851,-0.00000512,-0.00001089,-0.00001760,0.00000161,0.0000
 0123,0.00000981,-0.00000372,-0.00004476,0.00005678,0.00002966,0.000087
 50,0.00004588,0.00002636,-0.00004348,-0.00003465,0.00000207,-0.0000066
 2,-0.00000131,-0.00000040,0.00000025,-0.00000115,0.00000035,0.00012203
 ,-0.00003736,-0.00008702,0.00000985,-0.00000392,0.00000092,0.00019708,
 -0.00009080,-0.00005349,0.00002412,-0.00001768,-0.00000107,-0.00004372
 ,-0.00002237,0.00002444,-0.00000437,-0.00003100,0.00000074,-0.00002164
 ,-0.00003205,-0.00000983,-0.00000519,-0.00000258,-0.00000044,0.0001613
 9,-0.00040044,0.00020905,-0.00000536,-0.00000904,-0.00000041,-0.000513
 07,-0.00174652,-0.00025884,0.00047983,0.00052766,0.00008357,-0.0001138
 7,0.00009523,-0.00009229,0.00003870,-0.00119566,0.00064357,0.00025313,
 0.00005029,-0.00000519,0.00018577,-0.00004314,0.00006567,-0.00026408,-
 0.00013967,0.00033576,-0.05528635,0.12653749,-0.18075269,-0.00768654,0
 .01880779,-0.01491563,0.00219230,-0.00597419,0.00525025,0.06037361,-0.
 13665642,0.18883621,-0.00011653,-0.00003194,-0.00000277,0.00000396,0.0
 0010975,-0.00000853,-0.00016671,-0.00023806,-0.00004510,0.00040723,-0.
 00024862,0.00025039,-0.00012251,0.00017294,-0.00000324,0.00010419,0.00
 000576,0.00001514,-0.00000212,0.00000477,-0.00000270,-0.00000541,-0.00
 000374,-0.00000173,-0.00000429,0.00002697,-0.00003310,-0.00000279,0.00
 001414,-0.00000054,-0.00130909,-0.00000388,-0.00068346,-0.00011809,0.0
 0021161,0.00016227,-0.00122652,-0.00172890,-0.00178683,-0.00194367,0.0
 0078305,-0.00047584,-0.00007841,0.00054506,-0.00035106,0.00003303,-0.0
 0000253,-0.00004867,0.00095765,-0.00106320,-0.00021102,-0.00013431,-0.
 00001778,0.00004854,0.01103391,-0.00025896,-0.00776701,-0.15314054,0.0
 1131120,0.17735042,-0.00258908,-0.00215762,0.02432323,-0.00062849,0.00
 135174,-0.00152262,0.00018282,-0.00000264,-0.00022950,-0.00004438,-0.0
 0001739,0.00014231,0.00000704,-0.00006428,-0.00084052,-0.00056172,0.00
 097118,-0.00108119,0.00010423,0.00004890,-0.00006620,0.00028312,0.0001
 0332,-0.00014274,0.00034853,0.00059651,-0.00006177,0.46247518,-0.00007
 888,-0.00003186,-0.00000519,0.00002017,0.00009922,-0.00000121,-0.00008
 015,-0.00022525,0.00004397,0.00053344,-0.00012162,-0.00012648,-0.00011
 410,0.00007487,0.00000428,0.00009249,0.00001028,-0.00000867,-0.0000007
 2,0.00000437,0.00000385,-0.00000083,-0.00000583,0.00000563,-0.00001244
 ,0.00003890,0.00002064,-0.00000459,0.00001158,0.00000363,-0.00185532,-
 0.00105278,-0.00014277,-0.00002178,0.00021322,0.00005297,-0.00021952,-
 0.00012256,-0.00116653,-0.00069403,0.00031913,-0.00010906,0.00011182,0
 .00029418,0.00001890,0.00002816,0.00000626,-0.00000071,0.00048030,0.00
 052646,0.00144459,-0.00008627,-0.00001483,-0.00000201,-0.00844165,0.00
 240776,0.02269681,0.00910180,-0.08848841,0.05816459,0.00816880,0.00752
 234,-0.01623592,0.00156132,-0.00356566,0.00102367,-0.00024651,0.000045
 21,0.00004826,0.00006880,0.00018019,0.00014176,-0.00008533,0.00062484,
 0.00123712,0.00183668,-0.00074068,0.00209359,-0.00003653,0.00028974,-0
 .00008812,-0.00019374,-0.00003311,-0.00012750,-0.00055173,-0.00068566,
 0.00038860,-0.23107546,0.39872223,0.00002501,0.00001060,0.00000299,-0.
 00001829,-0.00002280,0.00000931,0.00003285,0.00003683,-0.00003747,-0.0
 0017859,-0.00006256,0.00002748,0.00002985,-0.00005457,0.00004019,-0.00
 002744,0.00002201,0.00000345,-0.00000633,0.00000323,-0.00000211,-0.000
 00467,0.00000280,-0.00000401,0.00001555,-0.00003729,-0.00001284,-0.000
 00228,0.00000401,-0.00000462,0.00146205,0.00121434,-0.00019987,0.00004
 577,-0.00000722,0.00000519,-0.00040724,-0.00011785,0.00007909,-0.00087
 157,-0.00026358,-0.00090109,0.00013685,-0.00010774,-0.00005122,-0.0000
 2296,-0.00001355,0.00002870,0.00046905,-0.00171838,-0.00210523,-0.0000
 6719,-0.00004026,-0.00001093,0.00608459,0.00963686,-0.02083790,0.18063
 507,0.05529723,-0.52259472,0.00169227,0.00370283,-0.00524903,-0.001133
 14,0.00225692,0.00066886,0.00012594,-0.00009235,0.00020722,-0.00005305
 ,-0.00034769,-0.00013835,-0.00000528,-0.00043547,-0.00075565,-0.002892
 83,-0.00175452,-0.00111164,0.00015059,0.00063858,0.00035733,0.00017583
 ,-0.00019303,-0.00006220,0.00060533,0.00047579,0.00070265,-0.18782821,
 -0.15218045,0.80136243,-0.00001041,-0.00001356,0.00000014,-0.00001194,
 0.00001586,0.00000164,-0.00000655,-0.00004633,-0.00001118,0.00004931,-
 0.00005105,0.00000132,-0.00000512,0.00001708,0.00000561,0.00001732,0.0
 0000273,-0.00000061,-0.00000270,0.00000130,-0.00000037,-0.00000274,0.0
 0000145,-0.00000168,0.00000330,-0.00001118,0.00000663,0.00000034,0.000
 00109,0.00000081,0.00060721,0.00016162,0.00022181,-0.00001944,0.000063
 45,0.00001840,-0.00021168,-0.00017669,-0.00005449,-0.00006190,0.000078
 31,0.00000490,0.00008496,0.00001997,-0.00006721,-0.00001845,-0.0000097
 2,-0.00000774,0.00011352,-0.00012789,-0.00101169,-0.00004683,-0.000026
 05,0.00000613,0.00347575,0.00575040,0.00519458,0.00838061,-0.00843696,
 0.00977411,-0.00289711,-0.00411321,-0.00208254,0.00055998,-0.00134413,
 0.00087891,-0.00004273,-0.00000164,-0.00000600,0.00001272,-0.00004453,
 -0.00007121,-0.00004905,0.00014547,0.00048309,-0.00039673,0.00106554,-
 0.00108506,-0.00005531,-0.00004082,-0.00004106,-0.00003343,-0.00005075
 ,-0.00000604,0.00022398,0.00029342,0.00002570,-0.09496620,0.08928317,-
 0.07211365,0.08843635,0.00000726,0.00000042,0.00000002,0.00000203,-0.0
 0001399,-0.00000194,0.00000330,0.00002888,0.00000237,0.00000294,0.0000
 1694,-0.00000616,0.00001599,0.00000270,0.00000154,-0.00000398,-0.00000
 681,0.00000116,0.00000339,-0.00000227,0.00000006,0.00000230,0.00000059
 ,0.,-0.00000160,0.00001525,-0.00000421,0.00000195,-0.00000479,0.000000
 03,-0.00041660,-0.00014991,-0.00008217,-0.00001542,-0.00004564,-0.0000
 0518,-0.00002694,-0.00011440,0.00006198,-0.00004051,0.00001152,-0.0000
 0842,-0.00008655,-0.00001550,-0.00003529,0.00000408,0.00000481,-0.0000
 0177,0.00017734,-0.00008192,0.00055996,0.00004642,0.00001957,0.0000064
 7,0.00549295,0.00671906,0.00269026,0.00257937,0.00270426,-0.00148565,-
 0.00413974,-0.00362373,-0.00214627,0.00039860,-0.00120825,0.00094914,-
 0.00003869,0.00001353,0.00001267,0.00002051,-0.00007964,-0.00008649,-0
 .00009274,0.00016384,0.00037305,-0.00062301,0.00118956,-0.00135788,0.0
 0000390,0.00000152,-0.00002041,-0.00004483,-0.00006101,0.00001807,0.00
 029817,0.00041895,0.00000568,0.08740717,-0.17878838,0.13043069,-0.0941
 4126,0.17787976,0.00000190,0.00000118,0.00000088,-0.00000730,-0.000003
 88,-0.00000075,-0.00000609,0.00000961,0.00000696,-0.00010247,-0.000023
 41,-0.00003080,0.00000620,-0.00000521,0.00000680,-0.00000621,0.0000007
 1,0.00000384,-0.00000085,0.00000027,-0.00000043,-0.00000175,0.00000139
 ,-0.00000039,0.00000399,-0.00000713,-0.00001037,0.00000037,0.00000042,
 -0.00000125,0.00028977,0.00019461,0.00007437,-0.00001555,0.00000104,-0
 .00000584,-0.00012598,-0.00020411,-0.00004577,-0.00002573,0.00009603,-
 0.00003561,0.00000520,0.00002144,-0.00001960,-0.00001237,-0.00000382,-
 0.00000548,-0.00039394,-0.00049881,0.00098598,-0.00001549,-0.00000838,
 0.00000386,0.00594465,0.00029383,-0.00054108,-0.01220444,0.02070515,-0
 .01396994,-0.00196493,-0.00223101,0.00012985,-0.00015634,0.00040702,0.
 00000870,0.00001809,-0.00000172,0.00001672,-0.00001002,-0.00009214,-0.
 00005229,-0.00006105,-0.00005105,-0.00018823,-0.00055302,0.00062477,-0
 .00088035,0.00003677,0.00006998,0.00002203,0.00001563,-0.00001781,-0.0
 0001266,0.00024199,0.00038489,0.00000854,-0.06898819,0.12686221,-0.169
 50129,0.07328427,-0.13971607,0.17605947,0.00000464,0.00000041,0.000000
 08,-0.00000534,-0.00001168,0.00000052,-0.00000831,0.00001971,0.0000156
 7,-0.00005467,0.00005918,0.00005192,0.00004672,0.00001980,0.00001649,-
 0.00001184,-0.00001442,0.00000154,0.00000124,-0.00000214,0.00000040,0.
 00000063,0.00000064,0.00000049,0.00000929,-0.00001052,0.00001041,0.000
 00239,-0.00000448,-0.00000169,0.00022382,0.00041416,-0.00108305,-0.000
 02617,-0.00001120,-0.00000360,0.00006378,0.00012181,0.00032963,0.00023
 363,-0.00006020,0.00006935,0.00003004,-0.00006200,0.00003476,-0.000001
 23,0.00000053,0.00000678,-0.00029220,-0.00007533,-0.00159387,0.0000383
 2,0.00001280,-0.00000362,-0.00375514,-0.00233170,-0.00247416,-0.003397
 43,0.00767723,0.00330382,0.00490544,0.00433107,0.00360026,-0.00018888,
 0.00036205,-0.00035602,0.00006391,-0.00001034,-0.00003199,-0.00004580,
 0.00004602,0.00000218,0.00012112,-0.00010406,-0.00012182,0.00018468,-0
 .00045826,0.00073119,-0.00004183,-0.00013972,0.00006719,-0.00000646,0.
 00000493,0.00000095,-0.00018370,-0.00021746,-0.00005570,-0.21878002,0.
 13251266,0.07394615,-0.00312700,0.00320421,0.00480288,0.22399638,0.000
 04667,0.00000190,0.00000218,-0.00001937,-0.00003810,0.00001467,0.00006
 802,0.00009423,-0.00004305,-0.00034625,0.00012440,-0.00003158,0.000054
 43,-0.00006794,-0.00002393,-0.00003179,-0.00000577,-0.00002242,-0.0000
 0230,-0.00000160,0.00000060,0.00000134,0.00000159,-0.00000218,-0.00000
 536,-0.00003244,0.00002515,0.00000340,-0.00000667,0.00000175,0.0009919
 6,0.00067821,0.00047525,0.00000274,-0.00010351,-0.00001223,0.00002383,
 0.00001598,0.00022372,0.00021351,-0.00018918,-0.00009837,-0.00004678,-
 0.00007310,0.00007276,-0.00000460,-0.00000921,-0.00000709,-0.00088858,
 -0.00091889,0.00111863,0.00000524,-0.00000779,-0.00000850,-0.00286750,
 -0.00476204,-0.00152111,-0.00156753,0.00808877,0.00099951,0.00438717,0
 .00593656,0.00353212,0.00007090,0.00058316,-0.00056607,-0.00000806,0.0
 0000101,-0.00011926,-0.00003438,0.00004920,0.00000212,0.00006822,-0.00
 008175,-0.00016598,0.00037003,-0.00050774,0.00081243,0.00001043,-0.000
 05572,-0.00008902,-0.00000773,0.00004697,-0.00002518,-0.00019978,-0.00
 023860,-0.00007613,0.13325092,-0.13751415,-0.04628342,0.01173490,-0.00
 499491,-0.00681002,-0.14527370,0.13398716,0.00003740,0.00002188,-0.000
 00338,0.00002279,-0.00006664,-0.00001030,0.00004789,0.00017653,0.00003
 828,-0.00004361,0.00012060,-0.00001761,0.00005867,-0.00001845,-0.00004
 941,-0.00004419,-0.00004101,-0.00000361,0.00001058,-0.00000790,0.00000
 241,0.00000863,0.00000050,0.00000414,-0.00001177,0.00003348,0.00001324
 ,0.00000453,-0.00001379,0.00000191,-0.00228571,-0.00056123,-0.00148796
 ,0.00004946,-0.00021895,-0.00003956,0.00059384,0.00042607,0.00044946,0
 .00019640,-0.00000706,-0.00002515,-0.00034352,-0.00010312,0.00013136,0
 .00002974,0.00002509,-0.00000191,0.00039800,0.00071601,0.00073070,0.00
 018982,0.00007965,-0.00000515,-0.00018698,-0.00295436,-0.00061456,0.02
 263322,-0.01566707,-0.00336555,0.00364679,0.00363641,-0.00301561,-0.00
 020257,0.00024482,-0.00010252,-0.00006574,0.00003681,0.00010292,0.0000
 2801,0.00000339,0.00000178,0.00000180,-0.00000624,-0.00007501,0.000096
 28,-0.00016093,0.00023161,0.00003268,0.00002530,0.00000357,-0.00010394
 ,-0.00005106,0.00006830,-0.00007410,-0.00007768,-0.00003528,0.06989024
 ,-0.04406047,-0.07991472,-0.01334749,0.00984475,0.00797412,-0.08126716
 ,0.04862467,0.07901347\\0.00000318,0.00000013,0.00000979,0.00000038,0.
 00002050,0.00000774,0.00000175,0.00001364,0.00000433,-0.00000311,-0.00
 001188,0.00000231,0.00000721,-0.00001627,0.00000462,-0.00000733,0.0000
 0085,0.00000910,0.00001014,0.00002201,0.00001199,0.00000407,0.00001855
 ,0.00000762,0.00001149,-0.00000135,0.00000222,0.00000389,0.00001573,0.
 00001180,0.00002680,0.00000489,-0.00000105,-0.00000037,0.00001825,0.00
 000282,-0.00000640,0.00001544,-0.00000239,0.00000423,0.00000142,-0.000
 00433,-0.00000814,0.00002858,0.00000203,-0.00002962,-0.00000656,-0.000
 00723,0.00000249,-0.00001826,-0.00000750,-0.00001182,0.00002463,0.0000
 0190,0.00001031,-0.00001904,0.00000006,-0.00000592,-0.00000411,-0.0000
 1416,-0.00001767,0.00000179,-0.00001300,-0.00001204,0.00000086,0.00000
 780,-0.00000946,-0.00000287,0.00000593,0.00000428,0.00000265,0.0000028
 6,0.00000873,-0.00000198,0.00001129,-0.00000839,-0.00001735,0.00000270
 ,0.00000432,-0.00002377,-0.00000828,0.00000304,-0.00001900,-0.00000851
 ,0.00000535,-0.00001684,0.00000127,0.00000125,-0.00000599,-0.00002126,
 -0.00000205,-0.00001299,-0.00001191,0.00000942,-0.00001167,-0.00001055
 \\\@


 I think that all right-thinking people in this
 country are sick and tired of being told that
 ordinary, decent people are fed up in this country
 with being sick and tired.  I'm certainly not!
 But I'm sick and tired of being told that I am!
                               -- Monty Python
 Job cpu time:       0 days  1 hours 29 minutes 42.3 seconds.
 File lengths (MBytes):  RWF=    416 Int=      0 D2E=      0 Chk=     17 Scr=      1
 Normal termination of Gaussian 09 at Wed Sep  9 12:25:45 2020.
