 Entering Gaussian System, Link 0=g09
 Input=m062x_pr_claisen_PM6_toluene_gd3.com
 Output=m062x_pr_claisen_PM6_toluene_gd3.log
 Initial command:
 /apps/applications/gaussian/G09.D01/2/default/g09/l1.exe "/local/730609.1.40core-192G.q/Gau-210612.inp" -scrdir="/local/730609.1.40core-192G.q/"
 Entering Link 1 = /apps/applications/gaussian/G09.D01/2/default/g09/l1.exe PID=    210613.
  
 Copyright (c) 1988,1990,1992,1993,1995,1998,2003,2009,2013,
            Gaussian, Inc.  All Rights Reserved.
  
 This is part of the Gaussian(R) 09 program.  It is based on
 the Gaussian(R) 03 system (copyright 2003, Gaussian, Inc.),
 the Gaussian(R) 98 system (copyright 1998, Gaussian, Inc.),
 the Gaussian(R) 94 system (copyright 1995, Gaussian, Inc.),
 the Gaussian 92(TM) system (copyright 1992, Gaussian, Inc.),
 the Gaussian 90(TM) system (copyright 1990, Gaussian, Inc.),
 the Gaussian 88(TM) system (copyright 1988, Gaussian, Inc.),
 the Gaussian 86(TM) system (copyright 1986, Carnegie Mellon
 University), and the Gaussian 82(TM) system (copyright 1983,
 Carnegie Mellon University). Gaussian is a federally registered
 trademark of Gaussian, Inc.
  
 This software contains proprietary and confidential information,
 including trade secrets, belonging to Gaussian, Inc.
  
 This software is provided under written license and may be
 used, copied, transmitted, or stored only in accord with that
 written license.
  
 The following legend is applicable only to US Government
 contracts under FAR:
  
                    RESTRICTED RIGHTS LEGEND
  
 Use, reproduction and disclosure by the US Government is
 subject to restrictions as set forth in subparagraphs (a)
 and (c) of the Commercial Computer Software - Restricted
 Rights clause in FAR 52.227-19.
  
 Gaussian, Inc.
 340 Quinnipiac St., Bldg. 40, Wallingford CT 06492
  
  
 ---------------------------------------------------------------
 Warning -- This program may not be used in any manner that
 competes with the business of Gaussian, Inc. or will provide
 assistance to any competitor of Gaussian, Inc.  The licensee
 of this program is prohibited from giving any competitor of
 Gaussian, Inc. access to this program.  By using this program,
 the user acknowledges that Gaussian, Inc. is engaged in the
 business of creating and licensing software in the field of
 computational chemistry and represents and warrants to the
 licensee that it is not a competitor of Gaussian, Inc. and that
 it will not use this program in any manner prohibited above.
 ---------------------------------------------------------------
  

 Cite this work as:
 Gaussian 09, Revision D.01,
 M. J. Frisch, G. W. Trucks, H. B. Schlegel, G. E. Scuseria, 
 M. A. Robb, J. R. Cheeseman, G. Scalmani, V. Barone, B. Mennucci, 
 G. A. Petersson, H. Nakatsuji, M. Caricato, X. Li, H. P. Hratchian, 
 A. F. Izmaylov, J. Bloino, G. Zheng, J. L. Sonnenberg, M. Hada, 
 M. Ehara, K. Toyota, R. Fukuda, J. Hasegawa, M. Ishida, T. Nakajima, 
 Y. Honda, O. Kitao, H. Nakai, T. Vreven, J. A. Montgomery, Jr., 
 J. E. Peralta, F. Ogliaro, M. Bearpark, J. J. Heyd, E. Brothers, 
 K. N. Kudin, V. N. Staroverov, T. Keith, R. Kobayashi, J. Normand, 
 K. Raghavachari, A. Rendell, J. C. Burant, S. S. Iyengar, J. Tomasi, 
 M. Cossi, N. Rega, J. M. Millam, M. Klene, J. E. Knox, J. B. Cross, 
 V. Bakken, C. Adamo, J. Jaramillo, R. Gomperts, R. E. Stratmann, 
 O. Yazyev, A. J. Austin, R. Cammi, C. Pomelli, J. W. Ochterski, 
 R. L. Martin, K. Morokuma, V. G. Zakrzewski, G. A. Voth, 
 P. Salvador, J. J. Dannenberg, S. Dapprich, A. D. Daniels, 
 O. Farkas, J. B. Foresman, J. V. Ortiz, J. Cioslowski, 
 and D. J. Fox, Gaussian, Inc., Wallingford CT, 2013.
 
 ******************************************
 Gaussian 09:  ES64L-G09RevD.01 24-Apr-2013
                 9-Sep-2020 
 ******************************************
 %nprocshared=4
 Will use up to    4 processors via shared memory.
 %chk=m062x_pr_claisen_PM6_toluene_gd3.chk
 ----------------------------------------------------------------------
 # opt freq scrf=(cpcm,solvent=toluene) geom=connectivity def2svp m062x
  empiricaldispersion=gd3
 ----------------------------------------------------------------------
 1/14=-1,18=20,19=15,26=3,38=1,57=2/1,3;
 2/9=110,12=2,17=6,18=5,40=1/2;
 3/5=43,7=101,11=2,16=1,25=1,30=1,70=2101,71=1,72=13,74=-55,124=31/1,2,3;
 4//1;
 5/5=2,38=5,53=13/2;
 6/7=2,8=2,9=2,10=2,28=1/1;
 7//1,2,3,16;
 1/14=-1,18=20,19=15,26=3/3(2);
 2/9=110/2;
 99//99;
 2/9=110/2;
 3/5=43,7=101,11=2,16=1,25=1,30=1,70=2105,71=1,72=13,74=-55,124=31/1,2,3;
 4/5=5,16=3,69=1/1;
 5/5=2,38=5,53=13/2;
 7//1,2,3,16;
 1/14=-1,18=20,19=15,26=3/3(-5);
 2/9=110/2;
 6/7=2,8=2,9=2,10=2,19=2,28=1/1;
 99/9=1/99;
 -------------------
 Title Card Required
 -------------------
 Symbolic Z-matrix:
 Charge =  0 Multiplicity = 1
 C                     4.37103  -0.34743   0.05922 
 C                     3.4054    0.65389  -0.00577 
 C                     2.04589   0.32529  -0.05939 
 C                     1.67593  -1.03645  -0.04881 
 C                     2.65375  -2.03214   0.0185 
 C                     4.00125  -1.69395   0.07331 
 H                     5.42588  -0.07157   0.09986 
 H                     3.70398   1.70141  -0.01638 
 H                     2.32382  -3.07195   0.02587 
 H                     4.76251  -2.47298   0.12711 
 C                     0.24509  -1.44921  -0.10633 
 C                     0.98217   1.34321  -0.1271 
 C                    -0.82465  -0.37022  -0.15817 
 C                    -0.31852   1.03705  -0.18061 
 H                    -1.05993   1.83728  -0.2342 
 O                    -0.07794  -2.61717  -0.10322 
 Cl                    1.47003   3.01867  -0.1387 
 C                    -4.12367  -0.01802   0.05979 
 C                    -3.07797   0.25729   0.85383 
 H                    -3.10713   1.18441   1.43555 
 C                    -5.30854   0.90467  -0.02617 
 H                    -6.23237   0.37591   0.25817 
 H                    -5.19202   1.77933   0.62692 
 H                    -5.45196   1.25658  -1.06033 
 C                    -4.21053  -1.24676  -0.80547 
 H                    -3.33957  -1.90791  -0.71424 
 H                    -5.11191  -1.82765  -0.55272 
 H                    -4.31148  -0.95765  -1.86402 
 C                    -1.8448   -0.59498   0.98985 
 H                    -1.34053  -0.38221   1.94439 
 H                    -2.09484  -1.66489   0.98931 
 H                    -1.37237  -0.55157  -1.10169 
 

 GradGradGradGradGradGradGradGradGradGradGradGradGradGradGradGradGradGrad
 Berny optimization.
 Initialization pass.
                           ----------------------------
                           !    Initial Parameters    !
                           ! (Angstroms and Degrees)  !
 --------------------------                            --------------------------
 ! Name  Definition              Value          Derivative Info.                !
 --------------------------------------------------------------------------------
 ! R1    R(1,2)                  1.3926         estimate D2E/DX2                !
 ! R2    R(1,6)                  1.3964         estimate D2E/DX2                !
 ! R3    R(1,7)                  1.0911         estimate D2E/DX2                !
 ! R4    R(2,3)                  1.3997         estimate D2E/DX2                !
 ! R5    R(2,8)                  1.0893         estimate D2E/DX2                !
 ! R6    R(3,4)                  1.4111         estimate D2E/DX2                !
 ! R7    R(3,12)                 1.4738         estimate D2E/DX2                !
 ! R8    R(4,5)                  1.3972         estimate D2E/DX2                !
 ! R9    R(4,11)                 1.4903         estimate D2E/DX2                !
 ! R10   R(5,6)                  1.3904         estimate D2E/DX2                !
 ! R11   R(5,9)                  1.0909         estimate D2E/DX2                !
 ! R12   R(6,10)                 1.0905         estimate D2E/DX2                !
 ! R13   R(11,13)                1.5203         estimate D2E/DX2                !
 ! R14   R(11,16)                1.2118         estimate D2E/DX2                !
 ! R15   R(12,14)                1.3373         estimate D2E/DX2                !
 ! R16   R(12,17)                1.7451         estimate D2E/DX2                !
 ! R17   R(13,14)                1.4957         estimate D2E/DX2                !
 ! R18   R(13,29)                1.5521         estimate D2E/DX2                !
 ! R19   R(13,32)                1.106          estimate D2E/DX2                !
 ! R20   R(14,15)                1.0922         estimate D2E/DX2                !
 ! R21   R(18,19)                1.3416         estimate D2E/DX2                !
 ! R22   R(18,21)                1.5042         estimate D2E/DX2                !
 ! R23   R(18,25)                1.5053         estimate D2E/DX2                !
 ! R24   R(19,20)                1.0949         estimate D2E/DX2                !
 ! R25   R(19,29)                1.5052         estimate D2E/DX2                !
 ! R26   R(21,22)                1.1018         estimate D2E/DX2                !
 ! R27   R(21,23)                1.0978         estimate D2E/DX2                !
 ! R28   R(21,24)                1.1018         estimate D2E/DX2                !
 ! R29   R(25,26)                1.0973         estimate D2E/DX2                !
 ! R30   R(25,27)                1.1017         estimate D2E/DX2                !
 ! R31   R(25,28)                1.102          estimate D2E/DX2                !
 ! R32   R(29,30)                1.1003         estimate D2E/DX2                !
 ! R33   R(29,31)                1.0987         estimate D2E/DX2                !
 ! A1    A(2,1,6)              120.6765         estimate D2E/DX2                !
 ! A2    A(2,1,7)              119.3616         estimate D2E/DX2                !
 ! A3    A(6,1,7)              119.9619         estimate D2E/DX2                !
 ! A4    A(1,2,3)              120.4298         estimate D2E/DX2                !
 ! A5    A(1,2,8)              120.1226         estimate D2E/DX2                !
 ! A6    A(3,2,8)              119.4476         estimate D2E/DX2                !
 ! A7    A(2,3,4)              118.7446         estimate D2E/DX2                !
 ! A8    A(2,3,12)             122.7262         estimate D2E/DX2                !
 ! A9    A(4,3,12)             118.5292         estimate D2E/DX2                !
 ! A10   A(3,4,5)              120.3038         estimate D2E/DX2                !
 ! A11   A(3,4,11)             121.2446         estimate D2E/DX2                !
 ! A12   A(5,4,11)             118.4516         estimate D2E/DX2                !
 ! A13   A(4,5,6)              120.4533         estimate D2E/DX2                !
 ! A14   A(4,5,9)              117.8998         estimate D2E/DX2                !
 ! A15   A(6,5,9)              121.647          estimate D2E/DX2                !
 ! A16   A(1,6,5)              119.3917         estimate D2E/DX2                !
 ! A17   A(1,6,10)             120.2959         estimate D2E/DX2                !
 ! A18   A(5,6,10)             120.3124         estimate D2E/DX2                !
 ! A19   A(4,11,13)            118.7062         estimate D2E/DX2                !
 ! A20   A(4,11,16)            121.5186         estimate D2E/DX2                !
 ! A21   A(13,11,16)           119.7731         estimate D2E/DX2                !
 ! A22   A(3,12,14)            123.0716         estimate D2E/DX2                !
 ! A23   A(3,12,17)            117.493          estimate D2E/DX2                !
 ! A24   A(14,12,17)           119.4353         estimate D2E/DX2                !
 ! A25   A(11,13,14)           115.4787         estimate D2E/DX2                !
 ! A26   A(11,13,29)           109.5409         estimate D2E/DX2                !
 ! A27   A(11,13,32)           105.1407         estimate D2E/DX2                !
 ! A28   A(14,13,29)           111.7008         estimate D2E/DX2                !
 ! A29   A(14,13,32)           108.003          estimate D2E/DX2                !
 ! A30   A(29,13,32)           106.3651         estimate D2E/DX2                !
 ! A31   A(12,14,13)           122.9516         estimate D2E/DX2                !
 ! A32   A(12,14,15)           119.6344         estimate D2E/DX2                !
 ! A33   A(13,14,15)           117.4116         estimate D2E/DX2                !
 ! A34   A(19,18,21)           121.4614         estimate D2E/DX2                !
 ! A35   A(19,18,25)           123.5523         estimate D2E/DX2                !
 ! A36   A(21,18,25)           114.9861         estimate D2E/DX2                !
 ! A37   A(18,19,20)           117.8709         estimate D2E/DX2                !
 ! A38   A(18,19,29)           125.1618         estimate D2E/DX2                !
 ! A39   A(20,19,29)           116.9533         estimate D2E/DX2                !
 ! A40   A(18,21,22)           110.5702         estimate D2E/DX2                !
 ! A41   A(18,21,23)           111.7851         estimate D2E/DX2                !
 ! A42   A(18,21,24)           110.6157         estimate D2E/DX2                !
 ! A43   A(22,21,23)           108.5328         estimate D2E/DX2                !
 ! A44   A(22,21,24)           106.6406         estimate D2E/DX2                !
 ! A45   A(23,21,24)           108.5262         estimate D2E/DX2                !
 ! A46   A(18,25,26)           113.4683         estimate D2E/DX2                !
 ! A47   A(18,25,27)           110.2262         estimate D2E/DX2                !
 ! A48   A(18,25,28)           110.077          estimate D2E/DX2                !
 ! A49   A(26,25,27)           108.2184         estimate D2E/DX2                !
 ! A50   A(26,25,28)           108.0992         estimate D2E/DX2                !
 ! A51   A(27,25,28)           106.4842         estimate D2E/DX2                !
 ! A52   A(13,29,19)           112.9324         estimate D2E/DX2                !
 ! A53   A(13,29,30)           108.2052         estimate D2E/DX2                !
 ! A54   A(13,29,31)           106.871          estimate D2E/DX2                !
 ! A55   A(19,29,30)           110.1433         estimate D2E/DX2                !
 ! A56   A(19,29,31)           111.4005         estimate D2E/DX2                !
 ! A57   A(30,29,31)           107.0384         estimate D2E/DX2                !
 ! D1    D(6,1,2,3)             -0.0613         estimate D2E/DX2                !
 ! D2    D(6,1,2,8)           -179.9925         estimate D2E/DX2                !
 ! D3    D(7,1,2,3)            179.9699         estimate D2E/DX2                !
 ! D4    D(7,1,2,8)              0.0387         estimate D2E/DX2                !
 ! D5    D(2,1,6,5)              0.1527         estimate D2E/DX2                !
 ! D6    D(2,1,6,10)          -179.83           estimate D2E/DX2                !
 ! D7    D(7,1,6,5)           -179.8787         estimate D2E/DX2                !
 ! D8    D(7,1,6,10)             0.1386         estimate D2E/DX2                !
 ! D9    D(1,2,3,4)             -0.118          estimate D2E/DX2                !
 ! D10   D(1,2,3,12)           179.9066         estimate D2E/DX2                !
 ! D11   D(8,2,3,4)            179.8135         estimate D2E/DX2                !
 ! D12   D(8,2,3,12)            -0.1619         estimate D2E/DX2                !
 ! D13   D(2,3,4,5)              0.2073         estimate D2E/DX2                !
 ! D14   D(2,3,4,11)          -179.8918         estimate D2E/DX2                !
 ! D15   D(12,3,4,5)          -179.8162         estimate D2E/DX2                !
 ! D16   D(12,3,4,11)            0.0847         estimate D2E/DX2                !
 ! D17   D(2,3,12,14)          179.8953         estimate D2E/DX2                !
 ! D18   D(2,3,12,17)           -0.0228         estimate D2E/DX2                !
 ! D19   D(4,3,12,14)           -0.0801         estimate D2E/DX2                !
 ! D20   D(4,3,12,17)         -179.9982         estimate D2E/DX2                !
 ! D21   D(3,4,5,6)             -0.1184         estimate D2E/DX2                !
 ! D22   D(3,4,5,9)            179.9071         estimate D2E/DX2                !
 ! D23   D(11,4,5,6)           179.978          estimate D2E/DX2                !
 ! D24   D(11,4,5,9)             0.0035         estimate D2E/DX2                !
 ! D25   D(3,4,11,13)           -0.8285         estimate D2E/DX2                !
 ! D26   D(3,4,11,16)          179.6842         estimate D2E/DX2                !
 ! D27   D(5,4,11,13)          179.0742         estimate D2E/DX2                !
 ! D28   D(5,4,11,16)           -0.4131         estimate D2E/DX2                !
 ! D29   D(4,5,6,1)             -0.0623         estimate D2E/DX2                !
 ! D30   D(4,5,6,10)           179.9204         estimate D2E/DX2                !
 ! D31   D(9,5,6,1)            179.9112         estimate D2E/DX2                !
 ! D32   D(9,5,6,10)            -0.1061         estimate D2E/DX2                !
 ! D33   D(4,11,13,14)           1.474          estimate D2E/DX2                !
 ! D34   D(4,11,13,29)        -125.6653         estimate D2E/DX2                !
 ! D35   D(4,11,13,32)         120.3956         estimate D2E/DX2                !
 ! D36   D(16,11,13,14)       -179.0295         estimate D2E/DX2                !
 ! D37   D(16,11,13,29)         53.8312         estimate D2E/DX2                !
 ! D38   D(16,11,13,32)        -60.1079         estimate D2E/DX2                !
 ! D39   D(3,12,14,13)           0.8642         estimate D2E/DX2                !
 ! D40   D(3,12,14,15)        -179.7178         estimate D2E/DX2                !
 ! D41   D(17,12,14,13)       -179.2192         estimate D2E/DX2                !
 ! D42   D(17,12,14,15)          0.1988         estimate D2E/DX2                !
 ! D43   D(11,13,14,12)         -1.5372         estimate D2E/DX2                !
 ! D44   D(11,13,14,15)        179.0327         estimate D2E/DX2                !
 ! D45   D(29,13,14,12)        124.5073         estimate D2E/DX2                !
 ! D46   D(29,13,14,15)        -54.9228         estimate D2E/DX2                !
 ! D47   D(32,13,14,12)       -118.865          estimate D2E/DX2                !
 ! D48   D(32,13,14,15)         61.7048         estimate D2E/DX2                !
 ! D49   D(11,13,29,19)       -168.7035         estimate D2E/DX2                !
 ! D50   D(11,13,29,30)         69.1036         estimate D2E/DX2                !
 ! D51   D(11,13,29,31)        -45.8615         estimate D2E/DX2                !
 ! D52   D(14,13,29,19)         62.0594         estimate D2E/DX2                !
 ! D53   D(14,13,29,30)        -60.1335         estimate D2E/DX2                !
 ! D54   D(14,13,29,31)       -175.0986         estimate D2E/DX2                !
 ! D55   D(32,13,29,19)        -55.5572         estimate D2E/DX2                !
 ! D56   D(32,13,29,30)       -177.75           estimate D2E/DX2                !
 ! D57   D(32,13,29,31)         67.2849         estimate D2E/DX2                !
 ! D58   D(21,18,19,20)         -0.5452         estimate D2E/DX2                !
 ! D59   D(21,18,19,29)       -179.1392         estimate D2E/DX2                !
 ! D60   D(25,18,19,20)        179.3013         estimate D2E/DX2                !
 ! D61   D(25,18,19,29)          0.7073         estimate D2E/DX2                !
 ! D62   D(19,18,21,22)       -121.3877         estimate D2E/DX2                !
 ! D63   D(19,18,21,23)         -0.3507         estimate D2E/DX2                !
 ! D64   D(19,18,21,24)        120.7095         estimate D2E/DX2                !
 ! D65   D(25,18,21,22)         58.7534         estimate D2E/DX2                !
 ! D66   D(25,18,21,23)        179.7904         estimate D2E/DX2                !
 ! D67   D(25,18,21,24)        -59.1494         estimate D2E/DX2                !
 ! D68   D(19,18,25,26)          0.8568         estimate D2E/DX2                !
 ! D69   D(19,18,25,27)        122.4036         estimate D2E/DX2                !
 ! D70   D(19,18,25,28)       -120.4266         estimate D2E/DX2                !
 ! D71   D(21,18,25,26)       -179.2876         estimate D2E/DX2                !
 ! D72   D(21,18,25,27)        -57.7408         estimate D2E/DX2                !
 ! D73   D(21,18,25,28)         59.4289         estimate D2E/DX2                !
 ! D74   D(18,19,29,13)         80.8179         estimate D2E/DX2                !
 ! D75   D(18,19,29,30)       -158.0829         estimate D2E/DX2                !
 ! D76   D(18,19,29,31)        -39.4648         estimate D2E/DX2                !
 ! D77   D(20,19,29,13)        -97.7878         estimate D2E/DX2                !
 ! D78   D(20,19,29,30)         23.3115         estimate D2E/DX2                !
 ! D79   D(20,19,29,31)        141.9295         estimate D2E/DX2                !
 --------------------------------------------------------------------------------
 Trust Radius=3.00D-01 FncErr=1.00D-07 GrdErr=1.00D-06
 Number of steps in this run=    179 maximum allowed number of steps=    192.
 GradGradGradGradGradGradGradGradGradGradGradGradGradGradGradGradGradGrad

                          Input orientation:                          
 ---------------------------------------------------------------------
 Center     Atomic      Atomic             Coordinates (Angstroms)
 Number     Number       Type             X           Y           Z
 ---------------------------------------------------------------------
      1          6           0        4.371027   -0.347430    0.059216
      2          6           0        3.405402    0.653892   -0.005770
      3          6           0        2.045885    0.325290   -0.059389
      4          6           0        1.675927   -1.036446   -0.048811
      5          6           0        2.653748   -2.032142    0.018496
      6          6           0        4.001251   -1.693951    0.073310
      7          1           0        5.425882   -0.071567    0.099863
      8          1           0        3.703983    1.701414   -0.016379
      9          1           0        2.323815   -3.071949    0.025874
     10          1           0        4.762507   -2.472980    0.127106
     11          6           0        0.245091   -1.449208   -0.106329
     12          6           0        0.982173    1.343210   -0.127097
     13          6           0       -0.824651   -0.370219   -0.158165
     14          6           0       -0.318516    1.037054   -0.180612
     15          1           0       -1.059933    1.837280   -0.234200
     16          8           0       -0.077937   -2.617173   -0.103221
     17         17           0        1.470027    3.018666   -0.138702
     18          6           0       -4.123666   -0.018019    0.059787
     19          6           0       -3.077975    0.257289    0.853831
     20          1           0       -3.107132    1.184409    1.435554
     21          6           0       -5.308538    0.904672   -0.026167
     22          1           0       -6.232372    0.375911    0.258167
     23          1           0       -5.192017    1.779330    0.626916
     24          1           0       -5.451962    1.256580   -1.060327
     25          6           0       -4.210529   -1.246758   -0.805466
     26          1           0       -3.339571   -1.907910   -0.714243
     27          1           0       -5.111907   -1.827650   -0.552721
     28          1           0       -4.311483   -0.957645   -1.864018
     29          6           0       -1.844802   -0.594984    0.989847
     30          1           0       -1.340531   -0.382209    1.944393
     31          1           0       -2.094835   -1.664891    0.989313
     32          1           0       -1.372370   -0.551567   -1.101693
 ---------------------------------------------------------------------
                    Distance matrix (angstroms):
                    1          2          3          4          5
     1  C    0.000000
     2  C    1.392588   0.000000
     3  C    2.423408   1.399693   0.000000
     4  C    2.783878   2.418714   1.411136   0.000000
     5  C    2.406026   2.789328   2.435785   1.397167   0.000000
     6  C    1.396443   2.423563   2.813965   2.419578   1.390375
     7  H    1.091087   2.149369   3.406939   3.874953   3.396351
     8  H    2.156020   1.089296   2.155193   3.407336   3.878614
     9  H    3.408107   3.879784   3.409655   2.137431   1.090921
    10  H    2.162366   3.411263   3.904501   3.409040   2.157081
    11  C    4.273718   3.797461   2.528617   1.490293   2.481335
    12  C    3.791742   2.522284   1.473848   2.479957   3.769398
    13  C    5.200273   4.354925   2.955244   2.590117   3.859075
    14  C    4.895521   3.747659   2.472184   2.880031   4.277144
    15  H    5.861261   4.625127   3.458725   3.972103   5.369144
    16  O    4.997139   4.779437   3.629136   2.361715   2.796280
    17  Cl   4.448098   3.058677   2.755391   4.061331   5.190045
    18  C    8.501078   7.559274   6.180245   5.889335   7.070484
    19  C    7.515632   6.552128   5.205049   5.008802   6.228317
    20  H    7.756526   6.691185   5.433831   5.478429   6.748481
    21  C    9.760585   8.717572   7.377284   7.249221   8.486747
    22  H   10.629905   9.645394   8.284500   8.039290   9.209739
    23  H    9.813114   8.693821   7.414342   7.453446   8.743770
    24  H   10.015854   8.940258   7.621475   7.555656   8.813744
    25  C    8.671769   7.890145   6.493896   5.938613   6.958020
    26  H    7.904850   7.249788   5.866784   5.133953   6.039223
    27  H    9.617253   8.888293   7.490829   6.852344   7.789320
    28  H    8.913875   8.099411   6.731919   6.257017   7.294714
    29  C    6.289983   5.487767   4.133430   3.697192   4.821400
    30  H    6.014732   5.234551   3.997938   3.674222   4.731345
    31  H    6.663944   6.051409   4.712341   3.961223   4.860699
    32  H    5.863104   5.047899   3.679639   3.261255   4.433571
                    6          7          8          9         10
     6  C    0.000000
     7  H    2.159261   0.000000
     8  H    3.409533   2.474249   0.000000
     9  H    2.171387   4.316316   4.969069   0.000000
    10  H    1.090546   2.491504   4.308901   2.513211   0.000000
    11  C    3.768409   5.364793   4.679577   2.640428   4.637850
    12  C    4.287113   4.669010   2.747511   4.617037   5.377625
    13  C    5.009509   6.262981   4.981997   4.152837   5.976564
    14  C    5.116957   5.857117   4.080300   4.889627   6.183189
    15  H    6.178976   6.769128   4.770828   5.968075   7.253254
    16  O    4.186081   6.067403   5.741137   2.447836   4.848066
    17  Cl   5.353579   5.025459   2.596281   6.152368   6.408530
    18  C    8.295975   9.549782   8.014633   7.134259   9.219297
    19  C    7.384578   8.543547   6.988399   6.399115   8.334006
    20  H    7.789080   8.727765   6.983315   7.042653   8.776090
    21  C    9.666173  10.779457   9.047675   8.606337  10.623463
    22  H   10.442487  11.667913  10.028135   9.227678  11.358729
    23  H    9.843086  10.790894   8.919569   8.965706  10.836259
    24  H    9.967648  11.019869   9.225998   8.965417  10.938692
    25  C    8.270765   9.749929   8.482563   6.835210   9.104322
    26  H    7.386047   8.992669   7.945180   5.828954   8.165221
    27  H    9.135614  10.703022   9.511145   7.561284   9.918804
    28  H    8.567201   9.972875   8.644771   7.215896   9.412657
    29  C    6.018646   7.343629   6.088920   4.943882   6.922985
    30  H    5.810013   7.020195   5.799417   4.933847   6.702308
    31  H    6.164590   7.738927   6.780097   4.736295   6.958416
    32  H    5.617960   6.920287   5.658904   4.613623   6.545112
                   11         12         13         14         15
    11  C    0.000000
    12  C    2.888134   0.000000
    13  C    1.520280   2.490264   0.000000
    14  C    2.550425   1.337306   1.495692   0.000000
    15  H    3.538424   2.103752   2.221304   1.092214   0.000000
    16  O    1.211816   4.099883   2.368418   3.662955   4.563291
    17  Cl   4.632862   1.745076   4.092733   2.669724   2.793831
    18  C    4.600210   5.287482   3.324913   3.956025   3.593748
    19  C    3.857046   4.315813   2.548602   3.048396   2.784363
    20  H    4.533292   4.380583   3.188499   3.226466   2.721276
    21  C    6.032410   6.306786   4.663477   4.994166   4.354731
    22  H    6.739543   7.289290   5.474805   5.966853   5.397421
    23  H    6.365787   6.235331   4.930598   4.995407   4.221255
    24  H    6.378700   6.502039   4.987222   5.212903   4.506619
    25  C    4.514679   5.842283   3.556893   4.555656   4.445660
    26  H    3.664665   5.439852   2.999756   4.252570   4.410628
    27  H    5.388869   6.882828   4.545365   5.596570   5.472811
    28  H    4.908510   6.027738   3.925940   4.770374   4.586991
    29  C    2.509772   3.604989   1.552147   2.522513   2.833764
    30  H    2.803238   3.558524   2.164954   2.752175   3.122681
    31  H    2.592721   4.445562   2.146217   3.438683   3.851390
    32  H    2.100640   3.175514   1.105951   2.117242   2.560615
                   16         17         18         19         20
    16  O    0.000000
    17  Cl   5.844667   0.000000
    18  C    4.811455   6.367908   0.000000
    19  C    4.263650   5.412453   1.341555   0.000000
    20  H    5.098615   5.176211   2.090911   1.094899   0.000000
    21  C    6.306228   7.101449   1.504217   2.483730   2.657267
    22  H    6.853191   8.152828   2.154339   3.212337   3.436137
    23  H    6.783521   6.819454   2.166442   2.614818   2.313995
    24  H    6.693441   7.201963   2.154908   3.209112   3.425326
    25  C    4.410159   7.134923   1.505326   2.509602   3.485718
    26  H    3.393326   6.909025   2.187605   2.686145   3.773340
    27  H    5.115296   8.184134   2.150942   3.234538   4.128542
    28  H    4.876203   7.225899   2.149232   3.222470   4.114126
    29  C    2.899286   5.031916   2.528067   1.505186   2.226740
    30  H    3.283585   4.878983   3.380860   2.148719   2.415386
    31  H    2.483616   5.993026   2.773511   2.163260   3.056532
    32  H    2.634242   4.664026   3.033701   2.717979   3.529962
                   21         22         23         24         25
    21  C    0.000000
    22  H    1.101773   0.000000
    23  H    1.097780   1.785469   0.000000
    24  H    1.101770   1.767214   1.785393   0.000000
    25  C    2.538027   2.802181   3.488875   2.805853   0.000000
    26  H    3.501556   3.811787   4.338894   3.820467   1.097275
    27  H    2.789535   2.601665   3.795822   3.144165   1.101725
    28  H    2.800007   3.157824   3.804093   2.617137   1.101958
    29  C    3.908800   4.552885   4.119822   4.543468   3.040497
    30  H    4.613486   5.229552   4.608898   5.349564   4.067685
    31  H    4.238129   4.671045   4.646130   4.899624   2.805749
    32  H    4.332529   5.131184   4.796965   4.462530   2.937037
                   26         27         28         29         30
    26  H    0.000000
    27  H    1.781490   0.000000
    28  H    1.780337   1.765527   0.000000
    29  C    2.619548   3.817454   3.789536   0.000000
    30  H    3.659545   4.748490   4.864327   1.100327   0.000000
    31  H    2.123801   3.392209   3.681742   1.098735   1.768170
    32  H    2.420674   3.989222   3.063401   2.144672   3.050957
                   31         32
    31  H    0.000000
    32  H    2.476641   0.000000
 Stoichiometry    C15H15ClO
 Framework group  C1[X(C15H15ClO)]
 Deg. of freedom    90
 Full point group                 C1      NOp   1
 Largest Abelian subgroup         C1      NOp   1
 Largest concise Abelian subgroup C1      NOp   1
                         Standard orientation:                         
 ---------------------------------------------------------------------
 Center     Atomic      Atomic             Coordinates (Angstroms)
 Number     Number       Type             X           Y           Z
 ---------------------------------------------------------------------
      1          6           0        4.371027   -0.347430    0.059216
      2          6           0        3.405402    0.653892   -0.005770
      3          6           0        2.045885    0.325290   -0.059389
      4          6           0        1.675927   -1.036446   -0.048811
      5          6           0        2.653748   -2.032142    0.018496
      6          6           0        4.001251   -1.693951    0.073310
      7          1           0        5.425882   -0.071567    0.099863
      8          1           0        3.703983    1.701414   -0.016379
      9          1           0        2.323815   -3.071949    0.025874
     10          1           0        4.762507   -2.472980    0.127106
     11          6           0        0.245091   -1.449208   -0.106329
     12          6           0        0.982173    1.343210   -0.127097
     13          6           0       -0.824651   -0.370219   -0.158165
     14          6           0       -0.318516    1.037054   -0.180612
     15          1           0       -1.059933    1.837280   -0.234200
     16          8           0       -0.077937   -2.617173   -0.103221
     17         17           0        1.470027    3.018666   -0.138702
     18          6           0       -4.123666   -0.018019    0.059787
     19          6           0       -3.077975    0.257289    0.853831
     20          1           0       -3.107132    1.184409    1.435554
     21          6           0       -5.308538    0.904672   -0.026167
     22          1           0       -6.232372    0.375911    0.258167
     23          1           0       -5.192017    1.779330    0.626916
     24          1           0       -5.451962    1.256580   -1.060327
     25          6           0       -4.210529   -1.246758   -0.805466
     26          1           0       -3.339571   -1.907910   -0.714243
     27          1           0       -5.111907   -1.827650   -0.552721
     28          1           0       -4.311483   -0.957645   -1.864018
     29          6           0       -1.844802   -0.594984    0.989847
     30          1           0       -1.340531   -0.382209    1.944393
     31          1           0       -2.094835   -1.664891    0.989313
     32          1           0       -1.372370   -0.551567   -1.101693
 ---------------------------------------------------------------------
 Rotational constants (GHZ):      0.7103761      0.2499910      0.1911316
 Standard basis: def2SVP (5D, 7F)
 There are   334 symmetry adapted cartesian basis functions of A   symmetry.
 There are   317 symmetry adapted basis functions of A   symmetry.
   317 basis functions,   542 primitive gaussians,   334 cartesian basis functions
    65 alpha electrons       65 beta electrons
       nuclear repulsion energy      1235.3332493595 Hartrees.
 NAtoms=   32 NActive=   32 NUniq=   32 SFac= 1.00D+00 NAtFMM=   60 NAOKFM=F Big=F
 Integral buffers will be    131072 words long.
 Raffenetti 2 integral format.
 Two-electron integral symmetry is turned on.
 Nuclear repulsion after empirical dispersion term =     1235.3315370971 Hartrees.
 ------------------------------------------------------------------------------
 Polarizable Continuum Model (PCM)
 =================================
 Model                : C-PCM.
 Atomic radii         : UFF (Universal Force Field).
 Polarization charges : Total charges.
 Charge compensation  : None.
 Solution method      : On-the-fly selection.
 Cavity type          : Scaled VdW (van der Waals Surface) (Alpha=1.100).
 Cavity algorithm     : GePol (No added spheres)
                        Default sphere list used, NSphG=   32.
                        Lebedev-Laikov grids with approx.  5.0 points / Ang**2.
                        Smoothing algorithm: Karplus/York (Gamma=1.0000).
                        Polarization charges: spherical gaussians, with
                                              point-specific exponents (IZeta= 3).
                        Self-potential: point-specific (ISelfS= 7).
                        Self-field    : sphere-specific E.n sum rule (ISelfD= 2).
 1st derivatives      : Analytical E(r).r(x)/FMM algorithm (CHGder, D1EAlg=3).
                        Cavity 1st derivative terms included.
 Solvent              : Toluene, Eps=   2.374100 Eps(inf)=   2.238315
 ------------------------------------------------------------------------------
 One-electron integrals computed using PRISM.
   1 Symmetry operations used in ECPInt.
 ECPInt:  NShTT=   11175 NPrTT=   41031 LenC2=   10158 LenP2D=   26599.
 LDataN:  DoStor=T MaxTD1= 4 Len=   56
 NBasis=   317 RedAO= T EigKep=  2.51D-04  NBF=   317
 NBsUse=   317 1.00D-06 EigRej= -1.00D+00 NBFU=   317
 ExpMin= 1.22D-01 ExpMax= 1.04D+04 ExpMxC= 1.57D+03 IAcc=1 IRadAn=         1 AccDes= 0.00D+00
 Harris functional with IExCor= 1009 and IRadAn=       1 diagonalized for initial guess.
 HarFok:  IExCor= 1009 AccDes= 0.00D+00 IRadAn=         1 IDoV= 1 UseB2=F ITyADJ=14
 ICtDFT=  3500011 ScaDFX=  1.000000  1.000000  1.000000  1.000000
 FoFCou: FMM=F IPFlag=           0 FMFlag=      100000 FMFlg1=           0
         NFxFlg=           0 DoJE=T BraDBF=F KetDBF=T FulRan=T
         wScrn=  0.000000 ICntrl=     500 IOpCl=  0 I1Cent=   200000004 NGrid=           0
         NMat0=    1 NMatS0=      1 NMatT0=    0 NMatD0=    1 NMtDS0=    0 NMtDT0=    0
 Petite list used in FoFCou.
 Requested convergence on RMS density matrix=1.00D-08 within 128 cycles.
 Requested convergence on MAX density matrix=1.00D-06.
 Requested convergence on             energy=1.00D-06.
 No special actions if energy rises.
 Inv3:  Mode=1 IEnd=    17438763.
 Iteration    1 A*A^-1 deviation from unit magnitude is 7.88D-15 for   2395.
 Iteration    1 A*A^-1 deviation from orthogonality  is 1.99D-15 for   2404   2364.
 Iteration    1 A^-1*A deviation from unit magnitude is 7.66D-15 for   2395.
 Iteration    1 A^-1*A deviation from orthogonality  is 1.67D-15 for   2411   2369.
 Error on total polarization charges =  0.00704
 SCF Done:  E(RM062X) =  -1115.11900510     A.U. after   13 cycles
            NFock= 13  Conv=0.89D-08     -V/T= 2.0070

 **********************************************************************

            Population analysis using the SCF density.

 **********************************************************************

 Orbital symmetries:
       Occupied  (A) (A) (A) (A) (A) (A) (A) (A) (A) (A) (A) (A)
                 (A) (A) (A) (A) (A) (A) (A) (A) (A) (A) (A) (A)
                 (A) (A) (A) (A) (A) (A) (A) (A) (A) (A) (A) (A)
                 (A) (A) (A) (A) (A) (A) (A) (A) (A) (A) (A) (A)
                 (A) (A) (A) (A) (A) (A) (A) (A) (A) (A) (A) (A)
                 (A) (A) (A) (A) (A)
       Virtual   (A) (A) (A) (A) (A) (A) (A) (A) (A) (A) (A) (A)
                 (A) (A) (A) (A) (A) (A) (A) (A) (A) (A) (A) (A)
                 (A) (A) (A) (A) (A) (A) (A) (A) (A) (A) (A) (A)
                 (A) (A) (A) (A) (A) (A) (A) (A) (A) (A) (A) (A)
                 (A) (A) (A) (A) (A) (A) (A) (A) (A) (A) (A) (A)
                 (A) (A) (A) (A) (A) (A) (A) (A) (A) (A) (A) (A)
                 (A) (A) (A) (A) (A) (A) (A) (A) (A) (A) (A) (A)
                 (A) (A) (A) (A) (A) (A) (A) (A) (A) (A) (A) (A)
                 (A) (A) (A) (A) (A) (A) (A) (A) (A) (A) (A) (A)
                 (A) (A) (A) (A) (A) (A) (A) (A) (A) (A) (A) (A)
                 (A) (A) (A) (A) (A) (A) (A) (A) (A) (A) (A) (A)
                 (A) (A) (A) (A) (A) (A) (A) (A) (A) (A) (A) (A)
                 (A) (A) (A) (A) (A) (A) (A) (A) (A) (A) (A) (A)
                 (A) (A) (A) (A) (A) (A) (A) (A) (A) (A) (A) (A)
                 (A) (A) (A) (A) (A) (A) (A) (A) (A) (A) (A) (A)
                 (A) (A) (A) (A) (A) (A) (A) (A) (A) (A) (A) (A)
                 (A) (A) (A) (A) (A) (A) (A) (A) (A) (A) (A) (A)
                 (A) (A) (A) (A) (A) (A) (A) (A) (A) (A) (A) (A)
                 (A) (A) (A) (A) (A) (A) (A) (A) (A) (A) (A) (A)
                 (A) (A) (A) (A) (A) (A) (A) (A) (A) (A) (A) (A)
                 (A) (A) (A) (A) (A) (A) (A) (A) (A) (A) (A) (A)
 The electronic state is 1-A.
 Alpha  occ. eigenvalues -- -102.64497 -19.63169 -10.65153 -10.62374 -10.59291
 Alpha  occ. eigenvalues --  -10.57867 -10.57788 -10.57608 -10.57603 -10.57354
 Alpha  occ. eigenvalues --  -10.57246 -10.57110 -10.56396 -10.56111 -10.54990
 Alpha  occ. eigenvalues --  -10.54856 -10.54745  -9.81501  -7.54203  -7.53524
 Alpha  occ. eigenvalues --   -7.53521  -1.16261  -1.00112  -0.96002  -0.92993
 Alpha  occ. eigenvalues --   -0.90113  -0.86327  -0.85499  -0.82146  -0.78209
 Alpha  occ. eigenvalues --   -0.77541  -0.72922  -0.71422  -0.69266  -0.65895
 Alpha  occ. eigenvalues --   -0.60940  -0.59924  -0.58028  -0.57409  -0.55335
 Alpha  occ. eigenvalues --   -0.53472  -0.52406  -0.52043  -0.51181  -0.50947
 Alpha  occ. eigenvalues --   -0.50041  -0.49329  -0.48388  -0.47166  -0.46331
 Alpha  occ. eigenvalues --   -0.45149  -0.44813  -0.43822  -0.43340  -0.43057
 Alpha  occ. eigenvalues --   -0.42105  -0.41468  -0.40691  -0.39026  -0.37939
 Alpha  occ. eigenvalues --   -0.35019  -0.33292  -0.32349  -0.29744  -0.28563
 Alpha virt. eigenvalues --   -0.04387  -0.01043   0.04709   0.06722   0.07459
 Alpha virt. eigenvalues --    0.08994   0.10060   0.11128   0.12338   0.13491
 Alpha virt. eigenvalues --    0.14860   0.14908   0.16070   0.17149   0.17313
 Alpha virt. eigenvalues --    0.17739   0.18250   0.19470   0.20469   0.20910
 Alpha virt. eigenvalues --    0.21968   0.22489   0.24330   0.25397   0.26299
 Alpha virt. eigenvalues --    0.27123   0.27834   0.29613   0.31195   0.31361
 Alpha virt. eigenvalues --    0.32730   0.34148   0.34454   0.35829   0.37955
 Alpha virt. eigenvalues --    0.38753   0.39338   0.41496   0.43432   0.44146
 Alpha virt. eigenvalues --    0.46505   0.46947   0.47075   0.48113   0.48531
 Alpha virt. eigenvalues --    0.49196   0.50155   0.50365   0.51932   0.52305
 Alpha virt. eigenvalues --    0.52672   0.53331   0.54712   0.55487   0.57146
 Alpha virt. eigenvalues --    0.57409   0.58754   0.59128   0.61180   0.62446
 Alpha virt. eigenvalues --    0.62903   0.63466   0.65193   0.65880   0.67318
 Alpha virt. eigenvalues --    0.67622   0.68289   0.69030   0.69288   0.69897
 Alpha virt. eigenvalues --    0.70126   0.70168   0.70731   0.71548   0.71812
 Alpha virt. eigenvalues --    0.72302   0.72830   0.73402   0.73605   0.74274
 Alpha virt. eigenvalues --    0.74707   0.75328   0.75765   0.76726   0.76905
 Alpha virt. eigenvalues --    0.77239   0.77747   0.78916   0.78954   0.79072
 Alpha virt. eigenvalues --    0.80340   0.81143   0.82121   0.83408   0.83905
 Alpha virt. eigenvalues --    0.84822   0.85309   0.86221   0.87500   0.88314
 Alpha virt. eigenvalues --    0.91027   0.91627   0.94810   0.95738   0.97478
 Alpha virt. eigenvalues --    0.99484   1.00067   1.04802   1.05089   1.07154
 Alpha virt. eigenvalues --    1.09603   1.10346   1.13383   1.15573   1.16603
 Alpha virt. eigenvalues --    1.17552   1.20198   1.21337   1.24455   1.24710
 Alpha virt. eigenvalues --    1.25117   1.27043   1.27866   1.29437   1.29821
 Alpha virt. eigenvalues --    1.30927   1.32460   1.33786   1.34793   1.35942
 Alpha virt. eigenvalues --    1.39856   1.41621   1.43759   1.44555   1.46807
 Alpha virt. eigenvalues --    1.48183   1.51861   1.54038   1.55439   1.57031
 Alpha virt. eigenvalues --    1.57785   1.58725   1.59186   1.62405   1.63740
 Alpha virt. eigenvalues --    1.66856   1.70164   1.70977   1.71663   1.73953
 Alpha virt. eigenvalues --    1.74349   1.75494   1.75839   1.76310   1.77480
 Alpha virt. eigenvalues --    1.77913   1.78802   1.79579   1.80984   1.81818
 Alpha virt. eigenvalues --    1.81971   1.83495   1.84447   1.85522   1.86230
 Alpha virt. eigenvalues --    1.86291   1.86828   1.86952   1.88279   1.89727
 Alpha virt. eigenvalues --    1.91771   1.93404   1.93717   1.95155   1.95862
 Alpha virt. eigenvalues --    1.96450   1.98090   1.99666   2.00739   2.00999
 Alpha virt. eigenvalues --    2.01577   2.03532   2.04534   2.05944   2.06441
 Alpha virt. eigenvalues --    2.08562   2.10851   2.12405   2.13218   2.14698
 Alpha virt. eigenvalues --    2.17182   2.18209   2.19169   2.19817   2.22610
 Alpha virt. eigenvalues --    2.25106   2.25407   2.27163   2.27765   2.31324
 Alpha virt. eigenvalues --    2.31492   2.32861   2.34258   2.35481   2.35830
 Alpha virt. eigenvalues --    2.37959   2.38394   2.40366   2.40738   2.44087
 Alpha virt. eigenvalues --    2.46604   2.50799   2.52223   2.53629   2.55949
 Alpha virt. eigenvalues --    2.57275   2.58908   2.59812   2.61479   2.63978
 Alpha virt. eigenvalues --    2.64467   2.65831   2.66023   2.68308   2.71595
 Alpha virt. eigenvalues --    2.74210   2.75543   2.78497   2.79381   2.79811
 Alpha virt. eigenvalues --    2.80564   2.84661   2.86007   2.88331   2.90773
 Alpha virt. eigenvalues --    2.91909   2.92970   2.93945   2.96378   2.97412
 Alpha virt. eigenvalues --    2.98241   3.00532   3.04039   3.08964   3.13449
 Alpha virt. eigenvalues --    3.13682   3.20915   3.25917   3.32217   3.43175
 Alpha virt. eigenvalues --    3.62562   3.69574
          Condensed to atoms (all electrons):
               1          2          3          4          5          6
     1  C    5.073509   0.299878   0.089330  -0.152231   0.101809   0.241049
     2  C    0.299878   5.160844   0.336272   0.019368  -0.132896   0.085196
     3  C    0.089330   0.336272   5.342967   0.264535  -0.004089  -0.146484
     4  C   -0.152231   0.019368   0.264535   5.732043   0.296463   0.087573
     5  C    0.101809  -0.132896  -0.004089   0.296463   5.166614   0.236422
     6  C    0.241049   0.085196  -0.146484   0.087573   0.236422   5.154086
     7  H    0.452525  -0.064932   0.014713  -0.001138   0.013086  -0.071812
     8  H   -0.061773   0.451076  -0.065418   0.015795  -0.002053   0.013233
     9  H    0.013082  -0.001825   0.014920  -0.074153   0.461813  -0.070742
    10  H   -0.071471   0.013378  -0.001275   0.014467  -0.071443   0.458525
    11  C   -0.001856   0.013692  -0.020675   0.188228  -0.084087   0.019133
    12  C    0.013326  -0.110244   0.216582  -0.039680   0.022128  -0.001638
    13  C   -0.000033  -0.003677  -0.092882  -0.146503   0.028393  -0.000385
    14  C   -0.000372   0.016514   0.031305  -0.022968  -0.005354   0.000108
    15  H    0.000003  -0.000376   0.013785  -0.000899   0.000037   0.000002
    16  O   -0.000032  -0.000065   0.000859  -0.135217   0.013618   0.001631
    17  Cl   0.000099  -0.007248  -0.073778   0.003534  -0.000098   0.000011
    18  C    0.000000   0.000000   0.000004   0.000026   0.000000   0.000000
    19  C    0.000000   0.000000   0.000033  -0.000761   0.000015   0.000000
    20  H    0.000000   0.000000  -0.000001   0.000003   0.000000   0.000000
    21  C    0.000000   0.000000   0.000000   0.000000   0.000000   0.000000
    22  H    0.000000   0.000000   0.000000   0.000000   0.000000   0.000000
    23  H    0.000000   0.000000   0.000000   0.000000   0.000000   0.000000
    24  H    0.000000   0.000000   0.000000   0.000000   0.000000   0.000000
    25  C    0.000000   0.000000   0.000001  -0.000061   0.000000   0.000000
    26  H    0.000000   0.000000  -0.000005   0.000197  -0.000003   0.000000
    27  H    0.000000   0.000000   0.000000   0.000000   0.000000   0.000000
    28  H    0.000000   0.000000   0.000000   0.000003   0.000000   0.000000
    29  C    0.000002   0.000043   0.001735   0.002491  -0.000761   0.000005
    30  H   -0.000001   0.000006   0.001673   0.000363  -0.000215  -0.000003
    31  H    0.000000   0.000002  -0.000238   0.001708   0.000026  -0.000002
    32  H    0.000002   0.000101   0.004526   0.003673  -0.000954   0.000005
               7          8          9         10         11         12
     1  C    0.452525  -0.061773   0.013082  -0.071471  -0.001856   0.013326
     2  C   -0.064932   0.451076  -0.001825   0.013378   0.013692  -0.110244
     3  C    0.014713  -0.065418   0.014920  -0.001275  -0.020675   0.216582
     4  C   -0.001138   0.015795  -0.074153   0.014467   0.188228  -0.039680
     5  C    0.013086  -0.002053   0.461813  -0.071443  -0.084087   0.022128
     6  C   -0.071812   0.013233  -0.070742   0.458525   0.019133  -0.001638
     7  H    0.638823  -0.011130  -0.000207  -0.011068   0.000042  -0.000372
     8  H   -0.011130   0.634613   0.000021  -0.000196  -0.000048  -0.026389
     9  H   -0.000207   0.000021   0.631186  -0.009859  -0.020206  -0.000063
    10  H   -0.011068  -0.000196  -0.009859   0.639233  -0.000365   0.000046
    11  C    0.000042  -0.000048  -0.020206  -0.000365   4.949636  -0.071194
    12  C   -0.000372  -0.026389  -0.000063   0.000046  -0.071194   5.104631
    13  C    0.000000  -0.000079   0.002514   0.000004   0.118226   0.075584
    14  C    0.000002   0.000546  -0.000260   0.000000   0.017953   0.544636
    15  H    0.000000  -0.000010   0.000002   0.000000   0.007726  -0.041645
    16  O    0.000000   0.000001   0.016693  -0.000011   0.760664   0.000218
    17  Cl  -0.000023   0.023029   0.000001   0.000000   0.000180   0.253359
    18  C    0.000000   0.000000   0.000000   0.000000   0.001178  -0.000084
    19  C    0.000000   0.000000   0.000002   0.000000   0.009760  -0.000192
    20  H    0.000000   0.000000   0.000000   0.000000  -0.000650   0.000712
    21  C    0.000000   0.000000   0.000000   0.000000   0.000009   0.000001
    22  H    0.000000   0.000000   0.000000   0.000000   0.000000   0.000000
    23  H    0.000000   0.000000   0.000000   0.000000   0.000001   0.000001
    24  H    0.000000   0.000000   0.000000   0.000000  -0.000004   0.000001
    25  C    0.000000   0.000000   0.000000   0.000000  -0.001263   0.000022
    26  H    0.000000   0.000000  -0.000004   0.000000   0.000363   0.000000
    27  H    0.000000   0.000000   0.000000   0.000000   0.000037   0.000000
    28  H    0.000000   0.000000   0.000000   0.000000  -0.000012   0.000000
    29  C    0.000000   0.000000  -0.000049   0.000000  -0.025654  -0.002800
    30  H    0.000000   0.000000  -0.000002   0.000000   0.001790  -0.001691
    31  H    0.000000   0.000000  -0.000045   0.000000  -0.012651  -0.000131
    32  H    0.000000   0.000001  -0.000054   0.000000   0.019799  -0.007810
              13         14         15         16         17         18
     1  C   -0.000033  -0.000372   0.000003  -0.000032   0.000099   0.000000
     2  C   -0.003677   0.016514  -0.000376  -0.000065  -0.007248   0.000000
     3  C   -0.092882   0.031305   0.013785   0.000859  -0.073778   0.000004
     4  C   -0.146503  -0.022968  -0.000899  -0.135217   0.003534   0.000026
     5  C    0.028393  -0.005354   0.000037   0.013618  -0.000098   0.000000
     6  C   -0.000385   0.000108   0.000002   0.001631   0.000011   0.000000
     7  H    0.000000   0.000002   0.000000   0.000000  -0.000023   0.000000
     8  H   -0.000079   0.000546  -0.000010   0.000001   0.023029   0.000000
     9  H    0.002514  -0.000260   0.000002   0.016693   0.000001   0.000000
    10  H    0.000004   0.000000   0.000000  -0.000011   0.000000   0.000000
    11  C    0.118226   0.017953   0.007726   0.760664   0.000180   0.001178
    12  C    0.075584   0.544636  -0.041645   0.000218   0.253359  -0.000084
    13  C    5.665084   0.074640  -0.052198  -0.111644   0.004241  -0.010462
    14  C    0.074640   5.120140   0.418155   0.005326  -0.077260  -0.003017
    15  H   -0.052198   0.418155   0.615030  -0.000080   0.002109   0.001185
    16  O   -0.111644   0.005326  -0.000080   7.673850   0.000000   0.000178
    17  Cl   0.004241  -0.077260   0.002109   0.000000  16.973518   0.000001
    18  C   -0.010462  -0.003017   0.001185   0.000178   0.000001   4.999939
    19  C   -0.081457   0.000089   0.013906  -0.000333  -0.000033   0.637725
    20  H   -0.004258   0.004930   0.000514  -0.000008  -0.000004  -0.035514
    21  C   -0.000265  -0.000029   0.000038   0.000000   0.000000   0.403226
    22  H   -0.000031   0.000000   0.000010   0.000000   0.000000  -0.023284
    23  H   -0.000011  -0.000014   0.000017   0.000000   0.000000  -0.018217
    24  H    0.000107   0.000022  -0.000084   0.000000   0.000000  -0.022786
    25  C   -0.001749   0.000603   0.000094  -0.000829   0.000000   0.382443
    26  H   -0.005550   0.000696  -0.000020   0.004084   0.000000  -0.000989
    27  H   -0.000051  -0.000011   0.000006   0.000000   0.000000  -0.021920
    28  H    0.000559  -0.000032  -0.000060   0.000001   0.000000  -0.021069
    29  C    0.361311  -0.062715  -0.009191  -0.002124   0.000043  -0.051193
    30  H   -0.033499  -0.002209  -0.000597   0.000193  -0.000098   0.011927
    31  H   -0.030236   0.012138   0.000219   0.014919   0.000002  -0.021346
    32  H    0.297760   0.000841  -0.003563   0.000998  -0.000116   0.006740
              19         20         21         22         23         24
     1  C    0.000000   0.000000   0.000000   0.000000   0.000000   0.000000
     2  C    0.000000   0.000000   0.000000   0.000000   0.000000   0.000000
     3  C    0.000033  -0.000001   0.000000   0.000000   0.000000   0.000000
     4  C   -0.000761   0.000003   0.000000   0.000000   0.000000   0.000000
     5  C    0.000015   0.000000   0.000000   0.000000   0.000000   0.000000
     6  C    0.000000   0.000000   0.000000   0.000000   0.000000   0.000000
     7  H    0.000000   0.000000   0.000000   0.000000   0.000000   0.000000
     8  H    0.000000   0.000000   0.000000   0.000000   0.000000   0.000000
     9  H    0.000002   0.000000   0.000000   0.000000   0.000000   0.000000
    10  H    0.000000   0.000000   0.000000   0.000000   0.000000   0.000000
    11  C    0.009760  -0.000650   0.000009   0.000000   0.000001  -0.000004
    12  C   -0.000192   0.000712   0.000001   0.000000   0.000001   0.000001
    13  C   -0.081457  -0.004258  -0.000265  -0.000031  -0.000011   0.000107
    14  C    0.000089   0.004930  -0.000029   0.000000  -0.000014   0.000022
    15  H    0.013906   0.000514   0.000038   0.000010   0.000017  -0.000084
    16  O   -0.000333  -0.000008   0.000000   0.000000   0.000000   0.000000
    17  Cl  -0.000033  -0.000004   0.000000   0.000000   0.000000   0.000000
    18  C    0.637725  -0.035514   0.403226  -0.023284  -0.018217  -0.022786
    19  C    4.957526   0.412405  -0.062139   0.000894  -0.012175   0.000804
    20  H    0.412405   0.660900  -0.020241   0.000413   0.007159   0.000516
    21  C   -0.062139  -0.020241   4.586259   0.385771   0.392483   0.385673
    22  H    0.000894   0.000413   0.385771   0.625539  -0.019845  -0.024192
    23  H   -0.012175   0.007159   0.392483  -0.019845   0.619705  -0.020527
    24  H    0.000804   0.000516   0.385673  -0.024192  -0.020527   0.627294
    25  C   -0.063482   0.011069  -0.072635  -0.000637   0.007500  -0.001224
    26  H   -0.027166  -0.000055   0.007622  -0.000082  -0.000359  -0.000046
    27  H    0.003685  -0.000353  -0.003246   0.005005  -0.000047  -0.001542
    28  H    0.002126  -0.000319  -0.002767  -0.001554  -0.000083   0.004744
    29  C    0.360164  -0.052005   0.011005  -0.000557   0.000610  -0.000349
    30  H   -0.019618  -0.011107  -0.000294   0.000021  -0.000017   0.000001
    31  H   -0.002455   0.005949   0.000022   0.000056   0.000003  -0.000024
    32  H   -0.012920  -0.000306  -0.000343   0.000012  -0.000004  -0.000003
              25         26         27         28         29         30
     1  C    0.000000   0.000000   0.000000   0.000000   0.000002  -0.000001
     2  C    0.000000   0.000000   0.000000   0.000000   0.000043   0.000006
     3  C    0.000001  -0.000005   0.000000   0.000000   0.001735   0.001673
     4  C   -0.000061   0.000197   0.000000   0.000003   0.002491   0.000363
     5  C    0.000000  -0.000003   0.000000   0.000000  -0.000761  -0.000215
     6  C    0.000000   0.000000   0.000000   0.000000   0.000005  -0.000003
     7  H    0.000000   0.000000   0.000000   0.000000   0.000000   0.000000
     8  H    0.000000   0.000000   0.000000   0.000000   0.000000   0.000000
     9  H    0.000000  -0.000004   0.000000   0.000000  -0.000049  -0.000002
    10  H    0.000000   0.000000   0.000000   0.000000   0.000000   0.000000
    11  C   -0.001263   0.000363   0.000037  -0.000012  -0.025654   0.001790
    12  C    0.000022   0.000000   0.000000   0.000000  -0.002800  -0.001691
    13  C   -0.001749  -0.005550  -0.000051   0.000559   0.361311  -0.033499
    14  C    0.000603   0.000696  -0.000011  -0.000032  -0.062715  -0.002209
    15  H    0.000094  -0.000020   0.000006  -0.000060  -0.009191  -0.000597
    16  O   -0.000829   0.004084   0.000000   0.000001  -0.002124   0.000193
    17  Cl   0.000000   0.000000   0.000000   0.000000   0.000043  -0.000098
    18  C    0.382443  -0.000989  -0.021920  -0.021069  -0.051193   0.011927
    19  C   -0.063482  -0.027166   0.003685   0.002126   0.360164  -0.019618
    20  H    0.011069  -0.000055  -0.000353  -0.000319  -0.052005  -0.011107
    21  C   -0.072635   0.007622  -0.003246  -0.002767   0.011005  -0.000294
    22  H   -0.000637  -0.000082   0.005005  -0.001554  -0.000557   0.000021
    23  H    0.007500  -0.000359  -0.000047  -0.000083   0.000610  -0.000017
    24  H   -0.001224  -0.000046  -0.001542   0.004744  -0.000349   0.000001
    25  C    4.607827   0.379896   0.384620   0.384012  -0.007542   0.000181
    26  H    0.379896   0.619453  -0.019904  -0.021046   0.009048   0.000044
    27  H    0.384620  -0.019904   0.617751  -0.020711  -0.000128   0.000029
    28  H    0.384012  -0.021046  -0.020711   0.620385   0.000723  -0.000045
    29  C   -0.007542   0.009048  -0.000128   0.000723   4.718439   0.367252
    30  H    0.000181   0.000044   0.000029  -0.000045   0.367252   0.657103
    31  H    0.001831   0.003043   0.000431  -0.000349   0.373305  -0.024809
    32  H    0.002445   0.003484   0.000022  -0.000064  -0.012895   0.008626
              31         32
     1  C    0.000000   0.000002
     2  C    0.000002   0.000101
     3  C   -0.000238   0.004526
     4  C    0.001708   0.003673
     5  C    0.000026  -0.000954
     6  C   -0.000002   0.000005
     7  H    0.000000   0.000000
     8  H    0.000000   0.000001
     9  H   -0.000045  -0.000054
    10  H    0.000000   0.000000
    11  C   -0.012651   0.019799
    12  C   -0.000131  -0.007810
    13  C   -0.030236   0.297760
    14  C    0.012138   0.000841
    15  H    0.000219  -0.003563
    16  O    0.014919   0.000998
    17  Cl   0.000002  -0.000116
    18  C   -0.021346   0.006740
    19  C   -0.002455  -0.012920
    20  H    0.005949  -0.000306
    21  C    0.000022  -0.000343
    22  H    0.000056   0.000012
    23  H    0.000003  -0.000004
    24  H   -0.000024  -0.000003
    25  C    0.001831   0.002445
    26  H    0.003043   0.003484
    27  H    0.000431   0.000022
    28  H   -0.000349  -0.000064
    29  C    0.373305  -0.012895
    30  H   -0.024809   0.008626
    31  H    0.620193  -0.006409
    32  H   -0.006409   0.613554
 Mulliken charges:
               1
     1  C    0.003155
     2  C   -0.075107
     3  C    0.071607
     4  C   -0.056860
     5  C   -0.038472
     6  C   -0.005914
     7  H    0.041489
     8  H    0.028782
     9  H    0.037234
    10  H    0.040036
    11  C    0.130246
    12  C    0.072688
    13  C   -0.053450
    14  C   -0.074405
    15  H    0.035883
    16  O   -0.242892
    17  Cl  -0.101470
    18  C   -0.214689
    19  C   -0.116404
    20  H    0.020250
    21  C   -0.010149
    22  H    0.052461
    23  H    0.043821
    24  H    0.051621
    25  C   -0.013124
    26  H    0.047300
    27  H    0.056326
    28  H    0.055558
    29  C    0.021786
    30  H    0.044996
    31  H    0.064845
    32  H    0.082852
 Sum of Mulliken charges =   0.00000
 Mulliken charges with hydrogens summed into heavy atoms:
               1
     1  C    0.044645
     2  C   -0.046326
     3  C    0.071607
     4  C   -0.056860
     5  C   -0.001239
     6  C    0.034122
    11  C    0.130246
    12  C    0.072688
    13  C    0.029403
    14  C   -0.038522
    16  O   -0.242892
    17  Cl  -0.101470
    18  C   -0.214689
    19  C   -0.096154
    21  C    0.137754
    25  C    0.146060
    29  C    0.131627
 Electronic spatial extent (au):  <R**2>=           5538.5067
 Charge=              0.0000 electrons
 Dipole moment (field-independent basis, Debye):
    X=              0.0568    Y=              0.9199    Z=             -0.2379  Tot=              0.9518
 Quadrupole moment (field-independent basis, Debye-Ang):
   XX=            -86.8631   YY=           -114.2560   ZZ=           -109.3876
   XY=             -4.6051   XZ=              2.9317   YZ=              0.4328
 Traceless Quadrupole moment (field-independent basis, Debye-Ang):
   XX=             16.6392   YY=            -10.7538   ZZ=             -5.8854
   XY=             -4.6051   XZ=              2.9317   YZ=              0.4328
 Octapole moment (field-independent basis, Debye-Ang**2):
  XXX=             32.9112  YYY=             18.4391  ZZZ=             -2.9137  XYY=             10.3062
  XXY=            -11.7638  XXZ=             -8.9830  XZZ=            -11.1145  YZZ=              2.8101
  YYZ=              2.6364  XYZ=             -3.1523
 Hexadecapole moment (field-independent basis, Debye-Ang**3):
 XXXX=          -4978.0093 YYYY=          -1735.7369 ZZZZ=           -253.3097 XXXY=            -11.7620
 XXXZ=             65.1028 YYYX=            -25.4079 YYYZ=             -4.6129 ZZZX=             12.1743
 ZZZY=              1.9993 XXYY=          -1137.9571 XXZZ=          -1020.1508 YYZZ=           -332.7752
 XXYZ=              5.5157 YYXZ=             -1.4486 ZZXY=              8.9589
 N-N= 1.235331537097D+03 E-N=-5.082121353290D+03  KE= 1.107381325894D+03
   1 Symmetry operations used in ECPInt.
 ECPInt:  NShTT=   11175 NPrTT=   41031 LenC2=   10158 LenP2D=   26599.
 LDataN:  DoStor=T MaxTD1= 5 Len=  102
 D1PCM: C-PCM CHGder 1st derivatives, ID1Alg=3 FixD1E=F DoIter=F DoCFld=F I1PDM=0.
 Calling FoFJK, ICntrl=      2127 FMM=F ISym2X=0 I1Cent= 0 IOpClX= 0 NMat=1 NMatS=1 NMatT=0.
 ***** Axes restored to original set *****
 -------------------------------------------------------------------
 Center     Atomic                   Forces (Hartrees/Bohr)
 Number     Number              X              Y              Z
 -------------------------------------------------------------------
      1        6           0.000008382    0.000002331    0.000000971
      2        6          -0.000005673    0.000017066    0.000001555
      3        6          -0.000005946    0.000015658   -0.000002505
      4        6          -0.000008684   -0.000014708   -0.000007297
      5        6          -0.000005391   -0.000012485   -0.000000173
      6        6           0.000010854    0.000000010    0.000000008
      7        1          -0.000005510    0.000012904   -0.000000785
      8        1          -0.000005283    0.000008672    0.000001267
      9        1          -0.000008566    0.000005866   -0.000001739
     10        1          -0.000003745    0.000006928   -0.000003048
     11        6           0.000005156   -0.000010418   -0.000001693
     12        6           0.000000492    0.000019936   -0.000002961
     13        6          -0.000010042    0.000004427    0.000004508
     14        6          -0.000019081    0.000014322   -0.000002886
     15        1          -0.000002256    0.000003154   -0.000002773
     16        8           0.000004722   -0.000015620   -0.000009239
     17       17          -0.000024297    0.000013736    0.000003938
     18        6           0.000002258   -0.000007366   -0.000002541
     19        6          -0.000002105    0.000008930    0.000012180
     20        1           0.000012141    0.000003836    0.000011783
     21        6          -0.000007927   -0.000002981    0.000001680
     22        1           0.000002715   -0.000006665    0.000002876
     23        1           0.000011911   -0.000004134    0.000004645
     24        1           0.000010150   -0.000002409    0.000001158
     25        6          -0.000007003   -0.000008953   -0.000003907
     26        1           0.000002869   -0.000011555   -0.000011330
     27        1           0.000008683   -0.000012997   -0.000003806
     28        1           0.000011206   -0.000006249   -0.000008637
     29        6           0.000013459   -0.000013218    0.000008791
     30        1           0.000001013    0.000002501    0.000013515
     31        1           0.000008952   -0.000008056    0.000006264
     32        1           0.000006548   -0.000002465   -0.000009819
 -------------------------------------------------------------------
 Cartesian Forces:  Max     0.000024297 RMS     0.000008626

 GradGradGradGradGradGradGradGradGradGradGradGradGradGradGradGradGradGrad
 Berny optimization.
 FormGI is forming the generalized inverse of G from B-inverse, IUseBI=4.
 GSVD:  received Info=                   1 from GESDD.
 Internal  Forces:  Max     0.000121569 RMS     0.000017462
 Search for a local minimum.
 Step number   1 out of a maximum of  179
 All quantities printed in internal units (Hartrees-Bohrs-Radians)
 Mixed Optimization -- En-DIIS/RFO-DIIS
 Second derivative matrix not updated -- first step.
 ITU=  0
     Eigenvalues ---    0.00230   0.00644   0.00695   0.00697   0.00710
     Eigenvalues ---    0.00720   0.01303   0.01397   0.01486   0.01573
     Eigenvalues ---    0.01687   0.01788   0.01876   0.02132   0.02141
     Eigenvalues ---    0.02158   0.02169   0.02171   0.02186   0.02201
     Eigenvalues ---    0.02862   0.04053   0.04078   0.05422   0.05477
     Eigenvalues ---    0.06432   0.06885   0.07079   0.07327   0.07384
     Eigenvalues ---    0.09289   0.12847   0.15997   0.15999   0.16000
     Eigenvalues ---    0.16000   0.16000   0.16000   0.16000   0.16000
     Eigenvalues ---    0.16000   0.16000   0.16000   0.16000   0.17179
     Eigenvalues ---    0.19681   0.21966   0.22000   0.22001   0.22582
     Eigenvalues ---    0.24225   0.24499   0.24999   0.25000   0.25000
     Eigenvalues ---    0.25000   0.25000   0.27469   0.29788   0.30969
     Eigenvalues ---    0.31825   0.31839   0.31871   0.31939   0.32974
     Eigenvalues ---    0.33032   0.33467   0.33487   0.33487   0.33492
     Eigenvalues ---    0.33646   0.33822   0.33929   0.33985   0.34253
     Eigenvalues ---    0.34558   0.34663   0.34687   0.34706   0.34750
     Eigenvalues ---    0.34894   0.39778   0.42130   0.44670   0.45991
     Eigenvalues ---    0.46527   0.46925   0.56050   0.56858   0.99103
 RFO step:  Lambda=-9.54549257D-07 EMin= 2.30000000D-03
 Linear search not attempted -- first point.
 Iteration  1 RMS(Cart)=  0.00484644 RMS(Int)=  0.00000375
 Iteration  2 RMS(Cart)=  0.00000893 RMS(Int)=  0.00000005
 Iteration  3 RMS(Cart)=  0.00000000 RMS(Int)=  0.00000005
 Variable       Old X    -DE/DX   Delta X   Delta X   Delta X     New X
                                 (Linear)    (Quad)   (Total)
    R1        2.63161   0.00002   0.00000   0.00004   0.00004   2.63164
    R2        2.63889   0.00002   0.00000   0.00004   0.00004   2.63893
    R3        2.06186   0.00000   0.00000  -0.00001  -0.00001   2.06184
    R4        2.64504   0.00000   0.00000  -0.00001  -0.00001   2.64503
    R5        2.05847   0.00000   0.00000   0.00000   0.00000   2.05848
    R6        2.66666   0.00004   0.00000   0.00009   0.00009   2.66676
    R7        2.78517   0.00002   0.00000   0.00006   0.00006   2.78523
    R8        2.64026  -0.00001   0.00000  -0.00002  -0.00002   2.64024
    R9        2.81625  -0.00003   0.00000  -0.00007  -0.00007   2.81617
   R10        2.62743   0.00000   0.00000   0.00001   0.00001   2.62743
   R11        2.06154   0.00000   0.00000   0.00001   0.00001   2.06155
   R12        2.06083   0.00000   0.00000  -0.00001  -0.00001   2.06082
   R13        2.87291  -0.00001   0.00000  -0.00005  -0.00005   2.87287
   R14        2.29000   0.00002   0.00000   0.00002   0.00002   2.29002
   R15        2.52714  -0.00002   0.00000  -0.00004  -0.00004   2.52710
   R16        3.29772   0.00000   0.00000   0.00002   0.00002   3.29773
   R17        2.82645   0.00000   0.00000  -0.00001  -0.00001   2.82643
   R18        2.93313  -0.00003   0.00000  -0.00010  -0.00010   2.93303
   R19        2.08995   0.00001   0.00000   0.00002   0.00002   2.08996
   R20        2.06399   0.00000   0.00000   0.00001   0.00001   2.06399
   R21        2.53517  -0.00001   0.00000  -0.00002  -0.00002   2.53515
   R22        2.84256  -0.00001   0.00000  -0.00004  -0.00004   2.84252
   R23        2.84465   0.00003   0.00000   0.00010   0.00010   2.84476
   R24        2.06906   0.00001   0.00000   0.00004   0.00004   2.06909
   R25        2.84439  -0.00004   0.00000  -0.00011  -0.00011   2.84428
   R26        2.08205   0.00000   0.00000  -0.00001  -0.00001   2.08204
   R27        2.07450   0.00001   0.00000   0.00001   0.00001   2.07452
   R28        2.08204   0.00000   0.00000   0.00000   0.00000   2.08204
   R29        2.07355   0.00000   0.00000   0.00001   0.00001   2.07356
   R30        2.08196   0.00000   0.00000  -0.00001  -0.00001   2.08195
   R31        2.08240   0.00001   0.00000   0.00002   0.00002   2.08242
   R32        2.07932   0.00001   0.00000   0.00004   0.00004   2.07936
   R33        2.07631   0.00000   0.00000   0.00001   0.00001   2.07632
    A1        2.10620   0.00001   0.00000   0.00004   0.00004   2.10624
    A2        2.08325  -0.00001   0.00000  -0.00006  -0.00006   2.08320
    A3        2.09373   0.00000   0.00000   0.00002   0.00002   2.09375
    A4        2.10190   0.00000   0.00000  -0.00001  -0.00001   2.10188
    A5        2.09653   0.00001   0.00000   0.00003   0.00003   2.09656
    A6        2.08475   0.00000   0.00000  -0.00001  -0.00001   2.08474
    A7        2.07248  -0.00001   0.00000  -0.00005  -0.00005   2.07243
    A8        2.14198   0.00000   0.00000   0.00000   0.00000   2.14198
    A9        2.06872   0.00001   0.00000   0.00005   0.00005   2.06878
   A10        2.09970   0.00002   0.00000   0.00007   0.00007   2.09977
   A11        2.11612   0.00001   0.00000   0.00003   0.00003   2.11615
   A12        2.06737  -0.00003   0.00000  -0.00011  -0.00011   2.06726
   A13        2.10231  -0.00001   0.00000  -0.00004  -0.00004   2.10227
   A14        2.05774  -0.00001   0.00000  -0.00006  -0.00006   2.05768
   A15        2.12314   0.00002   0.00000   0.00010   0.00010   2.12324
   A16        2.08378   0.00000   0.00000  -0.00001  -0.00001   2.08377
   A17        2.09956   0.00001   0.00000   0.00004   0.00004   2.09960
   A18        2.09985   0.00000   0.00000  -0.00003  -0.00003   2.09982
   A19        2.07181  -0.00003   0.00000  -0.00014  -0.00014   2.07167
   A20        2.12090   0.00001   0.00000   0.00004   0.00004   2.12094
   A21        2.09044   0.00002   0.00000   0.00009   0.00009   2.09053
   A22        2.14800  -0.00002   0.00000  -0.00009  -0.00009   2.14791
   A23        2.05064   0.00005   0.00000   0.00019   0.00019   2.05083
   A24        2.08454  -0.00002   0.00000  -0.00010  -0.00010   2.08444
   A25        2.01548   0.00003   0.00000   0.00017   0.00017   2.01565
   A26        1.91185   0.00000   0.00000   0.00005   0.00005   1.91190
   A27        1.83505  -0.00001   0.00000  -0.00003  -0.00003   1.83503
   A28        1.94955  -0.00003   0.00000  -0.00014  -0.00014   1.94940
   A29        1.88501  -0.00001   0.00000  -0.00016  -0.00016   1.88485
   A30        1.85642   0.00002   0.00000   0.00011   0.00011   1.85653
   A31        2.14591   0.00000   0.00000  -0.00003  -0.00003   2.14588
   A32        2.08801   0.00000   0.00000   0.00000   0.00000   2.08801
   A33        2.04922   0.00000   0.00000   0.00003   0.00003   2.04925
   A34        2.11990  -0.00005   0.00000  -0.00018  -0.00018   2.11972
   A35        2.15640   0.00001   0.00000   0.00005   0.00005   2.15644
   A36        2.00689   0.00003   0.00000   0.00013   0.00013   2.00702
   A37        2.05724   0.00002   0.00000   0.00011   0.00011   2.05735
   A38        2.18449  -0.00001   0.00000  -0.00007  -0.00007   2.18441
   A39        2.04122  -0.00001   0.00000  -0.00007  -0.00007   2.04115
   A40        1.92981   0.00001   0.00000   0.00008   0.00008   1.92989
   A41        1.95102  -0.00002   0.00000  -0.00014  -0.00014   1.95088
   A42        1.93061  -0.00001   0.00000  -0.00007  -0.00007   1.93054
   A43        1.89425   0.00001   0.00000   0.00007   0.00007   1.89432
   A44        1.86123   0.00001   0.00000   0.00010   0.00010   1.86133
   A45        1.89414   0.00001   0.00000  -0.00003  -0.00003   1.89411
   A46        1.98040   0.00001   0.00000   0.00005   0.00005   1.98045
   A47        1.92381   0.00001   0.00000   0.00009   0.00009   1.92390
   A48        1.92121   0.00000   0.00000   0.00000   0.00000   1.92121
   A49        1.88877  -0.00001   0.00000  -0.00006  -0.00006   1.88871
   A50        1.88669  -0.00001   0.00000  -0.00013  -0.00013   1.88656
   A51        1.85850   0.00000   0.00000   0.00003   0.00003   1.85853
   A52        1.97104  -0.00012   0.00000  -0.00060  -0.00060   1.97045
   A53        1.88854   0.00005   0.00000   0.00026   0.00026   1.88880
   A54        1.86525   0.00002   0.00000   0.00004   0.00004   1.86529
   A55        1.92236   0.00002   0.00000  -0.00004  -0.00004   1.92232
   A56        1.94431   0.00005   0.00000   0.00031   0.00031   1.94462
   A57        1.86817  -0.00002   0.00000   0.00006   0.00006   1.86824
    D1       -0.00107   0.00000   0.00000   0.00002   0.00002  -0.00105
    D2       -3.14146   0.00000   0.00000  -0.00005  -0.00005  -3.14151
    D3        3.14107   0.00000   0.00000   0.00005   0.00005   3.14111
    D4        0.00068   0.00000   0.00000  -0.00002  -0.00002   0.00065
    D5        0.00267   0.00000   0.00000   0.00001   0.00001   0.00268
    D6       -3.13863   0.00000   0.00000   0.00004   0.00004  -3.13859
    D7       -3.13948   0.00000   0.00000  -0.00002  -0.00002  -3.13949
    D8        0.00242   0.00000   0.00000   0.00001   0.00001   0.00243
    D9       -0.00206   0.00000   0.00000  -0.00004  -0.00004  -0.00210
   D10        3.13996   0.00000   0.00000  -0.00014  -0.00014   3.13982
   D11        3.13834   0.00000   0.00000   0.00002   0.00002   3.13836
   D12       -0.00282   0.00000   0.00000  -0.00007  -0.00007  -0.00290
   D13        0.00362   0.00000   0.00000   0.00004   0.00004   0.00366
   D14       -3.13970   0.00000   0.00000  -0.00014  -0.00014  -3.13984
   D15       -3.13839   0.00000   0.00000   0.00014   0.00014  -3.13825
   D16        0.00148   0.00000   0.00000  -0.00005  -0.00005   0.00143
   D17        3.13977   0.00000   0.00000   0.00044   0.00044   3.14021
   D18       -0.00040   0.00000   0.00000   0.00019   0.00019  -0.00021
   D19       -0.00140   0.00000   0.00000   0.00034   0.00034  -0.00105
   D20       -3.14156   0.00000   0.00000   0.00009   0.00009  -3.14147
   D21       -0.00207   0.00000   0.00000  -0.00001  -0.00001  -0.00208
   D22        3.13997   0.00000   0.00000  -0.00010  -0.00010   3.13987
   D23        3.14121   0.00000   0.00000   0.00016   0.00016   3.14137
   D24        0.00006   0.00000   0.00000   0.00007   0.00007   0.00013
   D25       -0.01446   0.00000   0.00000  -0.00050  -0.00050  -0.01496
   D26        3.13608   0.00000   0.00000  -0.00028  -0.00028   3.13580
   D27        3.12544  -0.00001   0.00000  -0.00068  -0.00068   3.12475
   D28       -0.00721   0.00000   0.00000  -0.00046  -0.00046  -0.00767
   D29       -0.00109   0.00000   0.00000  -0.00001  -0.00001  -0.00110
   D30        3.14020   0.00000   0.00000  -0.00004  -0.00004   3.14017
   D31        3.14004   0.00000   0.00000   0.00008   0.00008   3.14012
   D32       -0.00185   0.00000   0.00000   0.00006   0.00006  -0.00180
   D33        0.02573   0.00000   0.00000   0.00075   0.00075   0.02648
   D34       -2.19327   0.00002   0.00000   0.00076   0.00076  -2.19251
   D35        2.10130   0.00000   0.00000   0.00063   0.00063   2.10193
   D36       -3.12465   0.00000   0.00000   0.00053   0.00053  -3.12412
   D37        0.93953   0.00001   0.00000   0.00055   0.00055   0.94008
   D38       -1.04908   0.00000   0.00000   0.00041   0.00041  -1.04867
   D39        0.01508   0.00000   0.00000  -0.00005  -0.00005   0.01503
   D40       -3.13667   0.00000   0.00000  -0.00014  -0.00014  -3.13680
   D41       -3.12796   0.00000   0.00000   0.00021   0.00021  -3.12776
   D42        0.00347   0.00000   0.00000   0.00012   0.00012   0.00359
   D43       -0.02683   0.00000   0.00000  -0.00050  -0.00050  -0.02733
   D44        3.12471   0.00000   0.00000  -0.00042  -0.00042   3.12429
   D45        2.17306   0.00000   0.00000  -0.00041  -0.00041   2.17266
   D46       -0.95858   0.00000   0.00000  -0.00032  -0.00032  -0.95891
   D47       -2.07459   0.00000   0.00000  -0.00045  -0.00045  -2.07504
   D48        1.07695   0.00000   0.00000  -0.00037  -0.00037   1.07658
   D49       -2.94443  -0.00001   0.00000  -0.00394  -0.00394  -2.94837
   D50        1.20609   0.00001   0.00000  -0.00368  -0.00368   1.20240
   D51       -0.80043   0.00000   0.00000  -0.00390  -0.00390  -0.80434
   D52        1.08314  -0.00003   0.00000  -0.00409  -0.00409   1.07905
   D53       -1.04953  -0.00001   0.00000  -0.00383  -0.00383  -1.05336
   D54       -3.05605  -0.00003   0.00000  -0.00406  -0.00406  -3.06010
   D55       -0.96966  -0.00001   0.00000  -0.00389  -0.00389  -0.97355
   D56       -3.10232   0.00001   0.00000  -0.00363  -0.00363  -3.10595
   D57        1.17434  -0.00001   0.00000  -0.00385  -0.00385   1.17049
   D58       -0.00952   0.00000   0.00000  -0.00014  -0.00014  -0.00966
   D59       -3.12657   0.00002   0.00000   0.00147   0.00147  -3.12510
   D60        3.12940  -0.00001   0.00000  -0.00116  -0.00116   3.12824
   D61        0.01234   0.00001   0.00000   0.00045   0.00045   0.01280
   D62       -2.11862   0.00000   0.00000  -0.00050  -0.00050  -2.11912
   D63       -0.00612   0.00000   0.00000  -0.00045  -0.00045  -0.00657
   D64        2.10678  -0.00001   0.00000  -0.00063  -0.00063   2.10614
   D65        1.02544   0.00001   0.00000   0.00044   0.00044   1.02588
   D66        3.13794   0.00001   0.00000   0.00049   0.00049   3.13842
   D67       -1.03235   0.00000   0.00000   0.00030   0.00030  -1.03205
   D68        0.01495   0.00000   0.00000   0.00055   0.00055   0.01551
   D69        2.13635   0.00001   0.00000   0.00058   0.00058   2.13693
   D70       -2.10184   0.00001   0.00000   0.00068   0.00068  -2.10116
   D71       -3.12916  -0.00001   0.00000  -0.00041  -0.00041  -3.12957
   D72       -1.00777  -0.00001   0.00000  -0.00038  -0.00038  -1.00815
   D73        1.03723   0.00000   0.00000  -0.00028  -0.00029   1.03695
   D74        1.41054  -0.00004   0.00000  -0.00317  -0.00317   1.40737
   D75       -2.75907  -0.00004   0.00000  -0.00327  -0.00327  -2.76234
   D76       -0.68879  -0.00001   0.00000  -0.00302  -0.00302  -0.69181
   D77       -1.70672  -0.00001   0.00000  -0.00157  -0.00157  -1.70829
   D78        0.40686  -0.00001   0.00000  -0.00167  -0.00167   0.40519
   D79        2.47714   0.00001   0.00000  -0.00142  -0.00142   2.47571
         Item               Value     Threshold  Converged?
 Maximum Force            0.000122     0.000450     YES
 RMS     Force            0.000017     0.000300     YES
 Maximum Displacement     0.014416     0.001800     NO 
 RMS     Displacement     0.004850     0.001200     NO 
 Predicted change in Energy=-4.772690D-07
 GradGradGradGradGradGradGradGradGradGradGradGradGradGradGradGradGradGrad

                          Input orientation:                          
 ---------------------------------------------------------------------
 Center     Atomic      Atomic             Coordinates (Angstroms)
 Number     Number       Type             X           Y           Z
 ---------------------------------------------------------------------
      1          6           0        4.369605   -0.344063    0.059100
      2          6           0        3.402400    0.655644   -0.007646
[...]
 -0.00000243,-0.00000447,-0.00000038,0.00000033,0.00000245,-0.00000198,
 0.00000035,0.00000910,-0.00000288,0.00000219,-0.00000671,0.00000210,0.
 00000044,0.00029347,-0.00021625,-0.00001906,-0.00000259,0.00005108,0.0
 0000692,0.00004779,-0.00007330,0.00013756,-0.00004104,0.00009382,-0.00
 009863,-0.00000006,0.00000370,-0.00000016,-0.00009644,0.00014182,-0.00
 003462,-0.00004698,-0.00009678,0.00000542,-0.00167478,-0.00163321,-0.0
 0362758,0.00131015,-0.00061798,0.00123942,-0.00009637,-0.00017266,-0.0
 0011597,0.00037270,0.00072959,-0.00007749,0.00027096,-0.00013151,0.000
 21458,0.00015102,0.00002040,-0.00022821,-0.00000143,0.00005680,0.00000
 022,-0.23016985,-0.11338471,0.05469711,-0.01680566,-0.01349899,0.00607
 591,0.24435028,0.00000215,-0.00000309,0.00000007,-0.00001464,0.0000120
 0,0.00000505,0.00001166,-0.00001637,0.00000115,-0.00003200,0.00004119,
 -0.00006962,-0.00001412,-0.00001533,0.00000363,-0.00000528,0.00000877,
 0.00000529,-0.00000238,0.00000027,-0.00000096,0.00000228,-0.00000116,-
 0.00000018,0.00000370,0.00000062,-0.00000277,-0.00000369,0.00000123,-0
 .00000187,-0.00003091,-0.00022759,0.00010501,0.00002188,0.00007626,-0.
 00001161,-0.00025928,0.00039298,-0.00004046,0.00006473,0.00001303,0.00
 009260,0.00005518,0.00005707,-0.00002756,0.00001531,0.00013906,0.00005
 128,-0.00001839,-0.00003719,-0.00001026,-0.02200867,-0.01328817,0.0050
 9723,0.00202217,-0.00273324,-0.00132387,0.00021765,0.00068470,-0.00167
 977,-0.00049496,0.00119569,0.00027255,0.00067619,-0.00044520,-0.000258
 80,0.00014136,0.00042124,-0.00014610,-0.00006364,-0.00001778,-0.000018
 37,-0.11491492,-0.11841844,0.03315763,0.01520648,0.01109878,-0.0055169
 6,0.12623020,0.12660163,0.00000166,-0.00000695,0.00000011,-0.00001127,
 0.00000390,0.00000153,0.00001489,-0.00001260,0.00000107,-0.00000076,0.
 00001758,-0.00002613,-0.00001156,-0.00000331,0.00000153,0.00000158,0.0
 0000831,0.00000250,-0.00000052,0.00000008,-0.00000034,-0.00000003,-0.0
 0000035,-0.00000024,0.00000051,0.00000037,-0.00000077,-0.00000114,0.00
 000004,-0.00000081,0.00000349,-0.00009743,0.00007330,-0.00001900,0.000
 01904,-0.00000289,-0.00010676,0.00013419,-0.00007147,0.00002383,0.0000
 1996,-0.00001000,0.00002540,0.00002033,-0.00001374,0.00001023,0.000061
 81,0.00000360,-0.00000519,-0.00001486,-0.00000128,-0.01903216,-0.01228
 402,0.00382716,0.00110296,-0.00223990,-0.00128081,0.00025051,0.0005819
 0,-0.00159349,-0.00041703,0.00077675,0.00032368,0.00037188,0.00005340,
 0.00008313,-0.00009111,0.00022336,-0.00010549,0.00014582,0.00010366,-0
 .00006072,0.05290545,0.03246525,-0.05579426,-0.00357901,-0.00261196,-0
 .00005065,-0.05664057,-0.03191169,0.06045695,-0.00000625,0.00001044,0.
 00000020,0.00001694,-0.00000821,0.00000686,-0.00002577,0.00002139,-0.0
 0000635,-0.00001228,-0.00001887,-0.00002681,0.00001199,-0.00000009,0.0
 0000147,-0.00000514,-0.00001070,0.00000302,0.00000126,0.,-0.00000113,-
 0.00000193,-0.00000003,-0.00000186,0.00000051,-0.00000022,-0.00000338,
 0.00000064,-0.00000047,-0.00000081,0.00001523,0.00017906,0.00001889,0.
 00001663,-0.00002790,-0.00000169,0.00023497,0.00007185,-0.00021141,-0.
 00003450,-0.00001170,0.00010113,-0.00000248,-0.00002147,-0.00001855,-0
 .00011042,-0.00009096,0.00005101,0.00000827,0.00001605,-0.00000651,-0.
 00187472,-0.00080958,-0.00444836,0.00016361,0.00000535,-0.00012689,-0.
 00024948,-0.00031664,0.00007300,-0.00002020,0.00016534,0.00028351,0.00
 002981,-0.00002484,0.00015591,-0.00008515,-0.00009669,-0.00003864,0.00
 015823,0.00021549,0.00009838,-0.04424512,0.00973423,-0.02100090,-0.000
 63322,0.00550013,-0.02415113,0.00255040,-0.00665138,0.02538156,0.04401
 936,0.00000311,-0.00000793,0.,-0.00001280,0.00000823,-0.00000197,0.000
 01430,-0.00002143,0.00000584,0.00001390,0.00000649,-0.00002245,-0.0000
 0738,0.00000064,0.00000131,0.00000312,0.00000783,0.00000067,-0.0000011
 6,0.00000031,0.00000042,0.00000087,-0.00000007,0.00000019,-0.00000097,
 0.00000006,0.00000080,-0.00000045,0.00000041,-0.00000019,0.00002001,-0
 .00011963,0.00005078,-0.00001339,0.00005108,0.00000411,-0.00004404,-0.
 00009897,0.00004234,0.00003048,-0.00000941,0.00002446,0.00000121,0.000
 04007,-0.00004080,0.00005644,0.00006782,-0.00000279,-0.00000709,-0.000
 01979,-0.00000303,-0.00247118,0.00810493,-0.02830630,0.00038803,-0.003
 33324,-0.00098576,-0.00143987,-0.00120123,0.00118967,-0.00051260,0.000
 97335,0.00027241,-0.00002639,-0.00004295,0.00008378,-0.00025033,0.0001
 7205,0.00025102,0.00025253,-0.00033381,0.00029073,0.00899444,-0.063902
 28,0.07101575,-0.00073252,-0.00486214,0.01661519,0.00237323,-0.0048864
 3,0.01506760,-0.00711883,0.06856297,0.00000067,-0.00000597,0.00000125,
 -0.00002238,0.00001179,0.00000248,0.00001854,-0.00001425,-0.00000154,-
 0.00004590,0.00004520,-0.00003119,-0.00001916,-0.00002070,0.00000152,-
 0.00000724,0.00001129,0.00000326,-0.00000270,-0.00000006,-0.00000136,0
 .00000120,-0.00000105,-0.00000205,0.00000640,-0.00000049,-0.00000325,-
 0.00000267,-0.00000062,-0.00000159,0.00002165,-0.00015829,0.00003845,0
 .00001988,0.00006886,-0.00000084,-0.00016214,0.00009959,-0.00015410,-0
 .00001653,0.00002827,0.00008017,0.00002863,0.00004881,-0.00004351,-0.0
 0005748,0.00007439,0.00004682,-0.00002715,-0.00005912,-0.00000388,-0.0
 0370825,0.00256151,-0.01749600,0.00206627,-0.00197506,-0.00018682,-0.0
 0086136,-0.00074573,0.00047719,-0.00056533,0.00069943,0.00079620,-0.00
 006706,0.00004251,-0.00001764,-0.00016298,-0.00015329,0.00038444,0.000
 49226,-0.00040004,0.00017794,-0.02078511,0.07357455,-0.29084199,0.0004
 4179,-0.00034207,-0.00062636,-0.00106252,0.00137645,-0.00620968,0.0241
 7503,-0.07492989,0.31389487,-0.00017591,0.00050368,-0.00002379,0.00078
 780,-0.00027231,0.00017872,-0.00136521,0.00128606,-0.00001324,-0.00140
 890,0.00195513,-0.00153268,-0.00008126,-0.00042210,-0.00014432,-0.0003
 3413,-0.00021430,0.00009902,0.00001983,-0.00000130,-0.00001792,-0.0000
 1389,0.00000124,0.00003121,0.00001520,0.00000310,-0.00002400,-0.000039
 66,-0.00002700,-0.00002664,-0.02435936,0.00968303,0.01935316,0.0037739
 9,-0.00064138,0.00092295,-0.09320191,-0.00250457,0.04421362,-0.0134281
 9,-0.01262396,0.00877568,0.00038377,0.00105623,-0.00077310,-0.00214916
 ,-0.00708899,0.00062322,-0.00002573,0.00036396,-0.00035513,-0.02489223
 ,0.01364242,-0.00795346,-0.17823254,0.07650984,-0.01601583,0.00194412,
 -0.00067896,-0.00329276,0.00270801,0.00057733,-0.00445997,0.00039986,-
 0.00022741,0.00012301,0.00014026,-0.00007465,0.00015501,-0.00122687,0.
 00036823,-0.00010893,-0.00023753,-0.00054852,0.00375246,-0.00115999,-0
 .00016190,-0.00096970,-0.00014477,-0.00002545,-0.00023084,-0.00007449,
 0.00086280,0.00051658,0.48720500,0.00034625,-0.00053979,0.00000741,-0.
 00067496,0.00032162,-0.00024848,0.00145530,-0.00124286,0.00079965,0.00
 257071,-0.00191092,0.00229613,-0.00024347,0.00082518,0.00006457,0.0005
 1281,0.00050591,-0.00018943,-0.00001857,0.00001422,0.00003800,0.000119
 00,0.00000631,0.00001117,-0.00017989,0.00004766,0.00005905,0.00010606,
 0.00002550,0.00001628,0.00876733,0.00691165,-0.01860754,0.00065454,-0.
 00205587,0.00006969,-0.00814547,-0.07737226,0.01413246,-0.02459853,-0.
 00483694,0.02397717,0.00064715,0.00070686,-0.00074346,0.00125479,-0.00
 302947,0.00171492,-0.00111511,-0.00196180,-0.00178056,-0.00023823,0.00
 857590,0.00440878,0.07606235,-0.13940768,-0.00213967,0.02066677,-0.009
 59374,0.00359333,0.00069307,0.00277243,-0.00580207,0.00063744,-0.00008
 935,0.00056491,-0.00027920,0.00022441,0.00017036,-0.00119207,0.0006359
 3,-0.00021040,-0.00207382,-0.00126560,0.00158672,-0.00095385,-0.000394
 66,-0.00105552,0.00052007,-0.00087714,-0.00033080,-0.00033648,0.000383
 22,0.00005902,0.00834315,0.58997701,0.00012001,-0.00055638,0.00000535,
 -0.00094654,0.00024533,-0.00001171,0.00141284,-0.00086965,0.00049346,-
 0.00108768,0.00112222,-0.00235836,-0.00074652,-0.00027048,0.00020375,0
 .00015069,0.00043150,0.00014821,-0.00003589,-0.00001024,-0.00000630,-0
 .00001539,-0.00002611,0.00000562,0.00011004,0.00000633,-0.00005566,-0.
 00008689,0.00001098,-0.00004189,0.00356848,-0.01085993,0.00073030,-0.0
 0299686,-0.00017865,-0.00084489,0.04032567,0.01046370,-0.12238545,0.00
 332892,0.00729917,0.00020522,-0.00000815,-0.00053989,0.00069278,0.0018
 1857,0.00479302,0.00087962,-0.00038043,-0.00096160,-0.00027914,-0.0151
 0004,0.01064315,0.00221409,-0.02147921,0.00253271,-0.07964651,0.010647
 47,-0.00688160,0.00357954,-0.00567016,-0.00575228,0.00573370,-0.001662
 38,0.00121928,-0.00058405,0.00010873,0.00021774,0.00004689,0.00142601,
 -0.00057649,0.00023369,0.00154065,0.00259640,-0.00514937,-0.00154083,-
 0.00002258,-0.00060969,-0.00015911,0.00072193,0.00053767,-0.00076264,-
 0.00045805,-0.00017332,0.08072787,0.03282012,0.51288692,-0.00000050,0.
 00001265,0.00000074,0.00004396,-0.00003076,0.00001378,-0.00015463,0.00
 000228,-0.00005635,0.00020891,-0.00002171,-0.00000274,-0.00004786,0.00
 003849,-0.00005071,0.00001319,0.00001161,0.00000178,0.00000271,-0.0000
 0025,-0.00000042,-0.00000089,0.00000226,0.00000050,-0.00000341,-0.0000
 0248,0.00000262,0.00000406,-0.00000171,0.00000483,0.00154455,-0.000849
 11,0.00075148,-0.00010160,-0.00000645,-0.00036884,0.00754923,0.0040676
 5,0.02047115,0.00165538,0.00111594,-0.00008102,-0.00003419,-0.00010622
 ,0.00000727,0.00016550,0.00037332,-0.00051631,0.00002074,0.00011384,0.
 00006006,-0.00230048,0.00367957,0.00018008,-0.01302209,-0.00686306,-0.
 02302961,0.00073687,-0.00018339,0.00060678,-0.00093601,-0.00087984,0.0
 0006586,-0.00036346,0.00025724,-0.00006867,0.00004608,0.00007481,0.000
 04137,-0.00006009,0.00008145,-0.00005340,0.00011731,0.00057430,-0.0001
 8586,-0.00000597,0.00012883,0.00023432,-0.00004627,-0.00008798,-0.0000
 2866,-0.00019022,-0.00003486,-0.00011544,-0.10410368,-0.02496396,-0.10
 939881,0.11564149,-0.00003641,0.00003872,-0.00000081,0.00007758,-0.000
 04375,-0.00000144,-0.00020824,0.00016903,0.00003815,0.00003900,0.00000
 317,0.00002322,0.00007820,-0.00003143,0.00003142,-0.00001524,-0.000073
 81,0.00000028,0.00000619,-0.00000154,0.00000011,-0.00001627,0.00000092
 ,0.00000153,0.00000391,-0.00000423,-0.00001050,0.00000107,-0.00000216,
 -0.00000667,-0.00000288,0.00005656,-0.00034747,-0.00008306,0.00002138,
 -0.00026357,0.00128791,0.00003668,0.00555709,0.00107217,0.00041761,0.0
 0102184,0.00003074,-0.00000992,0.00001014,0.00060617,-0.00028069,0.000
 10381,0.00009795,0.00018271,-0.00000966,0.00221625,-0.00235760,-0.0003
 8017,0.01026593,0.00332730,0.01833824,-0.00041076,0.00082668,0.0001898
 7,0.00069426,0.00079341,-0.00026681,0.00031930,-0.00021098,0.00000989,
 -0.00001923,-0.00002373,-0.00002520,-0.00003752,-0.00001378,0.00003232
 ,0.00004562,-0.00047196,-0.00058663,-0.00024425,0.00041332,0.00028749,
 -0.00005058,0.00013987,0.00001077,-0.00029463,0.00021191,0.00002960,-0
 .02631316,-0.06122585,-0.05110562,0.02464791,0.06085639,-0.00001272,0.
 00009492,-0.00001053,0.00014699,-0.00001333,0.00002663,-0.00007673,0.0
 0013810,-0.00010975,0.00009484,-0.00012806,-0.00016617,0.00013706,0.00
 002341,-0.00000819,-0.00004908,-0.00006281,0.00001709,0.00000095,0.000
 00231,-0.00000164,0.00000908,0.00000365,-0.00000574,-0.00002566,0.0000
 0402,-0.00001096,0.00001311,-0.00000092,-0.00000703,-0.00149752,0.0018
 6854,-0.00062139,0.00057213,0.00013133,0.00045953,-0.00618828,-0.00437
 126,-0.02129987,-0.00144939,-0.00148620,0.00073181,0.00006858,0.000132
 61,-0.00016360,0.00026858,-0.00118146,0.00029002,0.00006529,0.00004449
 ,-0.00014778,0.00014396,0.00088046,0.00052263,0.00048782,-0.00139047,-
 0.00023462,0.00009175,-0.00007890,0.00078980,-0.00006571,-0.00016180,-
 0.00007886,-0.00006479,0.00003966,-0.00001469,-0.00000112,0.00000874,-
 0.00000008,-0.00005106,0.00003483,-0.00002275,0.00020336,0.00006973,0.
 00015453,0.00003513,0.00009825,-0.00001555,-0.00005824,0.00001243,-0.0
 0000699,0.00001914,-0.00003990,-0.00000920,-0.11053853,-0.04780238,-0.
 24524057,0.11361173,0.05208211,0.26636208,0.00018227,-0.00028623,0.000
 01284,-0.00037639,0.00016314,-0.00004403,0.00089405,-0.00067217,0.0002
 5104,0.00090214,0.00032251,0.00008325,-0.00038313,0.00020802,0.0000241
 3,0.00020023,0.00036180,-0.00000784,-0.00001309,0.00000552,0.00000476,
 0.00004740,0.00000336,0.00000641,-0.00008509,0.00004105,-0.00000269,0.
 00001509,0.00000448,-0.00000971,-0.00228882,-0.00466409,0.00012822,-0.
 00021776,-0.00015172,-0.00000031,-0.00827556,-0.01879559,0.00204103,-0
 .00265334,0.00114989,0.00357782,0.00010184,0.00001075,-0.00009606,0.00
 100226,0.00213701,-0.00061908,-0.00035582,-0.00066145,-0.00036176,0.00
 098567,0.00035120,0.00087224,0.00580605,0.02644611,0.00070197,-0.00291
 245,0.00239189,-0.00066245,-0.00054032,-0.00069503,0.00065255,-0.00031
 534,0.00002741,-0.00008324,0.00010324,-0.00004827,-0.00002704,0.000112
 58,0.00006381,0.00005409,-0.00056093,-0.00009883,-0.00047342,-0.000541
 36,0.00004013,-0.00154670,-0.00028486,0.00005884,-0.00008624,0.0004122
 0,-0.00029907,0.00004616,-0.05735452,-0.06151298,-0.00430867,-0.003810
 64,-0.01295369,0.00076069,0.06927587,-0.00000406,0.00009937,-0.0000056
 1,0.00008257,-0.00000725,0.00000865,-0.00011925,0.00003643,-0.00001699
 ,-0.00024367,-0.00002122,-0.00007075,0.00009597,-0.00006968,-0.0000056
 7,-0.00009299,-0.00001958,0.00001415,-0.00000529,0.00000368,-0.0000058
 7,0.00000794,-0.00000418,-0.00001318,0.00000042,0.00001555,-0.00001083
 ,-0.00000586,-0.00000012,0.00001152,0.00100282,-0.00160849,-0.00002284
 ,0.00041214,-0.00013526,0.00024293,-0.00285447,-0.00450976,0.00005832,
 -0.00058201,0.00062368,0.00109958,0.00006869,0.00000709,-0.00020217,0.
 00252603,0.00021712,-0.00127789,-0.00006955,-0.00012002,-0.00005020,-0
 .00103357,0.00006022,-0.00207535,-0.00057458,-0.01441253,-0.00147029,0
 .00151713,-0.00093294,0.00138099,0.00030609,0.00024514,-0.00015346,0.0
 0009831,-0.00006648,0.00004264,-0.00004596,0.00008071,0.00006354,-0.00
 005332,0.00000125,0.00006207,-0.00032061,-0.00011868,-0.00008536,-0.00
 053004,0.00087980,-0.00023281,-0.00043459,0.00021995,-0.00006377,-0.00
 011969,0.00025370,0.00007954,-0.06509741,-0.30742437,-0.00072339,-0.00
 050084,-0.00335406,0.00044073,0.06669611,0.32963599,-0.00009811,0.0001
 6639,-0.00000905,0.00024031,-0.00011165,0.00001870,-0.00057051,0.00043
 143,-0.00020192,-0.00050085,-0.00011862,0.00013641,0.00017961,-0.00012
 817,-0.00003854,-0.00009946,-0.00019618,-0.00000209,0.00000897,-0.0000
 0403,-0.00000269,-0.00003158,0.00000072,-0.00000796,0.00005449,-0.0000
 2650,0.00001108,-0.00001168,-0.00000344,0.00001094,0.00109165,0.002174
 32,0.00071786,0.00039837,0.00060127,0.00032186,0.00937532,0.02403041,-
 0.00274494,0.00338244,-0.00127940,-0.00340922,-0.00015534,-0.00009553,
 -0.00001895,-0.00121879,-0.00085572,-0.00032064,0.00035028,0.00056194,
 0.00032064,-0.00053656,0.00008149,0.00003812,0.00299670,0.00141665,-0.
 00033493,0.00021983,-0.00030258,0.00038689,-0.00009977,-0.00030438,0.0
 0008725,-0.00008931,0.00000833,0.00000277,0.00002870,-0.00002831,-0.00
 000354,0.00002170,0.00004344,0.00003693,-0.00099497,0.00047192,-0.0000
 7359,-0.00118128,-0.00021222,-0.00160114,-0.00004159,0.00001792,-0.000
 04883,0.00043965,-0.00020100,0.00008565,-0.00588269,-0.00372119,-0.045
 56517,-0.00584811,-0.02576563,0.00146848,-0.00037284,0.00303589,0.0496
 2608,0.00001133,-0.00005787,0.00000867,-0.00004404,-0.00002450,-0.0002
 0724,0.00003951,0.00038271,-0.00026100,-0.00167827,0.00227563,0.002528
 39,-0.00057174,-0.00036246,-0.00018447,-0.00003716,0.00018408,-0.00022
 165,-0.00000823,-0.00000368,0.00002503,-0.00000212,-0.00001362,-0.0000
 2807,0.00003365,0.00002423,0.00007746,-0.00007882,-0.00000869,0.000078
 56,-0.01418288,-0.00187961,-0.02011511,0.00205144,-0.00088447,0.000320
 66,-0.10457969,-0.01738371,-0.12169725,-0.00833926,-0.00563295,-0.0081
 5640,0.00021361,-0.00006705,0.00040812,0.00142567,-0.00184763,0.002538
 23,-0.00045373,-0.00046876,0.00044130,-0.00014766,0.00000535,0.0000286
 4,0.00161875,0.00062270,0.00094836,0.00008693,-0.00010639,-0.00005955,
 -0.00003700,0.00000152,-0.00006002,0.00006315,-0.00003050,0.00000751,0
 .00003732,-0.00005823,-0.00001766,0.00004694,-0.00002590,0.00002568,-0
 .00038260,0.00012568,-0.00018504,-0.00060519,-0.00087403,0.00034712,0.
 00010540,-0.00010209,0.00002209,-0.00006871,-0.00004154,-0.00014367,0.
 00663211,0.00316982,0.02110027,-0.00256798,-0.00080422,0.00334864,0.00
 092852,-0.00012644,-0.00105459,0.12049075,0.00025059,-0.00032808,0.000
 04051,-0.00048105,0.00022785,0.00017905,0.00103221,-0.00076329,-0.0006
 0193,0.00193361,-0.00140062,-0.00169311,-0.00013431,0.00048049,-0.0001
 0252,0.00028839,0.00039280,0.00018094,-0.00002090,0.00001012,-0.000036
 06,0.00009001,-0.00000024,0.00000944,-0.00009961,0.00002961,-0.0000646
 1,0.00006681,0.00001613,-0.00001866,0.00918190,0.00310617,0.01986584,0
 .00088335,-0.00196174,0.00005673,-0.01869097,-0.05120528,-0.03731570,-
 0.01910160,-0.00662429,-0.02473584,0.00068728,0.00069632,0.00086781,0.
 00037472,-0.00069253,-0.00247850,-0.00111593,-0.00175402,0.00154982,0.
 00021370,0.00034075,0.00009126,-0.00021628,-0.00061087,-0.00065001,0.0
 0005724,0.00003820,-0.00006622,-0.00005210,-0.00012781,-0.00004396,-0.
 00004602,0.00001641,0.00000511,0.00001900,-0.00001604,-0.00000279,0.00
 001006,0.00001727,-0.00001092,-0.00020601,0.00037931,-0.00005868,-0.00
 055433,-0.00048302,0.00031753,0.00010380,-0.00013720,0.00000934,0.0000
 4005,-0.00000577,-0.00000416,0.00176718,0.00129452,0.00466936,-0.00064
 952,0.00060983,0.00060718,0.00035611,0.00042496,0.00031245,0.02401261,
 0.05803007,-0.00005196,0.00017844,-0.00000977,0.00026741,-0.00003792,0
 .00003126,-0.00040923,0.00036788,0.00008851,0.00014888,0.00058392,-0.0
 0109165,0.00004563,-0.00012109,0.00007698,-0.00011328,-0.00006263,0.00
 007075,-0.00000071,0.00000313,-0.00000366,0.00000351,-0.00000127,-0.00
 001982,-0.00000210,0.00001394,-0.00003740,-0.00000754,-0.00000880,-0.0
 0001333,-0.00080015,-0.00131483,-0.00106567,0.00157188,-0.00010021,-0.
 00032172,-0.11600795,-0.03577038,-0.22415909,0.00046264,-0.00093188,0.
 00304446,-0.00028328,-0.00022279,0.00036609,0.00061833,0.00005082,0.00
 143767,-0.00002637,0.00009166,-0.00034478,0.00047463,-0.00008347,0.000
 43990,-0.00214763,0.00060699,0.00090196,-0.00014837,0.00000704,0.00014
 186,0.00010740,0.00008383,-0.00008205,-0.00001068,0.00001829,0.0000102
 3,-0.00002730,0.00004446,0.00001371,-0.00004199,0.00005279,-0.00003406
 ,0.00015115,-0.00034589,0.00049712,0.00020456,0.00041101,0.00011500,-0
 .00023930,0.00010066,-0.00003362,-0.00000168,0.00007505,-0.00018592,-0
 .00710898,-0.00375826,-0.02564475,0.00375060,0.00100232,-0.00264664,-0
 .00051510,-0.00005412,0.00111354,0.12013699,0.03912132,0.24734490\\-0.
 00000003,-0.00001816,0.00000148,-0.00000016,-0.00000944,-0.00000136,0.
 00000060,0.00000304,0.00000342,-0.00000495,0.00000164,0.00003681,0.000
 00199,-0.00000492,0.00000434,0.00000422,-0.00000206,0.00000048,-0.0000
 0014,-0.00000447,0.00000141,-0.00000051,-0.00000246,-0.00000057,-0.000
 00945,-0.00000022,0.00000114,-0.00000266,-0.00000588,0.00000175,0.0000
 0505,-0.00000631,-0.00012624,0.00001104,0.00001018,-0.00000710,-0.0000
 1167,0.00000925,0.00004777,-0.00000311,-0.00000323,0.00000237,0.000004
 74,-0.00000130,-0.00000253,-0.00001173,0.00000112,0.00004866,0.0000067
 0,-0.00001108,-0.00000388,0.00001259,0.00000992,-0.00002420,-0.0000195
 8,0.00001441,-0.00000643,0.00000112,-0.00000271,0.00000944,-0.00001721
 ,0.00000584,-0.00000552,0.00000016,0.00001211,-0.00000218,0.00000805,0
 .00000270,-0.00000007,0.00000871,0.00000583,0.00000012,-0.00000472,0.0
 0001246,0.00000702,-0.00000297,-0.00000493,-0.00000001,0.00000479,-0.0
 0000031,0.00000867,-0.00000176,0.00000321,-0.00000126,0.00000499,-0.00
 000987,0.00000469,0.00000328,-0.00000004,-0.00000264,0.00000344,-0.000
 00421,0.00000941,0.00000919,-0.00000010,-0.00000500\\\@


 SIC AS THE CAWSE OF EWERY THING IS, SIC WILBE THE EFFECT.
 -- PROVERBS AND REASONS OF THE YEAR 1585
           AS REPRINTED IN PAISLEY MAGAZINE 1828.
 Job cpu time:       0 days  1 hours  4 minutes 24.9 seconds.
 File lengths (MBytes):  RWF=    417 Int=      0 D2E=      0 Chk=     18 Scr=      1
 Normal termination of Gaussian 09 at Wed Sep  9 12:32:04 2020.
