 Entering Gaussian System, Link 0=g09
 Input=b3lyp_m062x_dmad_4H2O_cycloaddition_PM6_toluene.com
 Output=b3lyp_m062x_dmad_4H2O_cycloaddition_PM6_toluene.log
 Initial command:
 /apps/applications/gaussian/G09.D01/2/default/g09/l1.exe "/local/746241.1.40core-192G.q/Gau-329791.inp" -scrdir="/local/746241.1.40core-192G.q/"
 Entering Link 1 = /apps/applications/gaussian/G09.D01/2/default/g09/l1.exe PID=    329792.
  
 Copyright (c) 1988,1990,1992,1993,1995,1998,2003,2009,2013,
            Gaussian, Inc.  All Rights Reserved.
  
 This is part of the Gaussian(R) 09 program.  It is based on
 the Gaussian(R) 03 system (copyright 2003, Gaussian, Inc.),
 the Gaussian(R) 98 system (copyright 1998, Gaussian, Inc.),
 the Gaussian(R) 94 system (copyright 1995, Gaussian, Inc.),
 the Gaussian 92(TM) system (copyright 1992, Gaussian, Inc.),
 the Gaussian 90(TM) system (copyright 1990, Gaussian, Inc.),
 the Gaussian 88(TM) system (copyright 1988, Gaussian, Inc.),
 the Gaussian 86(TM) system (copyright 1986, Carnegie Mellon
 University), and the Gaussian 82(TM) system (copyright 1983,
 Carnegie Mellon University). Gaussian is a federally registered
 trademark of Gaussian, Inc.
  
 This software contains proprietary and confidential information,
 including trade secrets, belonging to Gaussian, Inc.
  
 This software is provided under written license and may be
 used, copied, transmitted, or stored only in accord with that
 written license.
  
 The following legend is applicable only to US Government
 contracts under FAR:
  
                    RESTRICTED RIGHTS LEGEND
  
 Use, reproduction and disclosure by the US Government is
 subject to restrictions as set forth in subparagraphs (a)
 and (c) of the Commercial Computer Software - Restricted
 Rights clause in FAR 52.227-19.
  
 Gaussian, Inc.
 340 Quinnipiac St., Bldg. 40, Wallingford CT 06492
  
  
 ---------------------------------------------------------------
 Warning -- This program may not be used in any manner that
 competes with the business of Gaussian, Inc. or will provide
 assistance to any competitor of Gaussian, Inc.  The licensee
 of this program is prohibited from giving any competitor of
 Gaussian, Inc. access to this program.  By using this program,
 the user acknowledges that Gaussian, Inc. is engaged in the
 business of creating and licensing software in the field of
 computational chemistry and represents and warrants to the
 licensee that it is not a competitor of Gaussian, Inc. and that
 it will not use this program in any manner prohibited above.
 ---------------------------------------------------------------
  

 Cite this work as:
 Gaussian 09, Revision D.01,
 M. J. Frisch, G. W. Trucks, H. B. Schlegel, G. E. Scuseria, 
 M. A. Robb, J. R. Cheeseman, G. Scalmani, V. Barone, B. Mennucci, 
 G. A. Petersson, H. Nakatsuji, M. Caricato, X. Li, H. P. Hratchian, 
 A. F. Izmaylov, J. Bloino, G. Zheng, J. L. Sonnenberg, M. Hada, 
 M. Ehara, K. Toyota, R. Fukuda, J. Hasegawa, M. Ishida, T. Nakajima, 
 Y. Honda, O. Kitao, H. Nakai, T. Vreven, J. A. Montgomery, Jr., 
 J. E. Peralta, F. Ogliaro, M. Bearpark, J. J. Heyd, E. Brothers, 
 K. N. Kudin, V. N. Staroverov, T. Keith, R. Kobayashi, J. Normand, 
 K. Raghavachari, A. Rendell, J. C. Burant, S. S. Iyengar, J. Tomasi, 
 M. Cossi, N. Rega, J. M. Millam, M. Klene, J. E. Knox, J. B. Cross, 
 V. Bakken, C. Adamo, J. Jaramillo, R. Gomperts, R. E. Stratmann, 
 O. Yazyev, A. J. Austin, R. Cammi, C. Pomelli, J. W. Ochterski, 
 R. L. Martin, K. Morokuma, V. G. Zakrzewski, G. A. Voth, 
 P. Salvador, J. J. Dannenberg, S. Dapprich, A. D. Daniels, 
 O. Farkas, J. B. Foresman, J. V. Ortiz, J. Cioslowski, 
 and D. J. Fox, Gaussian, Inc., Wallingford CT, 2013.
 
 ******************************************
 Gaussian 09:  ES64L-G09RevD.01 24-Apr-2013
                17-Sep-2020 
 ******************************************
 %nprocshared=4
 Will use up to    4 processors via shared memory.
 %chk=b3lyp_m062x_dmad_4H2O_cycloaddition_PM6_toluene.chk
 ----------------------------------------------------------------------
 # opt freq b3lyp/6-31+g(d,p) scrf=(cpcm,solvent=toluene) geom=connecti
 vity empiricaldispersion=gd3
 ----------------------------------------------------------------------
 1/14=-1,18=20,19=15,26=3,38=1,57=2/1,3;
 2/9=110,12=2,17=6,18=5,40=1/2;
 3/5=1,6=6,7=111,11=2,16=1,25=1,30=1,70=2101,71=1,72=13,74=-5,124=31/1,2,3;
 4//1;
 5/5=2,38=5,53=13/2;
 6/7=2,8=2,9=2,10=2,28=1/1;
 7//1,2,3,16;
 1/14=-1,18=20,19=15,26=3/3(2);
 2/9=110/2;
 99//99;
 2/9=110/2;
 3/5=1,6=6,7=111,11=2,16=1,25=1,30=1,70=2105,71=1,72=13,74=-5,124=31/1,2,3;
 4/5=5,16=3,69=1/1;
 5/5=2,38=5,53=13/2;
 7//1,2,3,16;
 1/14=-1,18=20,19=15,26=3/3(-5);
 2/9=110/2;
 6/7=2,8=2,9=2,10=2,19=2,28=1/1;
 99/9=1/99;
 -------------------
 Title Card Required
 -------------------
 Symbolic Z-matrix:
 Charge =  0 Multiplicity = 1
 N                    -0.33293   0.25678   0.45982 
 N                     0.3705   -0.46902  -0.23354 
 C                    -1.74994   0.02502   0.28471 
 C                     1.78764  -0.18852  -0.06958 
 O                     2.31752  -0.15199   1.00335 
 O                    -2.40623   0.82272  -0.32504 
 O                     2.32644  -0.08491  -1.25113 
 O                    -2.13342  -1.03331   0.933 
 C                    -3.50234  -1.43756   0.75721 
 H                    -3.70154  -2.16706   1.54616 
 H                    -4.16785  -0.56957   0.83449 
 H                    -3.58033  -1.89587  -0.23648 
 C                     3.68036   0.38799  -1.28839 
 H                     3.67195   1.44753  -1.00043 
 H                     4.30494  -0.19119  -0.59759 
 H                     4.01252   0.2668   -2.32253 
 O                    -5.15951   1.46788   0.32512 
 H                    -4.3038    1.3563   -0.11417 
 H                    -4.92294   1.91342   1.14678 
 O                    -1.73678  -1.7178   -1.86915 
 H                    -1.86521  -0.92755  -2.40731 
 H                    -0.81842  -1.64094  -1.57263 
 O                     1.48817   2.47811  -0.07403 
 H                     1.12586   2.22017   0.78398 
 H                     0.69752   2.63354  -0.60502 
 O                     5.09488  -0.89781   1.467 
 H                     4.14958  -0.69045   1.5066 
 H                     5.51175  -0.05435   1.67764 
 
 Add virtual bond connecting atoms H27        and O5         Dist= 3.73D+00.
 Add virtual bond connecting atoms H18        and O6         Dist= 3.75D+00.
 Add virtual bond connecting atoms H22        and N2         Dist= 4.04D+00.
 Add virtual bond connecting atoms O23        and H14        Dist= 4.89D+00.
 Add virtual bond connecting atoms H24        and N1         Dist= 4.66D+00.

 GradGradGradGradGradGradGradGradGradGradGradGradGradGradGradGradGradGrad
 Berny optimization.
 Initialization pass.
                           ----------------------------
                           !    Initial Parameters    !
                           ! (Angstroms and Degrees)  !
 --------------------------                            --------------------------
 ! Name  Definition              Value          Derivative Info.                !
 --------------------------------------------------------------------------------
 ! R1    R(1,2)                  1.2257         estimate D2E/DX2                !
 ! R2    R(1,3)                  1.4465         estimate D2E/DX2                !
 ! R3    R(1,24)                 2.4674         estimate D2E/DX2                !
 ! R4    R(2,4)                  1.4539         estimate D2E/DX2                !
 ! R5    R(2,22)                 2.1401         estimate D2E/DX2                !
 ! R6    R(3,6)                  1.1995         estimate D2E/DX2                !
 ! R7    R(3,8)                  1.299          estimate D2E/DX2                !
 ! R8    R(4,5)                  1.1972         estimate D2E/DX2                !
 ! R9    R(4,7)                  1.3027         estimate D2E/DX2                !
 ! R10   R(5,27)                 1.9747         estimate D2E/DX2                !
 ! R11   R(6,18)                 1.9824         estimate D2E/DX2                !
 ! R12   R(7,13)                 1.4346         estimate D2E/DX2                !
 ! R13   R(8,9)                  1.4381         estimate D2E/DX2                !
 ! R14   R(9,10)                 1.0928         estimate D2E/DX2                !
 ! R15   R(9,11)                 1.0965         estimate D2E/DX2                !
 ! R16   R(9,12)                 1.0971         estimate D2E/DX2                !
 ! R17   R(13,14)                1.098          estimate D2E/DX2                !
 ! R18   R(13,15)                1.0967         estimate D2E/DX2                !
 ! R19   R(13,16)                1.0929         estimate D2E/DX2                !
 ! R20   R(14,23)                2.5864         estimate D2E/DX2                !
 ! R21   R(17,18)                0.9683         estimate D2E/DX2                !
 ! R22   R(17,19)                0.9642         estimate D2E/DX2                !
 ! R23   R(20,21)                0.9647         estimate D2E/DX2                !
 ! R24   R(20,22)                0.9681         estimate D2E/DX2                !
 ! R25   R(23,24)                0.9664         estimate D2E/DX2                !
 ! R26   R(23,25)                0.965          estimate D2E/DX2                !
 ! R27   R(26,27)                0.9686         estimate D2E/DX2                !
 ! R28   R(26,28)                0.9641         estimate D2E/DX2                !
 ! A1    A(2,1,3)              113.5061         estimate D2E/DX2                !
 ! A2    A(2,1,24)             101.9005         estimate D2E/DX2                !
 ! A3    A(3,1,24)             136.2683         estimate D2E/DX2                !
 ! A4    A(1,2,4)              112.4174         estimate D2E/DX2                !
 ! A5    A(1,2,22)             111.0627         estimate D2E/DX2                !
 ! A6    A(4,2,22)             135.8648         estimate D2E/DX2                !
 ! A7    A(1,3,6)              119.4043         estimate D2E/DX2                !
 ! A8    A(1,3,8)              111.0589         estimate D2E/DX2                !
 ! A9    A(6,3,8)              129.3441         estimate D2E/DX2                !
 ! A10   A(2,4,5)              122.5716         estimate D2E/DX2                !
 ! A11   A(2,4,7)              108.4332         estimate D2E/DX2                !
 ! A12   A(5,4,7)              128.8554         estimate D2E/DX2                !
 ! A13   A(4,5,27)             129.1006         estimate D2E/DX2                !
 ! A14   A(3,6,18)             130.4392         estimate D2E/DX2                !
 ! A15   A(4,7,13)             116.1104         estimate D2E/DX2                !
 ! A16   A(3,8,9)              116.6806         estimate D2E/DX2                !
 ! A17   A(8,9,10)             105.8369         estimate D2E/DX2                !
 ! A18   A(8,9,11)             110.2794         estimate D2E/DX2                !
 ! A19   A(8,9,12)             107.2063         estimate D2E/DX2                !
 ! A20   A(10,9,11)            111.525          estimate D2E/DX2                !
 ! A21   A(10,9,12)            111.2274         estimate D2E/DX2                !
 ! A22   A(11,9,12)            110.5731         estimate D2E/DX2                !
 ! A23   A(7,13,14)            107.7012         estimate D2E/DX2                !
 ! A24   A(7,13,15)            110.3063         estimate D2E/DX2                !
 ! A25   A(7,13,16)            105.9535         estimate D2E/DX2                !
 ! A26   A(14,13,15)           110.4118         estimate D2E/DX2                !
 ! A27   A(14,13,16)           110.9457         estimate D2E/DX2                !
 ! A28   A(15,13,16)           111.3683         estimate D2E/DX2                !
 ! A29   A(13,14,23)           119.0065         estimate D2E/DX2                !
 ! A30   A(18,17,19)           102.8868         estimate D2E/DX2                !
 ! A31   A(6,18,17)            157.6904         estimate D2E/DX2                !
 ! A32   A(21,20,22)           103.4222         estimate D2E/DX2                !
 ! A33   A(2,22,20)            139.6519         estimate D2E/DX2                !
 ! A34   A(14,23,24)           121.884          estimate D2E/DX2                !
 ! A35   A(14,23,25)           123.9785         estimate D2E/DX2                !
 ! A36   A(24,23,25)           102.964          estimate D2E/DX2                !
 ! A37   A(1,24,23)            108.5051         estimate D2E/DX2                !
 ! A38   A(27,26,28)           103.0476         estimate D2E/DX2                !
 ! A39   A(5,27,26)            162.439          estimate D2E/DX2                !
 ! D1    D(3,1,2,4)            178.2386         estimate D2E/DX2                !
 ! D2    D(3,1,2,22)             6.0055         estimate D2E/DX2                !
 ! D3    D(24,1,2,4)            24.4799         estimate D2E/DX2                !
 ! D4    D(24,1,2,22)         -147.7531         estimate D2E/DX2                !
 ! D5    D(2,1,3,6)           -106.3149         estimate D2E/DX2                !
 ! D6    D(2,1,3,8)             78.2672         estimate D2E/DX2                !
 ! D7    D(24,1,3,6)            34.9393         estimate D2E/DX2                !
 ! D8    D(24,1,3,8)          -140.4786         estimate D2E/DX2                !
 ! D9    D(2,1,24,23)           47.6763         estimate D2E/DX2                !
 ! D10   D(3,1,24,23)          -96.412          estimate D2E/DX2                !
 ! D11   D(1,2,4,5)             52.3066         estimate D2E/DX2                !
 ! D12   D(1,2,4,7)           -131.6422         estimate D2E/DX2                !
 ! D13   D(22,2,4,5)          -138.1277         estimate D2E/DX2                !
 ! D14   D(22,2,4,7)            37.9236         estimate D2E/DX2                !
 ! D15   D(1,2,22,20)            8.1771         estimate D2E/DX2                !
 ! D16   D(4,2,22,20)         -161.4876         estimate D2E/DX2                !
 ! D17   D(1,3,6,18)          -148.1536         estimate D2E/DX2                !
 ! D18   D(8,3,6,18)            26.3145         estimate D2E/DX2                !
 ! D19   D(1,3,8,9)           -175.2362         estimate D2E/DX2                !
 ! D20   D(6,3,8,9)              9.927          estimate D2E/DX2                !
 ! D21   D(2,4,5,27)           145.7977         estimate D2E/DX2                !
 ! D22   D(7,4,5,27)           -29.3899         estimate D2E/DX2                !
 ! D23   D(2,4,7,13)           171.0015         estimate D2E/DX2                !
 ! D24   D(5,4,7,13)           -13.2723         estimate D2E/DX2                !
 ! D25   D(4,5,27,26)           24.8292         estimate D2E/DX2                !
 ! D26   D(3,6,18,17)           20.5295         estimate D2E/DX2                !
 ! D27   D(4,7,13,14)          -69.6059         estimate D2E/DX2                !
 ! D28   D(4,7,13,15)           50.9554         estimate D2E/DX2                !
 ! D29   D(4,7,13,16)          171.6094         estimate D2E/DX2                !
 ! D30   D(3,8,9,10)          -166.376          estimate D2E/DX2                !
 ! D31   D(3,8,9,11)           -45.6188         estimate D2E/DX2                !
 ! D32   D(3,8,9,12)            74.8188         estimate D2E/DX2                !
 ! D33   D(7,13,14,23)           9.2833         estimate D2E/DX2                !
 ! D34   D(15,13,14,23)       -111.2116         estimate D2E/DX2                !
 ! D35   D(16,13,14,23)        124.8207         estimate D2E/DX2                !
 ! D36   D(13,14,23,24)         68.0179         estimate D2E/DX2                !
 ! D37   D(13,14,23,25)        -69.5304         estimate D2E/DX2                !
 ! D38   D(19,17,18,6)          52.3258         estimate D2E/DX2                !
 ! D39   D(21,20,22,2)          71.2454         estimate D2E/DX2                !
 ! D40   D(14,23,24,1)         -87.6811         estimate D2E/DX2                !
 ! D41   D(25,23,24,1)          57.2644         estimate D2E/DX2                !
 ! D42   D(28,26,27,5)          90.5897         estimate D2E/DX2                !
 --------------------------------------------------------------------------------
 Trust Radius=3.00D-01 FncErr=1.00D-07 GrdErr=1.00D-06
 Number of steps in this run=    119 maximum allowed number of steps=    168.
 GradGradGradGradGradGradGradGradGradGradGradGradGradGradGradGradGradGrad

                          Input orientation:                          
 ---------------------------------------------------------------------
 Center     Atomic      Atomic             Coordinates (Angstroms)
 Number     Number       Type             X           Y           Z
 ---------------------------------------------------------------------
      1          7           0       -0.332927    0.256784    0.459816
      2          7           0        0.370498   -0.469015   -0.233538
      3          6           0       -1.749937    0.025017    0.284706
      4          6           0        1.787643   -0.188515   -0.069582
      5          8           0        2.317519   -0.151986    1.003352
      6          8           0       -2.406234    0.822722   -0.325042
      7          8           0        2.326443   -0.084907   -1.251132
      8          8           0       -2.133421   -1.033307    0.932995
      9          6           0       -3.502342   -1.437559    0.757207
     10          1           0       -3.701543   -2.167062    1.546157
     11          1           0       -4.167848   -0.569568    0.834493
     12          1           0       -3.580333   -1.895873   -0.236479
     13          6           0        3.680355    0.387988   -1.288393
     14          1           0        3.671953    1.447530   -1.000431
     15          1           0        4.304944   -0.191185   -0.597588
     16          1           0        4.012524    0.266796   -2.322530
     17          8           0       -5.159507    1.467876    0.325123
     18          1           0       -4.303800    1.356304   -0.114167
     19          1           0       -4.922937    1.913422    1.146778
     20          8           0       -1.736778   -1.717797   -1.869153
     21          1           0       -1.865206   -0.927546   -2.407312
     22          1           0       -0.818420   -1.640936   -1.572625
     23          8           0        1.488174    2.478111   -0.074030
     24          1           0        1.125858    2.220173    0.783982
     25          1           0        0.697522    2.633540   -0.605020
     26          8           0        5.094885   -0.897806    1.467003
     27          1           0        4.149575   -0.690445    1.506598
     28          1           0        5.511754   -0.054346    1.677641
 ---------------------------------------------------------------------
                    Distance matrix (angstroms):
                    1          2          3          4          5
     1  N    0.000000
     2  N    1.225696   0.000000
     3  C    1.446477   2.238055   0.000000
     4  C    2.230554   1.453913   3.561683   0.000000
     5  O    2.736309   2.328367   4.134245   1.197201   0.000000
     6  O    2.287988   3.063853   1.199521   4.321628   5.002852
     7  O    3.180620   2.238025   4.357494   1.302728   2.255499
     8  O    2.264953   2.819368   1.298995   4.134438   4.537901
     9  C    3.606166   4.113216   2.330946   5.497966   5.965238
    10  H    4.289841   4.757331   3.194563   6.054455   6.370579
    11  H    3.940794   4.663409   2.549920   6.035762   6.500990
    12  H    3.957828   4.200595   2.704034   5.635432   6.273992
    13  C    4.379484   3.578034   5.665197   2.323836   2.720476
    14  H    4.425976   3.893697   5.750827   2.663409   2.899671
    15  H    4.777931   3.961008   6.122644   2.572081   2.552333
    16  H    5.159893   4.262588   6.329462   3.198934   3.756316
    17  O    4.978028   5.885967   3.702518   7.152784   7.680486
    18  H    4.160076   5.019472   2.907515   6.284436   6.882271
    19  H    4.927936   5.966719   3.791724   7.136495   7.530650
    20  O    3.360635   2.945387   2.770683   4.242488   5.209642
    21  H    3.459905   3.151812   2.857906   4.399370   5.452459
    22  H    2.822740   2.140112   2.663231   3.340693   4.322817
    23  O    2.921591   3.155978   4.078201   2.683393   2.960739
    24  H    2.467394   2.972818   3.652148   2.639755   2.663704
    25  H    2.800834   3.141782   3.685927   3.072304   3.601445
    26  O    5.639915   5.039398   7.007212   3.715109   2.912899
    27  H    4.699555   4.166357   6.067054   2.883574   1.974747
    28  H    5.978310   5.500643   7.394506   4.115798   3.266089
                    6          7          8          9         10
     6  O    0.000000
     7  O    4.907103   0.000000
     8  O    2.258745   5.055716   0.000000
     9  C    2.735249   6.311721   1.438147   0.000000
    10  H    3.757395   6.963965   2.029871   1.092839   0.000000
    11  H    2.527108   6.838168   2.088935   1.096485   1.809943
    12  H    2.962619   6.260920   2.050669   1.097063   1.807215
    13  C    6.177670   1.434606   6.383936   7.688188   8.309956
    14  H    6.147430   2.054656   6.602655   7.929914   8.597606
    15  H    6.792805   2.086356   6.671162   8.021386   8.520773
    16  H    6.745329   2.028413   7.075405   8.298362   8.966450
    17  O    2.901629   7.806098   3.972735   3.372602   4.102360
    18  H    1.982406   6.879673   3.393720   3.034353   3.941256
    19  H    3.112824   7.892832   4.063289   3.660455   4.278044
    20  O    3.047407   4.422448   2.911681   3.177029   3.965663
    21  H    2.773445   4.429076   3.352727   3.599237   4.531937
    22  H    3.185471   3.523457   2.894231   3.559904   4.279721
    23  O    4.239072   2.942333   5.143939   6.397552   7.150930
    24  H    3.957079   3.300983   4.607628   5.899149   6.567537
    25  H    3.604268   3.234316   4.881137   6.005695   6.857486
    26  O    7.901799   3.964005   7.249271   8.643347   8.887881
    27  H    6.973035   3.360887   6.318434   7.724739   7.988868
    28  H    8.214288   4.327222   7.743485   9.165937   9.453343
                   11         12         13         14         15
    11  H    0.000000
    12  H    1.803119   0.000000
    13  C    8.186443   7.683758   0.000000
    14  H    8.300489   8.022320   1.098008   0.000000
    15  H    8.601293   8.075516   1.096706   1.802317   0.000000
    16  H    8.808223   8.165796   1.092915   1.805012   1.808502
    17  O    2.322504   3.758190   9.050566   8.930408   9.652964
    18  H    2.151144   3.333920   8.127926   8.025361   8.760074
    19  H    2.613986   4.269276   9.070482   8.871285   9.624239
    20  O    3.812903   2.469014   5.840971   6.326796   6.360018
    21  H    3.992444   2.931183   5.808258   6.187118   6.472100
    22  H    4.261539   3.078708   4.943308   5.479916   5.413071
    23  O    6.488786   6.696857   3.263273   2.586350   3.915795
    24  H    5.984023   6.334936   3.765248   3.203702   4.222555
    25  H    6.000327   6.241110   3.795628   3.226486   4.581770
    26  O    9.290104   8.897044   3.353561   3.689657   2.320745
    27  H    8.345410   8.015164   3.032352   3.329302   2.168179
    28  H    9.729905   9.472123   3.513835   3.579465   2.579105
                   16         17         18         19         20
    16  H    0.000000
    17  O    9.621788   0.000000
    18  H    8.673243   0.968328   0.000000
    19  H    9.725736   0.964154   1.511189   0.000000
    20  O    6.099068   5.165117   4.372605   5.695015   0.000000
    21  H    5.998446   4.904760   4.052311   5.482005   0.964679
    22  H    5.247839   5.666674   4.822699   6.072534   0.968100
    23  O    4.039556   6.735841   5.899748   6.550694   5.588240
    24  H    4.668933   6.346835   5.570828   6.067424   5.544494
    25  H    4.420470   6.043900   5.185122   5.931014   5.143732
    26  O    4.109545  10.585504   9.793691  10.409722   7.646826
    27  H    3.949344   9.628771   8.847350   9.445637   6.862966
    28  H    4.283946  10.863806  10.076984  10.631872   8.239419
                   21         22         23         24         25
    21  H    0.000000
    22  H    1.517033   0.000000
    23  O    5.318633   4.953051   0.000000
    24  H    5.388781   4.923614   0.966431   0.000000
    25  H    4.743118   4.637401   0.965007   1.511182   0.000000
    26  O    7.965806   6.690199   5.174936   5.093279   6.008368
    27  H    7.180007   5.921657   4.429581   4.258725   5.236838
    28  H    8.477550   7.290583   5.066644   5.020772   5.967588
                   26         27         28
    26  O    0.000000
    27  H    0.968596   0.000000
    28  H    0.964144   1.513079   0.000000
 Stoichiometry    C4H14N2O8
 Framework group  C1[X(C4H14N2O8)]
 Deg. of freedom    78
 Full point group                 C1      NOp   1
 Largest Abelian subgroup         C1      NOp   1
 Largest concise Abelian subgroup C1      NOp   1
                         Standard orientation:                         
 ---------------------------------------------------------------------
 Center     Atomic      Atomic             Coordinates (Angstroms)
 Number     Number       Type             X           Y           Z
 ---------------------------------------------------------------------
      1          7           0        0.332927    0.256784   -0.459816
      2          7           0       -0.370498   -0.469015    0.233538
      3          6           0        1.749937    0.025017   -0.284706
      4          6           0       -1.787643   -0.188515    0.069582
      5          8           0       -2.317519   -0.151986   -1.003352
      6          8           0        2.406234    0.822722    0.325042
      7          8           0       -2.326443   -0.084907    1.251132
      8          8           0        2.133421   -1.033307   -0.932995
      9          6           0        3.502342   -1.437559   -0.757207
     10          1           0        3.701543   -2.167062   -1.546157
     11          1           0        4.167848   -0.569568   -0.834493
     12          1           0        3.580333   -1.895873    0.236479
     13          6           0       -3.680355    0.387988    1.288393
     14          1           0       -3.671953    1.447530    1.000431
     15          1           0       -4.304944   -0.191185    0.597588
     16          1           0       -4.012524    0.266796    2.322530
     17          8           0        5.159507    1.467876   -0.325123
     18          1           0        4.303800    1.356304    0.114167
     19          1           0        4.922937    1.913422   -1.146778
     20          8           0        1.736778   -1.717797    1.869153
     21          1           0        1.865206   -0.927546    2.407312
     22          1           0        0.818420   -1.640936    1.572625
     23          8           0       -1.488174    2.478111    0.074030
     24          1           0       -1.125858    2.220173   -0.783982
     25          1           0       -0.697522    2.633540    0.605020
     26          8           0       -5.094885   -0.897806   -1.467003
     27          1           0       -4.149575   -0.690445   -1.506598
     28          1           0       -5.511754   -0.054346   -1.677641
 ---------------------------------------------------------------------
 Rotational constants (GHZ):      1.0299408      0.2469102      0.2377926
 Standard basis: 6-31+G(d,p) (6D, 7F)
 There are   336 symmetry adapted cartesian basis functions of A   symmetry.
 There are   336 symmetry adapted basis functions of A   symmetry.
   336 basis functions,   546 primitive gaussians,   336 cartesian basis functions
    58 alpha electrons       58 beta electrons
       nuclear repulsion energy      1003.1582121415 Hartrees.
 NAtoms=   28 NActive=   28 NUniq=   28 SFac= 1.00D+00 NAtFMM=   60 NAOKFM=F Big=F
 Integral buffers will be    131072 words long.
 Raffenetti 2 integral format.
 Two-electron integral symmetry is turned on.
 Nuclear repulsion after empirical dispersion term =     1003.1312854689 Hartrees.
 ------------------------------------------------------------------------------
 Polarizable Continuum Model (PCM)
 =================================
 Model                : C-PCM.
 Atomic radii         : UFF (Universal Force Field).
 Polarization charges : Total charges.
 Charge compensation  : None.
 Solution method      : On-the-fly selection.
 Cavity type          : Scaled VdW (van der Waals Surface) (Alpha=1.100).
 Cavity algorithm     : GePol (No added spheres)
                        Default sphere list used, NSphG=   28.
                        Lebedev-Laikov grids with approx.  5.0 points / Ang**2.
                        Smoothing algorithm: Karplus/York (Gamma=1.0000).
                        Polarization charges: spherical gaussians, with
                                              point-specific exponents (IZeta= 3).
                        Self-potential: point-specific (ISelfS= 7).
                        Self-field    : sphere-specific E.n sum rule (ISelfD= 2).
 1st derivatives      : Analytical E(r).r(x)/FMM algorithm (CHGder, D1EAlg=3).
                        Cavity 1st derivative terms included.
 Solvent              : Toluene, Eps=   2.374100 Eps(inf)=   2.238315
 ------------------------------------------------------------------------------
 One-electron integrals computed using PRISM.
 NBasis=   336 RedAO= T EigKep=  3.49D-05  NBF=   336
 NBsUse=   336 1.00D-06 EigRej= -1.00D+00 NBFU=   336
 ExpMin= 4.38D-02 ExpMax= 5.48D+03 ExpMxC= 8.25D+02 IAcc=2 IRadAn=         4 AccDes= 0.00D+00
 Harris functional with IExCor=  402 and IRadAn=       4 diagonalized for initial guess.
 HarFok:  IExCor=  402 AccDes= 0.00D+00 IRadAn=         4 IDoV= 1 UseB2=F ITyADJ=14
 ICtDFT=  3500011 ScaDFX=  1.000000  1.000000  1.000000  1.000000
 FoFCou: FMM=F IPFlag=           0 FMFlag=      100000 FMFlg1=           0
         NFxFlg=           0 DoJE=T BraDBF=F KetDBF=T FulRan=T
         wScrn=  0.000000 ICntrl=     500 IOpCl=  0 I1Cent=   200000004 NGrid=           0
         NMat0=    1 NMatS0=      1 NMatT0=    0 NMatD0=    1 NMtDS0=    0 NMtDT0=    0
 Petite list used in FoFCou.
 Requested convergence on RMS density matrix=1.00D-08 within 128 cycles.
 Requested convergence on MAX density matrix=1.00D-06.
 Requested convergence on             energy=1.00D-06.
 No special actions if energy rises.
 Inv3:  Mode=1 IEnd=    17107632.
 Iteration    1 A*A^-1 deviation from unit magnitude is 6.55D-15 for   2366.
 Iteration    1 A*A^-1 deviation from orthogonality  is 2.08D-15 for   1997    596.
 Iteration    1 A^-1*A deviation from unit magnitude is 6.55D-15 for   2366.
 Iteration    1 A^-1*A deviation from orthogonality  is 1.95D-15 for   2363   2359.
 Error on total polarization charges =  0.00947
 SCF Done:  E(RB3LYP) =  -872.206432025     A.U. after   15 cycles
            NFock= 15  Conv=0.66D-08     -V/T= 2.0087

 **********************************************************************

            Population analysis using the SCF density.

 **********************************************************************

 Orbital symmetries:
       Occupied  (A) (A) (A) (A) (A) (A) (A) (A) (A) (A) (A) (A)
                 (A) (A) (A) (A) (A) (A) (A) (A) (A) (A) (A) (A)
                 (A) (A) (A) (A) (A) (A) (A) (A) (A) (A) (A) (A)
                 (A) (A) (A) (A) (A) (A) (A) (A) (A) (A) (A) (A)
                 (A) (A) (A) (A) (A) (A) (A) (A) (A) (A)
       Virtual   (A) (A) (A) (A) (A) (A) (A) (A) (A) (A) (A) (A)
                 (A) (A) (A) (A) (A) (A) (A) (A) (A) (A) (A) (A)
                 (A) (A) (A) (A) (A) (A) (A) (A) (A) (A) (A) (A)
                 (A) (A) (A) (A) (A) (A) (A) (A) (A) (A) (A) (A)
                 (A) (A) (A) (A) (A) (A) (A) (A) (A) (A) (A) (A)
                 (A) (A) (A) (A) (A) (A) (A) (A) (A) (A) (A) (A)
                 (A) (A) (A) (A) (A) (A) (A) (A) (A) (A) (A) (A)
                 (A) (A) (A) (A) (A) (A) (A) (A) (A) (A) (A) (A)
                 (A) (A) (A) (A) (A) (A) (A) (A) (A) (A) (A) (A)
                 (A) (A) (A) (A) (A) (A) (A) (A) (A) (A) (A) (A)
                 (A) (A) (A) (A) (A) (A) (A) (A) (A) (A) (A) (A)
                 (A) (A) (A) (A) (A) (A) (A) (A) (A) (A) (A) (A)
                 (A) (A) (A) (A) (A) (A) (A) (A) (A) (A) (A) (A)
                 (A) (A) (A) (A) (A) (A) (A) (A) (A) (A) (A) (A)
                 (A) (A) (A) (A) (A) (A) (A) (A) (A) (A) (A) (A)
                 (A) (A) (A) (A) (A) (A) (A) (A) (A) (A) (A) (A)
                 (A) (A) (A) (A) (A) (A) (A) (A) (A) (A) (A) (A)
                 (A) (A) (A) (A) (A) (A) (A) (A) (A) (A) (A) (A)
                 (A) (A) (A) (A) (A) (A) (A) (A) (A) (A) (A) (A)
                 (A) (A) (A) (A) (A) (A) (A) (A) (A) (A) (A) (A)
                 (A) (A) (A) (A) (A) (A) (A) (A) (A) (A) (A) (A)
                 (A) (A) (A) (A) (A) (A) (A) (A) (A) (A) (A) (A)
                 (A) (A) (A) (A) (A) (A) (A) (A) (A) (A) (A) (A)
                 (A) (A)
 The electronic state is 1-A.
 Alpha  occ. eigenvalues --  -19.24422 -19.24272 -19.19459 -19.19199 -19.17804
 Alpha  occ. eigenvalues --  -19.16804 -19.16153 -19.15964 -14.46079 -14.45988
 Alpha  occ. eigenvalues --  -10.38670 -10.38395 -10.25641 -10.25468  -1.18268
 Alpha  occ. eigenvalues --   -1.16892  -1.10534  -1.08196  -1.07528  -1.03340
 Alpha  occ. eigenvalues --   -1.02409  -1.01653  -1.01459  -0.83963  -0.77044
 Alpha  occ. eigenvalues --   -0.72778  -0.63393  -0.59181  -0.58149  -0.56436
 Alpha  occ. eigenvalues --   -0.54756  -0.54421  -0.54120  -0.53296  -0.52670
 Alpha  occ. eigenvalues --   -0.51691  -0.51258  -0.49647  -0.46990  -0.46348
 Alpha  occ. eigenvalues --   -0.46114  -0.42965  -0.41812  -0.41135  -0.40428
 Alpha  occ. eigenvalues --   -0.39802  -0.39694  -0.39190  -0.39087  -0.35942
 Alpha  occ. eigenvalues --   -0.34766  -0.34686  -0.34166  -0.33342  -0.32430
 Alpha  occ. eigenvalues --   -0.31418  -0.31229  -0.28931
 Alpha virt. eigenvalues --   -0.12494  -0.02547  -0.01385  -0.00516   0.00750
 Alpha virt. eigenvalues --    0.01376   0.01868   0.02605   0.03508   0.03702
 Alpha virt. eigenvalues --    0.04052   0.06607   0.06947   0.07463   0.07943
 Alpha virt. eigenvalues --    0.08265   0.09618   0.10170   0.10719   0.11527
 Alpha virt. eigenvalues --    0.12690   0.12959   0.13603   0.13959   0.14687
 Alpha virt. eigenvalues --    0.15686   0.15988   0.16325   0.16500   0.17338
 Alpha virt. eigenvalues --    0.17736   0.17945   0.18399   0.18770   0.18971
 Alpha virt. eigenvalues --    0.20061   0.20384   0.20539   0.20923   0.21678
 Alpha virt. eigenvalues --    0.21814   0.21941   0.22729   0.22981   0.23096
 Alpha virt. eigenvalues --    0.23553   0.24299   0.24607   0.24966   0.25406
 Alpha virt. eigenvalues --    0.26452   0.26597   0.27216   0.28603   0.28908
 Alpha virt. eigenvalues --    0.29233   0.29401   0.29980   0.30833   0.31303
 Alpha virt. eigenvalues --    0.31490   0.32814   0.33630   0.33849   0.34922
 Alpha virt. eigenvalues --    0.35374   0.36380   0.37471   0.38357   0.39190
 Alpha virt. eigenvalues --    0.40292   0.40866   0.41640   0.42487   0.42884
 Alpha virt. eigenvalues --    0.46645   0.47903   0.49796   0.50236   0.52037
 Alpha virt. eigenvalues --    0.52151   0.53022   0.65974   0.66505   0.70329
 Alpha virt. eigenvalues --    0.70984   0.71545   0.71906   0.73606   0.76936
 Alpha virt. eigenvalues --    0.78673   0.81528   0.82564   0.84624   0.87936
 Alpha virt. eigenvalues --    0.89858   0.91399   0.93942   0.94372   0.95149
 Alpha virt. eigenvalues --    0.96770   0.97343   0.98104   0.98776   0.99717
 Alpha virt. eigenvalues --    1.01020   1.02700   1.03345   1.04260   1.05303
 Alpha virt. eigenvalues --    1.06726   1.08820   1.08971   1.09921   1.12006
 Alpha virt. eigenvalues --    1.13428   1.14038   1.14973   1.15290   1.15937
 Alpha virt. eigenvalues --    1.16506   1.17110   1.17541   1.18054   1.19285
 Alpha virt. eigenvalues --    1.19875   1.20922   1.22388   1.23308   1.23866
 Alpha virt. eigenvalues --    1.24786   1.25820   1.26782   1.28262   1.28620
 Alpha virt. eigenvalues --    1.30190   1.30716   1.33119   1.34197   1.35131
 Alpha virt. eigenvalues --    1.35789   1.38379   1.38947   1.40296   1.42493
 Alpha virt. eigenvalues --    1.44096   1.46060   1.47590   1.48719   1.49576
 Alpha virt. eigenvalues --    1.49943   1.50771   1.52961   1.54277   1.55549
 Alpha virt. eigenvalues --    1.56195   1.57373   1.57788   1.58280   1.60695
 Alpha virt. eigenvalues --    1.61590   1.62735   1.63403   1.63830   1.64950
 Alpha virt. eigenvalues --    1.66015   1.69598   1.69786   1.71175   1.71942
 Alpha virt. eigenvalues --    1.74811   1.75674   1.78055   1.83086   1.85831
 Alpha virt. eigenvalues --    1.87119   1.90390   1.91100   1.91334   1.92297
 Alpha virt. eigenvalues --    1.92938   1.94527   1.96895   1.97467   1.99189
 Alpha virt. eigenvalues --    2.01190   2.02023   2.02715   2.04280   2.06739
 Alpha virt. eigenvalues --    2.07288   2.07662   2.10550   2.11268   2.14874
 Alpha virt. eigenvalues --    2.20981   2.24877   2.26723   2.27442   2.28114
 Alpha virt. eigenvalues --    2.28507   2.28856   2.29652   2.29949   2.30487
 Alpha virt. eigenvalues --    2.37055   2.38496   2.40783   2.45313   2.45946
 Alpha virt. eigenvalues --    2.48343   2.50985   2.52292   2.52977   2.53498
 Alpha virt. eigenvalues --    2.54192   2.54992   2.57148   2.57507   2.63330
 Alpha virt. eigenvalues --    2.63994   2.64277   2.64695   2.65885   2.66582
 Alpha virt. eigenvalues --    2.67254   2.70280   2.70701   2.72533   2.73068
 Alpha virt. eigenvalues --    2.73719   2.77558   2.80446   2.81293   2.83296
 Alpha virt. eigenvalues --    2.86322   2.88142   2.88780   2.95738   2.98580
 Alpha virt. eigenvalues --    3.03501   3.04253   3.04734   3.05132   3.05645
 Alpha virt. eigenvalues --    3.11177   3.15206   3.19415   3.23290   3.25167
 Alpha virt. eigenvalues --    3.25521   3.26435   3.41894   3.42271   3.43167
 Alpha virt. eigenvalues --    3.43879   3.44465   3.44884   3.45023   3.48306
 Alpha virt. eigenvalues --    3.61025   3.64293   3.66585   3.67974   4.05076
 Alpha virt. eigenvalues --    4.09029   4.12298   4.13988   4.20942   4.25539
 Alpha virt. eigenvalues --    4.44039   4.48101   4.48702   4.52056   4.56775
 Alpha virt. eigenvalues --    4.58366   4.61175   4.70228
          Condensed to atoms (all electrons):
               1          2          3          4          5          6
     1  N    8.028628  -0.925130   0.203288  -0.274181   0.027686  -0.039777
     2  N   -0.925130   8.435812  -0.209197   0.330709  -0.119955   0.013903
     3  C    0.203288  -0.209197   4.971615  -0.126459  -0.023629   0.551051
     4  C   -0.274181   0.330709  -0.126459   4.949800   0.548513  -0.001063
     5  O    0.027686  -0.119955  -0.023629   0.548513   8.246183  -0.000935
     6  O   -0.039777   0.013903   0.551051  -0.001063  -0.000935   8.183546
     7  O    0.023936  -0.167744  -0.011880   0.221819  -0.141339   0.000100
     8  O   -0.064753  -0.032643   0.329960  -0.027855  -0.004691  -0.179701
     9  C    0.012275   0.015738  -0.212892   0.001890   0.000594  -0.037199
    10  H   -0.005069   0.001833   0.011996  -0.000169  -0.000003  -0.000005
    11  H   -0.003007   0.000402  -0.012212  -0.000181   0.000001   0.011033
    12  H    0.001556  -0.002340  -0.012293  -0.000049  -0.000004   0.001773
    13  C    0.031889  -0.041726   0.000970  -0.187464  -0.018014  -0.000040
    14  H    0.000980  -0.004306   0.000045  -0.016286   0.002818  -0.000008
    15  H   -0.000572   0.000003  -0.000305  -0.017577   0.009768   0.000002
    16  H   -0.000082  -0.002189   0.000004   0.011179  -0.000140   0.000000
    17  O    0.000098  -0.002492  -0.001950  -0.000221  -0.000002  -0.001989
    18  H   -0.002236   0.000116   0.008000  -0.000048  -0.000001   0.026990
    19  H   -0.001490   0.000038   0.006292  -0.000016   0.000000   0.001101
    20  O   -0.049270   0.063076   0.046674  -0.008857   0.000191   0.015016
    21  H   -0.008212   0.015671  -0.006996   0.000551   0.000015  -0.001124
    22  H    0.012011   0.024464  -0.021478   0.003358   0.000368  -0.001460
    23  O    0.007284   0.025844   0.002702   0.089921  -0.034241  -0.002945
    24  H    0.045814  -0.035030   0.006444  -0.017001   0.003414  -0.000566
    25  H    0.036922  -0.029511   0.010777  -0.015706   0.000278  -0.002132
    26  O    0.001123  -0.002429  -0.000217  -0.010981   0.000495   0.000000
    27  H   -0.001132   0.002626  -0.000004   0.000015   0.022908   0.000000
    28  H   -0.000156   0.000625   0.000005  -0.003312   0.001149   0.000000
               7          8          9         10         11         12
     1  N    0.023936  -0.064753   0.012275  -0.005069  -0.003007   0.001556
     2  N   -0.167744  -0.032643   0.015738   0.001833   0.000402  -0.002340
     3  C   -0.011880   0.329960  -0.212892   0.011996  -0.012212  -0.012293
     4  C    0.221819  -0.027855   0.001890  -0.000169  -0.000181  -0.000049
     5  O   -0.141339  -0.004691   0.000594  -0.000003   0.000001  -0.000004
     6  O    0.000100  -0.179701  -0.037199  -0.000005   0.011033   0.001773
     7  O    8.323148  -0.002536  -0.000245  -0.000001   0.000002  -0.000009
     8  O   -0.002536   8.296690   0.078489  -0.052182  -0.038902  -0.038214
     9  C   -0.000245   0.078489   5.143191   0.403946   0.403565   0.418183
    10  H   -0.000001  -0.052182   0.403946   0.522490  -0.025366  -0.025409
    11  H    0.000002  -0.038902   0.403565  -0.025366   0.519039  -0.029012
    12  H   -0.000009  -0.038214   0.418183  -0.025409  -0.029012   0.491605
    13  C    0.117580   0.000145   0.000225  -0.000001   0.000000  -0.000004
    14  H   -0.033699  -0.000002   0.000004   0.000000   0.000000   0.000000
    15  H   -0.039334   0.000002  -0.000004   0.000000   0.000000   0.000000
    16  H   -0.053669   0.000000  -0.000001   0.000000   0.000000   0.000000
    17  O    0.000004   0.003485  -0.019670   0.000800   0.004961   0.001025
    18  H   -0.000001  -0.000252  -0.006887   0.000007  -0.001355  -0.000003
    19  H    0.000000  -0.000163  -0.003299  -0.000024  -0.000245   0.000001
    20  O   -0.001436  -0.024995  -0.029942   0.000527  -0.000822  -0.004691
    21  H   -0.000319  -0.003361   0.003735  -0.000005   0.000012   0.000031
    22  H   -0.001151  -0.000544   0.005180  -0.000009   0.000008   0.000217
    23  O   -0.032566   0.000380  -0.000885   0.000000  -0.000002   0.000002
    24  H    0.002293   0.000047   0.000226   0.000000   0.000000   0.000000
    25  H   -0.000007  -0.000039   0.000209   0.000000   0.000000   0.000000
    26  O    0.002629   0.000000   0.000002   0.000000   0.000000   0.000000
    27  H    0.000708  -0.000002   0.000001   0.000000   0.000000   0.000000
    28  H   -0.000001   0.000000   0.000000   0.000000   0.000000   0.000000
              13         14         15         16         17         18
     1  N    0.031889   0.000980  -0.000572  -0.000082   0.000098  -0.002236
     2  N   -0.041726  -0.004306   0.000003  -0.002189  -0.002492   0.000116
     3  C    0.000970   0.000045  -0.000305   0.000004  -0.001950   0.008000
     4  C   -0.187464  -0.016286  -0.017577   0.011179  -0.000221  -0.000048
     5  O   -0.018014   0.002818   0.009768  -0.000140  -0.000002  -0.000001
     6  O   -0.000040  -0.000008   0.000002   0.000000  -0.001989   0.026990
     7  O    0.117580  -0.033699  -0.039334  -0.053669   0.000004  -0.000001
     8  O    0.000145  -0.000002   0.000002   0.000000   0.003485  -0.000252
     9  C    0.000225   0.000004  -0.000004  -0.000001  -0.019670  -0.006887
    10  H   -0.000001   0.000000   0.000000   0.000000   0.000800   0.000007
    11  H    0.000000   0.000000   0.000000   0.000000   0.004961  -0.001355
    12  H   -0.000004   0.000000   0.000000   0.000000   0.001025  -0.000003
    13  C    5.103286   0.418241   0.409193   0.404999   0.000002  -0.000002
    14  H    0.418241   0.503644  -0.031467  -0.025945   0.000000   0.000000
    15  H    0.409193  -0.031467   0.512712  -0.023786   0.000000   0.000000
    16  H    0.404999  -0.025945  -0.023786   0.521690   0.000000   0.000000
    17  O    0.000002   0.000000   0.000000   0.000000   8.239242   0.251101
    18  H   -0.000002   0.000000   0.000000   0.000000   0.251101   0.327759
    19  H    0.000000   0.000000   0.000000   0.000000   0.279614  -0.020884
    20  O    0.000250   0.000001  -0.000001  -0.000004  -0.000231  -0.000147
    21  H    0.000068   0.000000   0.000000   0.000000   0.000007   0.000006
    22  H    0.000341  -0.000001   0.000000   0.000000   0.000009  -0.000002
    23  O   -0.036176  -0.004380   0.000101   0.000273   0.000003  -0.000001
    24  H    0.004366   0.000314  -0.000027  -0.000001   0.000001   0.000000
    25  H    0.004535   0.000313  -0.000011  -0.000009   0.000001  -0.000001
    26  O   -0.010070   0.000881   0.004878   0.000645   0.000000   0.000000
    27  H   -0.000397  -0.000084  -0.002179   0.000027   0.000000   0.000000
    28  H    0.003841  -0.000138  -0.000932   0.000000   0.000000   0.000000
              19         20         21         22         23         24
     1  N   -0.001490  -0.049270  -0.008212   0.012011   0.007284   0.045814
     2  N    0.000038   0.063076   0.015671   0.024464   0.025844  -0.035030
     3  C    0.006292   0.046674  -0.006996  -0.021478   0.002702   0.006444
     4  C   -0.000016  -0.008857   0.000551   0.003358   0.089921  -0.017001
     5  O    0.000000   0.000191   0.000015   0.000368  -0.034241   0.003414
     6  O    0.001101   0.015016  -0.001124  -0.001460  -0.002945  -0.000566
     7  O    0.000000  -0.001436  -0.000319  -0.001151  -0.032566   0.002293
     8  O   -0.000163  -0.024995  -0.003361  -0.000544   0.000380   0.000047
     9  C   -0.003299  -0.029942   0.003735   0.005180  -0.000885   0.000226
    10  H   -0.000024   0.000527  -0.000005  -0.000009   0.000000   0.000000
    11  H   -0.000245  -0.000822   0.000012   0.000008  -0.000002   0.000000
    12  H    0.000001  -0.004691   0.000031   0.000217   0.000002   0.000000
    13  C    0.000000   0.000250   0.000068   0.000341  -0.036176   0.004366
    14  H    0.000000   0.000001   0.000000  -0.000001  -0.004380   0.000314
    15  H    0.000000  -0.000001   0.000000   0.000000   0.000101  -0.000027
    16  H    0.000000  -0.000004   0.000000   0.000000   0.000273  -0.000001
    17  O    0.279614  -0.000231   0.000007   0.000009   0.000003   0.000001
    18  H   -0.020884  -0.000147   0.000006  -0.000002  -0.000001   0.000000
    19  H    0.372748   0.000001   0.000000   0.000000   0.000001   0.000000
    20  O    0.000001   8.172136   0.291856   0.268862   0.000459   0.000026
    21  H    0.000000   0.291856   0.355880  -0.025126   0.000028   0.000000
    22  H    0.000000   0.268862  -0.025126   0.323395   0.000015  -0.000001
    23  O    0.000001   0.000459   0.000028   0.000015   8.112884   0.284956
    24  H    0.000000   0.000026   0.000000  -0.000001   0.284956   0.342729
    25  H    0.000000   0.000036  -0.000002   0.000000   0.278577  -0.023772
    26  O    0.000000  -0.000001   0.000000   0.000001  -0.000260   0.000020
    27  H    0.000000   0.000001   0.000000   0.000000  -0.000363   0.000003
    28  H    0.000000   0.000000   0.000000   0.000000  -0.000030   0.000000
              25         26         27         28
     1  N    0.036922   0.001123  -0.001132  -0.000156
     2  N   -0.029511  -0.002429   0.002626   0.000625
     3  C    0.010777  -0.000217  -0.000004   0.000005
     4  C   -0.015706  -0.010981   0.000015  -0.003312
     5  O    0.000278   0.000495   0.022908   0.001149
     6  O   -0.002132   0.000000   0.000000   0.000000
     7  O   -0.000007   0.002629   0.000708  -0.000001
     8  O   -0.000039   0.000000  -0.000002   0.000000
     9  C    0.000209   0.000002   0.000001   0.000000
    10  H    0.000000   0.000000   0.000000   0.000000
    11  H    0.000000   0.000000   0.000000   0.000000
    12  H    0.000000   0.000000   0.000000   0.000000
    13  C    0.004535  -0.010070  -0.000397   0.003841
    14  H    0.000313   0.000881  -0.000084  -0.000138
    15  H   -0.000011   0.004878  -0.002179  -0.000932
    16  H   -0.000009   0.000645   0.000027   0.000000
    17  O    0.000001   0.000000   0.000000   0.000000
    18  H   -0.000001   0.000000   0.000000   0.000000
    19  H    0.000000   0.000000   0.000000   0.000000
    20  O    0.000036  -0.000001   0.000001   0.000000
    21  H   -0.000002   0.000000   0.000000   0.000000
    22  H    0.000000   0.000001   0.000000   0.000000
    23  O    0.278577  -0.000260  -0.000363  -0.000030
    24  H   -0.023772   0.000020   0.000003   0.000000
    25  H    0.354459   0.000001   0.000000   0.000000
    26  O    0.000001   8.238544   0.252794   0.281897
    27  H    0.000000   0.252794   0.327005  -0.021900
    28  H    0.000000   0.281897  -0.021900   0.371342
 Mulliken charges:
               1
     1  N   -0.058424
     2  N   -0.356168
     3  C    0.489686
     4  C    0.549672
     5  O   -0.521425
     6  O   -0.535570
     7  O   -0.206280
     8  O   -0.238362
     9  C   -0.176426
    10  H    0.166644
    11  H    0.172081
    12  H    0.197634
    13  C   -0.206036
    14  H    0.189075
    15  H    0.179537
    16  H    0.167009
    17  O   -0.753796
    18  H    0.417843
    19  H    0.366325
    20  O   -0.738715
    21  H    0.377285
    22  H    0.411542
    23  O   -0.691582
    24  H    0.385743
    25  H    0.385081
    26  O   -0.759954
    27  H    0.419973
    28  H    0.367609
 Sum of Mulliken charges =   0.00000
 Mulliken charges with hydrogens summed into heavy atoms:
               1
     1  N   -0.058424
     2  N   -0.356168
     3  C    0.489686
     4  C    0.549672
     5  O   -0.521425
     6  O   -0.535570
     7  O   -0.206280
     8  O   -0.238362
     9  C    0.359933
    13  C    0.329585
    17  O    0.030371
    20  O    0.050111
    23  O    0.079241
    26  O    0.027629
 Electronic spatial extent (au):  <R**2>=           4806.3640
 Charge=              0.0000 electrons
 Dipole moment (field-independent basis, Debye):
    X=             -0.7886    Y=              2.2982    Z=              0.0938  Tot=              2.4315
 Quadrupole moment (field-independent basis, Debye-Ang):
   XX=           -105.3298   YY=            -91.4458   ZZ=            -81.3038
   XY=            -13.8572   XZ=            -16.3164   YZ=             -1.4839
 Traceless Quadrupole moment (field-independent basis, Debye-Ang):
   XX=            -12.6367   YY=              1.2473   ZZ=             11.3893
   XY=            -13.8572   XZ=            -16.3164   YZ=             -1.4839
 Octapole moment (field-independent basis, Debye-Ang**2):
  XXX=           -110.2569  YYY=              7.6258  ZZZ=              7.4514  XYY=             22.5287
  XXY=             27.4041  XXZ=             -5.6654  XZZ=             11.5253  YZZ=             24.7739
  YYZ=            -14.9691  XYZ=             16.7694
 Hexadecapole moment (field-independent basis, Debye-Ang**3):
 XXXX=          -5467.8789 YYYY=           -809.0019 ZZZZ=           -547.1975 XXXY=           -616.0184
 XXXZ=           -257.1345 YYYX=             46.3226 YYYZ=             16.7899 ZZZX=            -19.9931
 ZZZY=             -1.0396 XXYY=           -985.7577 XXZZ=           -757.1532 YYZZ=           -230.6858
 XXYZ=           -132.0291 YYXZ=            -80.8738 ZZXY=             -6.1600
 N-N= 1.003131285469D+03 E-N=-4.051395871346D+03  KE= 8.646954856828D+02
 D1PCM: C-PCM CHGder 1st derivatives, ID1Alg=3 FixD1E=F DoIter=F DoCFld=F I1PDM=0.
 Calling FoFJK, ICntrl=      2127 FMM=F ISym2X=0 I1Cent= 0 IOpClX= 0 NMat=1 NMatS=1 NMatT=0.
 ***** Axes restored to original set *****
 -------------------------------------------------------------------
 Center     Atomic                   Forces (Hartrees/Bohr)
 Number     Number              X              Y              Z
 -------------------------------------------------------------------
      1        7          -0.008546867    0.011535698    0.012143452
      2        7           0.006937594   -0.012949178   -0.012547452
      3        6           0.012177088   -0.007250513    0.007889973
      4        6          -0.010550419   -0.001882768   -0.010049191
      5        8           0.010946004   -0.000449026    0.024806781
      6        8          -0.011812321    0.018974720   -0.013742641
      7        8          -0.005834712   -0.003753928   -0.012314592
      8        8           0.006775076   -0.007375098    0.009050719
      9        6          -0.013610629   -0.004125195   -0.002018641
     10        1           0.000883045    0.002197536   -0.001997019
     11        1           0.001105791   -0.005397168    0.001104288
     12        1          -0.000766815    0.001107859    0.003511921
     13        6           0.013426586    0.005249957   -0.000337721
     14        1           0.000954089   -0.003220388   -0.001108060
     15        1          -0.001068616    0.001877614   -0.004913509
     16        1          -0.001360798    0.000077910    0.002819524
     17        8          -0.000516420    0.001503358    0.000641143
     18        1           0.002037862   -0.001292231   -0.003522756
     19        1          -0.002660915    0.002008501    0.002775856
     20        8           0.000156675   -0.000474801   -0.003259269
     21        1          -0.002780103    0.000497556   -0.002823771
     22        1           0.003452952   -0.002300309    0.001419881
     23        8          -0.001167156    0.002590282    0.000111646
     24        1           0.001165345    0.000773163    0.003128094
     25        1          -0.000205330    0.002285467   -0.002939251
     26        8           0.000977209    0.000917073    0.001319018
     27        1          -0.004324964   -0.001851050   -0.000221302
     28        1           0.004210749    0.000724960    0.001072879
 -------------------------------------------------------------------
 Cartesian Forces:  Max     0.024806781 RMS     0.006634353

 GradGradGradGradGradGradGradGradGradGradGradGradGradGradGradGradGradGrad
 Berny optimization.
 FormGI is forming the generalized inverse of G from B-inverse, IUseBI=4.
 Internal  Forces:  Max     0.029378238 RMS     0.006749355
 Search for a local minimum.
 Step number   1 out of a maximum of  119
 All quantities printed in internal units (Hartrees-Bohrs-Radians)
 Mixed Optimization -- RFO/linear search
 Second derivative matrix not updated -- first step.
 ITU=  0
     Eigenvalues ---    0.00230   0.00230   0.00230   0.00394   0.01077
     Eigenvalues ---    0.01176   0.01187   0.01350   0.01444   0.01447
     Eigenvalues ---    0.01450   0.01586   0.01998   0.02005   0.02180
     Eigenvalues ---    0.02617   0.02630   0.02744   0.03028   0.03445
     Eigenvalues ---    0.04344   0.04374   0.04434   0.04445   0.04492
     Eigenvalues ---    0.06900   0.07382   0.09534   0.10403   0.10781
     Eigenvalues ---    0.10968   0.11627   0.12992   0.14380   0.15826
     Eigenvalues ---    0.16000   0.16000   0.16000   0.16000   0.16000
     Eigenvalues ---    0.16000   0.16000   0.16000   0.16772   0.19117
     Eigenvalues ---    0.19937   0.21734   0.24007   0.24937   0.24947
     Eigenvalues ---    0.24980   0.25000   0.25000   0.25000   0.25000
     Eigenvalues ---    0.33592   0.34009   0.34049   0.34074   0.34478
     Eigenvalues ---    0.34487   0.36494   0.38710   0.39616   0.39841
     Eigenvalues ---    0.52169   0.53665   0.53720   0.53767   0.54410
     Eigenvalues ---    0.54479   0.54589   0.54592   0.64569   0.67473
     Eigenvalues ---    0.90661   1.05064   1.06242
 RFO step:  Lambda=-1.48631100D-02 EMin= 2.30000000D-03
 Linear search not attempted -- first point.
 Iteration  1 RMS(Cart)=  0.21963179 RMS(Int)=  0.00642650
 Iteration  2 RMS(Cart)=  0.01840814 RMS(Int)=  0.00026357
 Iteration  3 RMS(Cart)=  0.00013340 RMS(Int)=  0.00025700
 Iteration  4 RMS(Cart)=  0.00000002 RMS(Int)=  0.00025700
 Variable       Old X    -DE/DX   Delta X   Delta X   Delta X     New X
                                 (Linear)    (Quad)   (Total)
    R1        2.31623   0.02572   0.00000   0.02826   0.02833   2.34456
    R2        2.73345   0.00575   0.00000   0.01430   0.01430   2.74774
    R3        4.66270   0.00539   0.00000   0.10809   0.10806   4.77076
    R4        2.74750   0.00406   0.00000   0.01518   0.01535   2.76285
    R5        4.04423   0.00370   0.00000   0.07512   0.07512   4.11935
    R6        2.26677   0.02822   0.00000   0.02649   0.02649   2.29326
    R7        2.45475   0.01754   0.00000   0.02544   0.02544   2.48018
    R8        2.26238   0.02938   0.00000   0.02727   0.02727   2.28965
    R9        2.46180   0.01556   0.00000   0.02446   0.02436   2.48616
   R10        3.73173   0.00141   0.00000   0.02363   0.02363   3.75536
   R11        3.74620   0.00168   0.00000   0.02832   0.02832   3.77452
   R12        2.71101   0.01010   0.00000   0.02876   0.02887   2.73989
   R13        2.71770   0.01346   0.00000   0.03258   0.03258   2.75028
   R14        2.06517  -0.00307   0.00000  -0.00853  -0.00853   2.05663
   R15        2.07206  -0.00486   0.00000  -0.01367  -0.01367   2.05838
   R16        2.07315  -0.00359   0.00000  -0.01012  -0.01012   2.06303
   R17        2.07493  -0.00233   0.00000  -0.00557  -0.00564   2.06930
   R18        2.07247  -0.00469   0.00000  -0.01321  -0.01321   2.05926
   R19        2.06531  -0.00309   0.00000  -0.00859  -0.00859   2.05672
   R20        4.88749   0.00310   0.00000   0.04777   0.04765   4.93514
   R21        1.82987   0.00476   0.00000   0.00863   0.00863   1.83850
   R22        1.82199   0.00264   0.00000   0.00472   0.00472   1.82670
   R23        1.82298   0.00235   0.00000   0.00420   0.00420   1.82718
   R24        1.82944   0.00435   0.00000   0.00788   0.00788   1.83732
   R25        1.82629   0.00436   0.00000   0.00593   0.00605   1.83234
   R26        1.82360   0.00215   0.00000   0.00385   0.00385   1.82745
   R27        1.83038   0.00462   0.00000   0.00837   0.00837   1.83875
   R28        1.82197   0.00269   0.00000   0.00479   0.00479   1.82676
    A1        1.98105   0.00910   0.00000   0.04540   0.04545   2.02650
    A2        1.77850  -0.00286   0.00000   0.00069   0.00076   1.77926
    A3        2.37833  -0.00573   0.00000  -0.02374  -0.02466   2.35367
    A4        1.96205  -0.00613   0.00000  -0.01402  -0.01369   1.94836
    A5        1.93841   0.01351   0.00000   0.06860   0.06842   2.00683
    A6        2.37129  -0.00744   0.00000  -0.05397  -0.05408   2.31721
    A7        2.08400  -0.00591   0.00000  -0.02322  -0.02342   2.06058
    A8        1.93834  -0.00427   0.00000  -0.01698  -0.01719   1.92115
    A9        2.25748   0.01005   0.00000   0.03703   0.03671   2.29419
   A10        2.13928  -0.00449   0.00000  -0.01283  -0.01294   2.12634
   A11        1.89252  -0.00475   0.00000  -0.02569  -0.02558   1.86693
   A12        2.24895   0.00932   0.00000   0.03931   0.03926   2.28821
   A13        2.25323   0.00997   0.00000   0.05700   0.05700   2.31023
   A14        2.27659   0.00906   0.00000   0.05183   0.05183   2.32842
   A15        2.02651   0.00414   0.00000   0.04434   0.04449   2.07100
   A16        2.03646   0.01458   0.00000   0.05506   0.05506   2.09152
   A17        1.84720  -0.00204   0.00000  -0.01387  -0.01386   1.83334
   A18        1.92474   0.00339   0.00000   0.02014   0.02004   1.94478
   A19        1.87110   0.00179   0.00000   0.01175   0.01164   1.88274
   A20        1.94648  -0.00188   0.00000  -0.01369  -0.01366   1.93282
   A21        1.94128  -0.00067   0.00000  -0.00549  -0.00549   1.93579
   A22        1.92987  -0.00042   0.00000   0.00205   0.00183   1.93170
   A23        1.87974  -0.00089   0.00000   0.01317   0.01317   1.89291
   A24        1.92521   0.00009   0.00000   0.00899   0.00901   1.93422
   A25        1.84924   0.00076   0.00000  -0.01031  -0.01048   1.83875
   A26        1.92705   0.00051   0.00000   0.00656   0.00615   1.93320
   A27        1.93637   0.00074   0.00000  -0.00547  -0.00521   1.93115
   A28        1.94374  -0.00120   0.00000  -0.01256  -0.01254   1.93120
   A29        2.07706   0.00256   0.00000   0.00977   0.00955   2.08661
   A30        1.79571   0.00608   0.00000   0.03476   0.03476   1.83047
   A31        2.75222   0.00372   0.00000   0.01403   0.01403   2.76625
   A32        1.80506   0.00547   0.00000   0.03127   0.03127   1.83633
   A33        2.43739   0.00770   0.00000   0.02907   0.02907   2.46646
   A34        2.12728   0.00020   0.00000  -0.01308  -0.01315   2.11413
   A35        2.16383  -0.00046   0.00000   0.00136   0.00128   2.16511
   A36        1.79706   0.00138   0.00000   0.02548   0.02545   1.82251
   A37        1.89377   0.00424   0.00000   0.01474   0.01452   1.90829
   A38        1.79852   0.00618   0.00000   0.03535   0.03535   1.83387
   A39        2.83510   0.00376   0.00000   0.01421   0.01421   2.84931
    D1        3.11085   0.00149   0.00000   0.04978   0.05078  -3.12156
    D2        0.10482   0.00252   0.00000   0.05143   0.05206   0.15688
    D3        0.42726   0.00313   0.00000   0.02848   0.02856   0.45582
    D4       -2.57878   0.00416   0.00000   0.03012   0.02985  -2.54893
    D5       -1.85554  -0.00025   0.00000  -0.00186  -0.00120  -1.85674
    D6        1.36602   0.00081   0.00000   0.03366   0.03337   1.39939
    D7        0.60981   0.00140   0.00000   0.05285   0.05314   0.66295
    D8       -2.45181   0.00247   0.00000   0.08837   0.08771  -2.36411
    D9        0.83211   0.00233   0.00000   0.01855   0.01829   0.85040
   D10       -1.68271  -0.00246   0.00000  -0.04503  -0.04433  -1.72704
   D11        0.91292  -0.00038   0.00000  -0.00235  -0.00199   0.91093
   D12       -2.29759   0.00121   0.00000   0.01058   0.01064  -2.28695
   D13       -2.41078   0.00060   0.00000   0.01054   0.01088  -2.39991
   D14        0.66189   0.00219   0.00000   0.02347   0.02351   0.68540
   D15        0.14272   0.00133   0.00000   0.09377   0.09371   0.23643
   D16       -2.81849   0.00177   0.00000   0.08688   0.08693  -2.73156
   D17       -2.58577   0.00334   0.00000   0.06125   0.06157  -2.52419
   D18        0.45927   0.00109   0.00000   0.01475   0.01442   0.47370
   D19       -3.05845  -0.00212   0.00000  -0.04414  -0.04457  -3.10302
   D20        0.17326   0.00012   0.00000  -0.00017   0.00027   0.17353
   D21        2.54465  -0.00035   0.00000  -0.00992  -0.00985   2.53480
   D22       -0.51295  -0.00153   0.00000  -0.02230  -0.02237  -0.53532
   D23        2.98454  -0.00205   0.00000  -0.03175  -0.03131   2.95323
   D24       -0.23165  -0.00110   0.00000  -0.02073  -0.02019  -0.25184
   D25        0.43335   0.00130   0.00000   0.07580   0.07580   0.50915
   D26        0.35831   0.00199   0.00000   0.11617   0.11617   0.47448
   D27       -1.21485   0.00128   0.00000   0.01199   0.01247  -1.20239
   D28        0.88934   0.00141   0.00000   0.03342   0.03388   0.92322
   D29        2.99515   0.00047   0.00000   0.01713   0.01748   3.01263
   D30       -2.90381  -0.00069   0.00000  -0.03237  -0.03234  -2.93615
   D31       -0.79620  -0.00230   0.00000  -0.04602  -0.04622  -0.84241
   D32        1.30584   0.00023   0.00000  -0.02476  -0.02459   1.28125
   D33        0.16202  -0.00296   0.00000  -0.03886  -0.03842   0.12361
   D34       -1.94101  -0.00281   0.00000  -0.06185  -0.06162  -2.00263
   D35        2.17853  -0.00216   0.00000  -0.04655  -0.04623   2.13230
   D36        1.18714  -0.00214   0.00000  -0.02643  -0.02646   1.16068
   D37       -1.21353  -0.00455   0.00000  -0.05895  -0.05891  -1.27244
   D38        0.91326   0.00150   0.00000   0.05116   0.05116   0.96441
   D39        1.24347   0.00211   0.00000   0.07194   0.07194   1.31540
   D40       -1.53032  -0.00308   0.00000   0.02236   0.02245  -1.50788
   D41        0.99945  -0.00167   0.00000   0.04384   0.04392   1.04338
   D42        1.58109   0.00146   0.00000   0.04975   0.04975   1.63084
         Item               Value     Threshold  Converged?
 Maximum Force            0.029378     0.000450     NO 
 RMS     Force            0.006749     0.000300     NO 
 Maximum Displacement     0.863695     0.001800     NO 
 RMS     Displacement     0.230307     0.001200     NO 
 Predicted change in Energy=-8.583881D-03
 GradGradGradGradGradGradGradGradGradGradGradGradGradGradGradGradGradGrad

                          Input orientation:                          
 ---------------------------------------------------------------------
 Center     Atomic      Atomic             Coordinates (Angstroms)
 Number     Number       Type             X           Y           Z
 ---------------------------------------------------------------------
      1          7           0       -0.358762    0.187909    0.383089
      2          7           0        0.366000   -0.516212   -0.336801
      3          6           0       -1.790085   -0.041428    0.269254
      4          6           0        1.782824   -0.224196   -0.124936
      5          8           0        2.277489   -0.227344    0.981115
      6          8           0       -2.456704    0.788609   -0.313271
      7          8           0        2.322165   -0.056679   -1.313171
      8          8           0       -2.134484   -1.096111    0.970377
      9          6           0       -3.518044   -1.547667    0.966889
     10          1           0       -3.578275   -2.279712    1.769965
     11          1           0       -4.206413   -0.722442    1.144699
     12          1           0       -3.716093   -2.013273   -0.000484
     13          6           0        3.667606    0.477083   -1.397145
     14          1           0        3.645225    1.525003   -1.080221
     15          1           0        4.352632   -0.099750   -0.776272
     16          1           0        3.943379    0.399503   -2.447137
     17          8           0       -5.125641    1.735940    0.415665
     18          1           0       -4.307106    1.493416   -0.050920
     19          1           0       -4.840032    2.321149    1.130066
     20          8           0       -1.565660   -1.803185   -2.239020
     21          1           0       -1.624613   -1.068082   -2.864360
     22          1           0       -0.693089   -1.712273   -1.819900
     23          8           0        1.445868    2.523848   -0.087548
     24          1           0        1.094878    2.216804    0.762581
     25          1           0        0.660127    2.730672   -0.611964
     26          8           0        5.028433   -0.939301    1.705425
     27          1           0        4.074341   -0.758793    1.642966
     28          1           0        5.412449   -0.135077    2.079888
 ---------------------------------------------------------------------
                    Distance matrix (angstroms):
                    1          2          3          4          5
     1  N    0.000000
     2  N    1.240689   0.000000
     3  C    1.454043   2.289416   0.000000
     4  C    2.239265   1.462036   3.599231   0.000000
     5  O    2.734938   2.339687   4.133579   1.211632   0.000000
     6  O    2.290660   3.109787   1.213539   4.362893   5.012004
     7  O    3.181900   2.234065   4.406234   1.315619   2.301058
     8  O    2.268657   2.880524   1.312457   4.159957   4.496707
     9  C    3.651591   4.224844   2.396100   5.571612   5.944044
    10  H    4.286939   4.806839   3.234142   6.046253   6.254956
    11  H    4.026563   4.810856   2.658726   6.142571   6.504834
    12  H    4.032866   4.360939   2.769556   5.783975   6.330569
    13  C    4.411858   3.607155   5.729933   2.379646   2.843372
    14  H    4.467774   3.933516   5.815272   2.727784   3.031589
    15  H    4.860462   4.032345   6.231332   2.653986   2.722298
    16  H    5.153966   4.253197   6.359702   3.232587   3.862776
    17  O    5.012046   5.983019   3.782381   7.201477   7.679880
    18  H    4.181164   5.094924   2.965409   6.327947   6.883531
    19  H    5.019011   6.107789   3.952839   7.205277   7.561488
    20  O    3.506639   3.001008   3.073368   4.263203   5.255696
    21  H    3.704837   3.264299   3.301656   4.452775   5.542645
    22  H    2.928417   2.179865   2.891312   3.349242   4.344540
    23  O    2.989113   3.235770   4.144797   2.768877   3.066381
    24  H    2.524579   3.034680   3.696755   2.686901   2.724002
    25  H    2.914431   3.271771   3.803239   3.198264   3.728756
    26  O    5.660481   5.107639   7.025735   3.794150   2.932439
    27  H    4.704884   4.210714   6.065739   2.943182   1.987249
    28  H    6.024145   5.608235   7.427225   4.247749   3.323220
                    6          7          8          9         10
     6  O    0.000000
     7  O    4.954987   0.000000
     8  O    2.302987   5.114365   0.000000
     9  C    2.867654   6.444359   1.455388   0.000000
    10  H    3.874582   7.018746   2.030956   1.088323   0.000000
    11  H    2.733210   7.007616   2.112559   1.089249   1.791815
    12  H    3.087789   6.481664   2.070083   1.091707   1.795681
    13  C    6.227280   1.449885   6.460987   7.830827   8.374563
    14  H    6.193870   2.075204   6.669350   8.058808   8.647449
    15  H    6.882631   2.100693   6.791626   8.190398   8.610159
    16  H    6.757651   2.030349   7.131387   8.433260   9.029807
    17  O    2.924382   7.853163   4.156350   3.697335   4.511533
    18  H    1.997390   6.924110   3.531145   3.302535   4.252447
    19  H    3.179961   7.932246   4.361554   4.091701   4.813463
    20  O    3.349607   4.361498   3.335228   3.762306   4.511059
    21  H    3.263086   4.359607   3.868586   4.300413   5.173181
    22  H    3.410964   3.476999   3.200456   3.971607   4.640411
    23  O    4.276923   2.988171   5.200215   6.506112   7.194898
    24  H    3.976297   3.314167   4.631131   5.957520   6.562914
    25  H    3.684490   3.320149   4.995791   6.184988   6.981518
    26  O    7.942801   4.149075   7.202240   8.599873   8.710700
    27  H    6.991127   3.507396   6.254252   7.663140   7.803323
    28  H    8.276713   4.590082   7.688355   9.109769   9.248169
                   11         12         13         14         15
    11  H    0.000000
    12  H    1.793907   0.000000
    13  C    8.360623   7.916537   0.000000
    14  H    8.464603   8.238582   1.095025   0.000000
    15  H    8.794039   8.328730   1.089715   1.797952   0.000000
    16  H    8.976589   8.394945   1.088371   1.795579   1.791237
    17  O    2.723989   4.026985   9.065992   8.900015   9.727699
    18  H    2.519855   3.556502   8.151153   8.018730   8.834895
    19  H    3.108880   4.618289   9.064617   8.804476   9.695356
    20  O    4.426187   3.111196   5.770221   6.290706   6.329889
    21  H    4.780974   3.670076   5.705071   6.138276   6.405094
    22  H    4.702346   3.541106   4.897720   5.463337   5.398952
    23  O    6.633635   6.873056   3.292479   2.611564   3.975787
    24  H    6.073621   6.451455   3.782853   3.221611   4.283392
    25  H    6.220376   6.483073   3.839285   3.253262   4.655414
    26  O    9.254395   8.973867   3.672048   3.968108   2.705619
    27  H    8.295810   8.060118   3.306826   3.579890   2.522795
    28  H    9.682050   9.549128   3.938144   3.983119   3.046656
                   16         17         18         19         20
    16  H    0.000000
    17  O    9.603584   0.000000
    18  H    8.660774   0.972892   0.000000
    19  H    9.676642   0.966650   1.537491   0.000000
    20  O    5.936721   5.678576   4.813615   6.251590   0.000000
    21  H    5.773249   5.556825   4.655371   6.146645   0.966903
    22  H    5.133211   6.044455   5.144594   6.493683   0.972269
    23  O    4.039562   6.637677   5.844642   6.405951   5.693975
    24  H    4.660346   6.248716   5.510582   5.947192   5.678766
    25  H    4.425150   5.959918   5.149658   5.783954   5.306346
    26  O    4.495943  10.579491   9.805873  10.409043   7.732206
    27  H    4.252969   9.610912   8.842530   9.445377   6.926051
    28  H    4.789353  10.831514  10.082762  10.585300   8.374339
                   21         22         23         24         25
    21  H    0.000000
    22  H    1.540654   0.000000
    23  O    5.480921   5.051822   0.000000
    24  H    5.598286   5.030276   0.969633   0.000000
    25  H    4.972309   4.798965   0.967046   1.530504   0.000000
    26  O    8.072331   6.764704   5.295557   5.130576   6.158010
    27  H    7.272531   5.968999   4.547447   4.301912   5.377539
    28  H    8.650799   7.414411   5.244180   5.089996   6.167913
                   26         27         28
    26  O    0.000000
    27  H    0.973025   0.000000
    28  H    0.966678   1.539629   0.000000
 Stoichiometry    C4H14N2O8
 Framework group  C1[X(C4H14N2O8)]
 Deg. of freedom    78
 Full point group                 C1      NOp   1
 Largest Abelian subgroup         C1      NOp   1
 Largest concise Abelian subgroup C1      NOp   1
                         Standard orientation:                         
 ---------------------------------------------------------------------
 Center     Atomic      Atomic             Coordinates (Angstroms)
 Number     Number       Type             X           Y           Z
 ---------------------------------------------------------------------
      1          7           0        0.358272    0.197965   -0.392025
      2          7           0       -0.377836   -0.507648    0.314773
      3          6           0        1.786437   -0.048129   -0.273607
      4          6           0       -1.790303   -0.197766    0.099229
      5          8           0       -2.278953   -0.181264   -1.009374
      6          8           0        2.458663    0.767097    0.323214
      7          8           0       -2.334286   -0.039928    1.286673
      8          8           0        2.123414   -1.097247   -0.986588
      9          6           0        3.502058   -1.563585   -0.981657
     10          1           0        3.558870   -2.285746   -1.793879
     11          1           0        4.200115   -0.743533   -1.145043
     12          1           0        3.689884   -2.043802   -0.019402
     13          6           0       -3.674415    0.507062    1.370470
     14          1           0       -3.639175    1.558709    1.067359
     15          1           0       -4.362147   -0.054301    0.738508
     16          1           0       -3.956701    0.418813    2.417885
     17          8           0        5.141442    1.695204   -0.379157
     18          1           0        4.317850    1.455414    0.079883
     19          1           0        4.865956    2.292659   -1.087370
     20          8           0        1.529666   -1.839797    2.210258
     21          1           0        1.593027   -1.113546    2.845433
     22          1           0        0.660402   -1.734123    1.787741
     23          8           0       -1.423962    2.546770    0.099461
     24          1           0       -1.071638    2.247050   -0.752727
     25          1           0       -0.638930    2.738352    0.630684
     26          8           0       -5.033330   -0.854288   -1.757470
     27          1           0       -4.077726   -0.684823   -1.687609
     28          1           0       -5.406735   -0.041209   -2.123445
 ---------------------------------------------------------------------
 Rotational constants (GHZ):      0.8699358      0.2436064      0.2370421
 Standard basis: 6-31+G(d,p) (6D, 7F)
 There are   336 symmetry adapted cartesian basis functions of A   symmetry.
 There are   336 symmetry adapted basis functions of A   symmetry.
   336 basis functions,   546 primitive gaussians,   336 cartesian basis functions
    58 alpha electrons       58 beta electrons
       nuclear repulsion energy       981.6097231382 Hartrees.
 NAtoms=   28 NActive=   28 NUniq=   28 SFac= 1.00D+00 NAtFMM=   60 NAOKFM=F Big=F
 Integral buffers will be    131072 words long.
 Raffenetti 2 integral format.
 Two-electron integral symmetry is turned on.
 Nuclear repulsion after empirical dispersion term =      981.5856900108 Hartrees.
 ------------------------------------------------------------------------------
 Polarizable Continuum Model (PCM)
 =================================
 Model                : C-PCM.
 Atomic radii         : UFF (Universal Force Field).
 Polarization charges : Total charges.
 Charge compensation  : None.
 Solution method      : On-the-fly selection.
 Cavity type          : Scaled VdW (van der Waals Surface) (Alpha=1.100).
 Cavity algorithm     : GePol (No added spheres)
                        Default sphere list used, NSphG=   28.
                        Lebedev-Laikov grids with approx.  5.0 points / Ang**2.
                        Smoothing algorithm: Karplus/York (Gamma=1.0000).
                        Polarization charges: spherical gaussians, with
                                              point-specific exponents (IZeta= 3).
                        Self-potential: point-specific (ISelfS= 7).
                        Self-field    : sphere-specific E.n sum rule (ISelfD= 2).
 1st derivatives      : Analytical E(r).r(x)/FMM algorithm (CHGder, D1EAlg=3).
                        Cavity 1st derivative terms included.
 Solvent              : Toluene, Eps=   2.374100 Eps(inf)=   2.238315
 ------------------------------------------------------------------------------
 One-electron integrals computed using PRISM.
 NBasis=   336 RedAO= T EigKep=  3.66D-05  NBF=   336
 NBsUse=   336 1.00D-06 EigRej= -1.00D+00 NBFU=   336
 Initial guess from the checkpoint file:  "b3lyp_m062x_dmad_4H2O_cycloaddition_PM6_toluene.chk"
 B after Tr=     0.000000    0.000000    0.000000
         Rot=    0.999980   -0.001364    0.004621    0.004140 Ang=  -0.73 deg.
 ExpMin= 4.38D-02 ExpMax= 5.48D+03 ExpMxC= 8.25D+02 IAcc=2 IRadAn=         4 AccDes= 0.00D+00
 Harris functional with IExCor=  402 and IRadAn=       4 diagonalized for initial guess.
 HarFok:  IExCor=  402 AccDes= 0.00D+00 IRadAn=         4 IDoV= 1 UseB2=F ITyADJ=14
 ICtDFT=  3500011 ScaDFX=  1.000000  1.000000  1.000000  1.000000
 FoFCou: FMM=F IPFlag=           0 FMFlag=      100000 FMFlg1=           0
         NFxFlg=           0 DoJE=T BraDBF=F KetDBF=T FulRan=T
         wScrn=  0.000000 ICntrl=     500 IOpCl=  0 I1Cent=   200000004 NGrid=           0
         NMat0=    1 NMatS0=      1 NMatT0=    0 NMatD0=    1 NMtDS0=    0 NMtDT0=    0
 Petite list used in FoFCou.
 Requested convergence on RMS density matrix=1.00D-08 within 128 cycles.
 Requested convergence on MAX density matrix=1.00D-06.
 Requested convergence on             energy=1.00D-06.
 No special actions if energy rises.
 Inv3:  Mode=1 IEnd=    18855147.
 Iteration    1 A*A^-1 deviation from unit magnitude is 6.00D-15 for   1253.
 Iteration    1 A*A^-1 deviation from orthogonality  is 2.35D-15 for   2499   2067.
 Iteration    1 A^-1*A deviation from unit magnitude is 5.55D-15 for    621.
 Iteration    1 A^-1*A deviation from orthogonality  is 3.58D-15 for   2505   1699.
 Error on total polarization charges =  0.00961
 SCF Done:  E(RB3LYP) =  -872.209354189     A.U. after   13 cycles
            NFock= 13  Conv=0.48D-08     -V/T= 2.0092
 D1PCM: C-PCM CHGder 1st derivatives, ID1Alg=3 FixD1E=F DoIter=F DoCFld=F I1PDM=0.
 Calling FoFJK, ICntrl=      2127 FMM=F ISym2X=0 I1Cent= 0 IOpClX= 0 NMat=1 NMatS=1 NMatT=0.
 ***** Axes restored to original set *****
 -------------------------------------------------------------------
 Center     Atomic                   Forces (Hartrees/Bohr)
 Number     Number              X              Y              Z
 -------------------------------------------------------------------
      1        7           0.002008406   -0.003007964    0.002583809
      2        7          -0.007126523   -0.001267942    0.003964388
      3        6           0.006788069    0.003291415   -0.003471483
[...]
 ,-0.00000169,0.00001798,0.00000597,-0.00000197,0.00000933,0.00000508,-
 0.00000749,-0.00009441,0.00004566,0.00003405,0.00008939,-0.00005322,-0
 .00004953,0.00002160,-0.00001177,0.00000273,-0.05479218,0.14435403,-0.
 47041226,0.04744495,-0.15248254,0.48492083,0.00047762,0.00259572,0.002
 89248,-0.00183360,-0.00038955,-0.00109379,0.00435317,0.00271354,0.0023
 7218,-0.00336042,0.00028964,0.00032265,0.00148334,-0.00026488,0.000880
 10,-0.00162645,-0.00013378,-0.00089633,0.00097353,0.00025308,-0.000514
 06,-0.00097863,-0.00144097,-0.00065414,-0.00027957,-0.00009213,0.00032
 118,-0.00004639,-0.00000876,-0.00004467,0.00002946,-0.00000651,-0.0000
 5165,-0.00028396,-0.00006059,0.00004539,-0.00055166,-0.00012342,0.0001
 9299,0.00010961,0.00001902,0.00000243,0.00006994,0.00003127,-0.0000157
 5,0.00005644,0.00000963,-0.00003663,-0.00000212,-0.00005894,-0.0000918
 9,0.00005049,0.00004877,0.00008280,-0.00001476,0.00001472,0.00002961,-
 0.42115043,-0.10988698,-0.14935859,-0.00245191,-0.00328417,0.00751070,
 0.42504972,-0.00019530,0.00183871,-0.00218280,0.00308341,-0.00396781,0
 .00220827,0.00235783,-0.00033990,-0.00279344,-0.00372816,0.00170064,0.
 00085281,0.00186585,-0.00053409,0.00087786,-0.00063941,-0.00024794,0.0
 0060782,0.00121463,0.00003674,-0.00076926,-0.00123772,-0.00133112,0.00
 054576,0.00065772,0.00026510,-0.00007564,-0.00013900,-0.00005445,0.000
 03017,-0.00008241,-0.00004193,-0.00004573,-0.00018327,0.00001305,0.000
 08834,-0.00043898,-0.00017225,0.00011086,0.00006517,0.00000483,-0.0000
 0764,0.00010899,0.00005228,-0.00001132,0.00006288,0.00003382,-0.000034
 79,-0.00022779,0.00002020,-0.00004851,0.00036451,-0.00005396,0.0000516
 5,0.00002209,-0.00000920,0.00001113,-0.12728162,-0.04227491,-0.0305536
 8,0.01467813,0.00272818,0.00791285,0.10974214,0.04235957,0.00000663,-0
 .00113826,0.00020555,0.00388870,0.00185109,-0.00320314,0.00361428,-0.0
 0317051,-0.00196537,-0.00504994,0.00119661,0.00292373,0.00253817,-0.00
 043897,0.00082189,-0.00179322,0.00083871,-0.00065485,0.00145736,0.0001
 2139,-0.00150060,-0.00172917,0.00017487,0.00077412,0.00176053,0.000483
 17,-0.00000723,-0.00013475,-0.00006770,-0.00002957,-0.00026607,-0.0000
 8103,-0.00015120,-0.00040982,0.00004017,0.00013547,-0.00051646,-0.0001
 4825,0.00011469,0.00008021,-0.00000101,-0.00000211,0.00008486,0.000049
 28,-0.00000130,0.00010952,0.00004229,-0.00004943,-0.00027018,0.0000462
 2,-0.00016078,0.00045567,-0.00009914,0.00015382,0.00000257,-0.00000401
 ,0.00004000,-0.09890274,-0.01162635,-0.07967002,-0.04299425,-0.0114521
 9,-0.01434178,0.13820248,0.02336222,0.09673017,-0.00102477,-0.00350792
 ,0.00107649,-0.00041652,0.00076187,-0.00055274,0.00141831,0.00083837,-
 0.00094762,-0.00407525,0.00008701,-0.00069136,0.00155037,0.00200192,0.
 00079380,-0.00066832,-0.00016196,0.00005312,0.00077710,0.00044886,0.00
 002059,-0.00059882,-0.00073599,0.00041268,0.00025035,0.00013181,0.0000
 5719,-0.00003709,-0.00002810,0.00000774,-0.00004486,-0.00001877,-0.000
 01531,-0.00003000,0.00000819,0.00000100,-0.00093386,-0.00046528,-0.000
 08959,0.00057574,0.00013923,-0.00001849,0.00019140,0.00024365,0.000116
 27,0.00010155,0.00016601,0.00009945,-0.00018023,0.00003113,-0.00001804
 ,0.00022429,-0.00005198,0.00003110,0.00004249,-0.00000837,0.00000514,-
 0.00009632,-0.00022526,-0.00016259,0.00001313,0.00005541,0.00004871,0.
 00011381,0.00022930,0.00017091,0.39906427,-0.00229726,-0.00329037,0.00
 044353,-0.00070477,0.00086558,0.00011422,0.00363517,-0.00025234,-0.000
 81707,0.00017112,0.00354988,0.00235993,0.00085148,-0.00435170,-0.00037
 068,-0.00170343,0.00075693,-0.00015565,0.00193482,-0.00266223,-0.00198
 008,-0.00137577,-0.00076547,0.00044989,0.00048889,0.00016831,0.0000729
 7,-0.00007600,-0.00004295,0.00000532,-0.00008729,-0.00003656,-0.000006
 21,-0.00005772,-0.00001087,0.00000025,-0.00203544,-0.00030303,0.000475
 76,-0.00014019,-0.00042715,0.00016063,0.00020877,0.00010100,-0.0000068
 7,0.00010728,-0.00011368,-0.00019715,-0.00024244,0.00015677,-0.0000048
 4,0.00037547,-0.00017526,0.00004037,-0.00000055,-0.00003922,-0.0000116
 6,-0.00033351,-0.00023055,-0.00033802,0.00004954,0.00000215,0.00006811
 ,0.00035621,0.00035568,0.00042156,-0.14813332,0.22142193,0.00072640,-0
 .00011040,-0.00025769,0.00006835,0.00030530,0.00080407,-0.00026819,0.0
 0048420,-0.00011949,-0.00077469,0.00053142,-0.00627156,0.00060275,0.00
 214647,0.00202109,0.00002430,-0.00017006,0.00020218,0.00044611,-0.0029
 4866,0.00155046,0.00002572,-0.00008904,0.00005694,0.00000984,-0.000010
 00,-0.00004782,0.00000256,-0.00000424,-0.00000422,-0.00000069,0.000009
 28,-0.00000586,0.00000145,0.00000292,0.00000029,-0.00052486,-0.0000724
 3,0.00030412,-0.00034487,0.00007587,-0.00065918,-0.00003475,-0.0001856
 4,-0.00013240,-0.00003473,0.00014732,0.00007749,-0.00000841,0.00001488
 ,0.00007270,0.00001159,-0.00000935,-0.00004851,0.00000653,-0.00000683,
 -0.00003331,-0.00001529,-0.00008029,0.00007052,0.00003648,0.00005383,0
 .00001349,-0.00000858,0.00004936,-0.00009003,-0.04454449,-0.26538526,0
 .52015742,-0.00003963,0.00099744,-0.00097402,0.00017527,-0.00039177,0.
 00101462,-0.00112296,-0.00061781,0.00066774,0.00235951,0.00065592,0.00
 189877,-0.00130184,-0.00103098,-0.00140573,0.00051201,0.00005815,0.000
 05542,-0.00025175,0.00008267,-0.00055759,0.00037037,0.00048228,-0.0002
 8768,-0.00017542,-0.00009132,-0.00004869,0.00002319,0.00001923,-0.0000
 0646,0.00002831,0.00001286,0.00000752,0.00002154,-0.00000353,-0.000002
 01,-0.00015697,0.00007763,-0.00000898,0.00010370,-0.00007333,0.0001487
 5,0.00001803,0.00005777,0.00006531,-0.00001341,-0.00001615,-0.00000959
 ,0.00012722,-0.00001885,0.00002994,-0.00015690,0.00003382,-0.00003627,
 -0.00002667,0.00000545,-0.00001132,0.00007040,0.00013052,0.00011938,-0
 .00000550,-0.00001985,-0.00002481,-0.00008661,-0.00013818,-0.00012278,
 -0.14007987,-0.05775723,0.21546296,0.12984553,0.00129853,0.00019561,-0
 .00072285,0.00015576,-0.00096736,0.00046461,-0.00300647,0.00060293,0.0
 0088591,0.00102883,-0.00214739,-0.00590761,-0.00053147,0.00149616,0.00
 181462,0.00131197,-0.00077651,0.00014174,-0.00077023,-0.00111729,0.001
 53520,0.00104414,0.00055900,-0.00033710,-0.00034542,-0.00012581,-0.000
 08725,0.00006038,0.00003072,-0.00000601,0.00006863,0.00003260,0.000003
 02,0.00004220,0.00000662,-0.00000191,0.00070127,0.00013450,-0.00016045
 ,-0.00030801,0.00014024,-0.00006458,-0.00010883,-0.00011029,-0.0000469
 2,-0.00008403,-0.00000981,0.00005204,0.00016466,-0.00011115,0.00000389
 ,-0.00026669,0.00012574,-0.00003076,0.00000623,0.00002592,0.00000949,0
 .00021479,0.00014751,0.00025143,-0.00001701,0.00001031,-0.00003950,-0.
 00024362,-0.00024494,-0.00031991,-0.03168073,-0.04912418,0.11147751,0.
 04471045,0.05818377,0.00018492,0.00174765,-0.00089233,0.00016735,-0.00
 136394,0.00002651,-0.00087109,-0.00052728,0.00064027,0.00095191,-0.002
 28919,-0.00066642,-0.00060178,0.00056723,-0.00045644,0.00053670,0.0000
 0786,-0.00009965,-0.00026456,0.00020339,-0.00000856,0.00033648,0.00038
 279,-0.00028852,-0.00012939,-0.00005892,-0.00000652,0.00001766,0.00001
 811,-0.00000034,0.00003126,0.00000928,0.00001141,0.00001781,-0.0000022
 3,-0.00000205,0.00031499,0.00008455,-0.00009233,0.00005577,-0.00006854
 ,-0.00005073,-0.00004776,-0.00000583,0.00002302,-0.00003067,0.00000513
 ,0.00002678,0.00008513,-0.00002913,-0.00003019,-0.00011936,0.00003714,
 0.00000913,-0.00001276,0.00000732,0.00001427,0.00008506,0.00011581,0.0
 0007745,-0.00001334,-0.00002112,-0.00002322,-0.00008213,-0.00014341,-0
 .00009333,0.16734328,0.13172101,-0.37220339,-0.18508064,-0.13341936,0.
 39312512,-0.00024994,0.00009230,-0.00015849,-0.00003848,-0.00014851,0.
 00013278,0.00027523,-0.00065263,0.00020958,0.00017638,0.00046093,0.000
 00885,0.00010618,-0.00034240,0.00002936,-0.00003196,0.00041051,-0.0001
 3402,-0.00006621,-0.00027747,-0.00005243,0.00002315,0.00026412,-0.0001
 1292,-0.00006366,-0.00003147,0.00001158,0.00000170,0.00000745,-0.00000
 236,0.00000250,-0.00000385,0.00000833,0.00000799,-0.00000675,-0.000000
 37,-0.00012685,-0.00001907,-0.00001740,0.00010729,0.00005609,-0.000129
 61,-0.00000710,0.00001407,0.00002776,-0.00000138,0.00008173,0.00005661
 ,0.00006737,0.00001805,-0.00000370,-0.00005578,-0.00001562,0.00000427,
 -0.00003475,-0.00000139,-0.00000042,-0.00000128,0.00008141,0.00003329,
 0.00000199,-0.00003105,-0.00002058,0.00000932,-0.00004239,-0.00001346,
 -0.25608997,0.20716959,-0.17092188,0.00974928,-0.01368311,0.01703759,0
 .24624182,-0.00010961,0.00070935,-0.00031767,0.00017593,-0.00044603,0.
 00005383,-0.00073705,-0.00053549,0.00042602,0.00144169,-0.00016910,0.0
 0148497,-0.00057231,-0.00085963,-0.00068843,0.00046568,0.00008699,-0.0
 0008913,-0.00037873,0.00030444,-0.00029116,0.00032779,0.00035184,-0.00
 018929,-0.00017163,-0.00006766,-0.00000285,0.00001773,0.00001470,-0.00
 000290,0.00002065,0.00000707,0.00000394,0.00001758,-0.00000048,0.00000
 111,0.00034084,0.00007556,-0.00004237,-0.00003686,-0.00005618,0.000043
 11,-0.00005904,-0.00000866,0.00000662,-0.00001414,-0.00002994,-0.00000
 618,0.00010953,-0.00005808,-0.00000428,-0.00015165,0.00006256,-0.00000
 877,-0.00001011,0.00001948,0.00000537,0.00009850,0.00013773,0.00008844
 ,-0.00003038,-0.00003834,-0.00003913,-0.00007687,-0.00013664,-0.000078
 88,0.17991445,-0.16566143,0.15386060,0.01279194,-0.00690932,0.00300843
 ,-0.19337903,0.17321454,-0.00005977,-0.00046524,0.00024751,-0.00011677
 ,0.00005611,-0.00032261,0.00027231,0.00011895,-0.00001039,0.00018280,0
 .00094406,0.00114632,0.00003369,-0.00072651,-0.00011284,-0.00015840,-0
 .00001792,-0.00015097,0.00015339,-0.00006113,-0.00063111,-0.00008563,-
 0.00007811,0.00004327,0.00004133,0.00002787,0.00002322,-0.00000450,-0.
 00000220,0.00000228,-0.00000389,-0.00000536,0.00000021,-0.00000828,-0.
 00000178,0.00000040,0.00004145,-0.00005888,0.00003117,-0.00019650,0.00
 003839,0.00021417,0.00000921,-0.00000459,-0.00002661,0.00002755,-0.000
 10143,-0.00008457,-0.00002959,-0.00000653,-0.00006189,0.00003499,-0.00
 000277,0.00004651,0.00000306,0.00000486,0.00002966,-0.00002098,0.00002
 477,-0.00008069,-0.00001695,-0.00004055,0.00000227,0.00004489,0.000010
 79,0.00009642,-0.12320730,0.13313886,-0.14548550,-0.03088978,0.0244183
 6,-0.01908828,0.15398789,-0.15722833,0.16419130,-0.00031658,0.00026646
 ,-0.00011248,-0.00119862,-0.00026501,-0.00122705,0.00142177,0.00004283
 ,0.00005227,0.00139190,-0.00111239,0.00850568,-0.01054737,0.00182318,-
 0.00827826,-0.00070512,0.00020910,-0.00008193,0.00034802,0.00051244,-0
 .00289606,-0.00065890,-0.00037475,0.00015629,0.00030390,0.00008286,-0.
 00000853,-0.00003293,-0.00002480,0.00000294,-0.00003192,-0.00000643,-0
 .00000315,-0.00003782,-0.00000716,-0.00000243,-0.00054499,-0.00038345,
 -0.00032840,0.00008753,-0.00035097,0.00011897,-0.00029772,0.00054878,0
 .00026887,-0.00018901,0.00018591,-0.00022099,-0.00014908,0.00005343,-0
 .00001329,0.00019213,-0.00006686,0.00002430,0.00002280,-0.00001140,0.0
 0000100,-0.00021645,-0.00015267,-0.00022454,0.00002420,0.00001069,0.00
 004382,0.00022155,0.00020826,0.00028733,-0.00001166,0.00061379,-0.0000
 3945,0.00005593,-0.00034219,-0.00010191,-0.00002997,-0.00007708,0.0000
 4703,0.56955672,0.00021266,-0.00004250,0.00006380,0.00008120,-0.000242
 67,0.00002049,-0.00020858,-0.00018022,0.00002792,-0.00023542,-0.000078
 82,-0.00029824,0.00127778,0.00211543,0.00058033,0.00006243,0.00007055,
 -0.00001142,0.00045529,0.00026530,0.00007943,0.00011963,0.00016501,-0.
 00006552,-0.00004292,-0.00002437,0.00000276,0.00001207,0.00000489,-0.0
 0000478,0.00000611,0.00000320,0.00000353,0.00001110,-0.00000297,-0.000
 00074,-0.00012345,-0.00062319,0.00037719,-0.00022175,0.00051215,-0.000
 26169,0.00004165,-0.00054146,-0.00011528,0.00012082,0.00007954,0.00011
 550,0.00001876,0.00001556,0.00000798,-0.00002077,-0.00000952,-0.000005
 25,-0.00000767,-0.00000351,-0.00000450,-0.00000446,0.00008923,0.000029
 89,0.00000651,-0.00002522,-0.00000612,-0.00001181,-0.00008503,-0.00003
 682,0.00022153,0.00003901,0.00017363,-0.00018504,-0.00003977,-0.000061
 83,0.00001176,-0.00000191,-0.00003668,-0.07344509,0.04731468,-0.000234
 02,0.00004247,0.00001373,-0.00056859,-0.00010870,-0.00023325,0.0006460
 1,0.00014531,-0.00006958,0.00213978,-0.00017062,0.00056441,-0.00486519
 ,0.00034029,0.00073556,-0.00033189,0.00006821,-0.00000208,-0.00167894,
 -0.00010200,0.00032582,-0.00028260,-0.00019064,0.00010684,0.00011724,0
 .00002986,-0.00001684,-0.00001600,-0.00001345,-0.00000269,-0.00001515,
 -0.00000018,-0.00000390,-0.00001388,-0.00000350,-0.00000011,0.00135627
 ,-0.00056510,-0.00139576,0.00008687,-0.00070617,0.00004299,-0.00062695
 ,0.00120132,0.00018492,-0.00053348,0.00037198,-0.00033584,-0.00005655,
 0.00002454,0.00001577,0.00007872,-0.00002709,-0.00000322,0.00000722,-0
 .00000660,-0.00000827,-0.00010876,-0.00004704,-0.00005394,0.00002796,0
 .00000012,0.00001268,0.00010454,0.00007496,0.00007781,-0.00001380,0.00
 028892,0.00017578,-0.00008397,-0.00011524,-0.00014869,-0.00000422,-0.0
 0003614,-0.00000491,0.10506429,-0.14118964,0.50366680,0.00053762,-0.00
 053403,0.00026631,0.00216593,0.00032887,0.00206599,-0.00210441,-0.0000
 2277,-0.00011568,-0.00355586,0.00209641,-0.01618282,0.00267069,-0.0012
 2455,0.01027977,0.00100284,-0.00029046,0.00011825,-0.00243752,-0.00127
 638,0.00633710,0.00098469,0.00056676,-0.00024293,-0.00041081,-0.000103
 29,0.00001819,0.00005468,0.00003554,-0.00000298,0.00004769,0.00001044,
 0.00000630,0.00005659,0.00001013,0.00000177,0.00241968,0.00044695,-0.0
 0115375,-0.00009955,-0.00012430,-0.00002871,0.00014061,0.00017897,0.00
 032219,-0.00022387,0.00003202,0.00008663,0.00018851,-0.00007163,0.0000
 1346,-0.00025504,0.00008746,-0.00002915,-0.00002323,0.00001612,-0.0000
 0013,0.00028930,0.00022622,0.00032890,-0.00001404,-0.00000875,-0.00005
 390,-0.00031214,-0.00032253,-0.00043595,-0.00005984,-0.00095978,0.0000
 6121,-0.00000367,0.00055238,0.00021867,0.00002203,0.00006342,-0.000077
 21,-0.48767209,0.04450138,-0.01962431,0.49561628,-0.00040658,0.0001279
 6,-0.00016014,0.00004016,0.00078061,0.00011158,0.00025606,0.00007237,0
 .00005899,0.00030981,-0.00015560,0.00064683,-0.00061836,-0.00377903,-0
 .00084053,-0.00007517,-0.00003816,0.00001164,-0.00012007,-0.00034212,-
 0.00024173,-0.00016264,-0.00015471,0.00005775,0.00004599,0.00001445,-0
 .00000425,-0.00001258,-0.00000445,0.00000252,-0.00000616,-0.00000216,-
 0.00000301,-0.00001122,0.00000194,0.00000090,0.00007691,0.00082208,0.0
 0016815,0.00015251,-0.00076213,0.00050368,0.00010027,0.00046318,-0.000
 32158,-0.00006770,-0.00032442,-0.00015083,-0.00002129,-0.00000788,-0.0
 0000530,0.00002504,-0.00000017,0.00000573,0.00000677,0.00000268,0.0000
 0257,0.00000241,-0.00006212,-0.00002397,-0.00000284,0.00001656,0.00000
 589,0.00000630,0.00005775,0.00002447,-0.00020053,0.00010572,-0.0001870
 7,0.00016249,-0.00002827,0.00003412,-0.00003943,-0.00001011,0.00004264
 ,0.03028963,-0.01086707,0.01234557,-0.04285137,0.01542420,0.00028434,-
 0.00006117,0.00003055,0.00102192,0.00022900,0.00053822,-0.00089407,-0.
 00016344,0.00005908,-0.00485476,0.00052485,-0.00395539,0.00557102,-0.0
 0059245,-0.00026465,0.00045410,-0.00009883,0.00001799,0.00079853,-0.00
 010506,0.00048797,0.00039772,0.00026077,-0.00013292,-0.00015959,-0.000
 04218,0.00001786,0.00002370,0.00001751,0.00000228,0.00002058,0.0000019
 9,0.00000519,0.00002350,0.00000533,-0.00000061,-0.00143762,0.00065270,
 0.00002394,-0.00014915,0.00076717,-0.00037416,0.00045428,-0.00094079,-
 0.00273053,0.00056770,-0.00032104,0.00041408,0.00007519,-0.00002984,-0
 .00001053,-0.00010512,0.00003609,-0.00000100,-0.00000885,0.00000714,0.
 00000677,0.00014005,0.00008597,0.00010026,-0.00002491,-0.00000272,-0.0
 0001909,-0.00013702,-0.00012306,-0.00013645,0.00002110,-0.00043644,-0.
 00014878,0.00008222,0.00017134,0.00017634,0.00002056,0.00003707,-0.000
 01314,0.03399367,0.00774196,-0.04450909,0.00994990,-0.01214600,0.05353
 175,0.00001921,0.00003662,-0.00001184,-0.00005696,-0.00000457,-0.00007
 161,-0.00008724,0.00001455,-0.00000481,0.00001400,0.00001950,0.0002293
 6,-0.00137771,-0.00017896,0.00019060,0.00006490,-0.00003243,0.00001646
 ,0.00009198,-0.00003735,0.00011587,0.00004384,0.00001122,0.00000460,-0
 .00003883,-0.00001439,-0.00000316,-0.00000112,0.00000091,-0.00000143,0
 .00000206,0.00000071,-0.00000107,0.00000239,0.00000041,0.00000151,0.00
 014910,0.00000168,-0.00002585,-0.00003223,0.00001196,0.00001120,-0.000
 23949,-0.00001406,-0.00017106,-0.00000545,0.00000509,0.00001477,0.0000
 2430,-0.00000789,0.00000660,-0.00002531,0.00000926,-0.00000555,-0.0000
 0589,0.00000159,-0.00000184,0.00002283,0.00000910,0.00002278,-0.000006
 43,-0.00000326,-0.00000789,-0.00001934,-0.00000415,-0.00002042,0.00002
 457,-0.00005742,0.00003465,-0.00003909,0.00002758,-0.00002916,0.000005
 11,0.00001878,-0.00000404,-0.07098622,0.02734629,-0.08057061,-0.009025
 04,0.01312159,-0.04612898,0.08148206,-0.00002167,-0.00000706,-0.000009
 89,-0.00003476,-0.00003102,-0.00002071,0.00004145,0.00007856,-0.000024
 71,0.00006064,0.00001308,0.00009141,-0.00020000,0.00007424,-0.00006029
 ,-0.00000827,-0.00003189,0.00000490,-0.00004799,0.00003941,-0.00000339
 ,-0.00002402,-0.00005197,0.00001955,0.00001082,0.00001037,-0.00000061,
 -0.00000345,-0.00000106,0.00000209,-0.00000157,-0.00000127,-0.00000092
 ,-0.00000278,0.00000144,0.00000012,0.00008934,-0.00010335,-0.00013784,
 -0.00003021,0.00016701,0.00000207,0.00005302,-0.00003114,0.00022743,-0
 .00002356,0.00010908,0.00000394,-0.00000434,-0.00000812,-0.00000428,0.
 00000358,0.00000546,0.00000259,0.00000270,0.00000198,0.00000243,0.0000
 0304,-0.00002914,-0.00000803,-0.00000323,0.00000868,0.00000150,0.00000
 293,0.00002761,0.00001100,-0.00006054,-0.00003595,-0.00007334,0.000065
 44,0.00002047,0.00004096,0.00000615,0.00000474,0.00001235,0.04177289,-
 0.03790632,0.12834856,-0.00136324,-0.00135110,0.00452414,-0.04028237,0
 .03902728,0.00002807,-0.00003329,0.00001217,0.00010074,0.00001735,0.00
 009198,-0.00011593,0.00000468,0.00000150,-0.00016604,0.00012695,-0.000
 82530,0.00092588,-0.00009098,0.00056579,0.00005445,-0.00001711,-0.0000
 0073,-0.00030062,-0.00003857,0.00033062,0.00005177,0.00002734,-0.00001
 818,-0.00002373,-0.00000483,0.00000297,0.00000230,0.00000267,0.0000012
 5,0.00000279,-0.00000041,0.00000072,0.00000213,0.00000118,0.00000002,0
 .00031675,-0.00031734,-0.00016794,0.00002736,-0.00001332,0.00004123,-0
 .00007735,0.00028287,0.00001764,-0.00008009,0.00008618,-0.00000346,0.0
 0001050,-0.00000599,-0.00000378,-0.00001509,0.00000525,0.00000159,-0.0
 0000132,0.00000154,0.00000197,0.00002155,-0.00000001,0.00001088,-0.000
 00461,0.00000202,-0.00000252,-0.00001919,-0.00000557,-0.00001649,0.000
 00277,-0.00005140,0.00000119,-0.00000231,0.00003030,0.00002069,0.00000
 340,0.00000600,-0.00000122,-0.13502797,0.13287411,-0.45913492,0.007872
 88,0.00006140,-0.00311590,0.12641093,-0.13295101,0.46218824\\0.0000058
 8,0.00000780,-0.00000299,0.00000624,-0.00000691,0.00000136,0.00000458,
 0.00000182,-0.00000886,-0.00001633,-0.00000345,0.00000969,-0.00000050,
 0.00000271,-0.00000344,-0.00001389,0.00000127,0.00000741,0.00001230,0.
 00000516,-0.00001302,-0.00000293,-0.00000773,0.00000451,0.00000195,-0.
 00000239,-0.00000501,0.00000038,-0.00000518,-0.00000728,-0.00000015,-0
 .00000540,-0.00000169,0.00000004,-0.00000022,-0.00000396,-0.00000491,0
 .00000327,0.00000081,-0.00000502,0.00000435,-0.00000140,0.00000127,0.0
 0000443,-0.00000258,0.00000104,0.00000810,0.00000113,-0.00000221,0.000
 00438,0.00000019,0.00001260,-0.00000738,0.00000554,-0.00000138,-0.0000
 0204,0.00000657,0.00000097,0.00000615,-0.00000456,-0.00000069,0.000008
 05,-0.00000354,0.00000030,0.00000243,-0.00000616,-0.00000008,-0.000016
 21,0.00001168,-0.00000698,0.00001032,0.00001485,0.00000278,0.00000097,
 0.00000424,-0.00000236,-0.00000003,-0.00000062,0.00000614,-0.00000984,
 0.00000027,0.00000095,-0.00000444,-0.00000314\\\@


 There was a great rattling of the words for the fewness of ideas.
                   -- Charles Baxter in Gryphon
 Job cpu time:       0 days  0 hours 43 minutes 28.1 seconds.
 File lengths (MBytes):  RWF=    388 Int=      0 D2E=      0 Chk=     17 Scr=      1
 Normal termination of Gaussian 09 at Thu Sep 17 16:31:03 2020.
