 Entering Gaussian System, Link 0=g09
 Input=TS_job1_b3lyp_opt.com
 Output=TS_job1_b3lyp_opt.log
 Initial command:
 /apps/applications/gaussian/G09.D01/2/default/g09/l1.exe "/local/1744931.1.40core-192G.q/Gau-269639.inp" -scrdir="/local/1744931.1.40core-192G.q/"
 Entering Link 1 = /apps/applications/gaussian/G09.D01/2/default/g09/l1.exe PID=    269640.
  
 Copyright (c) 1988,1990,1992,1993,1995,1998,2003,2009,2013,
            Gaussian, Inc.  All Rights Reserved.
  
 This is part of the Gaussian(R) 09 program.  It is based on
 the Gaussian(R) 03 system (copyright 2003, Gaussian, Inc.),
 the Gaussian(R) 98 system (copyright 1998, Gaussian, Inc.),
 the Gaussian(R) 94 system (copyright 1995, Gaussian, Inc.),
 the Gaussian 92(TM) system (copyright 1992, Gaussian, Inc.),
 the Gaussian 90(TM) system (copyright 1990, Gaussian, Inc.),
 the Gaussian 88(TM) system (copyright 1988, Gaussian, Inc.),
 the Gaussian 86(TM) system (copyright 1986, Carnegie Mellon
 University), and the Gaussian 82(TM) system (copyright 1983,
 Carnegie Mellon University). Gaussian is a federally registered
 trademark of Gaussian, Inc.
  
 This software contains proprietary and confidential information,
 including trade secrets, belonging to Gaussian, Inc.
  
 This software is provided under written license and may be
 used, copied, transmitted, or stored only in accord with that
 written license.
  
 The following legend is applicable only to US Government
 contracts under FAR:
  
                    RESTRICTED RIGHTS LEGEND
  
 Use, reproduction and disclosure by the US Government is
 subject to restrictions as set forth in subparagraphs (a)
 and (c) of the Commercial Computer Software - Restricted
 Rights clause in FAR 52.227-19.
  
 Gaussian, Inc.
 340 Quinnipiac St., Bldg. 40, Wallingford CT 06492
  
  
 ---------------------------------------------------------------
 Warning -- This program may not be used in any manner that
 competes with the business of Gaussian, Inc. or will provide
 assistance to any competitor of Gaussian, Inc.  The licensee
 of this program is prohibited from giving any competitor of
 Gaussian, Inc. access to this program.  By using this program,
 the user acknowledges that Gaussian, Inc. is engaged in the
 business of creating and licensing software in the field of
 computational chemistry and represents and warrants to the
 licensee that it is not a competitor of Gaussian, Inc. and that
 it will not use this program in any manner prohibited above.
 ---------------------------------------------------------------
  

 Cite this work as:
 Gaussian 09, Revision D.01,
 M. J. Frisch, G. W. Trucks, H. B. Schlegel, G. E. Scuseria, 
 M. A. Robb, J. R. Cheeseman, G. Scalmani, V. Barone, B. Mennucci, 
 G. A. Petersson, H. Nakatsuji, M. Caricato, X. Li, H. P. Hratchian, 
 A. F. Izmaylov, J. Bloino, G. Zheng, J. L. Sonnenberg, M. Hada, 
 M. Ehara, K. Toyota, R. Fukuda, J. Hasegawa, M. Ishida, T. Nakajima, 
 Y. Honda, O. Kitao, H. Nakai, T. Vreven, J. A. Montgomery, Jr., 
 J. E. Peralta, F. Ogliaro, M. Bearpark, J. J. Heyd, E. Brothers, 
 K. N. Kudin, V. N. Staroverov, T. Keith, R. Kobayashi, J. Normand, 
 K. Raghavachari, A. Rendell, J. C. Burant, S. S. Iyengar, J. Tomasi, 
 M. Cossi, N. Rega, J. M. Millam, M. Klene, J. E. Knox, J. B. Cross, 
 V. Bakken, C. Adamo, J. Jaramillo, R. Gomperts, R. E. Stratmann, 
 O. Yazyev, A. J. Austin, R. Cammi, C. Pomelli, J. W. Ochterski, 
 R. L. Martin, K. Morokuma, V. G. Zakrzewski, G. A. Voth, 
 P. Salvador, J. J. Dannenberg, S. Dapprich, A. D. Daniels, 
 O. Farkas, J. B. Foresman, J. V. Ortiz, J. Cioslowski, 
 and D. J. Fox, Gaussian, Inc., Wallingford CT, 2013.
 
 ******************************************
 Gaussian 09:  ES64L-G09RevD.01 24-Apr-2013
                 3-Feb-2021 
 ******************************************
 %nprocshared=4
 Will use up to    4 processors via shared memory.
 %mem=8GB
 %chk=TS_job1_b3lyp_opt.chk
 ----------------------------------------------------------------------
 # opt=(calcfc,ts,noeigentest) b3lyp/6-31+g(d,p) scrf=(cpcm,solvent=tol
 uene) empiricaldispersion=gd3 int=superfine
 ----------------------------------------------------------------------
 1/5=1,10=4,11=1,14=-1,18=20,26=5,38=1/1,3;
 2/9=110,12=2,17=6,18=5,40=1/2;
 3/5=1,6=6,7=111,11=2,16=1,25=1,30=1,70=2101,71=2,72=13,74=-5,75=-7,124=31,140=1/1,2,3;
 4//1;
 5/5=2,38=5,53=13/2;
 8/6=4,10=90,11=11/1;
 11/6=1,8=1,9=11,15=111,16=1/1,2,10;
 10/6=1,13=1/2;
 6/7=2,8=2,9=2,10=2,28=1/1;
 7/10=1,18=20,25=1/1,2,3,16;
 1/5=1,10=4,11=1,14=-1,18=20,26=5/3(2);
 2/9=110/2;
 99//99;
 2/9=110/2;
 3/5=1,6=6,7=111,11=2,16=1,25=1,30=1,70=2105,71=1,72=13,74=-5,75=-7,124=31/1,2,3;
 4/5=5,16=3,69=1/1;
 5/5=2,38=5,53=13/2;
 7//1,2,3,16;
 1/5=1,11=1,14=-1,18=20,26=5/3(-5);
 2/9=110/2;
 6/7=2,8=2,9=2,10=2,19=2,28=1/1;
 99/9=1/99;
 -------------
 Opt superfine
 -------------
 Symbolic Z-matrix:
 Charge =  0 Multiplicity = 1
 C                     0.22123  -0.35265   1.2753 
 C                     0.68359  -1.8197    1.06629 
 C                    -1.62577  -1.92246   1.111 
 C                    -1.26793  -0.51575   1.52258 
 H                     0.82512   0.40715   1.75177 
 H                    -1.96057   0.30226   1.65586 
 C                    -0.46439  -2.50107   0.31208 
 H                    -0.3896   -3.58881   0.39386 
 H                    -0.50671  -2.20894  -0.73771 
 C                     0.30592  -1.76121   2.47829 
 H                     0.98104  -1.59359   3.30819 
 C                    -1.17485  -1.71653   2.53293 
 H                    -1.77686  -1.78534   3.42829 
 H                     1.71883  -1.98408   0.78773 
 H                    -2.66051  -2.14592   0.8841 
 N                    -0.91871   0.33588  -1.16225 
 N                     0.2035    0.63889  -0.55335 
 C                    -1.96236   1.20864  -0.88529 
 C                     1.3397   -0.01758  -1.11895 
 O                     1.34079  -0.83154  -2.02812 
 O                    -3.0849    1.04     -1.36251 
 O                     2.42443   0.45699  -0.50563 
 O                    -1.67219   2.27603  -0.10157 
 C                    -2.76508   3.18197   0.15263 
 H                    -2.34568   3.97367   0.77346 
 H                    -3.14942   3.5905   -0.78473 
 H                    -3.57224   2.66684   0.67991 
 C                     3.71373  -0.01416  -0.96256 
 H                     3.83178  -1.07281  -0.71948 
 H                     3.80094   0.13112  -2.0417 
 H                     4.43091   0.60449  -0.42752 
 O                     3.95873   2.75175   0.68039 
 H                     2.98026   2.77033   0.74421 
 H                     4.26296   3.51406   1.18754 
 O                     2.5201   -3.29379  -1.19954 
 H                     3.01769  -3.82797  -1.83088 
 H                     2.18448  -2.52973  -1.70211 
 O                     1.14706   2.8351    0.98916 
 H                     0.65416   3.65559   0.86737 
 H                     0.71912   2.1833    0.38577 
 O                    -4.35993  -1.48993  -1.23185 
 H                    -3.9331   -0.61281  -1.29518 
 H                    -4.32163  -1.84678  -2.12801 
 
 Add virtual bond connecting atoms O38        and H33        Dist= 3.50D+00.
 Add virtual bond connecting atoms H42        and O21        Dist= 3.51D+00.
 Add virtual bond connecting atoms H40        and N17        Dist= 3.55D+00.
 Add virtual bond connecting atoms H37        and O20        Dist= 3.64D+00.
 Add virtual bond connecting atoms N17        and C1         Dist= 3.93D+00.

 GradGradGradGradGradGradGradGradGradGradGradGradGradGradGradGradGradGrad
 Berny optimization.
 Initialization pass.
                           ----------------------------
                           !    Initial Parameters    !
                           ! (Angstroms and Degrees)  !
 --------------------------                            --------------------------
 ! Name  Definition              Value          Derivative Info.                !
 --------------------------------------------------------------------------------
 ! R1    R(1,2)                  1.5523         calculate D2E/DX2 analytically  !
 ! R2    R(1,4)                  1.5183         calculate D2E/DX2 analytically  !
 ! R3    R(1,5)                  1.0812         calculate D2E/DX2 analytically  !
 ! R4    R(1,17)                 2.0803         calculate D2E/DX2 analytically  !
 ! R5    R(2,7)                  1.5333         calculate D2E/DX2 analytically  !
 ! R6    R(2,10)                 1.4628         calculate D2E/DX2 analytically  !
 ! R7    R(2,14)                 1.0846         calculate D2E/DX2 analytically  !
 ! R8    R(3,4)                  1.5087         calculate D2E/DX2 analytically  !
 ! R9    R(3,7)                  1.5238         calculate D2E/DX2 analytically  !
 ! R10   R(3,12)                 1.5059         calculate D2E/DX2 analytically  !
 ! R11   R(3,15)                 1.0826         calculate D2E/DX2 analytically  !
 ! R12   R(4,6)                  1.0801         calculate D2E/DX2 analytically  !
 ! R13   R(4,12)                 1.572          calculate D2E/DX2 analytically  !
 ! R14   R(7,8)                  1.0934         calculate D2E/DX2 analytically  !
 ! R15   R(7,9)                  1.0905         calculate D2E/DX2 analytically  !
 ! R16   R(10,11)                1.0829         calculate D2E/DX2 analytically  !
 ! R17   R(10,12)                1.4825         calculate D2E/DX2 analytically  !
 ! R18   R(12,13)                1.0811         calculate D2E/DX2 analytically  !
 ! R19   R(16,17)                1.3122         calculate D2E/DX2 analytically  !
 ! R20   R(16,18)                1.3884         calculate D2E/DX2 analytically  !
 ! R21   R(17,19)                1.4289         calculate D2E/DX2 analytically  !
 ! R22   R(17,40)                1.8796         calculate D2E/DX2 analytically  !
 ! R23   R(18,21)                1.2314         calculate D2E/DX2 analytically  !
 ! R24   R(18,23)                1.3556         calculate D2E/DX2 analytically  !
 ! R25   R(19,20)                1.2203         calculate D2E/DX2 analytically  !
 ! R26   R(19,22)                1.3334         calculate D2E/DX2 analytically  !
 ! R27   R(20,37)                1.924          calculate D2E/DX2 analytically  !
 ! R28   R(21,42)                1.859          calculate D2E/DX2 analytically  !
 ! R29   R(22,28)                1.4467         calculate D2E/DX2 analytically  !
 ! R30   R(23,24)                1.4421         calculate D2E/DX2 analytically  !
 ! R31   R(24,25)                1.09           calculate D2E/DX2 analytically  !
 ! R32   R(24,26)                1.0924         calculate D2E/DX2 analytically  !
 ! R33   R(24,27)                1.0931         calculate D2E/DX2 analytically  !
 ! R34   R(28,29)                1.0926         calculate D2E/DX2 analytically  !
 ! R35   R(28,30)                1.0924         calculate D2E/DX2 analytically  !
 ! R36   R(28,31)                1.0878         calculate D2E/DX2 analytically  !
 ! R37   R(32,33)                0.9807         calculate D2E/DX2 analytically  !
 ! R38   R(32,34)                0.9648         calculate D2E/DX2 analytically  !
 ! R39   R(33,38)                1.8506         calculate D2E/DX2 analytically  !
 ! R40   R(35,36)                0.9652         calculate D2E/DX2 analytically  !
 ! R41   R(35,37)                0.9742         calculate D2E/DX2 analytically  !
 ! R42   R(38,39)                0.9649         calculate D2E/DX2 analytically  !
 ! R43   R(38,40)                0.9859         calculate D2E/DX2 analytically  !
 ! R44   R(41,42)                0.9775         calculate D2E/DX2 analytically  !
 ! R45   R(41,43)                0.9654         calculate D2E/DX2 analytically  !
 ! A1    A(2,1,4)              102.2708         calculate D2E/DX2 analytically  !
 ! A2    A(2,1,5)              123.8562         calculate D2E/DX2 analytically  !
 ! A3    A(2,1,17)             109.5507         calculate D2E/DX2 analytically  !
 ! A4    A(4,1,5)              123.4715         calculate D2E/DX2 analytically  !
 ! A5    A(4,1,17)             100.7196         calculate D2E/DX2 analytically  !
 ! A6    A(5,1,17)              93.2786         calculate D2E/DX2 analytically  !
 ! A7    A(1,2,7)              105.2606         calculate D2E/DX2 analytically  !
 ! A8    A(1,2,10)              75.8384         calculate D2E/DX2 analytically  !
 ! A9    A(1,2,14)             117.5236         calculate D2E/DX2 analytically  !
 ! A10   A(7,2,10)             107.414          calculate D2E/DX2 analytically  !
 ! A11   A(7,2,14)             121.3959         calculate D2E/DX2 analytically  !
 ! A12   A(10,2,14)            120.0272         calculate D2E/DX2 analytically  !
 ! A13   A(4,3,7)              108.4397         calculate D2E/DX2 analytically  !
 ! A14   A(4,3,15)             118.4444         calculate D2E/DX2 analytically  !
 ! A15   A(7,3,12)             108.5895         calculate D2E/DX2 analytically  !
 ! A16   A(7,3,15)             122.6969         calculate D2E/DX2 analytically  !
 ! A17   A(12,3,15)            120.8181         calculate D2E/DX2 analytically  !
 ! A18   A(1,4,3)              106.7593         calculate D2E/DX2 analytically  !
 ! A19   A(1,4,6)              124.589          calculate D2E/DX2 analytically  !
 ! A20   A(1,4,12)              97.3918         calculate D2E/DX2 analytically  !
 ! A21   A(3,4,6)              125.993          calculate D2E/DX2 analytically  !
 ! A22   A(6,4,12)             122.4884         calculate D2E/DX2 analytically  !
 ! A23   A(2,7,3)               98.2792         calculate D2E/DX2 analytically  !
 ! A24   A(2,7,8)              110.738          calculate D2E/DX2 analytically  !
 ! A25   A(2,7,9)              112.5527         calculate D2E/DX2 analytically  !
 ! A26   A(3,7,8)              112.9976         calculate D2E/DX2 analytically  !
 ! A27   A(3,7,9)              111.9273         calculate D2E/DX2 analytically  !
 ! A28   A(8,7,9)              109.948          calculate D2E/DX2 analytically  !
 ! A29   A(2,10,11)            125.8023         calculate D2E/DX2 analytically  !
 ! A30   A(2,10,12)            107.1378         calculate D2E/DX2 analytically  !
 ! A31   A(11,10,12)           126.1455         calculate D2E/DX2 analytically  !
 ! A32   A(3,12,10)            105.0805         calculate D2E/DX2 analytically  !
 ! A33   A(3,12,13)            127.3427         calculate D2E/DX2 analytically  !
 ! A34   A(4,12,10)             93.3522         calculate D2E/DX2 analytically  !
 ! A35   A(4,12,13)            123.2244         calculate D2E/DX2 analytically  !
 ! A36   A(10,12,13)           125.7893         calculate D2E/DX2 analytically  !
 ! A37   A(17,16,18)           113.8995         calculate D2E/DX2 analytically  !
 ! A38   A(1,17,16)            107.7658         calculate D2E/DX2 analytically  !
 ! A39   A(1,17,19)             97.0185         calculate D2E/DX2 analytically  !
 ! A40   A(1,17,40)             87.1397         calculate D2E/DX2 analytically  !
 ! A41   A(16,17,19)           112.9704         calculate D2E/DX2 analytically  !
 ! A42   A(16,17,40)           131.0081         calculate D2E/DX2 analytically  !
 ! A43   A(19,17,40)           110.9236         calculate D2E/DX2 analytically  !
 ! A44   A(16,18,21)           121.4572         calculate D2E/DX2 analytically  !
 ! A45   A(16,18,23)           116.7037         calculate D2E/DX2 analytically  !
 ! A46   A(21,18,23)           121.8043         calculate D2E/DX2 analytically  !
 ! A47   A(17,19,20)           127.017          calculate D2E/DX2 analytically  !
 ! A48   A(17,19,22)           107.5344         calculate D2E/DX2 analytically  !
 ! A49   A(20,19,22)           125.4054         calculate D2E/DX2 analytically  !
 ! A50   A(19,20,37)           117.5729         calculate D2E/DX2 analytically  !
 ! A51   A(18,21,42)           121.5796         calculate D2E/DX2 analytically  !
 ! A52   A(19,22,28)           117.6316         calculate D2E/DX2 analytically  !
 ! A53   A(18,23,24)           115.7417         calculate D2E/DX2 analytically  !
 ! A54   A(23,24,25)           105.3713         calculate D2E/DX2 analytically  !
 ! A55   A(23,24,26)           110.5063         calculate D2E/DX2 analytically  !
 ! A56   A(23,24,27)           110.3999         calculate D2E/DX2 analytically  !
 ! A57   A(25,24,26)           110.6401         calculate D2E/DX2 analytically  !
 ! A58   A(25,24,27)           110.5893         calculate D2E/DX2 analytically  !
 ! A59   A(26,24,27)           109.2904         calculate D2E/DX2 analytically  !
 ! A60   A(22,28,29)           109.9724         calculate D2E/DX2 analytically  !
 ! A61   A(22,28,30)           109.8678         calculate D2E/DX2 analytically  !
 ! A62   A(22,28,31)           104.2992         calculate D2E/DX2 analytically  !
 ! A63   A(29,28,30)           109.8785         calculate D2E/DX2 analytically  !
 ! A64   A(29,28,31)           111.7392         calculate D2E/DX2 analytically  !
 ! A65   A(30,28,31)           110.954          calculate D2E/DX2 analytically  !
 ! A66   A(33,32,34)           105.3923         calculate D2E/DX2 analytically  !
 ! A67   A(36,35,37)           105.9171         calculate D2E/DX2 analytically  !
 ! A68   A(20,37,35)           158.5497         calculate D2E/DX2 analytically  !
 ! A69   A(33,38,39)           121.2717         calculate D2E/DX2 analytically  !
 ! A70   A(33,38,40)           109.0154         calculate D2E/DX2 analytically  !
 ! A71   A(39,38,40)           105.2596         calculate D2E/DX2 analytically  !
 ! A72   A(42,41,43)           104.7279         calculate D2E/DX2 analytically  !
 ! A73   L(32,33,38,14,-1)     180.9864         calculate D2E/DX2 analytically  !
 ! A74   L(17,40,38,5,-1)      168.0116         calculate D2E/DX2 analytically  !
 ! A75   L(21,42,41,2,-1)      178.1676         calculate D2E/DX2 analytically  !
 ! A76   L(32,33,38,14,-2)     176.033          calculate D2E/DX2 analytically  !
 ! A77   L(17,40,38,5,-2)      171.5491         calculate D2E/DX2 analytically  !
 ! A78   L(21,42,41,2,-2)      179.0886         calculate D2E/DX2 analytically  !
 ! D1    D(4,1,2,7)             36.4906         calculate D2E/DX2 analytically  !
 ! D2    D(4,1,2,10)           -68.0517         calculate D2E/DX2 analytically  !
 ! D3    D(4,1,2,14)           175.174          calculate D2E/DX2 analytically  !
 ! D4    D(5,1,2,7)           -177.8626         calculate D2E/DX2 analytically  !
 ! D5    D(5,1,2,10)            77.5952         calculate D2E/DX2 analytically  !
 ! D6    D(5,1,2,14)           -39.1792         calculate D2E/DX2 analytically  !
 ! D7    D(17,1,2,7)           -69.7241         calculate D2E/DX2 analytically  !
 ! D8    D(17,1,2,10)         -174.2663         calculate D2E/DX2 analytically  !
 ! D9    D(17,1,2,14)           68.9594         calculate D2E/DX2 analytically  !
 ! D10   D(2,1,4,3)            -13.8277         calculate D2E/DX2 analytically  !
 ! D11   D(2,1,4,6)           -176.2279         calculate D2E/DX2 analytically  !
 ! D12   D(2,1,4,12)            45.4082         calculate D2E/DX2 analytically  !
 ! D13   D(5,1,4,3)           -159.6491         calculate D2E/DX2 analytically  !
 ! D14   D(5,1,4,6)             37.9507         calculate D2E/DX2 analytically  !
 ! D15   D(5,1,4,12)          -100.4132         calculate D2E/DX2 analytically  !
 ! D16   D(17,1,4,3)            99.1095         calculate D2E/DX2 analytically  !
 ! D17   D(17,1,4,6)           -63.2907         calculate D2E/DX2 analytically  !
 ! D18   D(17,1,4,12)          158.3454         calculate D2E/DX2 analytically  !
 ! D19   D(2,1,17,16)           81.7936         calculate D2E/DX2 analytically  !
 ! D20   D(2,1,17,19)          -35.1003         calculate D2E/DX2 analytically  !
 ! D21   D(2,1,17,40)         -145.8396         calculate D2E/DX2 analytically  !
 ! D22   D(4,1,17,16)          -25.4699         calculate D2E/DX2 analytically  !
 ! D23   D(4,1,17,19)         -142.3638         calculate D2E/DX2 analytically  !
 ! D24   D(4,1,17,40)          106.8969         calculate D2E/DX2 analytically  !
 ! D25   D(5,1,17,16)         -150.4354         calculate D2E/DX2 analytically  !
 ! D26   D(5,1,17,19)           92.6708         calculate D2E/DX2 analytically  !
 ! D27   D(5,1,17,40)          -18.0685         calculate D2E/DX2 analytically  !
 ! D28   D(1,2,7,3)            -43.3363         calculate D2E/DX2 analytically  !
 ! D29   D(1,2,7,8)           -161.8426         calculate D2E/DX2 analytically  !
 ! D30   D(1,2,7,9)             74.6358         calculate D2E/DX2 analytically  !
 ! D31   D(10,2,7,3)            36.2818         calculate D2E/DX2 analytically  !
 ! D32   D(10,2,7,8)           -82.2245         calculate D2E/DX2 analytically  !
 ! D33   D(10,2,7,9)           154.2539         calculate D2E/DX2 analytically  !
 ! D34   D(14,2,7,3)           179.9719         calculate D2E/DX2 analytically  !
 ! D35   D(14,2,7,8)            61.4657         calculate D2E/DX2 analytically  !
 ! D36   D(14,2,7,9)           -62.056          calculate D2E/DX2 analytically  !
 ! D37   D(1,2,10,11)          -95.7905         calculate D2E/DX2 analytically  !
 ! D38   D(1,2,10,12)           73.7767         calculate D2E/DX2 analytically  !
 ! D39   D(7,2,10,11)          162.3591         calculate D2E/DX2 analytically  !
 ! D40   D(7,2,10,12)          -28.0737         calculate D2E/DX2 analytically  !
 ! D41   D(14,2,10,11)          18.0779         calculate D2E/DX2 analytically  !
 ! D42   D(14,2,10,12)        -172.3548         calculate D2E/DX2 analytically  !
 ! D43   D(7,3,4,1)            -13.4812         calculate D2E/DX2 analytically  !
 ! D44   D(7,3,4,6)            148.6007         calculate D2E/DX2 analytically  !
 ! D45   D(15,3,4,1)          -159.3983         calculate D2E/DX2 analytically  !
 ! D46   D(15,3,4,6)             2.6836         calculate D2E/DX2 analytically  !
 ! D47   D(4,3,7,2)             34.7165         calculate D2E/DX2 analytically  !
 ! D48   D(4,3,7,8)            151.4909         calculate D2E/DX2 analytically  !
 ! D49   D(4,3,7,9)            -83.7324         calculate D2E/DX2 analytically  !
 ! D50   D(12,3,7,2)           -32.0095         calculate D2E/DX2 analytically  !
 ! D51   D(12,3,7,8)            84.765          calculate D2E/DX2 analytically  !
 ! D52   D(12,3,7,9)          -150.4583         calculate D2E/DX2 analytically  !
 ! D53   D(15,3,7,2)           178.8766         calculate D2E/DX2 analytically  !
 ! D54   D(15,3,7,8)           -64.3489         calculate D2E/DX2 analytically  !
 ! D55   D(15,3,7,9)            60.4278         calculate D2E/DX2 analytically  !
 ! D56   D(7,3,12,10)           17.0375         calculate D2E/DX2 analytically  !
 ! D57   D(7,3,12,13)         -148.2948         calculate D2E/DX2 analytically  !
 ! D58   D(15,3,12,10)         166.8377         calculate D2E/DX2 analytically  !
 ! D59   D(15,3,12,13)           1.5053         calculate D2E/DX2 analytically  !
 ! D60   D(1,4,12,10)            0.4723         calculate D2E/DX2 analytically  !
 ! D61   D(1,4,12,13)          138.0887         calculate D2E/DX2 analytically  !
 ! D62   D(6,4,12,10)         -139.1034         calculate D2E/DX2 analytically  !
 ! D63   D(6,4,12,13)           -1.487          calculate D2E/DX2 analytically  !
 ! D64   D(2,10,12,3)            6.7503         calculate D2E/DX2 analytically  !
 ! D65   D(2,10,12,4)          -51.6593         calculate D2E/DX2 analytically  !
 ! D66   D(2,10,12,13)         172.381          calculate D2E/DX2 analytically  !
 ! D67   D(11,10,12,3)         176.2716         calculate D2E/DX2 analytically  !
 ! D68   D(11,10,12,4)         117.862          calculate D2E/DX2 analytically  !
 ! D69   D(11,10,12,13)        -18.0977         calculate D2E/DX2 analytically  !
 ! D70   D(18,16,17,1)          90.4644         calculate D2E/DX2 analytically  !
 ! D71   D(18,16,17,19)       -163.5636         calculate D2E/DX2 analytically  !
 ! D72   D(18,16,17,40)        -11.6091         calculate D2E/DX2 analytically  !
 ! D73   D(17,16,18,21)       -178.5718         calculate D2E/DX2 analytically  !
 ! D74   D(17,16,18,23)          3.5382         calculate D2E/DX2 analytically  !
 ! D75   D(1,17,19,20)         109.415          calculate D2E/DX2 analytically  !
 ! D76   D(1,17,19,22)         -72.8897         calculate D2E/DX2 analytically  !
 ! D77   D(16,17,19,20)         -3.2965         calculate D2E/DX2 analytically  !
 ! D78   D(16,17,19,22)        174.3988         calculate D2E/DX2 analytically  !
 ! D79   D(40,17,19,20)       -160.9722         calculate D2E/DX2 analytically  !
 ! D80   D(40,17,19,22)         16.7231         calculate D2E/DX2 analytically  !
 ! D81   D(1,17,38,33)          96.9385         calculate D2E/DX2 analytically  !
 ! D82   D(1,17,38,39)        -128.9452         calculate D2E/DX2 analytically  !
 ! D83   D(16,17,38,33)       -154.158          calculate D2E/DX2 analytically  !
 ! D84   D(16,17,38,39)        -20.0417         calculate D2E/DX2 analytically  !
 ! D85   D(19,17,38,33)          1.5948         calculate D2E/DX2 analytically  !
 ! D86   D(19,17,38,39)        135.7112         calculate D2E/DX2 analytically  !
 ! D87   D(16,18,21,42)         48.4531         calculate D2E/DX2 analytically  !
 ! D88   D(23,18,21,42)       -133.765          calculate D2E/DX2 analytically  !
 ! D89   D(16,18,23,24)        178.9033         calculate D2E/DX2 analytically  !
 ! D90   D(21,18,23,24)          1.0212         calculate D2E/DX2 analytically  !
 ! D91   D(17,19,20,37)       -125.2431         calculate D2E/DX2 analytically  !
 ! D92   D(22,19,20,37)         57.4534         calculate D2E/DX2 analytically  !
 ! D93   D(17,19,22,28)       -176.8635         calculate D2E/DX2 analytically  !
 ! D94   D(20,19,22,28)          0.8788         calculate D2E/DX2 analytically  !
 ! D95   D(19,20,37,35)         25.8524         calculate D2E/DX2 analytically  !
 ! D96   D(18,21,41,43)       -106.5898         calculate D2E/DX2 analytically  !
 ! D97   D(19,22,28,29)        -67.9175         calculate D2E/DX2 analytically  !
 ! D98   D(19,22,28,30)         53.1474         calculate D2E/DX2 analytically  !
 ! D99   D(19,22,28,31)        172.1279         calculate D2E/DX2 analytically  !
 ! D100  D(18,23,24,25)       -178.9767         calculate D2E/DX2 analytically  !
 ! D101  D(18,23,24,26)        -59.4305         calculate D2E/DX2 analytically  !
 ! D102  D(18,23,24,27)         61.5937         calculate D2E/DX2 analytically  !
 ! D103  D(34,32,38,39)         47.1739         calculate D2E/DX2 analytically  !
 ! D104  D(34,32,38,40)        170.6182         calculate D2E/DX2 analytically  !
 ! D105  D(36,35,37,20)       -172.273          calculate D2E/DX2 analytically  !
 --------------------------------------------------------------------------------
 Trust Radius=3.00D-01 FncErr=1.00D-07 GrdErr=1.00D-07
 Number of steps in this run=    238 maximum allowed number of steps=    258.
 Search for a saddle point of order  1.
 GradGradGradGradGradGradGradGradGradGradGradGradGradGradGradGradGradGrad

                          Input orientation:                          
 ---------------------------------------------------------------------
 Center     Atomic      Atomic             Coordinates (Angstroms)
 Number     Number       Type             X           Y           Z
 ---------------------------------------------------------------------
      1          6           0        0.221233   -0.352650    1.275302
      2          6           0        0.683587   -1.819696    1.066290
      3          6           0       -1.625768   -1.922455    1.110999
      4          6           0       -1.267930   -0.515753    1.522578
      5          1           0        0.825123    0.407148    1.751770
      6          1           0       -1.960574    0.302256    1.655864
      7          6           0       -0.464391   -2.501070    0.312081
      8          1           0       -0.389600   -3.588813    0.393859
      9          1           0       -0.506707   -2.208935   -0.737709
     10          6           0        0.305915   -1.761205    2.478293
     11          1           0        0.981039   -1.593588    3.308192
     12          6           0       -1.174855   -1.716525    2.532929
     13          1           0       -1.776857   -1.785335    3.428291
     14          1           0        1.718829   -1.984079    0.787726
     15          1           0       -2.660508   -2.145918    0.884102
     16          7           0       -0.918710    0.335884   -1.162252
     17          7           0        0.203499    0.638892   -0.553353
     18          6           0       -1.962362    1.208639   -0.885289
     19          6           0        1.339704   -0.017578   -1.118948
     20          8           0        1.340793   -0.831541   -2.028116
     21          8           0       -3.084896    1.039997   -1.362508
     22          8           0        2.424429    0.456990   -0.505627
     23          8           0       -1.672189    2.276029   -0.101571
     24          6           0       -2.765084    3.181972    0.152633
     25          1           0       -2.345676    3.973668    0.773462
     26          1           0       -3.149424    3.590495   -0.784731
     27          1           0       -3.572239    2.666840    0.679907
     28          6           0        3.713729   -0.014163   -0.962560
     29          1           0        3.831779   -1.072813   -0.719479
     30          1           0        3.800943    0.131119   -2.041704
     31          1           0        4.430907    0.604487   -0.427524
     32          8           0        3.958729    2.751750    0.680386
     33          1           0        2.980262    2.770325    0.744211
     34          1           0        4.262962    3.514063    1.187543
     35          8           0        2.520100   -3.293786   -1.199537
     36          1           0        3.017695   -3.827968   -1.830875
     37          1           0        2.184478   -2.529729   -1.702111
     38          8           0        1.147063    2.835104    0.989156
     39          1           0        0.654157    3.655594    0.867374
     40          1           0        0.719115    2.183301    0.385765
     41          8           0       -4.359925   -1.489925   -1.231853
     42          1           0       -3.933101   -0.612805   -1.295183
     43          1           0       -4.321631   -1.846775   -2.128013
 ---------------------------------------------------------------------
                    Distance matrix (angstroms):
                    1          2          3          4          5
     1  C    0.000000
     2  C    1.552315   0.000000
     3  C    2.429546   2.312072   0.000000
     4  C    1.518339   2.391001   1.508727   0.000000
     5  H    1.081202   2.334256   3.441585   2.298945   0.000000
     6  H    2.309548   3.441201   2.314803   1.080120   2.789320
     7  C    2.452261   1.533283   1.523766   2.460175   3.491888
     8  H    3.409224   2.175700   2.195256   3.389568   4.391717
     9  H    2.833356   2.196069   2.179929   2.924931   3.849048
    10  C    1.854288   1.462809   2.372107   2.222955   2.345030
    11  H    2.499975   2.272824   3.425092   3.067247   2.539627
    12  C    2.321819   2.369701   1.505860   1.572045   3.019952
    13  H    3.268075   3.410867   2.326257   2.345759   3.793152
    14  H    2.267617   1.084595   3.360749   3.408331   2.728747
    15  H    3.416618   3.364905   1.082638   2.237043   4.406883
    16  N    2.777628   3.490026   3.281417   2.838230   3.396698
    17  N    2.080252   2.983016   3.560447   2.794244   2.398690
    18  C    3.445847   4.469957   3.728567   3.041971   3.920018
    19  C    2.663772   2.907470   4.170761   3.745076   2.947237
    20  O    3.520699   3.314169   4.454730   4.417305   4.010961
    21  O    4.452864   5.317741   4.125944   3.747725   5.038598
    22  O    2.946404   3.268754   4.967830   4.323582   2.766967
    23  O    3.520054   4.867088   4.370326   3.255047   3.628244
    24  C    4.761515   6.143678   5.317112   4.217984   4.811078
    25  H    5.055481   6.544100   5.949493   4.677351   4.871460
    26  H    5.581528   6.883925   6.025607   5.071979   5.688986
    27  H    4.884900   6.195995   5.003621   4.018561   5.058843
    28  C    4.161746   4.069145   6.037504   5.589672   3.986118
    29  H    4.187341   3.695662   5.818708   5.598586   4.163813
    30  H    4.904170   4.814895   6.603476   6.230251   4.829300
    31  H    4.640806   4.706437   6.740608   6.126547   4.217813
    32  O    4.894906   5.636807   7.295219   6.221240   4.057648
    33  H    4.200866   5.142640   6.585760   5.426905   3.353268
    34  H    5.594171   6.424610   8.014907   6.851455   4.667977
    35  O    4.478828   3.267980   4.940379   5.429231   5.027929
    36  H    5.435657   4.227858   5.817848   6.370479   5.964807
    37  H    4.178396   3.228136   4.774971   5.135547   4.733116
    38  O    3.331789   4.678453   5.507976   4.164730   2.565189
    39  H    4.052141   5.478981   6.030924   4.639380   3.371022
    40  H    2.733168   4.060586   4.783479   3.539150   2.243196
    41  O    5.344738   5.552227   3.626521   4.253979   6.275796
    42  H    4.892194   5.324185   3.581715   3.879734   5.741509
    43  H    5.869632   5.937719   4.214808   4.942016   6.828028
                    6          7          8          9         10
     6  H    0.000000
     7  C    3.450066   0.000000
     8  H    4.381898   1.093374   0.000000
     9  H    3.761516   1.090501   1.788358   0.000000
    10  C    3.173521   2.415211   2.858104   3.347161   0.000000
    11  H    3.870077   3.448111   3.788524   4.354464   1.082876
    12  C    2.337108   2.460170   2.949188   3.374309   1.482451
    13  H    2.744683   3.456242   3.792729   4.375874   2.289327
    14  H    4.418031   2.293462   2.678764   2.707494   2.214501
    15  H    2.660654   2.297013   2.734832   2.696869   3.389560
    16  N    3.004728   3.229299   4.254960   2.612678   4.376192
    17  N    3.110816   3.324818   4.372924   2.940833   3.868053
    18  C    2.697961   4.176069   5.208200   3.717596   5.027797
    19  C    4.323622   3.386788   4.246504   2.890782   4.129055
    20  O    5.075059   3.394486   4.057434   2.641140   4.716245
    21  O    3.304381   4.712796   5.636961   4.194400   5.839185
    22  O    4.891241   4.214742   5.009626   3.968952   4.279284
    23  O    2.658481   4.944751   6.023857   4.677384   5.183421
    24  C    3.346596   6.133154   7.179460   5.912263   6.266955
    25  H    3.795550   6.758279   7.820579   6.624955   6.544169
    26  H    4.264081   6.746819   7.781270   6.373347   7.157331
    27  H    3.023444   6.041631   7.024543   5.931299   6.154824
    28  C    6.257314   5.026540   5.608503   4.762317   5.148283
    29  H    6.409713   4.643394   5.038831   4.484815   4.809506
    30  H    6.848093   5.537310   6.109870   5.072682   6.018844
    31  H    6.729255   5.844266   6.441717   5.691361   5.572776
    32  O    6.479948   6.876900   7.693686   6.823453   6.078016
    33  H    5.597708   6.311892   7.205370   6.256842   5.540211
    34  H    7.019076   7.700398   8.528019   7.694741   6.719577
    35  O    6.415705   3.438106   3.330511   3.248345   4.558273
    36  H    7.348419   4.298586   4.076309   4.029602   5.494924
    37  H    6.039668   3.327807   3.484340   2.876709   4.647086
    38  O    4.064139   5.615155   6.631924   5.582056   4.904194
    39  H    4.324744   6.282039   7.334513   6.190040   5.661982
    40  H    3.511725   4.832127   5.877637   4.696442   4.484254
    41  O    4.160253   4.310607   4.776165   3.950752   5.967314
    42  H    3.665635   4.263894   4.926042   3.820809   5.790268
    43  H    4.950823   4.610907   4.985519   4.076487   6.529897
                   11         12         13         14         15
    11  H    0.000000
    12  C    2.294346   0.000000
    13  H    2.767161   1.081117   0.000000
    14  H    2.655102   3.389797   4.385419   0.000000
    15  H    4.409325   2.260569   2.717307   4.383386   0.000000
    16  N    5.226546   4.234661   5.129237   4.017618   3.657973
    17  N    4.527700   4.119828   5.064798   3.312808   4.245466
    18  C    5.839638   4.567381   5.254071   5.152048   3.856320
    19  C    4.712963   4.748224   5.789240   2.765189   4.954164
    20  O    5.402437   5.283447   6.356244   3.065978   5.120450
    21  O    6.729267   5.140146   5.713600   6.069952   3.921405
    22  O    4.564369   5.187662   6.176936   2.851219   5.879036
    23  O    5.800003   4.809201   5.381966   5.517098   4.637019
    24  C    6.840831   5.673615   6.031639   6.870000   5.378884
    25  H    6.963205   6.069995   6.366929   7.212153   6.128678
    26  H    7.790216   6.562793   6.966566   7.566266   5.994204
    27  H    6.766939   5.328699   5.531625   7.045429   4.902610
    28  C    5.310509   6.246177   7.250045   3.305102   6.970325
    29  H    4.961860   6.004907   7.012024   2.750751   6.772947
    30  H    6.288709   7.007112   8.043973   4.100602   7.449536
    31  H    5.539738   6.750996   7.688621   3.941177   7.718371
    32  O    5.886762   7.053445   7.812366   5.239919   8.236683
    33  H    5.441932   6.371525   7.112560   4.919092   7.483803
    34  H    6.430884   7.664135   8.341702   6.071411   8.947731
    35  O    5.057569   5.483771   6.492770   2.511291   5.700689
    36  H    5.962418   6.409247   7.403979   3.456017   6.514782
    37  H    5.237152   5.466442   6.524364   2.591110   5.505424
    38  O    5.001880   5.337777   5.987248   4.857161   6.270503
    39  H    5.798134   5.914306   6.486280   5.739842   6.681678
    40  H    4.782685   4.837983   5.588999   4.304423   5.514737
    41  O    7.010610   4.936558   5.336333   6.424495   2.792062
    42  H    6.804540   4.845674   5.323103   6.177638   2.952831
    43  H    7.598338   5.625260   6.111642   6.708766   3.452775
                   16         17         18         19         20
    16  N    0.000000
    17  N    1.312221   0.000000
    18  C    1.388387   2.264011   0.000000
    19  C    2.286317   1.428920   3.530134   0.000000
    20  O    2.686625   2.372875   4.047125   1.220296   0.000000
    21  O    2.286534   3.410155   1.231365   4.555751   4.851022
    22  O    3.409164   2.228878   4.466884   1.333419   2.269923
    23  O    2.336009   2.530322   1.355631   3.920101   4.737787
    24  C    3.638439   3.972173   2.369744   5.357548   6.141838
    25  H    4.360813   4.402211   3.247117   5.752676   6.673000
    26  H    3.963723   4.472984   2.663168   5.769069   6.423586
    27  H    3.983481   4.459787   2.677292   5.879555   6.611349
    28  C    4.649936   3.593834   5.806826   2.379173   2.726599
    29  H    4.974698   4.015215   6.229333   2.735605   2.824138
    30  H    4.805256   3.926146   5.976122   2.632734   2.641825
    31  H    5.406512   4.229420   6.438046   3.228090   3.764688
    32  O    5.746402   4.481968   6.315999   4.214982   5.198995
    33  H    4.976252   3.733241   5.433568   3.732987   4.831883
    34  H    6.517061   5.270348   6.954586   5.132039   6.145226
    35  O    5.000131   4.609789   6.361057   3.483298   2.853061
    36  H    5.768882   5.431814   7.145804   4.223928   3.439401
    37  H    4.258282   3.909486   5.642595   2.713784   1.924039
    38  O    3.891282   2.844819   3.978374   3.552324   4.752446
    39  H    4.196876   3.364825   3.988181   4.231742   5.384209
    40  H    2.914065   1.879628   3.123438   2.737364   3.911851
    41  O    3.896201   5.081049   3.626384   5.887811   5.793590
    42  H    3.162947   4.385033   2.714679   5.309221   5.329071
    43  H    4.156509   5.397675   4.055375   6.034475   5.753584
                   21         22         23         24         25
    21  O    0.000000
    22  O    5.605961   0.000000
    23  O    2.261300   4.500494   0.000000
    24  C    2.643102   5.898295   1.442141   0.000000
    25  H    3.703409   6.062755   2.025153   1.090007   0.000000
    26  H    2.615919   6.400359   2.092069   1.092364   1.794658
    27  H    2.656234   6.499920   2.091323   1.093105   1.794717
    28  C    6.891481   1.446744   5.915606   7.309853   7.458750
    29  H    7.260706   2.089656   6.472265   7.898251   8.115220
    30  H    6.978692   2.088185   6.190309   7.565417   7.776327
    31  H    7.586248   2.013407   6.336251   7.665657   7.662625
    32  O    7.531014   3.004435   5.704823   6.758201   6.422404
    33  H    6.649695   2.687483   4.754469   5.790373   5.460266
    34  H    8.161788   3.948762   6.198432   7.111593   6.637529
    35  O    7.086904   3.815624   7.057171   8.467407   8.965734
    36  H    7.820362   4.524280   7.889505   9.301295   9.819055
    37  H    6.373741   3.226398   6.366390   7.782144   8.303308
    38  O    5.163546   3.085687   3.074156   4.015592   3.679956
    39  H    5.078803   3.905133   2.872967   3.525107   3.018110
    40  H    4.339827   2.585116   2.442218   3.631988   3.570528
    41  O    2.836067   7.095445   4.762759   5.127079   6.158680
    42  H    1.858962   6.495079   3.857693   4.226200   5.275883
    43  H    3.232486   7.310868   5.303162   5.736940   6.797096
                   26         27         28         29         30
    26  H    0.000000
    27  H    1.782435   0.000000
    28  C    7.754228   7.935415   0.000000
    29  H    8.395707   8.412061   1.092595   0.000000
    30  H    7.864786   8.258381   1.092367   1.788486   0.000000
    31  H    8.155076   8.338468   1.087812   1.804862   1.796249
    32  O    7.305881   7.531447   3.226387   4.074680   3.781848
    33  H    6.370510   6.553634   3.347300   4.199664   3.924315
    34  H    7.670670   7.897206   4.168091   4.986189   4.699554
    35  O    8.927984   8.727999   3.498119   2.623677   3.752303
    36  H    9.703678   9.587168   3.972851   3.080392   4.041324
    37  H    8.170021   8.112837   3.035394   2.408686   3.131836
    38  O    4.709256   4.732416   4.302940   5.039737   4.851879
    39  H    4.147399   4.344560   5.116322   5.913816   5.548596
    40  H    4.279702   4.328516   3.951524   4.638159   4.427383
    41  O    5.241746   4.642625   8.211838   8.218304   8.359630
    42  H    4.306094   3.845422   7.677436   7.799769   7.805521
    43  H    5.722096   5.368307   8.323687   8.310300   8.360366
                   31         32         33         34         35
    31  H    0.000000
    32  O    2.461941   0.000000
    33  H    2.858004   0.980722   0.000000
    34  H    3.332008   0.964825   1.547582   0.000000
    35  O    4.409503   6.492478   6.384618   7.421760   0.000000
    36  H    4.859344   7.105256   7.083074   8.035357   0.965163
    37  H    4.061321   6.059561   5.891378   7.014101   0.974169
    38  O    4.215005   2.829797   1.850625   3.195179   6.651233
    39  H    5.024923   3.431049   2.491914   3.625743   7.486504
    40  H    4.114789   3.302277   2.363444   3.869448   5.979566
    41  O    9.072609   9.531446   8.713949  10.259023   7.112644
    42  H    8.496544   8.803640   7.962367   9.506336   6.988606
    43  H    9.247014   9.879165   9.104116  10.650199   7.054445
                   36         37         38         39         40
    36  H    0.000000
    37  H    1.547984   0.000000
    38  O    7.473177   6.091025   0.000000
    39  H    8.298829   6.870397   0.964879   0.000000
    40  H    6.806785   5.359027   0.985935   1.550424   0.000000
    41  O    7.762380   6.643158   7.346133   7.484927   6.473479
    42  H    7.677096   6.423781   6.550904   6.628636   5.682157
    43  H    7.607833   6.555705   7.844957   8.000430   6.926017
                   41         42         43
    41  O    0.000000
    42  H    0.977512   0.000000
    43  H    0.965355   1.538585   0.000000
 Stoichiometry    C11H22N2O8
 Framework group  C1[X(C11H22N2O8)]
 Deg. of freedom   123
 Full point group                 C1      NOp   1
 Largest Abelian subgroup         C1      NOp   1
 Largest concise Abelian subgroup C1      NOp   1
                         Standard orientation:                         
 ---------------------------------------------------------------------
 Center     Atomic      Atomic             Coordinates (Angstroms)
 Number     Number       Type             X           Y           Z
 ---------------------------------------------------------------------
      1          6           0        0.221233   -0.352650    1.275302
      2          6           0        0.683587   -1.819696    1.066290
      3          6           0       -1.625768   -1.922455    1.110999
      4          6           0       -1.267930   -0.515753    1.522578
      5          1           0        0.825123    0.407148    1.751770
      6          1           0       -1.960574    0.302256    1.655864
      7          6           0       -0.464391   -2.501070    0.312081
      8          1           0       -0.389600   -3.588813    0.393859
      9          1           0       -0.506707   -2.208935   -0.737709
     10          6           0        0.305915   -1.761205    2.478293
     11          1           0        0.981039   -1.593588    3.308192
     12          6           0       -1.174855   -1.716525    2.532929
     13          1           0       -1.776857   -1.785335    3.428291
     14          1           0        1.718829   -1.984079    0.787726
     15          1           0       -2.660508   -2.145918    0.884102
     16          7           0       -0.918710    0.335884   -1.162252
     17          7           0        0.203499    0.638892   -0.553353
     18          6           0       -1.962362    1.208639   -0.885289
     19          6           0        1.339704   -0.017578   -1.118948
     20          8           0        1.340793   -0.831541   -2.028116
     21          8           0       -3.084896    1.039997   -1.362508
     22          8           0        2.424429    0.456990   -0.505627
     23          8           0       -1.672189    2.276029   -0.101571
     24          6           0       -2.765084    3.181972    0.152633
     25          1           0       -2.345676    3.973668    0.773462
     26          1           0       -3.149424    3.590495   -0.784731
     27          1           0       -3.572239    2.666840    0.679907
     28          6           0        3.713729   -0.014163   -0.962560
     29          1           0        3.831779   -1.072813   -0.719479
     30          1           0        3.800943    0.131119   -2.041704
     31          1           0        4.430907    0.604487   -0.427524
     32          8           0        3.958729    2.751750    0.680386
     33          1           0        2.980262    2.770325    0.744211
     34          1           0        4.262962    3.514063    1.187543
     35          8           0        2.520100   -3.293786   -1.199537
     36          1           0        3.017695   -3.827968   -1.830875
     37          1           0        2.184478   -2.529729   -1.702111
     38          8           0        1.147063    2.835104    0.989156
     39          1           0        0.654157    3.655594    0.867374
     40          1           0        0.719115    2.183301    0.385765
     41          8           0       -4.359925   -1.489925   -1.231853
     42          1           0       -3.933101   -0.612805   -1.295183
     43          1           0       -4.321631   -1.846775   -2.128013
 ---------------------------------------------------------------------
 Rotational constants (GHZ):      0.3160297      0.2412934      0.1889024
 Standard basis: 6-31+G(d,p) (6D, 7F)
 There are   509 symmetry adapted cartesian basis functions of A   symmetry.
 There are   509 symmetry adapted basis functions of A   symmetry.
   509 basis functions,   826 primitive gaussians,   509 cartesian basis functions
    83 alpha electrons       83 beta electrons
       nuclear repulsion energy      1968.7081802950 Hartrees.
 NAtoms=   43 NActive=   43 NUniq=   43 SFac= 1.00D+00 NAtFMM=   60 NAOKFM=F Big=F
 Integral buffers will be    131072 words long.
 Raffenetti 2 integral format.
 Two-electron integral symmetry is turned on.
 Nuclear repulsion after empirical dispersion term =     1968.6566147425 Hartrees.
 Force inversion solution in PCM.
 ------------------------------------------------------------------------------
 Polarizable Continuum Model (PCM)
 =================================
 Model                : C-PCM.
 Atomic radii         : UFF (Universal Force Field).
 Polarization charges : Total charges.
 Charge compensation  : None.
 Solution method      : Matrix inversion.
 Cavity type          : Scaled VdW (van der Waals Surface) (Alpha=1.100).
 Cavity algorithm     : GePol (No added spheres)
                        Default sphere list used, NSphG=   43.
                        Lebedev-Laikov grids with approx.  5.0 points / Ang**2.
                        Smoothing algorithm: Karplus/York (Gamma=1.0000).
                        Polarization charges: spherical gaussians, with
                                              point-specific exponents (IZeta= 3).
                        Self-potential: point-specific (ISelfS= 7).
                        Self-field    : sphere-specific E.n sum rule (ISelfD= 2).
 1st derivatives      : Analytical E(r).r(x)/FMM algorithm (CHGder, D1EAlg=3).
                        Cavity 1st derivative terms included.
 2nd derivatives      : Analytical E(r).r(xy)/FMM algorithm (CHGder, D2EAlg=3).
                        Cavity 2nd derivative terms included.
 Solvent              : Toluene, Eps=   2.374100 Eps(inf)=   2.238315
 ------------------------------------------------------------------------------
 One-electron integrals computed using PRISM.
 NBasis=   509 RedAO= T EigKep=  3.68D-06  NBF=   509
 NBsUse=   509 1.00D-06 EigRej= -1.00D+00 NBFU=   509
 ExpMin= 4.38D-02 ExpMax= 5.48D+03 ExpMxC= 8.25D+02 IAcc=3 IRadAn=         7 AccDes= 0.00D+00
 Harris functional with IExCor=  402 and IRadAn=       7 diagonalized for initial guess.
 HarFok:  IExCor=  402 AccDes= 0.00D+00 IRadAn=         7 IDoV= 1 UseB2=F ITyADJ=14
 ICtDFT=  3500011 ScaDFX=  1.000000  1.000000  1.000000  1.000000
 FoFCou: FMM=F IPFlag=           0 FMFlag=      100000 FMFlg1=           0
         NFxFlg=           0 DoJE=T BraDBF=F KetDBF=T FulRan=T
         wScrn=  0.000000 ICntrl=     500 IOpCl=  0 I1Cent=   200000004 NGrid=           0
         NMat0=    1 NMatS0=      1 NMatT0=    0 NMatD0=    1 NMtDS0=    0 NMtDT0=    0
 Petite list used in FoFCou.
 Requested convergence on RMS density matrix=1.00D-08 within 128 cycles.
 Requested convergence on MAX density matrix=1.00D-06.
 Requested convergence on             energy=1.00D-06.
 No special actions if energy rises.
 Inv3:  Mode=1 IEnd=    28588707.
 Iteration    1 A*A^-1 deviation from unit magnitude is 5.77D-15 for   3050.
 Iteration    1 A*A^-1 deviation from orthogonality  is 3.64D-15 for   3082    349.
 Iteration    1 A^-1*A deviation from unit magnitude is 6.00D-15 for   3050.
 Iteration    1 A^-1*A deviation from orthogonality  is 3.09D-15 for   3081   3010.
 Error on total polarization charges =  0.01062
 SCF Done:  E(RB3LYP) =  -1143.69046710     A.U. after   17 cycles
            NFock= 17  Conv=0.66D-08     -V/T= 2.0092
 DoSCS=F DFT=T ScalE2(SS,OS)=  1.000000  1.000000
 Range of M.O.s used for correlation:     1   509
 NBasis=   509 NAE=    83 NBE=    83 NFC=     0 NFV=     0
 NROrb=    509 NOA=    83 NOB=    83 NVA=   426 NVB=   426

 **** Warning!!: The largest alpha MO coefficient is  0.81290007D+02


 **** Warning!!: The smallest alpha delta epsilon is  0.93340468D-01

 Symmetrizing basis deriv contribution to polar:
 IMax=3 JMax=2 DiffMx= 0.00D+00
 G2DrvN: will do    44 centers at a time, making    1 passes.
 Calling FoFCou, ICntrl=  3107 FMM=F I1Cent=   0 AccDes= 0.00D+00.
 NEqPCM:  Using equilibrium solvation (IEInf=0, Eps=   2.3741, EpsInf=   2.2383)
 G2PCM: DoFxE=T DoFxN=T DoGrad=T DoDP/DQ/DG/TGxP=FFFF NFrqRd=   0 IEInf=0 SqF1=F DoCFld=F IF1Alg=4.
 End of G2Drv F.D. properties file   721 does not exist.
 End of G2Drv F.D. properties file   722 does not exist.
 End of G2Drv F.D. properties file   788 does not exist.
          IDoAtm=1111111111111111111111111111111111111111111
 NEqPCM:  Using equilibrium solvation (IEInf=0, Eps=   2.3741, EpsInf=   2.2383)
          Differentiating once with respect to nuclear coordinates.
          There are   132 degrees of freedom in the 1st order CPHF.  IDoFFX=6 NUNeed=     0.
    126 vectors produced by pass  0 Test12= 3.54D-14 1.00D-09 XBig12= 2.77D-01 2.95D-01.
 AX will form   126 AO Fock derivatives at one time.
    126 vectors produced by pass  1 Test12= 3.54D-14 1.00D-09 XBig12= 6.91D-02 5.38D-02.
    126 vectors produced by pass  2 Test12= 3.54D-14 1.00D-09 XBig12= 5.37D-04 4.39D-03.
    126 vectors produced by pass  3 Test12= 3.54D-14 1.00D-09 XBig12= 1.92D-06 2.49D-04.
    126 vectors produced by pass  4 Test12= 3.54D-14 1.00D-09 XBig12= 3.87D-09 5.78D-06.
    112 vectors produced by pass  5 Test12= 3.54D-14 1.00D-09 XBig12= 4.92D-12 1.25D-07.
     22 vectors produced by pass  6 Test12= 3.54D-14 1.00D-09 XBig12= 9.42D-15 9.02D-09.
      2 vectors produced by pass  7 Test12= 3.54D-14 1.00D-09 XBig12= 3.93D-16 1.73D-09.
 InvSVY:  IOpt=1 It=  1 EMax= 8.88D-16
 Solved reduced A of dimension   766 with   132 vectors.
 End of Minotr F.D. properties file   721 does not exist.
 End of Minotr F.D. properties file   722 does not exist.
 End of Minotr F.D. properties file   788 does not exist.

 **********************************************************************

            Population analysis using the SCF density.

 **********************************************************************

 Orbital symmetries:
       Occupied  (A) (A) (A) (A) (A) (A) (A) (A) (A) (A) (A) (A)
                 (A) (A) (A) (A) (A) (A) (A) (A) (A) (A) (A) (A)
                 (A) (A) (A) (A) (A) (A) (A) (A) (A) (A) (A) (A)
                 (A) (A) (A) (A) (A) (A) (A) (A) (A) (A) (A) (A)
                 (A) (A) (A) (A) (A) (A) (A) (A) (A) (A) (A) (A)
                 (A) (A) (A) (A) (A) (A) (A) (A) (A) (A) (A) (A)
                 (A) (A) (A) (A) (A) (A) (A) (A) (A) (A) (A)
       Virtual   (A) (A) (A) (A) (A) (A) (A) (A) (A) (A) (A) (A)
                 (A) (A) (A) (A) (A) (A) (A) (A) (A) (A) (A) (A)
                 (A) (A) (A) (A) (A) (A) (A) (A) (A) (A) (A) (A)
                 (A) (A) (A) (A) (A) (A) (A) (A) (A) (A) (A) (A)
                 (A) (A) (A) (A) (A) (A) (A) (A) (A) (A) (A) (A)
                 (A) (A) (A) (A) (A) (A) (A) (A) (A) (A) (A) (A)
                 (A) (A) (A) (A) (A) (A) (A) (A) (A) (A) (A) (A)
                 (A) (A) (A) (A) (A) (A) (A) (A) (A) (A) (A) (A)
                 (A) (A) (A) (A) (A) (A) (A) (A) (A) (A) (A) (A)
                 (A) (A) (A) (A) (A) (A) (A) (A) (A) (A) (A) (A)
                 (A) (A) (A) (A) (A) (A) (A) (A) (A) (A) (A) (A)
                 (A) (A) (A) (A) (A) (A) (A) (A) (A) (A) (A) (A)
                 (A) (A) (A) (A) (A) (A) (A) (A) (A) (A) (A) (A)
                 (A) (A) (A) (A) (A) (A) (A) (A) (A) (A) (A) (A)
                 (A) (A) (A) (A) (A) (A) (A) (A) (A) (A) (A) (A)
                 (A) (A) (A) (A) (A) (A) (A) (A) (A) (A) (A) (A)
                 (A) (A) (A) (A) (A) (A) (A) (A) (A) (A) (A) (A)
                 (A) (A) (A) (A) (A) (A) (A) (A) (A) (A) (A) (A)
                 (A) (A) (A) (A) (A) (A) (A) (A) (A) (A) (A) (A)
                 (A) (A) (A) (A) (A) (A) (A) (A) (A) (A) (A) (A)
                 (A) (A) (A) (A) (A) (A) (A) (A) (A) (A) (A) (A)
                 (A) (A) (A) (A) (A) (A) (A) (A) (A) (A) (A) (A)
                 (A) (A) (A) (A) (A) (A) (A) (A) (A) (A) (A) (A)
                 (A) (A) (A) (A) (A) (A) (A) (A) (A) (A) (A) (A)
                 (A) (A) (A) (A) (A) (A) (A) (A) (A) (A) (A) (A)
                 (A) (A) (A) (A) (A) (A) (A) (A) (A) (A) (A) (A)
                 (A) (A) (A) (A) (A) (A) (A) (A) (A) (A) (A) (A)
                 (A) (A) (A) (A) (A) (A) (A) (A) (A) (A) (A) (A)
                 (A) (A) (A) (A) (A) (A) (A) (A) (A) (A) (A) (A)
                 (A) (A) (A) (A) (A) (A) (A) (A) (A) (A) (A) (A)
                 (A) (A) (A) (A) (A) (A) (A) (A) (A) (A) (A) (A)
                 (A) (A) (A) (A) (A) (A) (A) (A) (A) (A) (A) (A)
                 (A) (A) (A) (A) (A) (A) (A) (A) (A) (A) (A) (A)
                 (A) (A) (A) (A) (A) (A) (A) (A) (A) (A) (A) (A)
                 (A) (A) (A) (A) (A) (A) (A) (A) (A) (A) (A) (A)
                 (A) (A) (A) (A) (A) (A)
 The electronic state is 1-A.
 Alpha  occ. eigenvalues --  -19.21606 -19.20926 -19.16593 -19.15895 -19.15798
 Alpha  occ. eigenvalues --  -19.15013 -19.14042 -19.14040 -14.41305 -14.37371
 Alpha  occ. eigenvalues --  -10.35848 -10.34330 -10.27209 -10.26237 -10.24899
 Alpha  occ. eigenvalues --  -10.24466 -10.24353 -10.24214 -10.24111 -10.22749
 Alpha  occ. eigenvalues --  -10.20587  -1.13554  -1.12066  -1.04545  -1.02621
 Alpha  occ. eigenvalues --   -1.01569  -1.01114  -1.00863  -0.99140  -0.99082
 Alpha  occ. eigenvalues --   -0.98314  -0.82204  -0.80966  -0.75920  -0.73871
 Alpha  occ. eigenvalues --   -0.71900  -0.70683  -0.60749  -0.60128  -0.58359
 Alpha  occ. eigenvalues --   -0.57901  -0.57340  -0.56788  -0.54766  -0.54166
 Alpha  occ. eigenvalues --   -0.53568  -0.51854  -0.51478  -0.50770  -0.49984
 Alpha  occ. eigenvalues --   -0.49405  -0.48715  -0.48192  -0.47179  -0.46573
 Alpha  occ. eigenvalues --   -0.45152  -0.43833  -0.43232  -0.42810  -0.42265
 Alpha  occ. eigenvalues --   -0.41361  -0.40952  -0.40059  -0.38906  -0.38293
 Alpha  occ. eigenvalues --   -0.37861  -0.37371  -0.37125  -0.37055  -0.36332
 Alpha  occ. eigenvalues --   -0.36215  -0.33223  -0.32851  -0.32133  -0.31886
 Alpha  occ. eigenvalues --   -0.31675  -0.31496  -0.30804  -0.30021  -0.29888
 Alpha  occ. eigenvalues --   -0.29603  -0.26274  -0.21941
 Alpha virt. eigenvalues --   -0.12607  -0.02727  -0.00653   0.00522   0.00987
 Alpha virt. eigenvalues --    0.01386   0.01598   0.02351   0.02701   0.03286
 Alpha virt. eigenvalues --    0.03635   0.03826   0.04190   0.04408   0.05308
 Alpha virt. eigenvalues --    0.05874   0.06024   0.06643   0.07253   0.07699
 Alpha virt. eigenvalues --    0.08361   0.08944   0.09500   0.09583   0.10101
 Alpha virt. eigenvalues --    0.10459   0.10503   0.10800   0.11185   0.11420
 Alpha virt. eigenvalues --    0.12052   0.12443   0.12963   0.13069   0.13736
 Alpha virt. eigenvalues --    0.13855   0.14412   0.14762   0.15103   0.15207
 Alpha virt. eigenvalues --    0.15753   0.16198   0.16223   0.16750   0.16899
 Alpha virt. eigenvalues --    0.17140   0.17744   0.17827   0.18328   0.18556
 Alpha virt. eigenvalues --    0.19092   0.19393   0.19558   0.19909   0.20189
 Alpha virt. eigenvalues --    0.20428   0.21001   0.21159   0.21329   0.21604
 Alpha virt. eigenvalues --    0.22002   0.22623   0.23008   0.23182   0.23276
 Alpha virt. eigenvalues --    0.23573   0.23891   0.24244   0.24497   0.24754
 Alpha virt. eigenvalues --    0.25123   0.25448   0.25620   0.26127   0.26773
 Alpha virt. eigenvalues --    0.26913   0.27042   0.27706   0.28184   0.28635
 Alpha virt. eigenvalues --    0.28798   0.28970   0.29748   0.29899   0.30077
 Alpha virt. eigenvalues --    0.30722   0.30788   0.31683   0.31978   0.32178
 Alpha virt. eigenvalues --    0.32754   0.33318   0.33446   0.34166   0.34291
 Alpha virt. eigenvalues --    0.34873   0.35176   0.35739   0.36278   0.36510
 Alpha virt. eigenvalues --    0.37025   0.37431   0.37687   0.38788   0.39318
 Alpha virt. eigenvalues --    0.39655   0.39793   0.40221   0.40739   0.41173
 Alpha virt. eigenvalues --    0.41778   0.42490   0.43086   0.44096   0.44494
 Alpha virt. eigenvalues --    0.44831   0.45373   0.45924   0.47281   0.47695
 Alpha virt. eigenvalues --    0.48434   0.49773   0.51263   0.53358   0.54662
 Alpha virt. eigenvalues --    0.55634   0.57721   0.59401   0.65085   0.65807
 Alpha virt. eigenvalues --    0.66627   0.69072   0.70115   0.71585   0.72781
 Alpha virt. eigenvalues --    0.73936   0.74963   0.75310   0.76105   0.76279
 Alpha virt. eigenvalues --    0.78106   0.78995   0.79934   0.80214   0.80966
 Alpha virt. eigenvalues --    0.82326   0.82933   0.83599   0.83930   0.85492
 Alpha virt. eigenvalues --    0.86190   0.88055   0.89279   0.91332   0.92263
 Alpha virt. eigenvalues --    0.92863   0.93276   0.93819   0.95423   0.96101
 Alpha virt. eigenvalues --    0.96606   0.97348   0.97624   0.98728   0.99647
 Alpha virt. eigenvalues --    0.99725   1.01363   1.02314   1.02690   1.03976
 Alpha virt. eigenvalues --    1.04776   1.05069   1.05700   1.07146   1.07393
 Alpha virt. eigenvalues --    1.08098   1.10124   1.10448   1.11417   1.12406
 Alpha virt. eigenvalues --    1.12921   1.13471   1.14495   1.15513   1.15708
 Alpha virt. eigenvalues --    1.15956   1.16455   1.17504   1.17587   1.18191
 Alpha virt. eigenvalues --    1.19908   1.20273   1.20994   1.21788   1.22306
 Alpha virt. eigenvalues --    1.23691   1.24012   1.24767   1.25391   1.25717
 Alpha virt. eigenvalues --    1.26363   1.26806   1.27091   1.27474   1.28671
 Alpha virt. eigenvalues --    1.28945   1.29798   1.30625   1.32315   1.33300
 Alpha virt. eigenvalues --    1.33755   1.34691   1.35732   1.36681   1.37246
 Alpha virt. eigenvalues --    1.38077   1.39805   1.40171   1.41441   1.42882
 Alpha virt. eigenvalues --    1.44460   1.45533   1.46632   1.48143   1.49525
 Alpha virt. eigenvalues --    1.50012   1.50300   1.51464   1.51965   1.52605
 Alpha virt. eigenvalues --    1.53633   1.54573   1.55262   1.56566   1.57649
 Alpha virt. eigenvalues --    1.58259   1.59052   1.60438   1.60820   1.61542
 Alpha virt. eigenvalues --    1.61992   1.63042   1.64529   1.64966   1.66649
 Alpha virt. eigenvalues --    1.66758   1.67530   1.67921   1.69883   1.70493
 Alpha virt. eigenvalues --    1.71845   1.72964   1.74912   1.75648   1.76812
 Alpha virt. eigenvalues --    1.78333   1.80346   1.81696   1.82943   1.84602
 Alpha virt. eigenvalues --    1.84842   1.84876   1.86439   1.88254   1.88775
 Alpha virt. eigenvalues --    1.89540   1.90235   1.90742   1.91874   1.92740
 Alpha virt. eigenvalues --    1.94067   1.94567   1.94778   1.95266   1.96755
 Alpha virt. eigenvalues --    1.97426   1.98496   2.00577   2.01280   2.01947
 Alpha virt. eigenvalues --    2.02854   2.03741   2.04608   2.05260   2.06246
 Alpha virt. eigenvalues --    2.07331   2.08615   2.08779   2.10389   2.11929
 Alpha virt. eigenvalues --    2.13452   2.13966   2.14503   2.16049   2.16544
 Alpha virt. eigenvalues --    2.16837   2.19641   2.21539   2.23225   2.26619
 Alpha virt. eigenvalues --    2.26947   2.28780   2.29259   2.30431   2.30921
 Alpha virt. eigenvalues --    2.31680   2.34426   2.35365   2.36544   2.37858
 Alpha virt. eigenvalues --    2.38434   2.38958   2.39599   2.41086   2.41570
 Alpha virt. eigenvalues --    2.41871   2.43855   2.45022   2.46149   2.46774
 Alpha virt. eigenvalues --    2.48330   2.49859   2.50266   2.51749   2.52924
 Alpha virt. eigenvalues --    2.53412   2.54242   2.55388   2.56301   2.56950
 Alpha virt. eigenvalues --    2.58132   2.58583   2.59202   2.59917   2.60373
 Alpha virt. eigenvalues --    2.60778   2.60906   2.61568   2.63386   2.63478
 Alpha virt. eigenvalues --    2.64158   2.64985   2.65494   2.65830   2.66328
 Alpha virt. eigenvalues --    2.66585   2.67503   2.68083   2.69308   2.69645
 Alpha virt. eigenvalues --    2.69945   2.71613   2.73631   2.75374   2.75905
 Alpha virt. eigenvalues --    2.76432   2.76947   2.78593   2.79335   2.81818
 Alpha virt. eigenvalues --    2.82606   2.83484   2.84010   2.86099   2.86447
 Alpha virt. eigenvalues --    2.88378   2.91127   2.92479   2.95624   2.97839
 Alpha virt. eigenvalues --    3.02307   3.05262   3.06156   3.06400   3.06936
 Alpha virt. eigenvalues --    3.09376   3.09864   3.12087   3.15640   3.19620
 Alpha virt. eigenvalues --    3.22584   3.25758   3.27966   3.30201   3.31225
 Alpha virt. eigenvalues --    3.32252   3.34448   3.36585   3.41184   3.41939
 Alpha virt. eigenvalues --    3.44168   3.44947   3.46318   3.47157   3.49090
 Alpha virt. eigenvalues --    3.49983   3.50549   3.51916   3.53044   3.62949
 Alpha virt. eigenvalues --    3.65647   3.67356   3.68519   3.69781   3.72752
 Alpha virt. eigenvalues --    4.20901   4.24535   4.31476   4.35359   4.39136
 Alpha virt. eigenvalues --    4.46223   4.46481   4.50160   4.55178   4.55750
 Alpha virt. eigenvalues --    4.61025   4.62752   4.65042   4.69232   4.70618
 Alpha virt. eigenvalues --    4.73340   4.79028   4.85485   4.87396   4.92428
 Alpha virt. eigenvalues --    5.06412
          Condensed to atoms (all electrons):
               1          2          3          4          5          6
     1  C   13.222399  -1.232396   2.282059  -7.284730   0.362654   0.124005
     2  C   -1.232396  10.103756  -1.001108   0.855369  -0.046238  -0.019978
     3  C    2.282059  -1.001108   9.106106  -4.265940  -0.003894   0.053118
     4  C   -7.284730   0.855369  -4.265940  17.702529  -0.041119   0.141206
     5  H    0.362654  -0.046238  -0.003894  -0.041119   0.480822  -0.002450
     6  H    0.124005  -0.019978   0.053118   0.141206  -0.002450   0.497319
     7  C   -1.114020   0.028768  -1.513507   2.135298   0.009381  -0.009360
     8  H    0.000241  -0.094516  -0.004467  -0.000328  -0.000073  -0.000079
     9  H   -0.044474  -0.007851   0.014790  -0.053179   0.000018   0.000085
    10  C   -2.839691  -3.127582  -0.259728   3.688663  -0.031975  -0.043309
    11  H    0.145249   0.035351   0.002343  -0.109351  -0.001716  -0.000004
    12  C    3.461732   0.158606   1.301168  -6.922038   0.031257   0.080482
    13  H   -0.004216  -0.003766   0.031865   0.064530   0.000104  -0.002977
    14  H    0.057569   0.226467   0.037832  -0.029124  -0.001153  -0.000034
    15  H   -0.034879   0.006988   0.241715   0.057633  -0.000052  -0.002286
    16  N   -0.204557   0.085274  -0.416098   0.651902   0.005069  -0.024676
    17  N   -0.368296   0.081027   0.318920  -0.257497   0.018349   0.017774
    18  C    0.141286   0.097525  -0.254554   0.189382  -0.008716  -0.007445
    19  C   -0.470048  -0.304617   0.516529  -0.568685   0.004112   0.011405
    20  O   -0.045764   0.053319   0.038515  -0.044113   0.000572  -0.000089
    21  O    0.015309   0.007543  -0.041775  -0.008151  -0.000106  -0.000133
    22  O    0.008364  -0.020283   0.064424  -0.050334   0.001827   0.000303
    23  O    0.089001   0.011329  -0.020480  -0.014482  -0.002509   0.002849
    24  C   -0.007376   0.002475  -0.040316   0.054408  -0.000288   0.001494
    25  H   -0.003987   0.000016  -0.000416   0.003733  -0.000002  -0.000029
    26  H    0.002378   0.000107   0.000278  -0.005640   0.000000  -0.000003
    27  H    0.001652  -0.000291  -0.002356   0.005414   0.000000   0.000333
    28  C    0.050527   0.033979   0.004109  -0.021756   0.000063   0.000015
    29  H   -0.005953   0.002726  -0.000351   0.000962   0.000010   0.000000
    30  H   -0.001578  -0.002307  -0.000022  -0.000117  -0.000004   0.000000
    31  H    0.004985  -0.002302   0.000281  -0.000648   0.000002   0.000000
    32  O   -0.009453  -0.002721   0.000339  -0.000198   0.000208   0.000000
    33  H    0.006068  -0.000500  -0.000108  -0.000369   0.000027   0.000000
    34  H    0.000955  -0.000048  -0.000003  -0.000053  -0.000004   0.000000
    35  O   -0.022543  -0.009497  -0.004608   0.003557   0.000032   0.000001
    36  H    0.003646   0.016945   0.000076  -0.000300   0.000000   0.000000
    37  H    0.007930   0.001298   0.000905  -0.000051  -0.000001   0.000000
    38  O   -0.095749   0.015582   0.000914   0.024621   0.006159   0.000526
    39  H    0.013847  -0.000542   0.000183  -0.006289  -0.000057  -0.000002
    40  H   -0.012866  -0.000667   0.005808  -0.002755  -0.002441   0.000258
    41  O    0.007610   0.007443  -0.070883  -0.008901   0.000000   0.000093
    42  H    0.000155   0.000290  -0.004057   0.000903   0.000000   0.000006
    43  H    0.000809   0.001021  -0.003502  -0.001499   0.000000   0.000002
               7          8          9         10         11         12
     1  C   -1.114020   0.000241  -0.044474  -2.839691   0.145249   3.461732
     2  C    0.028768  -0.094516  -0.007851  -3.127582   0.035351   0.158606
     3  C   -1.513507  -0.004467   0.014790  -0.259728   0.002343   1.301168
     4  C    2.135298  -0.000328  -0.053179   3.688663  -0.109351  -6.922038
     5  H    0.009381  -0.000073   0.000018  -0.031975  -0.001716   0.031257
     6  H   -0.009360  -0.000079   0.000085  -0.043309  -0.000004   0.080482
     7  C    7.086523   0.392663   0.375719  -0.136145  -0.004160  -0.877149
     8  H    0.392663   0.537783  -0.021812   0.048251  -0.000046  -0.025270
     9  H    0.375719  -0.021812   0.488279   0.027670  -0.000089   0.018187
    10  C   -0.136145   0.048251   0.027670  12.622961   0.133847  -3.393166
    11  H   -0.004160  -0.000046  -0.000089   0.133847   0.503132   0.114418
    12  C   -0.877149  -0.025270   0.018187  -3.393166   0.114418  11.875975
    13  H   -0.000427   0.000092  -0.000074   0.031878  -0.002721   0.211085
    14  H   -0.017062  -0.001291  -0.001011   0.046979  -0.002797  -0.002535
    15  H    0.024386  -0.001498  -0.001665   0.027373  -0.000035   0.012865
    16  N    0.276811   0.002652  -0.035025   0.264928  -0.001975  -0.210410
    17  N   -0.063538  -0.005220   0.057439  -0.494270   0.000125   0.446162
    18  C    0.151049  -0.000745  -0.006176   0.134449  -0.000515  -0.374034
    19  C   -0.427710   0.007974  -0.014263  -0.294088   0.004345   0.311080
    20  O   -0.108818   0.000186  -0.000356  -0.008707   0.000026   0.028824
    21  O    0.009240  -0.000046  -0.000579   0.005726   0.000001  -0.019226
    22  O   -0.059089   0.000217  -0.000260  -0.044833   0.000221   0.025168
    23  O    0.020807  -0.000032  -0.000037   0.024174  -0.000003  -0.046946
    24  C    0.010636   0.000004  -0.000350  -0.000377  -0.000029  -0.015754
    25  H    0.000080   0.000000   0.000000  -0.000313   0.000000   0.001072
    26  H    0.000077   0.000000   0.000000   0.000166   0.000000  -0.000780
    27  H   -0.000064   0.000000   0.000000   0.000121   0.000000   0.000522
    28  C   -0.031121  -0.000465   0.000464   0.014961   0.000186  -0.001467
    29  H   -0.001369   0.000000  -0.000007  -0.004161   0.000000  -0.000171
    30  H    0.001296   0.000000   0.000002  -0.001257   0.000000   0.000226
    31  H   -0.001279   0.000000   0.000000   0.003415   0.000000  -0.000179
    32  O   -0.000197   0.000000   0.000000  -0.001436  -0.000003  -0.000342
    33  H    0.000208   0.000000   0.000000   0.001346   0.000000  -0.000162
    34  H    0.000001   0.000000   0.000000   0.000168   0.000000   0.000013
    35  O    0.025808   0.000374  -0.001054  -0.007647  -0.000023  -0.004727
    36  H   -0.010993  -0.000001   0.000019   0.003869   0.000000  -0.000022
    37  H   -0.008107   0.000110   0.000543  -0.006714  -0.000001  -0.001304
    38  O    0.000164  -0.000002   0.000007  -0.030121   0.000061   0.014129
    39  H   -0.000221   0.000000   0.000000   0.001213   0.000000  -0.001572
    40  H   -0.005236   0.000000  -0.000003  -0.005045   0.000005   0.001425
    41  O    0.035340   0.000030   0.000355  -0.005594   0.000000   0.039547
    42  H    0.003111   0.000000   0.000011   0.000526   0.000000  -0.008252
    43  H    0.003150   0.000000  -0.000009   0.000028   0.000000  -0.002746
              13         14         15         16         17         18
     1  C   -0.004216   0.057569  -0.034879  -0.204557  -0.368296   0.141286
     2  C   -0.003766   0.226467   0.006988   0.085274   0.081027   0.097525
     3  C    0.031865   0.037832   0.241715  -0.416098   0.318920  -0.254554
     4  C    0.064530  -0.029124   0.057633   0.651902  -0.257497   0.189382
     5  H    0.000104  -0.001153  -0.000052   0.005069   0.018349  -0.008716
     6  H   -0.002977  -0.000034  -0.002286  -0.024676   0.017774  -0.007445
     7  C   -0.000427  -0.017062   0.024386   0.276811  -0.063538   0.151049
     8  H    0.000092  -0.001291  -0.001498   0.002652  -0.005220  -0.000745
     9  H   -0.000074  -0.001011  -0.001665  -0.035025   0.057439  -0.006176
    10  C    0.031878   0.046979   0.027373   0.264928  -0.494270   0.134449
    11  H   -0.002721  -0.002797  -0.000035  -0.001975   0.000125  -0.000515
    12  C    0.211085  -0.002535   0.012865  -0.210410   0.446162  -0.374034
    13  H    0.509199  -0.000027  -0.002261  -0.001077   0.001276  -0.001677
    14  H   -0.000027   0.486867  -0.000119  -0.006537  -0.017646  -0.002375
    15  H   -0.002261  -0.000119   0.477012   0.004513  -0.009569   0.009810
    16  N   -0.001077  -0.006537   0.004513  14.059975  -5.769408   0.952922
    17  N    0.001276  -0.017646  -0.009569  -5.769408  14.191326  -1.068644
    18  C   -0.001677  -0.002375   0.009810   0.952922  -1.068644   5.560096
    19  C    0.001890   0.011905  -0.003760  -1.267816   0.276350  -0.467239
    20  O    0.000008   0.000305  -0.000101  -0.158840  -0.036667  -0.051935
    21  O    0.000010  -0.000007   0.000444  -0.069326  -0.086761   0.620802
    22  O    0.000056   0.009468  -0.000108  -0.388448   0.016846  -0.092823
    23  O   -0.000134  -0.000087   0.000156  -0.036909  -0.100389   0.294817
    24  C   -0.000093   0.000003   0.000074   0.073177  -0.102662  -0.108707
    25  H    0.000000   0.000000   0.000000   0.001502  -0.003614   0.005775
    26  H    0.000000   0.000000   0.000000   0.003845  -0.007225   0.001812
    27  H    0.000000   0.000000  -0.000002  -0.000757  -0.002452  -0.029796
    28  C   -0.000009   0.001119  -0.000015  -0.022747  -0.034606  -0.004951
    29  H    0.000000   0.000108   0.000000  -0.000687  -0.005374  -0.000183
    30  H    0.000000   0.000023   0.000000   0.000085   0.001723  -0.000262
    31  H    0.000000  -0.000011   0.000000  -0.000937  -0.007974  -0.000125
    32  O    0.000000   0.000010   0.000000  -0.001402  -0.030023  -0.000632
    33  H    0.000000  -0.000002   0.000000   0.004996   0.012922   0.000919
    34  H    0.000000   0.000000   0.000000   0.000243   0.002830   0.000116
    35  O    0.000003  -0.000347  -0.000006  -0.002645  -0.001737  -0.001440
    36  H    0.000000   0.000155   0.000000   0.000392   0.000546   0.000107
    37  H    0.000000  -0.000462   0.000000   0.002256   0.009331   0.001570
    38  O    0.000009   0.000075  -0.000005  -0.123881   0.114341  -0.014174
    39  H    0.000000   0.000000   0.000000  -0.001412  -0.013123   0.000914
    40  H    0.000000   0.000010   0.000000  -0.060492   0.059689  -0.010624
    41  O    0.000011   0.000001   0.000223  -0.008357   0.018155  -0.018622
    42  H    0.000000   0.000000  -0.000221  -0.001882   0.004779   0.006767
    43  H    0.000000   0.000000  -0.000024  -0.002353   0.000759   0.005098
              19         20         21         22         23         24
     1  C   -0.470048  -0.045764   0.015309   0.008364   0.089001  -0.007376
     2  C   -0.304617   0.053319   0.007543  -0.020283   0.011329   0.002475
     3  C    0.516529   0.038515  -0.041775   0.064424  -0.020480  -0.040316
     4  C   -0.568685  -0.044113  -0.008151  -0.050334  -0.014482   0.054408
     5  H    0.004112   0.000572  -0.000106   0.001827  -0.002509  -0.000288
     6  H    0.011405  -0.000089  -0.000133   0.000303   0.002849   0.001494
     7  C   -0.427710  -0.108818   0.009240  -0.059089   0.020807   0.010636
     8  H    0.007974   0.000186  -0.000046   0.000217  -0.000032   0.000004
     9  H   -0.014263  -0.000356  -0.000579  -0.000260  -0.000037  -0.000350
    10  C   -0.294088  -0.008707   0.005726  -0.044833   0.024174  -0.000377
    11  H    0.004345   0.000026   0.000001   0.000221  -0.000003  -0.000029
    12  C    0.311080   0.028824  -0.019226   0.025168  -0.046946  -0.015754
    13  H    0.001890   0.000008   0.000010   0.000056  -0.000134  -0.000093
    14  H    0.011905   0.000305  -0.000007   0.009468  -0.000087   0.000003
    15  H   -0.003760  -0.000101   0.000444  -0.000108   0.000156   0.000074
    16  N   -1.267816  -0.158840  -0.069326  -0.388448  -0.036909   0.073177
    17  N    0.276350  -0.036667  -0.086761   0.016846  -0.100389  -0.102662
    18  C   -0.467239  -0.051935   0.620802  -0.092823   0.294817  -0.108707
    19  C    7.545392   0.818426  -0.003604   0.394253  -0.110970  -0.014121
    20  O    0.818426   8.117416  -0.000028  -0.141450  -0.009650  -0.001670
    21  O   -0.003604  -0.000028   8.262823   0.001598  -0.200209  -0.035044
    22  O    0.394253  -0.141450   0.001598   8.413203  -0.024321  -0.002043
    23  O   -0.110970  -0.009650  -0.200209  -0.024321   8.623517  -0.005305
    24  C   -0.014121  -0.001670  -0.035044  -0.002043  -0.005305   5.070932
    25  H   -0.000454  -0.000004  -0.000041  -0.000015  -0.064266   0.417363
    26  H   -0.000477  -0.000003   0.001158  -0.000017  -0.046108   0.413683
    27  H   -0.000023  -0.000003   0.006759  -0.000005  -0.048027   0.430834
    28  C   -0.255149  -0.033866   0.000150   0.049684   0.000810  -0.000013
    29  H    0.000752   0.005240   0.000000  -0.048199  -0.000007  -0.000006
    30  H   -0.012369   0.002610   0.000000  -0.040369   0.000015   0.000009
    31  H   -0.000209  -0.000258   0.000000  -0.058664  -0.000011  -0.000001
    32  O    0.040484  -0.000274   0.000001   0.006746   0.000322   0.000071
    33  H   -0.017030  -0.000028  -0.000001  -0.009250   0.000116  -0.000136
    34  H   -0.004446   0.000004   0.000000  -0.000052   0.000010  -0.000005
    35  O   -0.016084  -0.016803  -0.000020   0.015758  -0.000005  -0.000002
    36  H   -0.011580   0.000691   0.000000   0.000094   0.000000   0.000000
    37  H   -0.009561   0.023139   0.000000   0.000412   0.000017   0.000004
    38  O    0.005902  -0.001307   0.000276   0.021639   0.001676   0.000165
    39  H    0.000186  -0.000026   0.000075   0.000367   0.005897   0.004674
    40  H    0.016225  -0.000460   0.000216   0.014164   0.012206   0.000486
    41  O   -0.000335   0.000347  -0.024691   0.000090  -0.002145  -0.001399
    42  H   -0.000671   0.000036   0.026854   0.000006   0.001707   0.001214
    43  H   -0.000302  -0.000003   0.001099   0.000001   0.000071   0.000398
              25         26         27         28         29         30
     1  C   -0.003987   0.002378   0.001652   0.050527  -0.005953  -0.001578
     2  C    0.000016   0.000107  -0.000291   0.033979   0.002726  -0.002307
     3  C   -0.000416   0.000278  -0.002356   0.004109  -0.000351  -0.000022
     4  C    0.003733  -0.005640   0.005414  -0.021756   0.000962  -0.000117
     5  H   -0.000002   0.000000   0.000000   0.000063   0.000010  -0.000004
     6  H   -0.000029  -0.000003   0.000333   0.000015   0.000000   0.000000
     7  C    0.000080   0.000077  -0.000064  -0.031121  -0.001369   0.001296
     8  H    0.000000   0.000000   0.000000  -0.000465   0.000000   0.000000
     9  H    0.000000   0.000000   0.000000   0.000464  -0.000007   0.000002
    10  C   -0.000313   0.000166   0.000121   0.014961  -0.004161  -0.001257
    11  H    0.000000   0.000000   0.000000   0.000186   0.000000   0.000000
    12  C    0.001072  -0.000780   0.000522  -0.001467  -0.000171   0.000226
    13  H    0.000000   0.000000   0.000000  -0.000009   0.000000   0.000000
    14  H    0.000000   0.000000   0.000000   0.001119   0.000108   0.000023
    15  H    0.000000   0.000000  -0.000002  -0.000015   0.000000   0.000000
    16  N    0.001502   0.003845  -0.000757  -0.022747  -0.000687   0.000085
    17  N   -0.003614  -0.007225  -0.002452  -0.034606  -0.005374   0.001723
    18  C    0.005775   0.001812  -0.029796  -0.004951  -0.000183  -0.000262
    19  C   -0.000454  -0.000477  -0.000023  -0.255149   0.000752  -0.012369
    20  O   -0.000004  -0.000003  -0.000003  -0.033866   0.005240   0.002610
    21  O   -0.000041   0.001158   0.006759   0.000150   0.000000   0.000000
[...]
     4  C   -0.525261  -0.053289   0.008741  -0.064154  -0.021401   0.051528
     5  H    0.005316   0.000603  -0.000125   0.002613  -0.002430  -0.000161
     6  H    0.011000  -0.000072  -0.000878   0.000357   0.002293   0.000603
     7  C   -0.423749  -0.109545   0.011668  -0.069616   0.023756   0.010644
     8  H    0.007974   0.000059  -0.000048   0.000248  -0.000032   0.000011
     9  H   -0.018527  -0.000856  -0.000548  -0.000386   0.000026  -0.000340
    10  C   -0.230108  -0.015175   0.010389  -0.037455   0.022079   0.000824
    11  H    0.003261   0.000028   0.000001   0.000178   0.000001  -0.000032
    12  C    0.291728   0.038062  -0.027572   0.027692  -0.043439  -0.011994
    13  H    0.001741   0.000010   0.000013   0.000055  -0.000128  -0.000088
    14  H    0.011070   0.000221  -0.000006   0.008477  -0.000079  -0.000002
    15  H   -0.003157  -0.000107   0.000448  -0.000118   0.000170   0.000108
    16  N   -1.125864  -0.144331  -0.051126  -0.314610  -0.056703   0.086436
    17  N    0.202584  -0.063397  -0.104763  -0.026949  -0.097800  -0.121553
    18  C   -0.452868  -0.056064   0.624398  -0.090152   0.319220  -0.122211
    19  C    7.408005   0.834288  -0.006652   0.372027  -0.110950  -0.011911
    20  O    0.834288   8.136319   0.000224  -0.142287  -0.010910  -0.001837
    21  O   -0.006652   0.000224   8.264763   0.001403  -0.202366  -0.035373
    22  O    0.372027  -0.142287   0.001403   8.423795  -0.025937  -0.002609
    23  O   -0.110950  -0.010910  -0.202366  -0.025937   8.592593   0.007886
    24  C   -0.011911  -0.001837  -0.035373  -0.002609   0.007886   5.069715
    25  H   -0.000322  -0.000004  -0.000089  -0.000014  -0.063258   0.416553
    26  H   -0.000435  -0.000003   0.001478  -0.000016  -0.046919   0.412049
    27  H    0.000012  -0.000003   0.006771  -0.000005  -0.044856   0.431305
    28  C   -0.256374  -0.034587   0.000203   0.048086   0.000731   0.000057
    29  H   -0.003530   0.005560   0.000000  -0.047775  -0.000005  -0.000005
    30  H   -0.010225   0.002283   0.000000  -0.040623   0.000013   0.000009
    31  H    0.000093  -0.000251   0.000000  -0.059247  -0.000011  -0.000002
    32  O    0.035261  -0.000291   0.000002   0.009088   0.000270   0.000054
    33  H   -0.013810  -0.000072   0.000000  -0.008455   0.000100  -0.000131
    34  H   -0.004042   0.000003   0.000000  -0.000103   0.000009  -0.000006
    35  O   -0.021827  -0.016655  -0.000024   0.015562   0.000005  -0.000002
    36  H   -0.009693   0.000695   0.000000   0.000052   0.000000   0.000000
    37  H   -0.009744   0.021345  -0.000002   0.000538   0.000016   0.000001
    38  O   -0.004290  -0.001100   0.000196   0.016804   0.001736  -0.000855
    39  H   -0.000841  -0.000020   0.000073  -0.000051   0.005393   0.004308
    40  H    0.015203  -0.000224   0.000189   0.012022   0.010394   0.000535
    41  O   -0.000220   0.000261  -0.023430   0.000122  -0.002556  -0.001164
    42  H   -0.001236   0.000022   0.026214   0.000004   0.002102   0.001024
    43  H   -0.000284  -0.000006   0.000470   0.000000   0.000052   0.000254
              25         26         27         28         29         30
     1  C   -0.003845   0.002055   0.002260   0.048891  -0.004363  -0.001812
     2  C    0.000039   0.000104  -0.000296   0.034941   0.002536  -0.002646
     3  C   -0.000343   0.000365  -0.003001   0.002179  -0.000556   0.000066
     4  C    0.003505  -0.005390   0.005897  -0.018518   0.001349  -0.000225
     5  H   -0.000001   0.000000  -0.000001  -0.000104   0.000007  -0.000004
     6  H   -0.000022  -0.000005   0.000297   0.000025   0.000000   0.000000
     7  C    0.000042   0.000052   0.000026  -0.031059  -0.002072   0.001339
     8  H    0.000000   0.000000   0.000000  -0.000421   0.000000   0.000000
     9  H    0.000000   0.000000   0.000000   0.000602  -0.000010   0.000002
    10  C   -0.000337   0.000172   0.000168   0.020515  -0.002004  -0.001252
    11  H    0.000000   0.000000   0.000000   0.000170   0.000000   0.000000
    12  C    0.001032  -0.000743   0.000360  -0.004842  -0.000323   0.000235
    13  H    0.000000   0.000000   0.000000  -0.000008   0.000000   0.000000
    14  H    0.000000   0.000000   0.000000   0.000725   0.000111   0.000021
    15  H    0.000000   0.000000  -0.000002  -0.000032   0.000000   0.000000
    16  N    0.000973   0.002674   0.000037  -0.015533  -0.000493  -0.000229
    17  N   -0.003006  -0.006230  -0.002697  -0.041269  -0.004705   0.000662
    18  C    0.005973   0.003838  -0.033783  -0.004396  -0.000162  -0.000335
    19  C   -0.000322  -0.000435   0.000012  -0.256374  -0.003530  -0.010225
    20  O   -0.000004  -0.000003  -0.000003  -0.034587   0.005560   0.002283
    21  O   -0.000089   0.001478   0.006771   0.000203   0.000000   0.000000
    22  O   -0.000014  -0.000016  -0.000005   0.048086  -0.047775  -0.040623
    23  O   -0.063258  -0.046919  -0.044856   0.000731  -0.000005   0.000013
    24  C    0.416553   0.412049   0.431305   0.000057  -0.000005   0.000009
    25  H    0.547574  -0.028487  -0.029186  -0.000005   0.000000   0.000000
    26  H   -0.028487   0.529311  -0.031533   0.000001   0.000000   0.000000
    27  H   -0.029186  -0.031533   0.536925   0.000001   0.000000   0.000000
    28  C   -0.000005   0.000001   0.000001   5.145329   0.419257   0.412327
    29  H    0.000000   0.000000   0.000000   0.419257   0.528976  -0.033816
    30  H    0.000000   0.000000   0.000000   0.412327  -0.033816   0.536780
    31  H    0.000000   0.000000   0.000000   0.430426  -0.026480  -0.025696
    32  O    0.000002   0.000000   0.000000  -0.009879   0.000386   0.000591
    33  H    0.000000   0.000000   0.000000   0.003940  -0.000018  -0.000017
    34  H    0.000000   0.000000   0.000000   0.001176  -0.000003  -0.000003
    35  O    0.000000   0.000000   0.000000  -0.006315  -0.002451   0.000815
    36  H    0.000000   0.000000   0.000000   0.001208  -0.000093  -0.000020
    37  H    0.000000   0.000000   0.000000  -0.001961  -0.001568  -0.000278
    38  O    0.000407  -0.000122   0.000019   0.002930  -0.000037   0.000000
    39  H    0.000262   0.000000  -0.000001  -0.000043   0.000000   0.000000
    40  H   -0.000059  -0.000002   0.000019   0.001660  -0.000009   0.000004
    41  O    0.000000   0.000001   0.000040   0.000146   0.000000   0.000000
    42  H    0.000000  -0.000007  -0.000030  -0.000002   0.000000   0.000000
    43  H    0.000000   0.000000   0.000000   0.000000   0.000000   0.000000
              31         32         33         34         35         36
     1  C    0.004868  -0.004824   0.003867   0.000623  -0.020177   0.003839
     2  C   -0.001974  -0.006203   0.000307   0.000085  -0.017968   0.017026
     3  C    0.000264   0.000604  -0.000106  -0.000010   0.002242   0.000310
     4  C   -0.000587  -0.000272  -0.000862  -0.000107   0.004557  -0.000325
     5  H    0.000004   0.000215   0.000088  -0.000005   0.000028   0.000000
     6  H    0.000000   0.000000   0.000000   0.000000   0.000001   0.000000
     7  C   -0.001365  -0.000678   0.000159   0.000007   0.022886  -0.013223
     8  H    0.000000   0.000000   0.000000   0.000000   0.000204   0.000005
     9  H    0.000000  -0.000001   0.000000   0.000000  -0.001169   0.000044
    10  C    0.003269   0.001021   0.000758   0.000087   0.006038   0.003742
    11  H    0.000000  -0.000004   0.000000   0.000000  -0.000021   0.000000
    12  C   -0.000157  -0.000608  -0.000002   0.000041  -0.008294  -0.000293
    13  H    0.000000   0.000000   0.000000   0.000000   0.000003   0.000000
    14  H   -0.000015   0.000009  -0.000003   0.000000  -0.000955   0.000151
    15  H    0.000000   0.000000   0.000000   0.000000  -0.000008   0.000000
    16  N   -0.000905  -0.000901   0.004377   0.000229  -0.003833   0.000300
    17  N   -0.008073  -0.028717   0.010798   0.002810   0.000064   0.000650
    18  C   -0.000108  -0.000618   0.000809   0.000101  -0.001372   0.000119
    19  C    0.000093   0.035261  -0.013810  -0.004042  -0.021827  -0.009693
    20  O   -0.000251  -0.000291  -0.000072   0.000003  -0.016655   0.000695
    21  O    0.000000   0.000002   0.000000   0.000000  -0.000024   0.000000
    22  O   -0.059247   0.009088  -0.008455  -0.000103   0.015562   0.000052
    23  O   -0.000011   0.000270   0.000100   0.000009   0.000005   0.000000
    24  C   -0.000002   0.000054  -0.000131  -0.000006  -0.000002   0.000000
    25  H    0.000000   0.000002   0.000000   0.000000   0.000000   0.000000
    26  H    0.000000   0.000000   0.000000   0.000000   0.000000   0.000000
    27  H    0.000000   0.000000   0.000000   0.000000   0.000000   0.000000
    28  C    0.430426  -0.009879   0.003940   0.001176  -0.006315   0.001208
    29  H   -0.026480   0.000386  -0.000018  -0.000003  -0.002451  -0.000093
    30  H   -0.025696   0.000591  -0.000017  -0.000003   0.000815  -0.000020
    31  H    0.496830  -0.005278   0.000096   0.000083   0.000053  -0.000001
    32  O   -0.005278   8.332310   0.258089   0.255662  -0.000010   0.000000
    33  H    0.000096   0.258089   0.307694  -0.014192   0.000002   0.000000
    34  H    0.000083   0.255662  -0.014192   0.374309   0.000000   0.000000
    35  O    0.000053  -0.000010   0.000002   0.000000   8.285333   0.256910
    36  H   -0.000001   0.000000   0.000000   0.000000   0.256910   0.357210
    37  H    0.000036   0.000002   0.000000   0.000000   0.269572  -0.013847
    38  O    0.000082  -0.020044   0.011515   0.001071   0.000004   0.000000
    39  H   -0.000001   0.001490  -0.001748  -0.000048   0.000000   0.000000
    40  H    0.000013   0.001777  -0.002080   0.000010   0.000001   0.000000
    41  O    0.000000   0.000000   0.000000   0.000000   0.000014   0.000000
    42  H    0.000000   0.000000   0.000000   0.000000   0.000000   0.000000
    43  H    0.000000   0.000000   0.000000   0.000000   0.000000   0.000000
              37         38         39         40         41         42
     1  C    0.008420  -0.081123   0.014232  -0.009266   0.012038   0.001719
     2  C    0.003044   0.012387  -0.000743  -0.001081   0.016814   0.000446
     3  C    0.001302   0.001961   0.000209   0.005587  -0.091139   0.004177
     4  C    0.000049   0.019504  -0.005780  -0.003199  -0.015544  -0.006072
     5  H   -0.000002   0.006496  -0.000070  -0.002727  -0.000004   0.000000
     6  H    0.000000   0.000473  -0.000003   0.000251   0.000370   0.000021
     7  C   -0.012925  -0.000381  -0.000192  -0.004899   0.050154   0.001256
     8  H    0.000161  -0.000002   0.000000   0.000000   0.000120   0.000000
     9  H    0.000759   0.000004   0.000000  -0.000003   0.000651   0.000025
    10  C   -0.004175  -0.029415   0.001594  -0.003723  -0.007175   0.000420
    11  H   -0.000001   0.000056   0.000000   0.000004   0.000002   0.000000
    12  C   -0.002338   0.014387  -0.001629   0.000018   0.031235  -0.011682
    13  H    0.000000   0.000011   0.000000   0.000000   0.000046   0.000000
    14  H   -0.000456   0.000068   0.000000   0.000007   0.000003   0.000000
    15  H    0.000000  -0.000005   0.000000   0.000000  -0.013138  -0.000254
    16  N    0.000608  -0.100580   0.000320  -0.049417  -0.001463  -0.001440
    17  N    0.010618   0.101419  -0.012830   0.054664   0.012043   0.000903
    18  C    0.001447  -0.012921   0.000909  -0.009474  -0.030633   0.014928
    19  C   -0.009744  -0.004290  -0.000841   0.015203  -0.000220  -0.001236
    20  O    0.021345  -0.001100  -0.000020  -0.000224   0.000261   0.000022
    21  O   -0.000002   0.000196   0.000073   0.000189  -0.023430   0.026214
    22  O    0.000538   0.016804  -0.000051   0.012022   0.000122   0.000004
    23  O    0.000016   0.001736   0.005393   0.010394  -0.002556   0.002102
    24  C    0.000001  -0.000855   0.004308   0.000535  -0.001164   0.001024
    25  H    0.000000   0.000407   0.000262  -0.000059   0.000000   0.000000
    26  H    0.000000  -0.000122   0.000000  -0.000002   0.000001  -0.000007
    27  H    0.000000   0.000019  -0.000001   0.000019   0.000040  -0.000030
    28  C   -0.001961   0.002930  -0.000043   0.001660   0.000146  -0.000002
    29  H   -0.001568  -0.000037   0.000000  -0.000009   0.000000   0.000000
    30  H   -0.000278   0.000000   0.000000   0.000004   0.000000   0.000000
    31  H    0.000036   0.000082  -0.000001   0.000013   0.000000   0.000000
    32  O    0.000002  -0.020044   0.001490   0.001777   0.000000   0.000000
    33  H    0.000000   0.011515  -0.001748  -0.002080   0.000000   0.000000
    34  H    0.000000   0.001071  -0.000048   0.000010   0.000000   0.000000
    35  O    0.269572   0.000004   0.000000   0.000001   0.000014   0.000000
    36  H   -0.013847   0.000000   0.000000   0.000000   0.000000   0.000000
    37  H    0.328788   0.000005   0.000000  -0.000001   0.000000   0.000000
    38  O    0.000005   8.351394   0.256725   0.231769   0.000002   0.000003
    39  H    0.000000   0.256725   0.368381  -0.008955   0.000000   0.000000
    40  H   -0.000001   0.231769  -0.008955   0.296436   0.000000   0.000000
    41  O    0.000000   0.000002   0.000000   0.000000   8.343668   0.251012
    42  H    0.000000   0.000003   0.000000   0.000000   0.251012   0.312354
    43  H    0.000000   0.000000   0.000000   0.000000   0.267471  -0.016062
              43
     1  C    0.000197
     2  C    0.000634
     3  C   -0.000324
     4  C   -0.000843
     5  H    0.000000
     6  H    0.000001
     7  C    0.002976
     8  H    0.000001
     9  H   -0.000011
    10  C    0.000051
    11  H    0.000000
    12  C   -0.003136
    13  H    0.000000
    14  H    0.000000
    15  H    0.000368
    16  N   -0.001896
    17  N   -0.000077
    18  C    0.005670
    19  C   -0.000284
    20  O   -0.000006
    21  O    0.000470
    22  O    0.000000
    23  O    0.000052
    24  C    0.000254
    25  H    0.000000
    26  H    0.000000
    27  H    0.000000
    28  C    0.000000
    29  H    0.000000
    30  H    0.000000
    31  H    0.000000
    32  O    0.000000
    33  H    0.000000
    34  H    0.000000
    35  O    0.000000
    36  H    0.000000
    37  H    0.000000
    38  O    0.000000
    39  H    0.000000
    40  H    0.000000
    41  O    0.267471
    42  H   -0.016062
    43  H    0.369894
 Mulliken charges:
               1
     1  C   -0.199907
     2  C    0.016980
     3  C   -0.119295
     4  C    0.158265
     5  H    0.218783
     6  H    0.176997
     7  C   -0.184551
     8  H    0.163375
     9  H    0.204121
    10  C   -0.337752
    11  H    0.182503
    12  C   -0.271856
    13  H    0.165831
    14  H    0.202839
    15  H    0.212273
    16  N   -0.462242
    17  N   -0.259858
    18  C    0.333973
    19  C    0.288940
    20  O   -0.437414
    21  O   -0.470755
    22  O   -0.067696
    23  O   -0.326216
    24  C   -0.140460
    25  H    0.152614
    26  H    0.167793
    27  H    0.161255
    28  C   -0.150180
    29  H    0.172296
    30  H    0.162030
    31  H    0.194033
    32  O   -0.818506
    33  H    0.438901
    34  H    0.382214
    35  O   -0.763214
    36  H    0.395233
    37  H    0.400586
    38  O   -0.780554
    39  H    0.379058
    40  H    0.464555
    41  O   -0.799750
    42  H    0.420155
    43  H    0.374601
 Sum of Mulliken charges =   0.00000
 Mulliken charges with hydrogens summed into heavy atoms:
               1
     1  C    0.018876
     2  C    0.219819
     3  C    0.092978
     4  C    0.335262
     7  C    0.182946
    10  C   -0.155249
    12  C   -0.106025
    16  N   -0.462242
    17  N   -0.259858
    18  C    0.333973
    19  C    0.288940
    20  O   -0.437414
    21  O   -0.470755
    22  O   -0.067696
    23  O   -0.326216
    24  C    0.341202
    28  C    0.378179
    32  O    0.002610
    35  O    0.032605
    38  O    0.063059
    41  O   -0.004994
 Electronic spatial extent (au):  <R**2>=           6514.5408
 Charge=              0.0000 electrons
 Dipole moment (field-independent basis, Debye):
    X=              0.4501    Y=              0.6556    Z=              4.9781  Tot=              5.0412
 Quadrupole moment (field-independent basis, Debye-Ang):
   XX=           -137.3184   YY=           -108.0760   ZZ=           -115.2975
   XY=            -11.4756   XZ=             -7.4481   YZ=              2.2236
 Traceless Quadrupole moment (field-independent basis, Debye-Ang):
   XX=            -17.0878   YY=             12.1547   ZZ=              4.9331
   XY=            -11.4756   XZ=             -7.4481   YZ=              2.2236
 Octapole moment (field-independent basis, Debye-Ang**2):
  XXX=             49.7773  YYY=             88.1543  ZZZ=             18.0655  XYY=             -7.6990
  XXY=              3.7680  XXZ=            -22.2183  XZZ=              7.7914  YZZ=            -25.8850
  YYZ=             -6.3782  XYZ=              9.7207
 Hexadecapole moment (field-independent basis, Debye-Ang**3):
 XXXX=          -4152.3707 YYYY=          -2370.0633 ZZZZ=          -1274.8148 XXXY=           -104.3823
 XXXZ=              8.8836 YYYX=            -57.0170 YYYZ=            232.7780 ZZZX=             21.5310
 ZZZY=             31.6709 XXYY=           -974.0170 XXZZ=           -724.9590 YYZZ=           -581.5838
 XXYZ=            193.9461 YYXZ=             20.1274 ZZXY=             32.2826
 N-N= 1.974996155792D+03 E-N=-6.625299207078D+03  KE= 1.133305447765D+03
 1\1\GINC-D8S1B2\FTS\RB3LYP\6-31+G(d,p)\C11H22N2O8\CHMBNN\04-Feb-2021\0
 \\# opt=(calcfc,ts,noeigentest) b3lyp/6-31+g(d,p) scrf=(cpcm,solvent=t
 oluene) empiricaldispersion=gd3 int=superfine\\Opt superfine\\0,1\C,0.
 2334196112,-0.3639633508,1.2513636806\C,0.7142069235,-1.8173401475,1.0
 158308023\C,-1.5959787144,-1.944410708,1.0197023535\C,-1.2577447486,-0
 .5420032767,1.4658029712\H,0.8276461642,0.396336881,1.7384527128\H,-1.
 9598318965,0.2672090759,1.6059971374\C,-0.4138067427,-2.4976943742,0.2
 326916767\H,-0.3310741163,-3.58594246,0.2979354968\H,-0.4385513198,-2.
 1894537633,-0.8127646486\C,0.3110909143,-1.7835421931,2.4228197857\H,0
 .9694907554,-1.6246505573,3.2675417795\C,-1.1723745426,-1.763475085,2.
 4523643751\H,-1.788833088,-1.8549612255,3.3358120987\H,1.7560856104,-1
 .9634511504,0.7522387559\H,-2.6235667639,-2.168526205,0.7603551442\N,-
 0.9440381094,0.3683694334,-1.1522007327\N,0.188888621,0.6786882617,-0.
 5736028353\C,-1.9896723794,1.2329721343,-0.8474961457\C,1.3175335623,0
 .0338999944,-1.1656126042\O,1.3083524395,-0.7712279997,-2.0831367822\O
 ,-3.1386634089,1.0096051908,-1.2305657912\O,2.4099059232,0.5070338309,
 -0.5658029682\O,-1.6690641122,2.348250355,-0.151046272\C,-2.7614805733
 ,3.243248539,0.1417062153\H,-2.3196781302,4.0608503103,0.7111109449\H,
 -3.2081472894,3.6153071747,-0.7832145783\H,-3.5257643807,2.7323587272,
 0.7327365815\C,3.6938103675,0.0423926031,-1.0460545264\H,3.8081920894,
 -1.0234693663,-0.8357688618\H,3.7722400772,0.2173336057,-2.12165906\H,
 4.4172806707,0.6414345083,-0.4971043886\O,3.9512540883,2.621489467,0.9
 181658333\H,2.9726792404,2.6798275237,0.903888313\H,4.2400339796,3.330
 7261517,1.5050190751\O,2.5413013978,-3.221336284,-1.2934759447\H,2.917
 390088,-3.8064567631,-1.9624353232\H,2.1269377539,-2.4872887247,-1.781
 909387\O,1.1281419091,2.8379210494,1.0326388241\H,0.6822976476,3.68341
 97895,0.9020456289\H,0.691524713,2.2121552881,0.4091155092\O,-4.162796
 3202,-1.6028915064,-0.9136889665\H,-3.7802210856,-0.7283924522,-1.1305
 251275\H,-4.5447738256,-1.9289043018,-1.7375007516\\Version=ES64L-G09R
 evD.01\State=1-A\HF=-1143.6916766\RMSD=5.756e-09\RMSF=4.781e-06\Dipole
 =0.2135477,0.2160223,1.9599684\Quadrupole=-13.0066673,9.0689812,3.9376
 86,-8.2463231,-5.402899,1.9468629\PG=C01 [X(C11H22N2O8)]\\@


 REVOLUTIONS HAVE NEVER LIGHTENED THE BURDEN OF TYRANNY:
 THEY HAVE MERELY SHIFTED IT TO OTHER SHOULDERS.
                                   -- G. B. SHAW (1903)
 Job cpu time:       3 days  0 hours 47 minutes  5.3 seconds.
 File lengths (MBytes):  RWF=   1183 Int=      0 D2E=      0 Chk=     29 Scr=      1
 Normal termination of Gaussian 09 at Thu Feb  4 06:09:56 2021.
