 Entering Gaussian System, Link 0=g09
 Input=TS_job1_b3lyp_freq.com
 Output=TS_job1_b3lyp_freq.log
 Initial command:
 /apps/applications/gaussian/G09.D01/2/default/g09/l1.exe "/local/1749132.1.40core-192G.q/Gau-436551.inp" -scrdir="/local/1749132.1.40core-192G.q/"
 Entering Link 1 = /apps/applications/gaussian/G09.D01/2/default/g09/l1.exe PID=    436553.
  
 Copyright (c) 1988,1990,1992,1993,1995,1998,2003,2009,2013,
            Gaussian, Inc.  All Rights Reserved.
  
 This is part of the Gaussian(R) 09 program.  It is based on
 the Gaussian(R) 03 system (copyright 2003, Gaussian, Inc.),
 the Gaussian(R) 98 system (copyright 1998, Gaussian, Inc.),
 the Gaussian(R) 94 system (copyright 1995, Gaussian, Inc.),
 the Gaussian 92(TM) system (copyright 1992, Gaussian, Inc.),
 the Gaussian 90(TM) system (copyright 1990, Gaussian, Inc.),
 the Gaussian 88(TM) system (copyright 1988, Gaussian, Inc.),
 the Gaussian 86(TM) system (copyright 1986, Carnegie Mellon
 University), and the Gaussian 82(TM) system (copyright 1983,
 Carnegie Mellon University). Gaussian is a federally registered
 trademark of Gaussian, Inc.
  
 This software contains proprietary and confidential information,
 including trade secrets, belonging to Gaussian, Inc.
  
 This software is provided under written license and may be
 used, copied, transmitted, or stored only in accord with that
 written license.
  
 The following legend is applicable only to US Government
 contracts under FAR:
  
                    RESTRICTED RIGHTS LEGEND
  
 Use, reproduction and disclosure by the US Government is
 subject to restrictions as set forth in subparagraphs (a)
 and (c) of the Commercial Computer Software - Restricted
 Rights clause in FAR 52.227-19.
  
 Gaussian, Inc.
 340 Quinnipiac St., Bldg. 40, Wallingford CT 06492
  
  
 ---------------------------------------------------------------
 Warning -- This program may not be used in any manner that
 competes with the business of Gaussian, Inc. or will provide
 assistance to any competitor of Gaussian, Inc.  The licensee
 of this program is prohibited from giving any competitor of
 Gaussian, Inc. access to this program.  By using this program,
 the user acknowledges that Gaussian, Inc. is engaged in the
 business of creating and licensing software in the field of
 computational chemistry and represents and warrants to the
 licensee that it is not a competitor of Gaussian, Inc. and that
 it will not use this program in any manner prohibited above.
 ---------------------------------------------------------------
  

 Cite this work as:
 Gaussian 09, Revision D.01,
 M. J. Frisch, G. W. Trucks, H. B. Schlegel, G. E. Scuseria, 
 M. A. Robb, J. R. Cheeseman, G. Scalmani, V. Barone, B. Mennucci, 
 G. A. Petersson, H. Nakatsuji, M. Caricato, X. Li, H. P. Hratchian, 
 A. F. Izmaylov, J. Bloino, G. Zheng, J. L. Sonnenberg, M. Hada, 
 M. Ehara, K. Toyota, R. Fukuda, J. Hasegawa, M. Ishida, T. Nakajima, 
 Y. Honda, O. Kitao, H. Nakai, T. Vreven, J. A. Montgomery, Jr., 
 J. E. Peralta, F. Ogliaro, M. Bearpark, J. J. Heyd, E. Brothers, 
 K. N. Kudin, V. N. Staroverov, T. Keith, R. Kobayashi, J. Normand, 
 K. Raghavachari, A. Rendell, J. C. Burant, S. S. Iyengar, J. Tomasi, 
 M. Cossi, N. Rega, J. M. Millam, M. Klene, J. E. Knox, J. B. Cross, 
 V. Bakken, C. Adamo, J. Jaramillo, R. Gomperts, R. E. Stratmann, 
 O. Yazyev, A. J. Austin, R. Cammi, C. Pomelli, J. W. Ochterski, 
 R. L. Martin, K. Morokuma, V. G. Zakrzewski, G. A. Voth, 
 P. Salvador, J. J. Dannenberg, S. Dapprich, A. D. Daniels, 
 O. Farkas, J. B. Foresman, J. V. Ortiz, J. Cioslowski, 
 and D. J. Fox, Gaussian, Inc., Wallingford CT, 2013.
 
 ******************************************
 Gaussian 09:  ES64L-G09RevD.01 24-Apr-2013
                 5-Feb-2021 
 ******************************************
 %nprocshared=4
 Will use up to    4 processors via shared memory.
 %mem=8GB
 %chk=TS_job1_b3lyp_freq.chk
 ----------------------------------------------------------------------
 # freq b3lyp/6-31+g(d,p) scrf=(cpcm,solvent=toluene) empiricaldispersi
 on=gd3
 ----------------------------------------------------------------------
 1/10=4,30=1,38=1/1,3;
 2/12=2,17=6,18=5,40=1/2;
 3/5=1,6=6,7=111,11=2,16=1,25=1,30=1,70=2101,71=2,72=13,74=-5,124=31,140=1/1,2,3;
 4//1;
 5/5=2,38=5,53=13,98=1/2;
 8/6=4,10=90,11=11/1;
 11/6=1,8=1,9=11,15=111,16=1/1,2,10;
 10/6=1/2;
 6/7=2,8=2,9=2,10=2,18=1,28=1/1;
 7/8=1,10=1,25=1/1,2,3,16;
 1/10=4,30=1/3;
 99//99;
 ----
 freq
 ----
 Symbolic Z-matrix:
 Charge =  0 Multiplicity = 1
 C                     0.20851  -0.34061   1.25935 
 C                     0.70243  -1.79537   1.06271 
 C                    -1.60662  -1.93749   1.02816 
 C                    -1.28512  -0.52396   1.45092 
 H                     0.7892    0.43349   1.741 
 H                    -1.99461   0.28335   1.56173 
 C                    -0.40714  -2.49918   0.27397 
 H                    -0.31885  -3.58527   0.36331 
 H                    -0.41507  -2.21281  -0.77795 
 C                     0.27398  -1.7351    2.4613 
 H                     0.91616  -1.55444   3.3141 
 C                    -1.20987  -1.72416   2.46405 
 H                    -1.84147  -1.80139   3.33811 
 H                     1.74975  -1.94006   0.82077 
 H                    -2.62799  -2.17367   0.75531 
 N                    -0.93023   0.33406  -1.17948 
 N                     0.19021   0.66372  -0.58742 
 C                    -1.98649   1.1979   -0.91147 
 C                     1.33324   0.01424  -1.14573 
 O                     1.34548  -0.80975  -2.04631 
 O                    -3.12703   0.95912  -1.31017 
 O                     2.41175   0.50685  -0.53658 
 O                    -1.68532   2.32944  -0.2328 
 C                    -2.78833   3.22312   0.0218 
 H                    -2.36187   4.05521   0.58183 
 H                    -3.22066   3.57301  -0.91846 
 H                    -3.55989   2.71957   0.60966 
 C                     3.7069    0.04081  -0.98416 
 H                     3.8241   -1.0197   -0.74973 
 H                     3.80349   0.19396  -2.06161 
 H                     4.4167    0.65582  -0.43502 
 O                     3.91315   2.66165   0.93022 
 H                     2.93465   2.71325   0.89734 
 H                     4.18698   3.38476   1.50723 
 O                     2.57925  -3.23484  -1.18404 
 H                     2.97087  -3.8312   -1.83388 
 H                     2.16916  -2.5138   -1.69493 
 O                     1.08715   2.86186   0.98997 
 H                     0.63849   3.70153   0.8339 
 H                     0.66566   2.22047   0.37194 
 O                    -4.14047  -1.65293  -0.95724 
 H                    -3.7595   -0.78061  -1.1854 
 H                    -4.50561  -1.99842  -1.78075 
 

 GradGradGradGradGradGradGradGradGradGradGradGradGradGradGradGradGradGrad
 Berny optimization.
 Initialization pass.
 Trust Radius=3.00D-01 FncErr=1.00D-07 GrdErr=1.00D-07
 Number of steps in this run=      2 maximum allowed number of steps=      2.
 GradGradGradGradGradGradGradGradGradGradGradGradGradGradGradGradGradGrad

                          Input orientation:                          
 ---------------------------------------------------------------------
 Center     Atomic      Atomic             Coordinates (Angstroms)
 Number     Number       Type             X           Y           Z
 ---------------------------------------------------------------------
      1          6           0        0.208509   -0.340613    1.259354
      2          6           0        0.702431   -1.795366    1.062705
      3          6           0       -1.606622   -1.937493    1.028159
      4          6           0       -1.285124   -0.523961    1.450915
      5          1           0        0.789198    0.433492    1.740997
      6          1           0       -1.994608    0.283353    1.561734
      7          6           0       -0.407143   -2.499176    0.273971
      8          1           0       -0.318852   -3.585274    0.363312
      9          1           0       -0.415072   -2.212812   -0.777949
     10          6           0        0.273984   -1.735098    2.461299
     11          1           0        0.916155   -1.554435    3.314100
     12          6           0       -1.209869   -1.724163    2.464047
     13          1           0       -1.841469   -1.801387    3.338111
     14          1           0        1.749748   -1.940059    0.820772
     15          1           0       -2.627994   -2.173670    0.755309
     16          7           0       -0.930234    0.334063   -1.179481
     17          7           0        0.190206    0.663723   -0.587422
     18          6           0       -1.986492    1.197905   -0.911472
     19          6           0        1.333244    0.014242   -1.145729
     20          8           0        1.345481   -0.809749   -2.046315
     21          8           0       -3.127034    0.959118   -1.310171
     22          8           0        2.411749    0.506852   -0.536576
     23          8           0       -1.685321    2.329442   -0.232798
     24          6           0       -2.788328    3.223117    0.021800
     25          1           0       -2.361865    4.055213    0.581827
     26          1           0       -3.220657    3.573010   -0.918457
     27          1           0       -3.559893    2.719565    0.609658
     28          6           0        3.706900    0.040807   -0.984156
     29          1           0        3.824099   -1.019699   -0.749732
     30          1           0        3.803493    0.193957   -2.061605
     31          1           0        4.416700    0.655821   -0.435021
     32          8           0        3.913149    2.661646    0.930223
     33          1           0        2.934645    2.713250    0.897343
     34          1           0        4.186976    3.384759    1.507227
     35          8           0        2.579246   -3.234840   -1.184039
     36          1           0        2.970870   -3.831201   -1.833884
     37          1           0        2.169156   -2.513796   -1.694932
     38          8           0        1.087154    2.861863    0.989970
     39          1           0        0.638490    3.701532    0.833903
     40          1           0        0.665656    2.220471    0.371944
     41          8           0       -4.140474   -1.652926   -0.957239
     42          1           0       -3.759502   -0.780611   -1.185396
     43          1           0       -4.505612   -1.998423   -1.780746
 ---------------------------------------------------------------------
                    Distance matrix (angstroms):
                    1          2          3          4          5
     1  C    0.000000
     2  C    1.548850   0.000000
     3  C    2.428616   2.313681   0.000000
     4  C    1.516988   2.391140   1.510019   0.000000
     5  H    1.080934   2.331398   3.445237   2.302971   0.000000
     6  H    2.309652   3.441529   2.316763   1.080465   2.793609
     7  C    2.451408   1.532516   1.524151   2.461203   3.490550
     8  H    3.407173   2.176222   2.194437   3.389425   4.390475
     9  H    2.836298   2.193418   2.181196   2.928659   3.846853
    10  C    1.842158   1.463989   2.373085   2.217780   2.342448
    11  H    2.489198   2.274314   3.425881   3.062509   2.538233
    12  C    2.318899   2.371860   1.504891   1.572445   3.028951
    13  H    3.264583   3.413054   2.325845   2.345815   3.803402
    14  H    2.264067   1.084592   3.362772   3.407765   2.720885
    15  H    3.414661   3.365908   1.083249   2.238014   4.409770
    16  N    2.774858   3.496779   3.239003   2.789469   3.390505
    17  N    2.102286   3.005397   3.550355   2.782447   2.415229
    18  C    3.449283   4.481892   3.706372   3.006262   3.914636
    19  C    2.678689   2.924002   4.144619   3.726671   2.967313
    20  O    3.527073   3.324298   4.408980   4.385473   4.024777
    21  O    4.406541   5.280391   4.021168   3.635348   4.992272
    22  O    2.966113   3.283242   4.956866   4.321986   2.797390
    23  O    3.597541   4.939001   4.450049   3.337208   3.689680
    24  C    4.817961   6.201133   5.388978   4.282824   4.851426
    25  H    5.137037   6.621966   6.056577   4.783672   4.938597
    26  H    5.640788   6.937945   6.063008   5.113256   5.745277
    27  H    4.897719   6.225533   5.067406   4.050031   5.041890
    28  C    4.173435   4.072837   6.016361   5.582906   4.011689
    29  H    4.191667   3.692072   5.787571   5.585048   4.186421
    30  H    4.923255   4.830663   6.584760   6.224727   4.858306
    31  H    4.644638   4.695455   6.719121   6.120412   4.235948
    32  O    4.779774   5.494654   7.185370   6.118926   3.921874
    33  H    4.109617   5.033661   6.501510   5.347189   3.242220
    34  H    5.456009   6.258862   7.881729   6.724964   4.506609
    35  O    4.468458   3.262266   4.909014   5.406034   5.021630
    36  H    5.420606   4.204839   5.721088   6.311991   5.977213
    37  H    4.158686   3.204994   4.690826   5.078174   4.732483
    38  O    3.331732   4.673659   5.503790   4.159805   2.559259
    39  H    4.087154   5.502029   6.072633   4.683565   3.394940
    40  H    2.748751   4.074979   4.783569   3.535764   2.254521
    41  O    5.054612   5.249209   3.231592   3.902152   5.994605
    42  H    4.681401   5.098287   3.297437   3.624714   5.543329
    43  H    5.849229   5.937184   4.037054   4.794707   6.808223
                    6          7          8          9         10
     6  H    0.000000
     7  C    3.452658   0.000000
     8  H    4.382995   1.093337   0.000000
     9  H    3.768274   1.090231   1.787565   0.000000
    10  C    3.166997   2.414985   2.859398   3.346003   0.000000
    11  H    3.862744   3.447613   3.789024   4.353216   1.082724
    12  C    2.336687   2.457936   2.944611   3.373576   1.483896
    13  H    2.743193   3.454440   3.788145   4.375595   2.290924
    14  H    4.417328   2.294293   2.682370   2.704949   2.216127
    15  H    2.662416   2.295609   2.734671   2.692478   3.394735
    16  N    2.941041   3.226978   4.256196   2.629295   4.357390
    17  N    3.088198   3.332080   4.383721   2.945694   3.880214
    18  C    2.636896   4.191423   5.223495   3.757683   5.008777
    19  C    4.298532   3.370722   4.238295   2.855108   4.146429
    20  O    5.036773   3.362972   4.034829   2.583967   4.724718
    21  O    3.160203   4.676228   5.598029   4.207034   5.748888
    22  O    4.885575   4.199922   5.001147   3.930108   4.310874
    23  O    2.739066   5.020568   6.099709   4.747925   5.255237
    24  C    3.412272   6.203085   7.250457   5.985087   6.317658
    25  H    3.914336   6.846585   7.911934   6.702770   6.633839
    26  H    4.298417   6.797734   7.829715   6.431702   7.198005
    27  H    3.048228   6.106372   7.093379   6.011963   6.162078
    28  C    6.248806   4.995973   5.583083   4.702337   5.177829
    29  H    6.395168   4.597850   4.998508   4.403962   4.840024
    30  H    6.837730   5.517004   6.095616   5.023604   6.052714
    31  H    6.725372   5.807421   6.407002   5.629625   5.591713
    32  O    6.399740   6.762372   7.566719   6.738820   5.909236
    33  H    5.535644   6.222984   7.109278   6.188158   5.414137
    34  H    6.916189   7.566210   8.378090   7.598268   6.514192
    35  O    6.390391   3.403750   3.303948   3.189889   4.566393
    36  H    7.288055   4.198609   3.963637   3.898562   5.487754
    37  H    5.980539   3.242547   3.402149   2.758565   4.633822
    38  O    4.058680   5.611267   6.628358   5.579834   4.894702
    39  H    4.375716   6.313133   7.364476   6.219930   5.686671
    40  H    3.499290   4.841029   5.888634   4.705765   4.490583
    41  O    3.833946   4.021166   4.481363   3.771503   5.583959
    42  H    3.434180   4.039991   4.701351   3.660932   5.520728
    43  H    4.762753   4.611948   4.964276   4.217118   6.396001
                   11         12         13         14         15
    11  H    0.000000
    12  C    2.295948   0.000000
    13  H    2.768764   1.081143   0.000000
    14  H    2.657116   3.392093   4.387831   0.000000
    15  H    4.414958   2.265595   2.725451   4.384459   0.000000
    16  N    5.212279   4.194018   5.079285   4.044125   3.593679
    17  N    4.546328   4.119912   5.061055   3.345872   4.218528
    18  C    5.818608   4.531639   5.203435   5.177545   3.815390
    19  C    4.746028   4.745520   5.786202   2.803550   4.908392
    20  O    5.428897   5.263965   6.334985   3.108250   5.049543
    21  O    6.636958   5.012010   5.556941   6.060458   3.785447
    22  O    4.616645   5.205505   6.199277   2.875415   5.852621
    23  O    5.867935   4.891906   5.462556   5.580175   4.705636
    24  C    6.883853   5.738613   6.094268   6.920323   5.448766
    25  H    7.048325   6.186359   6.493664   7.273633   6.236979
    26  H    7.830609   6.598837   6.993188   7.623895   6.014738
    27  H    6.753968   5.357993   5.553057   7.067457   4.983312
    28  C    5.367314   6.259380   7.270493   3.318439   6.932570
    29  H    5.025616   6.013774   7.029947   2.759797   6.725050
    30  H    6.347582   7.021005   8.062501   4.132794   7.409770
    31  H    5.585244   6.762189   7.709674   3.927880   7.684440
    32  O    5.695628   6.916159   7.670216   5.086057   8.136180
    33  H    5.303598   6.270741   7.010746   4.802409   7.405749
    34  H    6.193440   7.492832   8.160294   5.896184   8.826400
    35  O    5.081622   5.472483   6.484393   2.526617   5.657075
    36  H    5.992266   6.355344   7.350393   3.480626   6.387379
    37  H    5.251741   5.416497   6.474887   2.614162   5.397408
    38  O    4.993447   5.336745   5.986359   4.850373   6.262107
    39  H    5.818390   5.959192   6.534782   5.750010   6.722655
    40  H    4.792593   4.842998   5.590990   4.322813   5.504868
    41  O    6.619935   4.505410   4.874166   6.159422   2.343414
    42  H    6.534986   4.550753   5.018262   5.976694   2.643343
    43  H    7.453197   5.381023   5.774009   6.775015   3.160338
                   16         17         18         19         20
    16  N    0.000000
    17  N    1.309426   0.000000
    18  C    1.390587   2.264591   0.000000
    19  C    2.286210   1.428310   3.532220   0.000000
    20  O    2.690462   2.373636   4.052232   1.220724   0.000000
    21  O    2.287729   3.407889   1.231591   4.562227   4.865613
    22  O    3.407643   2.227655   4.467955   1.333006   2.269290
    23  O    2.334074   2.533373   1.353395   3.912203   4.725370
    24  C    3.638986   3.974080   2.369688   5.352323   6.134288
    25  H    4.358753   4.402546   3.245775   5.741753   6.657282
    26  H    3.975544   4.495278   2.676628   5.783986   6.428861
    27  H    3.975770   4.441028   2.665497   5.860285   6.600981
    28  C    4.650501   3.593405   5.810238   2.379297   2.725422
    29  H    4.961959   4.008171   6.221487   2.725840   2.805130
    30  H    4.817255   3.930616   5.987875   2.640692   2.655086
    31  H    5.408091   4.229248   6.443736   3.228689   3.765176
    32  O    5.772941   4.489460   6.351389   4.239603   5.244357
    33  H    4.991094   3.733234   5.457625   3.744766   4.858198
    34  H    6.535364   5.269323   6.981701   5.151927   6.188348
    35  O    5.005351   4.611102   6.369418   3.480018   2.854253
    36  H    5.744239   5.430479   7.121670   4.235895   3.437468
    37  H    4.240543   3.903774   5.626717   2.718704   1.925016
    38  O    3.894373   2.850351   3.978886   3.568013   4.771425
    39  H    4.225454   3.383697   4.025545   4.242374   5.398810
    40  H    2.917588   1.889418   3.118764   2.759792   3.936035
    41  O    3.781952   4.925283   3.573370   5.725082   5.656212
    42  H    3.040936   4.247807   2.670791   5.154554   5.177150
    43  H    4.311072   5.528268   4.161504   6.208567   5.976518
                   21         22         23         24         25
    21  O    0.000000
    22  O    5.610803   0.000000
    23  O    2.262091   4.494452   0.000000
    24  C    2.648501   5.893274   1.442255   0.000000
    25  H    3.708227   6.052196   2.024750   1.089901   0.000000
    26  H    2.644738   6.424263   2.091374   1.092436   1.794685
    27  H    2.640508   6.470739   2.091877   1.092911   1.794436
    28  C    6.903060   1.447391   5.905797   7.302536   7.442961
    29  H    7.249004   2.090580   6.468205   7.894361   8.111346
    30  H    7.013011   2.088197   6.167002   7.547747   7.740069
    31  H    7.600382   2.013041   6.330605   7.662384   7.651065
    32  O    7.581698   3.008129   5.727639   6.786035   6.437329
    33  H    6.685361   2.682860   4.771647   5.811967   5.472973
    34  H    8.204646   3.951064   6.214922   7.133547   6.647796
    35  O    7.082854   3.800990   7.074788   8.483520   8.982078
    36  H    7.772121   4.562272   7.886515   9.293833   9.821876
    37  H    6.344982   3.244219   6.360172   7.774059   8.298534
    38  O    5.164346   3.103381   3.076565   4.010887   3.672383
    39  H    5.128066   3.902389   2.901823   3.554078   3.031627
    40  H    4.336475   2.609739   2.429955   3.613572   3.546296
    41  O    2.823897   6.911818   4.734115   5.153893   6.173737
    42  H    1.855328   6.337418   3.857732   4.293057   5.334947
    43  H    3.296812   7.461518   5.392643   5.784697   6.842800
                   26         27         28         29         30
    26  H    0.000000
    27  H    1.782859   0.000000
    28  C    7.776363   7.907102   0.000000
    29  H    8.411304   8.387692   1.092412   0.000000
    30  H    7.878037   8.230054   1.092557   1.787287   0.000000
    31  H    8.189806   8.305205   1.087937   1.804878   1.798643
    32  O    7.425590   7.480139   3.252104   4.047528   3.879761
    33  H    6.474879   6.500910   3.358328   4.175990   3.982098
    34  H    7.796949   7.827010   4.197556   4.962338   4.802587
    35  O    8.947415   8.738496   3.470075   2.577815   3.745070
    36  H    9.695120   9.567356   4.031901   3.131761   4.116675
    37  H    8.167142   8.094517   3.065266   2.421686   3.183934
    38  O    4.764983   4.664754   4.326500   5.058058   4.879378
    39  H    4.240318   4.317518   5.110909   5.911516   5.541145
    40  H    4.312531   4.261557   3.979838   4.661826   4.458132
    41  O    5.306409   4.680910   8.028121   7.992400   8.230262
    42  H    4.394955   3.938692   7.514146   7.599866   7.675703
    43  H    5.782345   5.372879   8.499316   8.450147   8.598060
                   31         32         33         34         35
    31  H    0.000000
    32  O    2.478061   0.000000
    33  H    2.864384   0.980415   0.000000
    34  H    3.357410   0.964784   1.546356   0.000000
    35  O    4.367437   6.404526   6.311754   7.324398   0.000000
    36  H    4.917378   7.119357   7.091597   8.044378   0.965046
    37  H    4.084765   6.059550   5.884545   7.008450   0.974212
    38  O    4.240648   2.833709   1.855772   3.185886   6.642473
    39  H    5.016113   3.437155   2.500611   3.625667   7.480099
    40  H    4.143628   3.324533   2.380585   3.878676   5.986930
    41  O    8.878528   9.329463   8.518232  10.039835   6.907136
    42  H    8.335267   8.671479   7.833037   9.367339   6.797277
    43  H    9.405511   9.997056   9.204860  10.740135   7.216647
                   36         37         38         39         40
    36  H    0.000000
    37  H    1.548421   0.000000
    38  O    7.504641   6.105501   0.000000
    39  H    8.324611   6.882459   0.964728   0.000000
    40  H    6.841230   5.380128   0.985394   1.551672   0.000000
    41  O    7.488965   6.410672   7.176562   7.397088   6.314176
    42  H    7.417853   6.197785   6.441266   6.596174   5.569006
    43  H    7.698031   6.695185   7.910643   8.110959   7.012500
                   41         42         43
    41  O    0.000000
    42  H    0.978841   0.000000
    43  H    0.964810   1.547316   0.000000
 Stoichiometry    C11H22N2O8
 Framework group  C1[X(C11H22N2O8)]
 Deg. of freedom   123
 Full point group                 C1      NOp   1
 Largest Abelian subgroup         C1      NOp   1
 Largest concise Abelian subgroup C1      NOp   1
                         Standard orientation:                         
 ---------------------------------------------------------------------
 Center     Atomic      Atomic             Coordinates (Angstroms)
 Number     Number       Type             X           Y           Z
 ---------------------------------------------------------------------
      1          6           0        0.208509   -0.340613    1.259354
      2          6           0        0.702431   -1.795366    1.062705
      3          6           0       -1.606622   -1.937493    1.028159
      4          6           0       -1.285124   -0.523961    1.450915
      5          1           0        0.789198    0.433492    1.740997
      6          1           0       -1.994608    0.283353    1.561734
      7          6           0       -0.407143   -2.499176    0.273971
      8          1           0       -0.318852   -3.585274    0.363312
      9          1           0       -0.415072   -2.212812   -0.777949
     10          6           0        0.273984   -1.735098    2.461299
     11          1           0        0.916155   -1.554435    3.314100
     12          6           0       -1.209869   -1.724163    2.464047
     13          1           0       -1.841469   -1.801387    3.338111
     14          1           0        1.749748   -1.940059    0.820772
     15          1           0       -2.627994   -2.173670    0.755309
     16          7           0       -0.930234    0.334063   -1.179481
     17          7           0        0.190206    0.663723   -0.587422
     18          6           0       -1.986492    1.197905   -0.911472
     19          6           0        1.333244    0.014242   -1.145729
     20          8           0        1.345481   -0.809749   -2.046315
     21          8           0       -3.127034    0.959118   -1.310171
     22          8           0        2.411749    0.506852   -0.536576
     23          8           0       -1.685321    2.329442   -0.232798
     24          6           0       -2.788328    3.223117    0.021800
     25          1           0       -2.361865    4.055213    0.581827
     26          1           0       -3.220657    3.573010   -0.918457
     27          1           0       -3.559893    2.719565    0.609658
     28          6           0        3.706900    0.040807   -0.984156
     29          1           0        3.824099   -1.019699   -0.749732
     30          1           0        3.803493    0.193957   -2.061605
     31          1           0        4.416700    0.655821   -0.435021
     32          8           0        3.913149    2.661646    0.930223
     33          1           0        2.934645    2.713250    0.897343
     34          1           0        4.186976    3.384759    1.507227
     35          8           0        2.579246   -3.234840   -1.184039
     36          1           0        2.970870   -3.831201   -1.833884
     37          1           0        2.169156   -2.513796   -1.694932
     38          8           0        1.087154    2.861863    0.989970
     39          1           0        0.638490    3.701532    0.833903
     40          1           0        0.665656    2.220471    0.371944
     41          8           0       -4.140474   -1.652926   -0.957239
     42          1           0       -3.759502   -0.780611   -1.185396
     43          1           0       -4.505612   -1.998423   -1.780746
 ---------------------------------------------------------------------
 Rotational constants (GHZ):      0.3184630      0.2460522      0.1907755
 Standard basis: 6-31+G(d,p) (6D, 7F)
 There are   509 symmetry adapted cartesian basis functions of A   symmetry.
 There are   509 symmetry adapted basis functions of A   symmetry.
   509 basis functions,   826 primitive gaussians,   509 cartesian basis functions
    83 alpha electrons       83 beta electrons
       nuclear repulsion energy      1975.0483908459 Hartrees.
 NAtoms=   43 NActive=   43 NUniq=   43 SFac= 1.00D+00 NAtFMM=   60 NAOKFM=F Big=F
 Integral buffers will be    131072 words long.
 Raffenetti 2 integral format.
 Two-electron integral symmetry is turned on.
 Nuclear repulsion after empirical dispersion term =     1974.9961405683 Hartrees.
 Force inversion solution in PCM.
 ------------------------------------------------------------------------------
 Polarizable Continuum Model (PCM)
 =================================
 Model                : C-PCM.
 Atomic radii         : UFF (Universal Force Field).
 Polarization charges : Total charges.
 Charge compensation  : None.
 Solution method      : Matrix inversion.
 Cavity type          : Scaled VdW (van der Waals Surface) (Alpha=1.100).
 Cavity algorithm     : GePol (No added spheres)
                        Default sphere list used, NSphG=   43.
                        Lebedev-Laikov grids with approx.  5.0 points / Ang**2.
                        Smoothing algorithm: Karplus/York (Gamma=1.0000).
                        Polarization charges: spherical gaussians, with
                                              point-specific exponents (IZeta= 3).
                        Self-potential: point-specific (ISelfS= 7).
                        Self-field    : sphere-specific E.n sum rule (ISelfD= 2).
 1st derivatives      : Analytical E(r).r(x)/FMM algorithm (CHGder, D1EAlg=3).
                        Cavity 1st derivative terms included.
 2nd derivatives      : Analytical E(r).r(xy)/FMM algorithm (CHGder, D2EAlg=3).
                        Cavity 2nd derivative terms included.
 Solvent              : Toluene, Eps=   2.374100 Eps(inf)=   2.238315
 ------------------------------------------------------------------------------
 One-electron integrals computed using PRISM.
 NBasis=   509 RedAO= T EigKep=  3.65D-06  NBF=   509
 NBsUse=   509 1.00D-06 EigRej= -1.00D+00 NBFU=   509
 ExpMin= 4.38D-02 ExpMax= 5.48D+03 ExpMxC= 8.25D+02 IAcc=2 IRadAn=         4 AccDes= 0.00D+00
 Harris functional with IExCor=  402 and IRadAn=       4 diagonalized for initial guess.
 HarFok:  IExCor=  402 AccDes= 0.00D+00 IRadAn=         4 IDoV= 1 UseB2=F ITyADJ=14
 ICtDFT=  3500011 ScaDFX=  1.000000  1.000000  1.000000  1.000000
 FoFCou: FMM=F IPFlag=           0 FMFlag=      100000 FMFlg1=           0
         NFxFlg=           0 DoJE=T BraDBF=F KetDBF=T FulRan=T
         wScrn=  0.000000 ICntrl=     500 IOpCl=  0 I1Cent=   200000004 NGrid=           0
         NMat0=    1 NMatS0=      1 NMatT0=    0 NMatD0=    1 NMtDS0=    0 NMtDT0=    0
 Petite list used in FoFCou.
 Requested convergence on RMS density matrix=1.00D-08 within 128 cycles.
 Requested convergence on MAX density matrix=1.00D-06.
 Requested convergence on             energy=1.00D-06.
 No special actions if energy rises.
 Inv3:  Mode=1 IEnd=    28440723.
 Iteration    1 A*A^-1 deviation from unit magnitude is 6.11D-15 for   3063.
 Iteration    1 A*A^-1 deviation from orthogonality  is 3.34D-15 for   3064    360.
 Iteration    1 A^-1*A deviation from unit magnitude is 6.11D-15 for   3063.
 Iteration    1 A^-1*A deviation from orthogonality  is 3.25D-15 for   3071    358.
 Error on total polarization charges =  0.01054
 SCF Done:  E(RB3LYP) =  -1143.69170604     A.U. after   18 cycles
            NFock= 18  Conv=0.76D-08     -V/T= 2.0092
 DoSCS=F DFT=T ScalE2(SS,OS)=  1.000000  1.000000
 Range of M.O.s used for correlation:     1   509
 NBasis=   509 NAE=    83 NBE=    83 NFC=     0 NFV=     0
 NROrb=    509 NOA=    83 NOB=    83 NVA=   426 NVB=   426

 **** Warning!!: The largest alpha MO coefficient is  0.86652660D+02


 **** Warning!!: The smallest alpha delta epsilon is  0.94057670D-01

 Symmetrizing basis deriv contribution to polar:
 IMax=3 JMax=2 DiffMx= 0.00D+00
 G2DrvN: will do    44 centers at a time, making    1 passes.
 Calling FoFCou, ICntrl=  3107 FMM=F I1Cent=   0 AccDes= 0.00D+00.
 NEqPCM:  Using equilibrium solvation (IEInf=0, Eps=   2.3741, EpsInf=   2.2383)
 G2PCM: DoFxE=T DoFxN=T DoGrad=T DoDP/DQ/DG/TGxP=FFFF NFrqRd=   0 IEInf=0 SqF1=F DoCFld=F IF1Alg=4.
 End of G2Drv F.D. properties file   721 does not exist.
 End of G2Drv F.D. properties file   722 does not exist.
 End of G2Drv F.D. properties file   788 does not exist.
          IDoAtm=1111111111111111111111111111111111111111111
 NEqPCM:  Using equilibrium solvation (IEInf=0, Eps=   2.3741, EpsInf=   2.2383)
          Differentiating once with respect to electric field.
                with respect to dipole field.
          Differentiating once with respect to nuclear coordinates.
          There are   132 degrees of freedom in the 1st order CPHF.  IDoFFX=6 NUNeed=     3.
    129 vectors produced by pass  0 Test12= 3.54D-14 1.00D-09 XBig12= 3.58D+02 1.44D+01.
 AX will form   129 AO Fock derivatives at one time.
    129 vectors produced by pass  1 Test12= 3.54D-14 1.00D-09 XBig12= 1.16D+02 1.57D+00.
    129 vectors produced by pass  2 Test12= 3.54D-14 1.00D-09 XBig12= 7.73D-01 1.04D-01.
    129 vectors produced by pass  3 Test12= 3.54D-14 1.00D-09 XBig12= 2.96D-03 6.74D-03.
    129 vectors produced by pass  4 Test12= 3.54D-14 1.00D-09 XBig12= 5.48D-06 2.34D-04.
    110 vectors produced by pass  5 Test12= 3.54D-14 1.00D-09 XBig12= 6.92D-09 5.65D-06.
     18 vectors produced by pass  6 Test12= 3.54D-14 1.00D-09 XBig12= 8.78D-12 1.98D-07.
      8 vectors produced by pass  7 Test12= 3.54D-14 1.00D-09 XBig12= 1.01D-12 8.52D-08.
      4 vectors produced by pass  8 Test12= 3.54D-14 1.00D-09 XBig12= 1.60D-14 1.56D-08.
      2 vectors produced by pass  9 Test12= 3.54D-14 1.00D-09 XBig12= 5.10D-16 2.38D-09.
      1 vectors produced by pass 10 Test12= 3.54D-14 1.00D-09 XBig12= 1.90D-16 1.58D-09.
 InvSVY:  IOpt=1 It=  1 EMax= 3.55D-14
 Solved reduced A of dimension   788 with   132 vectors.
 Isotropic polarizability for W=    0.000000      252.38 Bohr**3.
 End of Minotr F.D. properties file   721 does not exist.
 End of Minotr F.D. properties file   722 does not exist.
 End of Minotr F.D. properties file   788 does not exist.

 **********************************************************************

            Population analysis using the SCF density.

 **********************************************************************

 Orbital symmetries:
       Occupied  (A) (A) (A) (A) (A) (A) (A) (A) (A) (A) (A) (A)
                 (A) (A) (A) (A) (A) (A) (A) (A) (A) (A) (A) (A)
                 (A) (A) (A) (A) (A) (A) (A) (A) (A) (A) (A) (A)
                 (A) (A) (A) (A) (A) (A) (A) (A) (A) (A) (A) (A)
                 (A) (A) (A) (A) (A) (A) (A) (A) (A) (A) (A) (A)
                 (A) (A) (A) (A) (A) (A) (A) (A) (A) (A) (A) (A)
                 (A) (A) (A) (A) (A) (A) (A) (A) (A) (A) (A)
       Virtual   (A) (A) (A) (A) (A) (A) (A) (A) (A) (A) (A) (A)
                 (A) (A) (A) (A) (A) (A) (A) (A) (A) (A) (A) (A)
                 (A) (A) (A) (A) (A) (A) (A) (A) (A) (A) (A) (A)
                 (A) (A) (A) (A) (A) (A) (A) (A) (A) (A) (A) (A)
                 (A) (A) (A) (A) (A) (A) (A) (A) (A) (A) (A) (A)
                 (A) (A) (A) (A) (A) (A) (A) (A) (A) (A) (A) (A)
                 (A) (A) (A) (A) (A) (A) (A) (A) (A) (A) (A) (A)
                 (A) (A) (A) (A) (A) (A) (A) (A) (A) (A) (A) (A)
                 (A) (A) (A) (A) (A) (A) (A) (A) (A) (A) (A) (A)
                 (A) (A) (A) (A) (A) (A) (A) (A) (A) (A) (A) (A)
                 (A) (A) (A) (A) (A) (A) (A) (A) (A) (A) (A) (A)
                 (A) (A) (A) (A) (A) (A) (A) (A) (A) (A) (A) (A)
                 (A) (A) (A) (A) (A) (A) (A) (A) (A) (A) (A) (A)
                 (A) (A) (A) (A) (A) (A) (A) (A) (A) (A) (A) (A)
                 (A) (A) (A) (A) (A) (A) (A) (A) (A) (A) (A) (A)
                 (A) (A) (A) (A) (A) (A) (A) (A) (A) (A) (A) (A)
                 (A) (A) (A) (A) (A) (A) (A) (A) (A) (A) (A) (A)
                 (A) (A) (A) (A) (A) (A) (A) (A) (A) (A) (A) (A)
                 (A) (A) (A) (A) (A) (A) (A) (A) (A) (A) (A) (A)
                 (A) (A) (A) (A) (A) (A) (A) (A) (A) (A) (A) (A)
                 (A) (A) (A) (A) (A) (A) (A) (A) (A) (A) (A) (A)
                 (A) (A) (A) (A) (A) (A) (A) (A) (A) (A) (A) (A)
                 (A) (A) (A) (A) (A) (A) (A) (A) (A) (A) (A) (A)
                 (A) (A) (A) (A) (A) (A) (A) (A) (A) (A) (A) (A)
                 (A) (A) (A) (A) (A) (A) (A) (A) (A) (A) (A) (A)
                 (A) (A) (A) (A) (A) (A) (A) (A) (A) (A) (A) (A)
                 (A) (A) (A) (A) (A) (A) (A) (A) (A) (A) (A) (A)
                 (A) (A) (A) (A) (A) (A) (A) (A) (A) (A) (A) (A)
                 (A) (A) (A) (A) (A) (A) (A) (A) (A) (A) (A) (A)
                 (A) (A) (A) (A) (A) (A) (A) (A) (A) (A) (A) (A)
                 (A) (A) (A) (A) (A) (A) (A) (A) (A) (A) (A) (A)
                 (A) (A) (A) (A) (A) (A) (A) (A) (A) (A) (A) (A)
                 (A) (A) (A) (A) (A) (A) (A) (A) (A) (A) (A) (A)
                 (A) (A) (A) (A) (A) (A) (A) (A) (A) (A) (A) (A)
                 (A) (A) (A) (A) (A) (A) (A) (A) (A) (A) (A) (A)
                 (A) (A) (A) (A) (A) (A)
 The electronic state is 1-A.
 Alpha  occ. eigenvalues --  -19.21438 -19.21017 -19.16436 -19.15840 -19.15691
 Alpha  occ. eigenvalues --  -19.15102 -19.14274 -19.14010 -14.41110 -14.37462
 Alpha  occ. eigenvalues --  -10.35701 -10.34399 -10.26825 -10.25862 -10.24927
 Alpha  occ. eigenvalues --  -10.24175 -10.24103 -10.24041 -10.23820 -10.22211
 Alpha  occ. eigenvalues --  -10.20267  -1.13415  -1.12140  -1.04393  -1.02722
 Alpha  occ. eigenvalues --   -1.01535  -1.01047  -1.00806  -0.99393  -0.99057
 Alpha  occ. eigenvalues --   -0.98061  -0.81967  -0.80809  -0.75633  -0.73847
 Alpha  occ. eigenvalues --   -0.71548  -0.70611  -0.60474  -0.60021  -0.58040
 Alpha  occ. eigenvalues --   -0.57636  -0.57063  -0.56811  -0.54659  -0.54064
 Alpha  occ. eigenvalues --   -0.53513  -0.52149  -0.51410  -0.50663  -0.49951
 Alpha  occ. eigenvalues --   -0.49329  -0.48674  -0.47944  -0.47026  -0.46373
 Alpha  occ. eigenvalues --   -0.45084  -0.43752  -0.43074  -0.42591  -0.42150
 Alpha  occ. eigenvalues --   -0.41251  -0.40733  -0.40018  -0.38796  -0.38393
 Alpha  occ. eigenvalues --   -0.37716  -0.37198  -0.37010  -0.36858  -0.36121
 Alpha  occ. eigenvalues --   -0.36036  -0.33021  -0.32695  -0.32116  -0.31725
 Alpha  occ. eigenvalues --   -0.31605  -0.31358  -0.30658  -0.30149  -0.29850
 Alpha  occ. eigenvalues --   -0.29836  -0.26123  -0.21834
 Alpha virt. eigenvalues --   -0.12428  -0.02431  -0.00540   0.00621   0.01116
 Alpha virt. eigenvalues --    0.01468   0.01636   0.02454   0.02831   0.03333
 Alpha virt. eigenvalues --    0.03740   0.03851   0.04362   0.04492   0.05414
 Alpha virt. eigenvalues --    0.05904   0.06059   0.06766   0.07516   0.07838
 Alpha virt. eigenvalues --    0.08290   0.08969   0.09611   0.09721   0.10041
 Alpha virt. eigenvalues --    0.10563   0.10683   0.10852   0.11387   0.11516
 Alpha virt. eigenvalues --    0.12160   0.12852   0.13083   0.13326   0.13783
 Alpha virt. eigenvalues --    0.13991   0.14640   0.14823   0.15201   0.15658
 Alpha virt. eigenvalues --    0.15936   0.16293   0.16380   0.16726   0.17107
 Alpha virt. eigenvalues --    0.17234   0.17938   0.18061   0.18615   0.18724
 Alpha virt. eigenvalues --    0.19118   0.19641   0.19797   0.20033   0.20473
 Alpha virt. eigenvalues --    0.20636   0.20988   0.21282   0.21553   0.21780
 Alpha virt. eigenvalues --    0.22135   0.22809   0.23086   0.23146   0.23493
 Alpha virt. eigenvalues --    0.23647   0.24011   0.24149   0.24898   0.24928
 Alpha virt. eigenvalues --    0.25342   0.25639   0.26149   0.26384   0.27025
 Alpha virt. eigenvalues --    0.27144   0.27202   0.27949   0.28401   0.28586
 Alpha virt. eigenvalues --    0.29063   0.29382   0.29750   0.29891   0.30387
 Alpha virt. eigenvalues --    0.30929   0.31312   0.31789   0.32248   0.32352
 Alpha virt. eigenvalues --    0.33122   0.33560   0.33783   0.34007   0.34458
 Alpha virt. eigenvalues --    0.34840   0.35657   0.36045   0.36456   0.36698
 Alpha virt. eigenvalues --    0.37190   0.37336   0.38259   0.39085   0.39459
 Alpha virt. eigenvalues --    0.39801   0.40155   0.40584   0.41439   0.41629
 Alpha virt. eigenvalues --    0.41768   0.42563   0.43103   0.44221   0.44349
 Alpha virt. eigenvalues --    0.44516   0.45259   0.45968   0.46986   0.47512
 Alpha virt. eigenvalues --    0.48381   0.49647   0.51166   0.53383   0.54134
 Alpha virt. eigenvalues --    0.55331   0.58203   0.59421   0.65301   0.66233
 Alpha virt. eigenvalues --    0.67109   0.69521   0.69959   0.72022   0.73002
 Alpha virt. eigenvalues --    0.73926   0.74692   0.75440   0.75707   0.76741
 Alpha virt. eigenvalues --    0.78455   0.79358   0.79834   0.80224   0.80938
 Alpha virt. eigenvalues --    0.82309   0.83428   0.84067   0.84273   0.85666
 Alpha virt. eigenvalues --    0.86287   0.88056   0.89380   0.91197   0.91928
 Alpha virt. eigenvalues --    0.92969   0.93330   0.93919   0.95080   0.96421
 Alpha virt. eigenvalues --    0.96792   0.97468   0.97782   0.99055   0.99411
 Alpha virt. eigenvalues --    1.00161   1.01651   1.02069   1.03125   1.03981
 Alpha virt. eigenvalues --    1.04671   1.05085   1.06251   1.06956   1.07451
 Alpha virt. eigenvalues --    1.07991   1.09744   1.09999   1.11349   1.12510
 Alpha virt. eigenvalues --    1.12790   1.13427   1.15065   1.15410   1.15541
 Alpha virt. eigenvalues --    1.16251   1.17036   1.17549   1.18408   1.19182
 Alpha virt. eigenvalues --    1.19666   1.20960   1.21189   1.22929   1.23140
 Alpha virt. eigenvalues --    1.23525   1.23972   1.24982   1.25614   1.25949
 Alpha virt. eigenvalues --    1.26615   1.27021   1.27501   1.27803   1.28862
 Alpha virt. eigenvalues --    1.29755   1.29968   1.30686   1.32441   1.33436
 Alpha virt. eigenvalues --    1.33929   1.34744   1.35982   1.37276   1.37735
 Alpha virt. eigenvalues --    1.38416   1.40153   1.40434   1.41611   1.42648
 Alpha virt. eigenvalues --    1.44500   1.45884   1.47030   1.48341   1.49778
 Alpha virt. eigenvalues --    1.50011   1.50982   1.51667   1.52055   1.53266
 Alpha virt. eigenvalues --    1.53825   1.54987   1.57114   1.57336   1.58690
 Alpha virt. eigenvalues --    1.58896   1.59331   1.60046   1.60923   1.61685
 Alpha virt. eigenvalues --    1.62143   1.63410   1.64626   1.65785   1.66989
 Alpha virt. eigenvalues --    1.67189   1.68104   1.69482   1.70056   1.71382
 Alpha virt. eigenvalues --    1.72017   1.73190   1.74598   1.75055   1.76868
 Alpha virt. eigenvalues --    1.78785   1.80827   1.81916   1.82646   1.84307
 Alpha virt. eigenvalues --    1.84878   1.85266   1.86406   1.88478   1.88756
 Alpha virt. eigenvalues --    1.89602   1.90306   1.90838   1.91869   1.92652
 Alpha virt. eigenvalues --    1.93989   1.94592   1.94893   1.95013   1.96726
 Alpha virt. eigenvalues --    1.97798   1.98606   2.00795   2.01057   2.02027
 Alpha virt. eigenvalues --    2.02835   2.03547   2.04554   2.05295   2.06669
 Alpha virt. eigenvalues --    2.07354   2.08761   2.08890   2.10068   2.11735
 Alpha virt. eigenvalues --    2.13355   2.14335   2.14606   2.16364   2.16434
 Alpha virt. eigenvalues --    2.17614   2.20205   2.21516   2.23654   2.26992
 Alpha virt. eigenvalues --    2.27466   2.28462   2.28945   2.30680   2.31191
 Alpha virt. eigenvalues --    2.32123   2.34515   2.35888   2.36738   2.38109
 Alpha virt. eigenvalues --    2.38886   2.39112   2.40123   2.40994   2.41912
 Alpha virt. eigenvalues --    2.42086   2.44175   2.45138   2.46599   2.46883
 Alpha virt. eigenvalues --    2.48410   2.49946   2.50196   2.52191   2.53082
 Alpha virt. eigenvalues --    2.53498   2.54544   2.55360   2.56197   2.57528
 Alpha virt. eigenvalues --    2.57783   2.58789   2.59061   2.59921   2.60506
 Alpha virt. eigenvalues --    2.60666   2.61097   2.62050   2.63521   2.63635
 Alpha virt. eigenvalues --    2.64309   2.64701   2.66002   2.66109   2.66509
 Alpha virt. eigenvalues --    2.66768   2.67484   2.68338   2.69443   2.69719
 Alpha virt. eigenvalues --    2.70110   2.72041   2.74116   2.75626   2.75860
 Alpha virt. eigenvalues --    2.76238   2.77071   2.78790   2.79885   2.81884
 Alpha virt. eigenvalues --    2.82866   2.83605   2.84328   2.86066   2.86860
 Alpha virt. eigenvalues --    2.88192   2.91267   2.92713   2.96002   2.98082
 Alpha virt. eigenvalues --    3.02402   3.05398   3.06237   3.06717   3.07049
 Alpha virt. eigenvalues --    3.09859   3.10316   3.12261   3.15868   3.19543
 Alpha virt. eigenvalues --    3.22784   3.25661   3.28207   3.30149   3.31384
 Alpha virt. eigenvalues --    3.32921   3.34619   3.36839   3.41260   3.42392
 Alpha virt. eigenvalues --    3.44417   3.46241   3.46852   3.47536   3.48877
 Alpha virt. eigenvalues --    3.50026   3.50974   3.52297   3.53890   3.63621
 Alpha virt. eigenvalues --    3.65639   3.66578   3.68593   3.70411   3.72857
 Alpha virt. eigenvalues --    4.24172   4.27078   4.31365   4.35355   4.39313
 Alpha virt. eigenvalues --    4.46692   4.46811   4.50277   4.55569   4.56324
 Alpha virt. eigenvalues --    4.61702   4.62171   4.65339   4.69396   4.70014
 Alpha virt. eigenvalues --    4.71435   4.80014   4.83480   4.89488   4.92600
 Alpha virt. eigenvalues --    5.06576
          Condensed to atoms (all electrons):
               1          2          3          4          5          6
     1  C   13.648424  -1.392870   2.423105  -7.822455   0.368638   0.128938
     2  C   -1.392870   9.900478  -1.017235   1.049113  -0.042741  -0.020955
     3  C    2.423105  -1.017235   9.282924  -4.508477  -0.006939   0.052818
     4  C   -7.822455   1.049113  -4.508477  18.506215  -0.051775   0.131474
     5  H    0.368638  -0.042741  -0.006939  -0.051775   0.483729  -0.002478
     6  H    0.128938  -0.020955   0.052818   0.131474  -0.002478   0.502628
     7  C   -1.129600   0.033098  -1.511343   2.129424   0.010477  -0.007991
     8  H    0.002849  -0.086452  -0.012270  -0.000750  -0.000073  -0.000078
     9  H   -0.042432  -0.010487   0.013897  -0.052146   0.000015   0.000090
    10  C   -3.228079  -2.672663  -0.385472   4.016624  -0.041552  -0.045941
    11  H    0.147817   0.028578   0.003334  -0.104726  -0.001870  -0.000005
    12  C    3.827081  -0.049135   1.318125  -7.412048   0.042337   0.084397
    13  H    0.000323  -0.003946   0.032739   0.060854   0.000107  -0.002997
    14  H    0.057317   0.229256   0.037119  -0.028830  -0.001239  -0.000033
    15  H   -0.038293   0.003830   0.279484   0.054532  -0.000050  -0.002360
    16  N   -0.163015   0.133766  -0.461345   0.579364   0.009119  -0.027056
    17  N   -0.352165   0.048260   0.386921  -0.256699   0.015694   0.022703
    18  C    0.138544   0.106524  -0.250869   0.179641  -0.010005  -0.004904
    19  C   -0.397614  -0.372376   0.528155  -0.525561   0.005369   0.011009
    20  O   -0.046983   0.057960   0.037462  -0.053264   0.000605  -0.000072
    21  O    0.009198   0.007393  -0.050563   0.008860  -0.000125  -0.000883
    22  O    0.008973  -0.018718   0.068734  -0.064391   0.002643   0.000357
    23  O    0.078250   0.013317  -0.024375  -0.021560  -0.002436   0.002296
    24  C   -0.004356   0.001745  -0.040548   0.051557  -0.000163   0.000604
    25  H   -0.003838   0.000040  -0.000344   0.003503  -0.000001  -0.000022
    26  H    0.002046   0.000104   0.000364  -0.005382   0.000000  -0.000005
    27  H    0.002271  -0.000296  -0.003001   0.005885  -0.000001   0.000297
    28  C    0.048876   0.034959   0.002148  -0.018543  -0.000103   0.000025
    29  H   -0.004375   0.002555  -0.000558   0.001347   0.000007   0.000000
    30  H   -0.001801  -0.002644   0.000067  -0.000226  -0.000004   0.000000
    31  H    0.004864  -0.001974   0.000264  -0.000585   0.000004   0.000000
    32  O   -0.004824  -0.006208   0.000603  -0.000259   0.000216   0.000000
    33  H    0.003874   0.000302  -0.000106  -0.000864   0.000088   0.000000
    34  H    0.000624   0.000086  -0.000010  -0.000107  -0.000005   0.000000
    35  O   -0.020168  -0.017930   0.002243   0.004555   0.000028   0.000001
    36  H    0.003838   0.017023   0.000310  -0.000325   0.000000   0.000000
    37  H    0.008420   0.003029   0.001304   0.000050  -0.000002   0.000000
    38  O   -0.081265   0.012369   0.001988   0.019549   0.006502   0.000473
    39  H    0.014243  -0.000743   0.000209  -0.005780  -0.000070  -0.000003
    40  H   -0.009274  -0.001072   0.005587  -0.003234  -0.002727   0.000251
    41  O    0.012021   0.016841  -0.091235  -0.015517  -0.000004   0.000370
    42  H    0.001726   0.000444   0.004188  -0.006080   0.000000   0.000021
    43  H    0.000198   0.000633  -0.000320  -0.000851   0.000000   0.000001
               7          8          9         10         11         12
     1  C   -1.129600   0.002849  -0.042432  -3.228079   0.147817   3.827081
     2  C    0.033098  -0.086452  -0.010487  -2.672663   0.028578  -0.049135
     3  C   -1.511343  -0.012270   0.013897  -0.385472   0.003334   1.318125
     4  C    2.129424  -0.000750  -0.052146   4.016624  -0.104726  -7.412048
     5  H    0.010477  -0.000073   0.000015  -0.041552  -0.001870   0.042337
     6  H   -0.007991  -0.000078   0.000090  -0.045941  -0.000005   0.084397
     7  C    7.058465   0.391664   0.378703  -0.056754  -0.002874  -0.895670
     8  H    0.391664   0.540418  -0.022342   0.042903  -0.000042  -0.021451
     9  H    0.378703  -0.022342   0.490642   0.036351  -0.000091   0.009569
    10  C   -0.056754   0.042903   0.036351  12.436832   0.136980  -3.613381
    11  H   -0.002874  -0.000042  -0.000091   0.136980   0.504842   0.109153
    12  C   -0.895670  -0.021451   0.009569  -3.613381   0.109153  12.529408
    13  H   -0.000090   0.000091  -0.000073   0.025518  -0.002698   0.214934
    14  H   -0.018570  -0.001297  -0.001049   0.047747  -0.002807  -0.003087
    15  H   -0.000117  -0.001480  -0.001781   0.030380  -0.000035   0.014104
    16  N    0.250382   0.003011  -0.035277   0.187768  -0.001978  -0.090060
    17  N   -0.046118  -0.005904   0.057901  -0.463279   0.000650   0.358225
    18  C    0.146438  -0.000443  -0.005871   0.143605  -0.000360  -0.438685
    19  C   -0.424030   0.007969  -0.018552  -0.229870   0.003265   0.291670
    20  O   -0.109540   0.000058  -0.000857  -0.015114   0.000028   0.038026
    21  O    0.011657  -0.000048  -0.000549   0.010381   0.000001  -0.027550
    22  O   -0.069708   0.000247  -0.000386  -0.037603   0.000178   0.027873
    23  O    0.023830  -0.000032   0.000025   0.022053   0.000001  -0.043505
    24  C    0.010656   0.000011  -0.000340   0.000832  -0.000032  -0.012000
    25  H    0.000043   0.000000   0.000000  -0.000336   0.000000   0.001032
    26  H    0.000052   0.000000   0.000000   0.000172   0.000000  -0.000743
    27  H    0.000025   0.000000   0.000000   0.000170   0.000000   0.000358
    28  C   -0.031017  -0.000421   0.000600   0.020363   0.000170  -0.004805
    29  H   -0.002075   0.000000  -0.000010  -0.002014   0.000000  -0.000321
    30  H    0.001335   0.000000   0.000002  -0.001249   0.000000   0.000235
    31  H   -0.001364   0.000000   0.000000   0.003268   0.000000  -0.000157
    32  O   -0.000675   0.000000  -0.000001   0.001022  -0.000004  -0.000612
    33  H    0.000159   0.000000   0.000000   0.000761   0.000000  -0.000003
    34  H    0.000007   0.000000   0.000000   0.000086   0.000000   0.000041
    35  O    0.022846   0.000202  -0.001169   0.006056  -0.000021  -0.008300
    36  H   -0.013220   0.000005   0.000044   0.003743   0.000000  -0.000293
    37  H   -0.012917   0.000161   0.000759  -0.004174  -0.000001  -0.002338
    38  O   -0.000390  -0.000002   0.000004  -0.029417   0.000056   0.014367
    39  H   -0.000192   0.000000   0.000000   0.001596   0.000000  -0.001631
    40  H   -0.004902   0.000000  -0.000003  -0.003727   0.000004   0.000022
    41  O    0.050174   0.000120   0.000650  -0.007187   0.000002   0.031284
    42  H    0.001254   0.000000   0.000024   0.000422   0.000000  -0.011693
    43  H    0.002977   0.000001  -0.000011   0.000051   0.000000  -0.003136
              13         14         15         16         17         18
     1  C    0.000323   0.057317  -0.038293  -0.163015  -0.352165   0.138544
     2  C   -0.003946   0.229256   0.003830   0.133766   0.048260   0.106524
     3  C    0.032739   0.037119   0.279484  -0.461345   0.386921  -0.250869
     4  C    0.060854  -0.028830   0.054532   0.579364  -0.256699   0.179641
     5  H    0.000107  -0.001239  -0.000050   0.009119   0.015694  -0.010005
     6  H   -0.002997  -0.000033  -0.002360  -0.027056   0.022703  -0.004904
     7  C   -0.000090  -0.018570  -0.000117   0.250382  -0.046118   0.146438
     8  H    0.000091  -0.001297  -0.001480   0.003011  -0.005904  -0.000443
     9  H   -0.000073  -0.001049  -0.001781  -0.035277   0.057901  -0.005871
    10  C    0.025518   0.047747   0.030380   0.187768  -0.463279   0.143605
    11  H   -0.002698  -0.002807  -0.000035  -0.001978   0.000650  -0.000360
    12  C    0.214934  -0.003087   0.014104  -0.090060   0.358225  -0.438685
    13  H    0.511543  -0.000026  -0.002261  -0.001023   0.001319  -0.001785
    14  H   -0.000026   0.488174  -0.000118  -0.004244  -0.018519  -0.001991
    15  H   -0.002261  -0.000118   0.464677   0.002796  -0.009068   0.009181
    16  N   -0.001023  -0.004244   0.002796  13.239687  -5.221834   0.837739
    17  N    0.001319  -0.018519  -0.009068  -5.221834  13.835102  -0.970138
    18  C   -0.001785  -0.001991   0.009181   0.837739  -0.970138   5.627058
    19  C    0.001743   0.011073  -0.003156  -1.127575   0.204268  -0.452809
    20  O    0.000010   0.000214  -0.000107  -0.144349  -0.063631  -0.056005
    21  O    0.000013  -0.000005   0.000449  -0.051358  -0.104484   0.624155
    22  O    0.000055   0.008480  -0.000118  -0.314624  -0.027291  -0.090175
    23  O   -0.000128  -0.000079   0.000170  -0.055747  -0.098962   0.319640
    24  C   -0.000088  -0.000002   0.000109   0.086508  -0.121733  -0.122070
    25  H    0.000000   0.000000   0.000000   0.000985  -0.003027   0.005979
    26  H    0.000000   0.000000   0.000000   0.002675  -0.006226   0.003831
    27  H    0.000000   0.000000  -0.000002   0.000031  -0.002687  -0.033780
    28  C   -0.000008   0.000726  -0.000032  -0.015405  -0.041335  -0.004366
    29  H    0.000000   0.000110   0.000000  -0.000496  -0.004711  -0.000163
    30  H    0.000000   0.000021   0.000000  -0.000225   0.000657  -0.000335
    31  H    0.000000  -0.000015   0.000000  -0.000906  -0.008073  -0.000108
    32  O    0.000000   0.000009   0.000000  -0.000901  -0.028708  -0.000618
    33  H    0.000000  -0.000003   0.000000   0.004381   0.010802   0.000809
    34  H    0.000000   0.000000   0.000000   0.000229   0.002810   0.000101
    35  O    0.000003  -0.000963  -0.000008  -0.003820   0.000046  -0.001369
    36  H    0.000000   0.000151   0.000000   0.000300   0.000650   0.000119
    37  H    0.000000  -0.000456   0.000000   0.000599   0.010629   0.001446
    38  O    0.000011   0.000068  -0.000005  -0.100611   0.101372  -0.012937
    39  H    0.000000   0.000000   0.000000   0.000313  -0.012832   0.000918
    40  H    0.000000   0.000007   0.000000  -0.049442   0.054648  -0.009459
    41  O    0.000046   0.000003  -0.013126  -0.001460   0.012053  -0.030642
    42  H    0.000000   0.000000  -0.000254  -0.001438   0.000887   0.014939
    43  H    0.000000   0.000000   0.000368  -0.001897  -0.000077   0.005674
              19         20         21         22         23         24
     1  C   -0.397614  -0.046983   0.009198   0.008973   0.078250  -0.004356
     2  C   -0.372376   0.057960   0.007393  -0.018718   0.013317   0.001745
     3  C    0.528155   0.037462  -0.050563   0.068734  -0.024375  -0.040548
     4  C   -0.525561  -0.053264   0.008860  -0.064391  -0.021560   0.051557
     5  H    0.005369   0.000605  -0.000125   0.002643  -0.002436  -0.000163
     6  H    0.011009  -0.000072  -0.000883   0.000357   0.002296   0.000604
     7  C   -0.424030  -0.109540   0.011657  -0.069708   0.023830   0.010656
     8  H    0.007969   0.000058  -0.000048   0.000247  -0.000032   0.000011
     9  H   -0.018552  -0.000857  -0.000549  -0.000386   0.000025  -0.000340
    10  C   -0.229870  -0.015114   0.010381  -0.037603   0.022053   0.000832
    11  H    0.003265   0.000028   0.000001   0.000178   0.000001  -0.000032
    12  C    0.291670   0.038026  -0.027550   0.027873  -0.043505  -0.012000
    13  H    0.001743   0.000010   0.000013   0.000055  -0.000128  -0.000088
    14  H    0.011073   0.000214  -0.000005   0.008480  -0.000079  -0.000002
    15  H   -0.003156  -0.000107   0.000449  -0.000118   0.000170   0.000109
    16  N   -1.127575  -0.144349  -0.051358  -0.314624  -0.055747   0.086508
    17  N    0.204268  -0.063631  -0.104484  -0.027291  -0.098962  -0.121733
    18  C   -0.452809  -0.056005   0.624155  -0.090175   0.319640  -0.122070
    19  C    7.407256   0.834327  -0.006651   0.372478  -0.111056  -0.011963
    20  O    0.834327   8.136313   0.000228  -0.142196  -0.010920  -0.001841
    21  O   -0.006651   0.000228   8.264867   0.001401  -0.202341  -0.035345
    22  O    0.372478  -0.142196   0.001401   8.424585  -0.025977  -0.002619
    23  O   -0.111056  -0.010920  -0.202341  -0.025977   8.592613   0.007903
    24  C   -0.011963  -0.001841  -0.035345  -0.002619   0.007903   5.069695
    25  H   -0.000325  -0.000004  -0.000088  -0.000014  -0.063246   0.416546
    26  H   -0.000435  -0.000003   0.001466  -0.000016  -0.046919   0.412051
    27  H    0.000014  -0.000003   0.006770  -0.000005  -0.044866   0.431308
    28  C   -0.256227  -0.034520   0.000203   0.048000   0.000728   0.000057
    29  H   -0.003515   0.005547   0.000000  -0.047780  -0.000005  -0.000005
    30  H   -0.010299   0.002303   0.000000  -0.040612   0.000013   0.000009
    31  H    0.000135  -0.000254   0.000000  -0.059222  -0.000011  -0.000002
    32  O    0.035254  -0.000291   0.000002   0.009113   0.000270   0.000054
    33  H   -0.013822  -0.000072   0.000000  -0.008466   0.000100  -0.000131
    34  H   -0.004047   0.000003   0.000000  -0.000103   0.000009  -0.000006
    35  O   -0.021815  -0.016666  -0.000024   0.015554   0.000005  -0.000002
    36  H   -0.009691   0.000695   0.000000   0.000052   0.000000   0.000000
    37  H   -0.009738   0.021340  -0.000002   0.000536   0.000016   0.000001
    38  O   -0.004179  -0.001101   0.000198   0.016885   0.001759  -0.000861
    39  H   -0.000847  -0.000020   0.000073  -0.000051   0.005385   0.004310
    40  H    0.015274  -0.000224   0.000189   0.012063   0.010377   0.000533
    41  O   -0.000219   0.000261  -0.023431   0.000122  -0.002554  -0.001163
    42  H   -0.001236   0.000021   0.026232   0.000004   0.002103   0.001028
    43  H   -0.000283  -0.000006   0.000469   0.000000   0.000052   0.000254
              25         26         27         28         29         30
     1  C   -0.003838   0.002046   0.002271   0.048876  -0.004375  -0.001801
     2  C    0.000040   0.000104  -0.000296   0.034959   0.002555  -0.002644
     3  C   -0.000344   0.000364  -0.003001   0.002148  -0.000558   0.000067
     4  C    0.003503  -0.005382   0.005885  -0.018543   0.001347  -0.000226
     5  H   -0.000001   0.000000  -0.000001  -0.000103   0.000007  -0.000004
     6  H   -0.000022  -0.000005   0.000297   0.000025   0.000000   0.000000
     7  C    0.000043   0.000052   0.000025  -0.031017  -0.002075   0.001335
     8  H    0.000000   0.000000   0.000000  -0.000421   0.000000   0.000000
     9  H    0.000000   0.000000   0.000000   0.000600  -0.000010   0.000002
    10  C   -0.000336   0.000172   0.000170   0.020363  -0.002014  -0.001249
    11  H    0.000000   0.000000   0.000000   0.000170   0.000000   0.000000
    12  C    0.001032  -0.000743   0.000358  -0.004805  -0.000321   0.000235
    13  H    0.000000   0.000000   0.000000  -0.000008   0.000000   0.000000
    14  H    0.000000   0.000000   0.000000   0.000726   0.000110   0.000021
    15  H    0.000000   0.000000  -0.000002  -0.000032   0.000000   0.000000
    16  N    0.000985   0.002675   0.000031  -0.015405  -0.000496  -0.000225
    17  N   -0.003027  -0.006226  -0.002687  -0.041335  -0.004711   0.000657
    18  C    0.005979   0.003831  -0.033780  -0.004366  -0.000163  -0.000335
    19  C   -0.000325  -0.000435   0.000014  -0.256227  -0.003515  -0.010299
    20  O   -0.000004  -0.000003  -0.000003  -0.034520   0.005547   0.002303
    21  O   -0.000088   0.001466   0.006770   0.000203   0.000000   0.000000
    22  O   -0.000014  -0.000016  -0.000005   0.048000  -0.047780  -0.040612
    23  O   -0.063246  -0.046919  -0.044866   0.000728  -0.000005   0.000013
    24  C    0.416546   0.412051   0.431308   0.000057  -0.000005   0.000009
    25  H    0.547544  -0.028485  -0.029193  -0.000005   0.000000   0.000000
    26  H   -0.028485   0.529321  -0.031527   0.000001   0.000000   0.000000
    27  H   -0.029193  -0.031527   0.536909   0.000001   0.000000   0.000000
    28  C   -0.000005   0.000001   0.000001   5.145149   0.419266   0.412345
    29  H    0.000000   0.000000   0.000000   0.419266   0.528963  -0.033818
    30  H    0.000000   0.000000   0.000000   0.412345  -0.033818   0.536814
    31  H    0.000000   0.000000   0.000000   0.430367  -0.026481  -0.025698
    32  O    0.000002   0.000000   0.000000  -0.009859   0.000385   0.000591
    33  H    0.000000   0.000000   0.000000   0.003939  -0.000018  -0.000017
    34  H    0.000000   0.000000   0.000000   0.001175  -0.000003  -0.000003
    35  O    0.000000   0.000000   0.000000  -0.006318  -0.002454   0.000816
    36  H    0.000000   0.000000   0.000000   0.001209  -0.000093  -0.000020
    37  H    0.000000   0.000000   0.000000  -0.001965  -0.001568  -0.000278
    38  O    0.000405  -0.000121   0.000019   0.002933  -0.000036   0.000000
    39  H    0.000262   0.000000  -0.000001  -0.000043   0.000000   0.000000
    40  H   -0.000059  -0.000002   0.000019   0.001660  -0.000009   0.000004
    41  O    0.000000   0.000001   0.000040   0.000146   0.000000   0.000000
    42  H    0.000000  -0.000007  -0.000030  -0.000002   0.000000   0.000000
    43  H    0.000000   0.000000   0.000000   0.000000   0.000000   0.000000
              31         32         33         34         35         36
     1  C    0.004864  -0.004824   0.003874   0.000624  -0.020168   0.003838
     2  C   -0.001974  -0.006208   0.000302   0.000086  -0.017930   0.017023
     3  C    0.000264   0.000603  -0.000106  -0.000010   0.002243   0.000310
     4  C   -0.000585  -0.000259  -0.000864  -0.000107   0.004555  -0.000325
     5  H    0.000004   0.000216   0.000088  -0.000005   0.000028   0.000000
     6  H    0.000000   0.000000   0.000000   0.000000   0.000001   0.000000
     7  C   -0.001364  -0.000675   0.000159   0.000007   0.022846  -0.013220
     8  H    0.000000   0.000000   0.000000   0.000000   0.000202   0.000005
     9  H    0.000000  -0.000001   0.000000   0.000000  -0.001169   0.000044
    10  C    0.003268   0.001022   0.000761   0.000086   0.006056   0.003743
    11  H    0.000000  -0.000004   0.000000   0.000000  -0.000021   0.000000
    12  C   -0.000157  -0.000612  -0.000003   0.000041  -0.008300  -0.000293
    13  H    0.000000   0.000000   0.000000   0.000000   0.000003   0.000000
    14  H   -0.000015   0.000009  -0.000003   0.000000  -0.000963   0.000151
    15  H    0.000000   0.000000   0.000000   0.000000  -0.000008   0.000000
    16  N   -0.000906  -0.000901   0.004381   0.000229  -0.003820   0.000300
    17  N   -0.008073  -0.028708   0.010802   0.002810   0.000046   0.000650
    18  C   -0.000108  -0.000618   0.000809   0.000101  -0.001369   0.000119
    19  C    0.000135   0.035254  -0.013822  -0.004047  -0.021815  -0.009691
    20  O   -0.000254  -0.000291  -0.000072   0.000003  -0.016666   0.000695
    21  O    0.000000   0.000002   0.000000   0.000000  -0.000024   0.000000
    22  O   -0.059222   0.009113  -0.008466  -0.000103   0.015554   0.000052
    23  O   -0.000011   0.000270   0.000100   0.000009   0.000005   0.000000
    24  C   -0.000002   0.000054  -0.000131  -0.000006  -0.000002   0.000000
    25  H    0.000000   0.000002   0.000000   0.000000   0.000000   0.000000
    26  H    0.000000   0.000000   0.000000   0.000000   0.000000   0.000000
    27  H    0.000000   0.000000   0.000000   0.000000   0.000000   0.000000
    28  C    0.430367  -0.009859   0.003939   0.001175  -0.006318   0.001209
    29  H   -0.026481   0.000385  -0.000018  -0.000003  -0.002454  -0.000093
    30  H   -0.025698   0.000591  -0.000017  -0.000003   0.000816  -0.000020
    31  H    0.496815  -0.005287   0.000095   0.000083   0.000053  -0.000001
    32  O   -0.005287   8.332268   0.258083   0.255654  -0.000009   0.000000
    33  H    0.000095   0.258083   0.307694  -0.014186   0.000002   0.000000
    34  H    0.000083   0.255654  -0.014186   0.374312   0.000000   0.000000
    35  O    0.000053  -0.000009   0.000002   0.000000   8.285328   0.256909
    36  H   -0.000001   0.000000   0.000000   0.000000   0.256909   0.357209
    37  H    0.000036   0.000002   0.000000   0.000000   0.269574  -0.013847
    38  O    0.000081  -0.020042   0.011492   0.001073   0.000004   0.000000
    39  H   -0.000001   0.001488  -0.001746  -0.000048   0.000000   0.000000
    40  H    0.000013   0.001775  -0.002081   0.000010   0.000001   0.000000
    41  O    0.000000   0.000000   0.000000   0.000000   0.000014   0.000000
    42  H    0.000000   0.000000   0.000000   0.000000   0.000000   0.000000
    43  H    0.000000   0.000000   0.000000   0.000000   0.000000   0.000000
              37         38         39         40         41         42
     1  C    0.008420  -0.081265   0.014243  -0.009274   0.012021   0.001726
     2  C    0.003029   0.012369  -0.000743  -0.001072   0.016841   0.000444
     3  C    0.001304   0.001988   0.000209   0.005587  -0.091235   0.004188
     4  C    0.000050   0.019549  -0.005780  -0.003234  -0.015517  -0.006080
     5  H   -0.000002   0.006502  -0.000070  -0.002727  -0.000004   0.000000
     6  H    0.000000   0.000473  -0.000003   0.000251   0.000370   0.000021
     7  C   -0.012917  -0.000390  -0.000192  -0.004902   0.050174   0.001254
     8  H    0.000161  -0.000002   0.000000   0.000000   0.000120   0.000000
     9  H    0.000759   0.000004   0.000000  -0.000003   0.000650   0.000024
    10  C   -0.004174  -0.029417   0.001596  -0.003727  -0.007187   0.000422
    11  H   -0.000001   0.000056   0.000000   0.000004   0.000002   0.000000
    12  C   -0.002338   0.014367  -0.001631   0.000022   0.031284  -0.011693
    13  H    0.000000   0.000011   0.000000   0.000000   0.000046   0.000000
    14  H   -0.000456   0.000068   0.000000   0.000007   0.000003   0.000000
    15  H    0.000000  -0.000005   0.000000   0.000000  -0.013126  -0.000254
    16  N    0.000599  -0.100611   0.000313  -0.049442  -0.001460  -0.001438
    17  N    0.010629   0.101372  -0.012832   0.054648   0.012053   0.000887
    18  C    0.001446  -0.012937   0.000918  -0.009459  -0.030642   0.014939
    19  C   -0.009738  -0.004179  -0.000847   0.015274  -0.000219  -0.001236
    20  O    0.021340  -0.001101  -0.000020  -0.000224   0.000261   0.000021
    21  O   -0.000002   0.000198   0.000073   0.000189  -0.023431   0.026232
    22  O    0.000536   0.016885  -0.000051   0.012063   0.000122   0.000004
    23  O    0.000016   0.001759   0.005385   0.010377  -0.002554   0.002103
    24  C    0.000001  -0.000861   0.004310   0.000533  -0.001163   0.001028
    25  H    0.000000   0.000405   0.000262  -0.000059   0.000000   0.000000
    26  H    0.000000  -0.000121   0.000000  -0.000002   0.000001  -0.000007
    27  H    0.000000   0.000019  -0.000001   0.000019   0.000040  -0.000030
    28  C   -0.001965   0.002933  -0.000043   0.001660   0.000146  -0.000002
    29  H   -0.001568  -0.000036   0.000000  -0.000009   0.000000   0.000000
    30  H   -0.000278   0.000000   0.000000   0.000004   0.000000   0.000000
    31  H    0.000036   0.000081  -0.000001   0.000013   0.000000   0.000000
    32  O    0.000002  -0.020042   0.001488   0.001775   0.000000   0.000000
    33  H    0.000000   0.011492  -0.001746  -0.002081   0.000000   0.000000
    34  H    0.000000   0.001073  -0.000048   0.000010   0.000000   0.000000
    35  O    0.269574   0.000004   0.000000   0.000001   0.000014   0.000000
    36  H   -0.013847   0.000000   0.000000   0.000000   0.000000   0.000000
    37  H    0.328787   0.000005   0.000000  -0.000001   0.000000   0.000000
    38  O    0.000005   8.351526   0.256714   0.231751   0.000002   0.000003
    39  H    0.000000   0.256714   0.368378  -0.008954   0.000000   0.000000
    40  H   -0.000001   0.231751  -0.008954   0.296457   0.000000   0.000000
    41  O    0.000000   0.000002   0.000000   0.000000   8.343649   0.251006
    42  H    0.000000   0.000003   0.000000   0.000000   0.251006   0.312352
    43  H    0.000000   0.000000   0.000000   0.000000   0.267472  -0.016060
              43
     1  C    0.000198
     2  C    0.000633
     3  C   -0.000320
     4  C   -0.000851
     5  H    0.000000
     6  H    0.000001
     7  C    0.002977
     8  H    0.000001
     9  H   -0.000011
    10  C    0.000051
    11  H    0.000000
    12  C   -0.003136
    13  H    0.000000
    14  H    0.000000
    15  H    0.000368
    16  N   -0.001897
    17  N   -0.000077
    18  C    0.005674
    19  C   -0.000283
    20  O   -0.000006
    21  O    0.000469
    22  O    0.000000
    23  O    0.000052
    24  C    0.000254
    25  H    0.000000
    26  H    0.000000
    27  H    0.000000
    28  C    0.000000
    29  H    0.000000
    30  H    0.000000
    31  H    0.000000
    32  O    0.000000
    33  H    0.000000
    34  H    0.000000
    35  O    0.000000
    36  H    0.000000
    37  H    0.000000
    38  O    0.000000
    39  H    0.000000
    40  H    0.000000
    41  O    0.267472
    42  H   -0.016060
    43  H    0.369895
 Mulliken charges:
               1
     1  C   -0.199050
     2  C    0.016744
     3  C   -0.119080
     4  C    0.157887
     5  H    0.218785
     6  H    0.177030
     7  C   -0.184508
     8  H    0.163375
     9  H    0.204149
    10  C   -0.337868
    11  H    0.182484
    12  C   -0.271637
    13  H    0.165816
    14  H    0.202860
    15  H    0.212291
    16  N   -0.463569
    17  N   -0.258096
    18  C    0.333549
    19  C    0.288634
    20  O   -0.437357
    21  O   -0.470759
    22  O   -0.068260
    23  O   -0.326196
    24  C   -0.140499
    25  H    0.152646
    26  H    0.167787
    27  H    0.161272
    28  C   -0.150071
    29  H    0.172327
    30  H    0.162018
    31  H    0.194060
    32  O   -0.818494
    33  H    0.438934
    34  H    0.382216
    35  O   -0.763203
    36  H    0.395233
    37  H    0.400591
    38  O   -0.780639
    39  H    0.379072
    40  H    0.464524
    41  O   -0.799740
    42  H    0.420143
    43  H    0.374596
 Sum of Mulliken charges =   0.00000
 Mulliken charges with hydrogens summed into heavy atoms:
               1
     1  C    0.019735
     2  C    0.219604
     3  C    0.093212
     4  C    0.334918
     7  C    0.183016
    10  C   -0.155384
    12  C   -0.105821
    16  N   -0.463569
    17  N   -0.258096
    18  C    0.333549
    19  C    0.288634
    20  O   -0.437357
    21  O   -0.470759
    22  O   -0.068260
    23  O   -0.326196
    24  C    0.341206
    28  C    0.378334
    32  O    0.002656
    35  O    0.032621
    38  O    0.062957
    41  O   -0.005001
 APT charges:
               1
     1  C   -0.733410
     2  C    0.199329
     3  C    0.048484
     4  C   -0.388961
     5  H    0.110904
     6  H    0.104570
     7  C    0.032194
     8  H    0.006869
     9  H    0.058078
    10  C    0.241694
    11  H    0.088245
    12  C    0.278105
    13  H    0.049352
    14  H    0.091571
    15  H    0.126967
    16  N   -0.754359
    17  N   -0.029607
    18  C    1.804583
    19  C    1.545695
    20  O   -0.939892
    21  O   -1.120993
    22  O   -0.933832
    23  O   -1.012067
    24  C    0.583248
    25  H   -0.007722
    26  H   -0.021324
    27  H   -0.022890
    28  C    0.524859
    29  H    0.003753
    30  H   -0.015722
    31  H    0.056247
    32  O   -0.750371
    33  H    0.479945
    34  H    0.287124
    35  O   -0.713326
    36  H    0.306370
    37  H    0.412100
    38  O   -0.800815
    39  H    0.291549
    40  H    0.499504
    41  O   -0.724492
    42  H    0.442722
    43  H    0.295722
 Sum of APT charges =   0.00000
 APT charges with hydrogens summed into heavy atoms:
               1
     1  C   -0.622507
     2  C    0.290900
     3  C    0.175452
     4  C   -0.284391
     7  C    0.097141
    10  C    0.329939
    12  C    0.327457
    16  N   -0.754359
    17  N   -0.029607
    18  C    1.804583
    19  C    1.545695
    20  O   -0.939892
    21  O   -1.120993
    22  O   -0.933832
    23  O   -1.012067
    24  C    0.531312
    28  C    0.569136
    32  O    0.016698
    35  O    0.005144
    38  O   -0.009762
    41  O    0.013952
 Electronic spatial extent (au):  <R**2>=           6514.5394
 Charge=              0.0000 electrons
 Dipole moment (field-independent basis, Debye):
    X=              0.4500    Y=              0.6554    Z=              4.9785  Tot=              5.0416
 Quadrupole moment (field-independent basis, Debye-Ang):
   XX=           -137.3183   YY=           -108.0762   ZZ=           -115.2956
   XY=            -11.4759   XZ=             -7.4481   YZ=              2.2236
 Traceless Quadrupole moment (field-independent basis, Debye-Ang):
   XX=            -17.0883   YY=             12.1538   ZZ=              4.9345
   XY=            -11.4759   XZ=             -7.4481   YZ=              2.2236
 Octapole moment (field-independent basis, Debye-Ang**2):
  XXX=             49.7744  YYY=             88.1516  ZZZ=             18.0707  XYY=             -7.6991
  XXY=              3.7669  XXZ=            -22.2177  XZZ=              7.7903  YZZ=            -25.8859
  YYZ=             -6.3745  XYZ=              9.7241
 Hexadecapole moment (field-independent basis, Debye-Ang**3):
 XXXX=          -4152.3543 YYYY=          -2370.0696 ZZZZ=          -1274.7903 XXXY=           -104.3840
 XXXZ=              8.8816 YYYX=            -57.0163 YYYZ=            232.7780 ZZZX=             21.5288
 ZZZY=             31.6660 XXYY=           -974.0133 XXZZ=           -724.9571 YYZZ=           -581.5779
 XXYZ=            193.9557 YYXZ=             20.1328 ZZXY=             32.2827
 N-N= 1.974996140568D+03 E-N=-6.625299052796D+03  KE= 1.133305319922D+03
  Exact polarizability: 243.293 -16.667 251.542  12.001 -50.155 262.297
 Approx polarizability: 298.461 -31.124 348.714  52.724-138.401 477.921
 D2PCM: C-PCM CHGder 2nd derivatives, FixD1E=F FixD2E=F DoIter=F DoCFld=F I1PDM=0
 Calling FoFJK, ICntrl=    100127 FMM=F ISym2X=0 I1Cent= 0 IOpClX= 0 NMat=1 NMatS=1 NMatT=0.
 Full mass-weighted force constant matrix:
 Low frequencies --- -402.6043   -7.0606   -1.2583   -0.0010   -0.0008   -0.0007
 Low frequencies ---    8.0703   17.2189   18.8051
 ******    1 imaginary frequencies (negative Signs) ****** 
 Diagonal vibrational polarizability:
     2108.4768861     901.0243030     533.6307798
 Harmonic frequencies (cm**-1), IR intensities (KM/Mole), Raman scattering
 activities (A**4/AMU), depolarization ratios for plane and unpolarized
 incident light, reduced masses (AMU), force constants (mDyne/A),
 and normal coordinates:
                      1                      2                      3
                      A                      A                      A
 Frequencies --   -402.6034                17.0416                18.6056
 Red. masses --     10.3758                 5.6000                 5.5124
 Frc consts  --      0.9909                 0.0010                 0.0011
 IR Inten    --    888.9492                 1.4481                 5.6995
  Atom  AN      X      Y      Z        X      Y      Z        X      Y      Z
     1   6     0.03  -0.33   0.63     0.02   0.02  -0.04    -0.03  -0.06   0.01
     2   6     0.02  -0.11  -0.06     0.04   0.02  -0.02    -0.02  -0.05  -0.01
     3   6     0.01  -0.04  -0.01     0.04  -0.01  -0.02    -0.02  -0.06  -0.08
     4   6    -0.04  -0.01   0.11     0.03   0.00  -0.03    -0.04  -0.07  -0.04
     5   1     0.15   0.04  -0.14     0.01   0.03  -0.05    -0.05  -0.07   0.04
     6   1     0.01   0.06  -0.13     0.02   0.00  -0.04    -0.04  -0.07  -0.05
     7   6    -0.01  -0.03  -0.03     0.05   0.00  -0.02     0.00  -0.04  -0.06
     8   1    -0.03  -0.04  -0.03     0.06   0.00   0.00     0.00  -0.04  -0.08
     9   1     0.00  -0.06  -0.03     0.05  -0.01  -0.02     0.04  -0.02  -0.05
    10   6     0.06   0.22  -0.05     0.04   0.03  -0.02    -0.06  -0.08  -0.02
    11   1     0.10  -0.09  -0.03     0.04   0.05  -0.03    -0.09  -0.10   0.00
    12   6    -0.09   0.03  -0.03     0.04   0.01  -0.02    -0.06  -0.09  -0.07
    13   1    -0.08  -0.24  -0.04     0.04   0.01  -0.02    -0.09  -0.11  -0.09
    14   1     0.02  -0.06  -0.09     0.04   0.04  -0.02    -0.01  -0.05   0.02
    15   1     0.01  -0.01  -0.06     0.04  -0.02  -0.01    -0.01  -0.05  -0.11
    16   7     0.10   0.05  -0.06     0.01  -0.02  -0.04     0.04   0.00  -0.01
    17   7    -0.02   0.25  -0.33     0.01   0.00  -0.05     0.03  -0.02   0.03
    18   6    -0.04   0.06   0.02     0.00  -0.03  -0.06     0.04   0.00  -0.02
    19   6     0.01   0.00  -0.05     0.02   0.01  -0.04     0.04  -0.01   0.05
    20   8     0.00  -0.05   0.01     0.03   0.01  -0.03     0.06   0.00   0.03
    21   8     0.02  -0.02   0.01     0.00  -0.04  -0.05     0.05   0.02  -0.07
    22   8    -0.03   0.01  -0.02     0.01   0.03  -0.04     0.03  -0.02   0.08
    23   8    -0.01   0.00  -0.02    -0.01  -0.01  -0.08     0.02  -0.03   0.02
    24   6    -0.01   0.02   0.01    -0.02  -0.02  -0.10     0.02  -0.03   0.01
    25   1     0.01   0.01   0.00    -0.02   0.00  -0.12     0.00  -0.05   0.06
    26   1    -0.01   0.01   0.00    -0.02  -0.04  -0.11     0.05   0.01   0.01
    27   1     0.01   0.00   0.01    -0.01  -0.01  -0.09     0.00  -0.04  -0.03
    28   6    -0.01   0.00   0.01     0.02   0.04  -0.02     0.04   0.01   0.09
    29   1    -0.03   0.00   0.02     0.01   0.04  -0.02     0.06   0.01   0.10
    30   1     0.00   0.00   0.01     0.04   0.05  -0.01     0.04   0.00   0.09
    31   1    -0.02   0.01   0.02     0.01   0.03   0.01     0.02   0.03   0.09
    32   8     0.00   0.00   0.00    -0.05  -0.17   0.28     0.01   0.25  -0.24
    33   1     0.00   0.00   0.02    -0.04  -0.10   0.17     0.00   0.15  -0.12
    34   1     0.01  -0.03   0.02    -0.07  -0.19   0.32     0.00   0.28  -0.27
    35   8     0.01  -0.01   0.00     0.05   0.02  -0.02     0.07   0.01   0.03
    36   1     0.00  -0.01  -0.01     0.05   0.02  -0.02     0.10   0.02   0.04
    37   1    -0.02  -0.03   0.01     0.05   0.02  -0.02     0.08   0.01   0.03
    38   8     0.00   0.00   0.01    -0.04   0.00  -0.01     0.00  -0.02   0.04
    39   1     0.03   0.01   0.00     0.00   0.02  -0.03    -0.06  -0.05   0.07
    40   1    -0.01   0.00   0.02    -0.03   0.02  -0.04     0.02  -0.04   0.05
    41   8    -0.02  -0.02  -0.01    -0.21   0.09   0.30    -0.20   0.15   0.17
    42   1    -0.01  -0.05  -0.04    -0.15   0.03   0.18    -0.13   0.10   0.08
    43   1    -0.03  -0.04   0.01    -0.44   0.10   0.40    -0.43   0.20   0.25
                      4                      5                      6
                      A                      A                      A
 Frequencies --     41.9173                48.2445                54.7441
 Red. masses --      4.4264                 7.1636                 3.7081
 Frc consts  --      0.0046                 0.0098                 0.0065
 IR Inten    --      0.7355                 2.8125                10.9875
  Atom  AN      X      Y      Z        X      Y      Z        X      Y      Z
     1   6    -0.02   0.04  -0.03    -0.02  -0.02  -0.03    -0.06   0.02   0.02
     2   6    -0.02   0.04   0.00    -0.03  -0.03   0.01     0.09   0.06   0.07
[...]
 026693,-0.00014011,0.00037971,0.00062650,-0.00013199,-0.00025411,0.000
 33240,0.00015523,0.00000950,-0.00009260,0.00014458,-0.00000681,-0.0000
 7371,-0.00004248,0.00009155,0.00001711,-0.00001528,-0.00010486,-0.0000
 5382,-0.00000309,0.00003219,-0.00000579,-0.00002025,0.00002877,-0.0000
 2610,-0.00002140,0.00000891,-0.00000790,0.00000642,-0.00000267,0.00013
 131,0.00005304,-0.00011881,-0.00031386,-0.00057963,0.00002051,0.000030
 48,0.00011803,-0.00000131,0.00001573,-0.00000625,0.00000092,-0.0000077
 0,0.00000358,-0.00000193,-0.00000735,0.00000415,-0.06317526,0.08178539
 ,-0.03446049,0.05008050,-0.05576354,0.03105334,-0.00039944,-0.00026321
 ,0.00009462,-0.00009255,-0.00007108,-0.00003209,-0.00006111,-0.0000235
 8,0.00005374,0.00049174,0.00008926,-0.00069742,0.00081661,0.00055952,-
 0.00053984,-0.00016774,-0.00008411,0.00030155,-0.00002636,0.00001014,0
 .00006193,-0.00001371,0.00004129,-0.00001613,-0.00000347,-0.00005694,0
 .00001220,-0.00061655,-0.00008191,0.00000999,0.00001825,0.00002800,0.0
 0003663,0.00042941,-0.00067375,0.00021638,0.00001451,0.00011943,0.0000
 1168,0.00003075,0.00010180,0.00004010,-0.00004556,0.00000645,0.0000598
 5,-0.00223597,0.00006237,-0.00062736,-0.00689055,0.00259799,0.00319503
 ,-0.00086357,-0.00423439,-0.00268816,0.00800841,0.00500434,0.00220532,
 -0.00232642,0.00033338,0.00080845,0.00115112,0.00109441,0.00073930,-0.
 00180197,-0.00168184,-0.00081778,-0.00037781,0.00032632,0.00044147,-0.
 00083185,0.00180491,0.00086938,-0.00003900,-0.00008904,-0.00008423,0.0
 0040602,-0.00026773,0.00001961,0.00037329,-0.00016718,-0.00009585,-0.0
 0089848,-0.00018227,-0.00016231,0.00019216,-0.00009644,-0.00005532,0.0
 0015375,-0.00004860,-0.00010452,-0.00007402,0.00009083,0.00003903,-0.0
 0036413,0.00096535,0.00100750,-0.00242774,-0.00282477,-0.00296034,0.00
 036626,-0.00005214,-0.00004830,-0.00016302,0.00000501,0.00001684,0.000
 02062,0.00000893,0.00000831,0.00012012,-0.00004087,0.00000693,-0.10921
 290,-0.11711125,-0.13005489,0.00808726,0.01907335,0.01358515,0.1092798
 2,-0.00129537,-0.00256407,0.00132848,0.00017350,-0.00034293,0.00015036
 ,0.00026246,-0.00008639,0.00029923,0.00108518,0.00147407,-0.00203593,0
 .00017514,-0.00088970,0.00209440,0.00006342,-0.00000485,0.00055848,-0.
 00009043,0.00005053,0.00005586,0.00004647,0.00012848,-0.00004090,-0.00
 008015,-0.00014175,0.00001465,-0.00153760,0.00019612,-0.00001144,0.000
 05923,0.00003339,0.00012517,0.00121924,-0.00210521,0.00038547,0.000079
 03,0.00042105,0.00001509,0.00010766,0.00005870,0.00017379,-0.00014538,
 0.00013426,0.00006185,-0.00163586,0.00486695,0.00250657,0.00448571,0.0
 0024457,0.00480795,-0.00348172,0.00458146,0.00065842,0.00807988,-0.000
 93698,-0.00350059,-0.00266586,0.00213762,0.00329666,0.00099554,-0.0014
 3307,-0.00037345,-0.00279877,-0.00104987,-0.00041883,-0.00088878,-0.00
 405930,-0.00191628,0.00007270,0.00027174,0.00023370,0.00024521,-0.0002
 7251,-0.00012880,0.00008930,-0.00009488,-0.00004894,-0.00002692,-0.000
 06638,-0.00001057,0.00135539,-0.00008781,-0.00016230,-0.00023103,0.000
 09007,0.00009915,-0.00024773,0.00012425,0.00014885,-0.00023154,0.00014
 851,0.00005883,0.00346701,-0.00083321,-0.00016297,-0.00553546,0.001619
 96,0.00046034,-0.00036128,-0.00016562,-0.00011424,-0.00034287,0.000433
 14,0.00007759,0.00003666,-0.00002467,0.00000221,0.00030453,-0.00053112
 ,-0.00006859,-0.07952572,-0.19781857,-0.14026665,-0.01715602,-0.024574
 85,-0.02502043,0.09584347,0.22110197,-0.00082401,0.00290196,-0.0013526
 9,-0.00064318,-0.00000567,-0.00011844,-0.00000481,0.00028229,0.0001886
 3,0.00158390,0.00089460,-0.00248496,-0.00046714,0.00293438,-0.00145145
 ,0.00024121,0.00005104,0.00047034,-0.00001195,-0.00030108,0.00020301,-
 0.00005516,0.00001872,-0.00006401,-0.00006185,-0.00003082,0.00003715,-
 0.00198275,-0.00084892,0.00028163,0.00000827,0.00006834,0.00011509,0.0
 0180791,-0.00218101,0.00081760,0.00007944,0.00036784,0.00004955,0.0000
 9670,0.00009873,0.00018125,-0.00009861,0.00003542,0.00012422,-0.004485
 47,0.00146334,0.00180742,0.00611998,0.00426967,-0.00120831,-0.00061063
 ,0.00093806,-0.00091265,0.00427072,-0.00066065,-0.00148520,-0.00147592
 ,0.00087218,0.00191424,0.00001136,-0.00057252,-0.00016231,-0.00097969,
 -0.00052231,-0.00053386,-0.00076062,-0.00137355,-0.00153022,0.00006348
 ,0.00057407,0.00014948,0.00012482,-0.00019805,-0.00000389,0.00002354,-
 0.00006064,-0.00003764,0.00013991,-0.00009073,-0.00003480,0.00054837,-
 0.00000142,-0.00022636,-0.00010364,0.00006391,0.00004954,-0.00005765,0
 .00001703,0.00002264,-0.00011861,0.00006185,0.00005980,0.00241098,-0.0
 0061865,-0.00015676,-0.00357630,0.00107134,0.00052265,-0.00024917,-0.0
 0003034,-0.00013254,-0.00016344,0.00022012,0.00002440,0.00001485,-0.00
 001846,0.00000770,0.00014528,-0.00025976,-0.00002444,-0.11777135,-0.17
 643977,-0.18359523,0.00164784,0.01038801,0.00501304,0.11513309,0.15661
 900,0.18342962,-0.00021786,0.00043840,-0.00060231,-0.00007906,-0.00006
 689,0.00009517,0.00032476,0.00056127,-0.00168098,0.00039952,0.00060279
 ,0.00040052,-0.00007546,0.00005096,0.00006948,-0.00005298,-0.00006416,
 0.00009780,0.00016152,-0.00044975,-0.00004829,-0.00001580,0.00006722,-
 0.00003119,0.00034111,0.00001025,-0.00014936,-0.00021976,-0.00031896,-
 0.00056576,-0.00012270,0.00005227,0.00000774,-0.00090849,0.00008794,0.
 00009296,-0.00005217,-0.00002942,-0.00010896,-0.00002714,-0.00004410,-
 0.00004478,-0.00223644,-0.00048827,-0.00008353,-0.00137479,-0.00049164
 ,0.00039314,0.00025232,-0.00035438,0.00032646,0.00461508,0.00173608,0.
 00198364,0.00090386,0.00008988,-0.00012022,-0.00034332,0.00004541,0.00
 014219,-0.00332166,-0.00765713,0.00018566,-0.00059729,-0.00009294,-0.0
 0006741,-0.00056709,-0.00180067,-0.00163018,-0.00068815,0.00061206,0.0
 0023127,0.00001000,-0.00006763,-0.00005353,0.00007821,-0.00001556,0.00
 004031,0.00006210,-0.00002904,-0.00005188,0.00024405,-0.00004277,-0.00
 008032,-0.00001547,0.00001273,0.00001292,-0.00002129,0.00001330,0.0000
 2681,-0.00002464,0.00000444,0.00000154,-0.00011199,-0.00007074,-0.0000
 2246,0.00011156,0.00005671,0.00002016,0.00002360,0.00000976,-0.0000014
 4,-0.00020954,0.00013637,0.00003922,0.00003969,-0.00002973,0.00000779,
 0.00015235,-0.00009880,-0.00005073,-0.00017483,-0.00030603,-0.00014702
 ,0.00002703,0.00006060,0.00002409,0.00015958,0.00036120,0.00015932,0.1
 6062739,-0.00095461,0.00173580,-0.00180981,-0.00009574,-0.00040307,0.0
 0027446,-0.00041825,0.00053965,0.00004647,0.00120203,0.00070746,-0.000
 71743,0.00002085,0.00003808,0.00010342,0.00009586,0.00007133,0.0003714
 4,-0.00009102,0.00008819,-0.00005695,-0.00011257,0.00012673,-0.0000488
 4,-0.00012006,-0.00012720,0.00009386,-0.00108561,-0.00061687,0.0000072
 3,0.00000383,0.00010463,0.00007908,0.00060510,-0.00108394,0.00039058,0
 .00004483,0.00011364,0.00002305,0.00005288,0.00008708,0.00007275,0.000
 60704,-0.00153498,0.00028692,-0.00458212,0.00081695,-0.00011755,0.0017
 7262,0.00000710,0.00179212,0.01367835,-0.00181454,0.00377962,0.0002618
 5,0.00009852,-0.00047272,-0.00022174,0.00025883,0.00023484,-0.01570861
 ,-0.01355288,-0.00022057,-0.00021492,0.00005064,0.00015355,-0.00235325
 ,-0.00215419,-0.00279656,-0.00065655,0.00088652,0.00033250,-0.00006937
 ,-0.00009274,-0.00006172,0.00013053,0.00009012,0.00005348,0.00009985,0
 .00002088,0.00008731,0.00012287,-0.00005864,-0.00003689,-0.00000549,0.
 00000356,-0.00000745,-0.00001807,-0.00000041,0.00001469,-0.00001417,0.
 00000031,0.00000160,-0.00011780,-0.00000574,-0.00000427,0.00014260,0.0
 0000384,0.00000428,0.00002373,0.00000343,0.00000340,0.00002583,0.00019
 005,0.00006847,-0.00004662,-0.00003312,0.00000599,0.00000964,-0.000161
 66,-0.00004376,-0.00027512,-0.00010545,-0.00004109,0.00010653,0.000079
 99,0.00002646,0.00021798,0.00005679,-0.00000439,0.24369954,0.47583589,
 0.00038196,-0.00052341,0.00041934,-0.00031106,0.00003987,0.00008718,-0
 .00022481,0.00070965,-0.00193991,-0.00017413,0.00022312,0.00095433,-0.
 00011349,0.00003611,0.00002275,0.00003681,0.00005271,-0.00007828,0.000
 02783,-0.00035053,-0.00060760,-0.00004020,0.00005771,-0.00001613,-0.00
 008844,-0.00003629,-0.00000073,0.00062761,0.00004822,-0.00045995,-0.00
 015393,-0.00001060,0.00000176,-0.00135287,0.00084751,-0.00007437,-0.00
 001457,-0.00011418,-0.00003098,-0.00005207,-0.00008327,-0.00007225,-0.
 00112284,-0.00069200,-0.00042374,0.00148369,-0.00019275,0.00027782,-0.
 00112690,0.00020040,-0.00029438,-0.00172414,0.00134299,0.00011433,0.00
 066719,-0.00055432,-0.00051030,-0.00010469,0.00028378,0.00036348,0.001
 72999,0.00041513,0.00341112,-0.00026519,0.00002703,0.00001207,0.000531
 74,0.00015724,-0.00003569,0.00006450,0.00002126,-0.00011010,0.00000493
 ,-0.00000871,0.00000714,-0.00000473,-0.00003511,0.00002579,-0.00002145
 ,-0.00000057,-0.00000018,0.00009707,-0.00000248,-0.00004634,-0.0000172
 8,0.00000091,-0.00000050,-0.00001697,-0.00000194,0.00001180,-0.0000098
 3,0.00000181,0.00000115,-0.00003529,-0.00002096,0.00001280,0.00003724,
 0.00001614,-0.00000526,0.00000770,0.00000528,-0.00000598,-0.00002094,0
 .00007766,0.00006769,-0.00002255,-0.00000457,-0.00001134,0.00002140,-0
 .00007805,-0.00005478,-0.00005135,-0.00008634,-0.00000417,0.00000516,0
 .00001038,-0.00001634,0.00003695,0.00011483,0.00004183,0.13223919,0.04
 372336,0.46786099,0.00072525,-0.00133946,0.00150083,-0.00001104,0.0002
 6234,-0.00019069,-0.00035380,0.00010835,-0.00016980,-0.00082297,-0.000
 67876,0.00043040,0.00001561,-0.00004935,-0.00009360,0.00002077,-0.0000
 0812,-0.00034430,-0.00006352,0.00003333,-0.00009439,0.00005433,-0.0000
 8777,0.00004318,-0.00011629,0.00005052,0.00003604,0.00087857,0.0004759
 5,0.00012815,0.00000290,-0.00006180,-0.00005471,-0.00038039,0.00071124
 ,-0.00019439,0.00000425,-0.00012281,0.00004374,-0.00003137,-0.00005503
 ,-0.00003648,0.00062749,0.00064485,-0.00031218,0.00363971,0.00003189,-
 0.00032745,-0.00148956,0.00056474,-0.00127923,-0.01127518,-0.00483638,
 -0.00349112,-0.00049907,-0.00024648,0.00021965,0.00031226,-0.00008835,
 -0.00013828,0.00337321,0.00677677,0.00041160,0.00039961,0.00003746,-0.
 00004938,0.00120956,0.00237857,0.00225773,0.00082776,-0.00074702,-0.00
 026949,0.00001463,0.00007302,0.00007415,-0.00009959,-0.00002512,-0.000
 03854,-0.00008621,0.00004304,0.00004105,-0.00017456,0.00005173,0.00005
 798,0.00000717,-0.00000848,-0.00000473,0.00001916,-0.00000918,-0.00002
 094,0.00002039,-0.00000341,-0.00000191,0.00010011,0.00004640,0.0000114
 7,-0.00010855,-0.00003708,-0.00001154,-0.00001959,-0.00000780,0.000000
 91,0.00010511,-0.00014084,-0.00004983,-0.00000541,0.00002415,-0.000005
 83,-0.00008234,0.00011235,0.00004594,0.00019486,0.00024961,0.00011806,
 -0.00004490,-0.00006179,-0.00002292,-0.00017316,-0.00028200,-0.0001034
 9,-0.07881012,-0.14977545,0.02006530,0.08824044,0.00167669,-0.00267619
 ,0.00303860,-0.00005663,0.00054664,-0.00032710,0.00004504,0.00002679,-
 0.00060524,-0.00127681,-0.00063371,0.00171008,-0.00006304,-0.00005427,
 -0.00012943,-0.00003099,0.00001447,-0.00056012,0.00000766,-0.00033715,
 -0.00017134,0.00002179,-0.00008449,0.00000426,0.00017596,0.00006844,-0
 .00010505,0.00193452,0.00101646,-0.00031460,-0.00008574,-0.00014394,-0
 .00011688,-0.00164237,0.00212142,-0.00082326,-0.00008834,-0.00028023,-
 0.00007377,-0.00010013,-0.00015673,-0.00013187,0.00074061,-0.00058703,
 0.00114898,0.00775163,-0.00163569,0.00050612,-0.00289883,-0.00011134,-
 0.00310932,-0.02372587,0.00089279,-0.00656769,-0.00015472,-0.00030687,
 0.00067452,0.00026299,-0.00024328,-0.00028040,0.01668473,0.00324035,0.
 00133670,0.00023511,-0.00005948,-0.00023100,0.00383863,0.00400625,0.00
 462120,0.00127214,-0.00144528,-0.00058220,0.00007696,0.00015181,0.0001
 0301,-0.00021045,-0.00007839,-0.00007118,-0.00017397,0.00000673,-0.000
 07089,-0.00013568,0.00007129,0.00004501,-0.00000107,-0.00000575,0.0000
 0678,0.00002305,-0.00000158,-0.00001947,0.00001805,-0.00000101,-0.0000
 0293,0.00014481,0.00001686,-0.00000004,-0.00017794,-0.00001017,-0.0000
 0014,-0.00002759,-0.00000752,-0.00000214,0.00000373,-0.00018018,-0.000
 08680,0.00003590,0.00002686,-0.00000556,-0.00001310,0.00014868,0.00006
 174,0.00037154,0.00015001,0.00005616,-0.00014375,-0.00011736,-0.000041
 94,-0.00031243,-0.00006936,0.00002174,-0.16150255,-0.36517077,0.072201
 63,0.16133834,0.37375017,-0.00014299,0.00009578,-0.00011957,0.00014678
 ,0.00002281,-0.00001596,-0.00032575,0.00000320,0.00013360,-0.00007665,
 -0.00010728,-0.00044341,0.00005155,-0.00001979,-0.00000520,-0.00008499
 ,-0.00014956,-0.00018205,-0.00006395,0.00006936,0.00021030,0.00005118,
 -0.00004061,-0.00000478,-0.00000875,0.00001200,0.00002597,-0.00029022,
 -0.00007935,0.00014446,0.00004457,0.00002817,-0.00000565,0.00043885,-0
 .00044846,0.00017932,0.00001554,0.00004809,0.00002571,0.00001768,0.000
 01200,0.00003226,0.00007575,0.00097450,-0.00050902,-0.00064475,0.00011
 481,-0.00024186,0.00031224,-0.00012213,-0.00003617,0.00064070,-0.00198
 848,-0.00015722,-0.00034466,0.00028250,0.00027943,0.00005167,-0.000143
 19,-0.00019494,-0.00086633,0.00087166,-0.00453900,0.00012232,-0.000012
 88,-0.00001134,-0.00091284,-0.00061502,-0.00002692,-0.00013977,0.00005
 849,0.00015899,-0.00000528,0.00000692,-0.00001993,0.00001743,0.0000232
 3,-0.00004397,0.00003520,-0.00000581,-0.00001142,-0.00005216,-0.000000
 51,0.00002604,0.00000709,-0.00000051,-0.00000031,0.00001015,0.00000083
 ,-0.00000711,0.00000396,-0.00000055,-0.00000043,0.00001971,0.00001314,
 -0.00001036,-0.00002009,-0.00001006,0.00000525,-0.00000485,-0.00000352
 ,0.00000411,0.00001722,-0.00003514,-0.00003534,0.00000786,0.00000094,0
 .00000477,-0.00001413,0.00003187,0.00003045,0.00002565,0.00004679,-0.0
 0001391,0.00000008,-0.00000183,0.00001528,-0.00001328,-0.00006479,-0.0
 0000163,0.04414306,0.12028845,-0.07428820,-0.02393693,-0.08002147,0.07
 444269,0.00007630,-0.00010338,0.00010325,-0.00004949,-0.00002187,0.000
 00410,0.00007335,0.00013630,-0.00055157,0.00002521,0.00009357,0.000155
 98,-0.00001552,0.00000286,-0.00000321,-0.00000536,-0.00000618,-0.00001
 133,0.00007653,0.00000384,-0.00011969,-0.00003005,0.00002044,-0.000011
 32,-0.00007901,-0.00003765,0.00001935,0.00009972,0.00001725,-0.0000685
 5,-0.00003255,-0.00000062,0.00000745,-0.00026893,0.00012924,-0.0000188
 9,-0.00000230,-0.00000595,-0.00000483,-0.00000388,-0.00000605,-0.00000
 148,-0.00026966,-0.00028732,0.00017925,0.00018864,0.00004984,0.0000995
 1,-0.00016351,0.00011782,-0.00000931,0.00005964,-0.00006582,-0.0000260
 2,-0.00002867,-0.00018645,-0.00017585,0.00003843,0.00011103,0.00010643
 ,-0.00000025,-0.00026427,0.00040700,0.00007108,0.00004420,0.00004449,-
 0.00000695,0.00019202,0.00003098,0.00006275,-0.00005006,-0.00002141,-0
 .00000219,0.00000833,0.00000216,0.00000007,0.00001156,-0.00000564,-0.0
 0000092,-0.00000570,0.00000767,-0.00003307,0.00000515,0.00000508,-0.00
 000097,-0.00000334,-0.00000483,-0.00000169,-0.00000448,-0.00000290,0.0
 0000199,-0.00000016,0.00000086,0.00001643,0.00001550,0.00000877,-0.000
 01258,-0.00001159,-0.00000690,-0.00000431,-0.00000160,-0.00000049,0.00
 006723,0.00000923,0.00002111,-0.00003023,0.00000383,-0.00000541,-0.000
 03926,-0.00001731,-0.00001013,0.00001534,0.00004507,0.00002674,0.00000
 001,-0.00000886,-0.00000629,-0.00001258,-0.00004743,-0.00002555,-0.078
 26569,-0.08598720,-0.15099653,-0.00614554,-0.00383787,-0.01830789,0.08
 463244,0.00002150,-0.00005597,0.00007061,0.00006886,0.00002301,-0.0000
 5174,0.00028525,-0.00009689,0.00046393,-0.00006560,-0.00015537,-0.0000
 9523,0.00002528,-0.00001098,-0.00001413,0.00000272,0.00000976,0.000003
 21,0.00001684,0.00010535,0.00011042,0.00003488,-0.00003911,0.00002245,
 0.00000884,0.00003220,-0.00001499,-0.00001117,0.00006647,0.00013012,0.
 00003940,-0.00001883,-0.00000444,0.00026500,-0.00004584,-0.00001813,0.
 00000529,0.00001680,0.00001611,0.00000754,0.00001482,0.00000609,-0.000
 63167,0.00044256,-0.00067918,0.00017026,0.00000397,0.00004336,0.000037
 30,0.00001381,-0.00002282,-0.00006003,0.00005028,0.00018592,-0.0001370
 4,0.00006754,0.00007400,0.00005051,-0.00007761,-0.00005215,-0.00019516
 ,-0.00112368,0.00103123,0.00007813,-0.00000693,-0.00000946,0.00013470,
 0.00007119,-0.00013432,-0.00003555,0.00000879,-0.00001057,0.00001255,0
 .00000391,0.00000422,-0.00000586,-0.00001647,0.00001012,-0.00000715,-0
 .00001500,-0.00002283,-0.00003621,0.00001157,0.00000970,0.00000474,-0.
 00000098,0.00000133,0.00000369,0.00000066,-0.00000286,0.00000356,-0.00
 000019,-0.00000025,0.00002259,-0.00000026,0.00000446,-0.00002422,-0.00
 000110,-0.00000345,-0.00000528,0.00000051,-0.00000166,-0.00001001,-0.0
 0006178,-0.00001593,0.00001728,0.00001392,-0.00000122,-0.00000809,0.00
 005181,0.00000944,0.00003430,0.00001954,0.00001580,-0.00001090,-0.0000
 0612,-0.00000470,-0.00002102,-0.00002050,-0.00001489,-0.07468801,-0.09
 509978,-0.11781867,-0.01534217,-0.01185827,-0.03913460,0.08994411,0.10
 768314,0.00007080,-0.00012964,0.00012614,-0.00007321,0.00004227,-0.000
 00510,0.00013400,0.00022510,-0.00000945,-0.00003636,-0.00001985,0.0000
 8836,-0.00001017,0.00000042,-0.00000610,0.00000469,-0.00000688,-0.0000
 2029,-0.00004502,-0.00005968,-0.00010026,-0.00001633,0.00000727,0.0000
 0395,-0.00001503,0.00000246,0.00001908,0.00009303,0.00002217,-0.000027
 38,-0.00001584,-0.00001697,0.00000316,-0.00010223,0.00012290,0.0000365
 3,-0.00000174,-0.00001920,-0.00000934,-0.00001161,-0.00001782,-0.00000
 974,-0.00003206,-0.00026096,-0.00001937,0.00029119,-0.00001360,-0.0000
 3094,-0.00012758,-0.00000023,-0.00014227,-0.00079956,-0.00006073,-0.00
 027307,-0.00001617,0.00001534,0.00006668,0.00001075,-0.00002163,-0.000
 04940,0.00082348,0.00114790,-0.00028370,-0.00000043,-0.00001061,-0.000
 01871,0.00013015,0.00014293,0.00025676,0.00003892,-0.00005000,-0.00001
 183,0.00000338,0.00000525,0.00000337,-0.00001074,-0.00000482,-0.000005
 10,-0.00000641,0.00000657,-0.00000717,-0.00000253,0.00000088,0.0000039
 6,-0.00000023,0.00000034,0.00000079,0.00000154,0.00000073,-0.00000121,
 0.00000035,0.00000003,0.,0.00000471,0.00000052,-0.00000523,-0.00000697
 ,0.00000031,0.00000291,-0.00000091,-0.00000112,0.00000147,0.00000126,0
 .00000004,-0.00001280,0.00000287,-0.00000227,0.00000487,0.00000223,0.0
 0000332,0.00000992,0.00001631,0.00000287,-0.00000598,-0.00000707,-0.00
 000401,0.00000184,-0.00001320,-0.00000123,0.00000656,-0.17520009,-0.16
 587935,-0.39460587,0.00575597,0.00891530,0.00520709,0.16916586,0.15591
 569,0.38981688\\-0.00005091,0.00008146,-0.00002944,-0.00000983,-0.0000
 1685,-0.00012740,-0.00005253,-0.00001984,0.00002691,0.00001574,-0.0001
 5092,0.00005120,-0.00001537,-0.00000981,0.00002029,0.00004926,-0.00002
 157,-0.00000806,-0.00000298,0.00003085,0.00001494,0.00000542,0.0000091
 9,-0.00000556,0.00002795,0.00004408,-0.00006918,0.00004842,-0.00002308
 ,0.00003159,-0.00000132,-0.00000201,-0.00000213,-0.00006019,0.00002752
 ,0.00001780,-0.00000788,0.00000628,-0.00001537,-0.00006317,-0.00003515
 ,0.00006347,0.00004105,0.00003244,0.00002969,0.00002510,0.00006140,0.0
 0004042,0.00006953,-0.00003136,0.00001497,0.00000512,0.00002520,0.0000
 2110,0.00000535,-0.00002606,0.00001978,0.00004410,0.00003115,-0.000013
 27,-0.00004199,-0.00004162,-0.00002101,-0.00003309,0.00002593,0.000004
 19,0.00006907,0.00003449,-0.00002224,-0.00000532,0.00000108,0.00000795
 ,0.00000542,-0.00000815,0.00000378,0.00000311,0.00000007,0.00000587,-0
 .00001897,0.00001073,-0.00002483,0.00001284,0.00000387,-0.00002682,0.0
 0003262,0.00003084,0.00000704,-0.00001023,-0.00003400,0.00000064,0.000
 01152,-0.00001481,0.00000331,0.00001611,0.00000837,0.00001524,-0.00000
 546,0.00000781,-0.00000989,-0.00000402,-0.00001031,-0.00000322,0.00001
 119,-0.00000361,-0.00001827,-0.00000130,0.00000384,0.00000477,-0.00006
 771,-0.00002685,-0.00001148,-0.00000530,-0.00001276,-0.00001291,0.0000
 1063,-0.00000097,0.00000085,-0.00006289,-0.00000371,0.00002526,-0.0000
 0606,0.00000211,-0.00003115,0.00002101,0.00000209,0.00000825,-0.000004
 04,0.00001266,0.00001292\\\@


 A MAN IS EXACTLY AS GREAT AS THE TIDE SURGING
 BENEATH HIM.      - BISMARCK
 Job cpu time:       0 days  4 hours 58 minutes 51.5 seconds.
 File lengths (MBytes):  RWF=   1185 Int=      0 D2E=      0 Chk=     26 Scr=      1
 Normal termination of Gaussian 09 at Fri Feb  5 09:08:14 2021.
