 Entering Gaussian System, Link 0=g09
 Input=b3lyp_PM6_2H2O_diene_pm6_cpcmtoluene_2.com
 Output=b3lyp_PM6_2H2O_diene_pm6_cpcmtoluene_2.log
 Initial command:
 /apps/applications/gaussian/G09.D01/2/default/g09/l1.exe "/local/719263.1.40core-192G.q/Gau-151410.inp" -scrdir="/local/719263.1.40core-192G.q/"
 Entering Link 1 = /apps/applications/gaussian/G09.D01/2/default/g09/l1.exe PID=    151411.
  
 Copyright (c) 1988,1990,1992,1993,1995,1998,2003,2009,2013,
            Gaussian, Inc.  All Rights Reserved.
  
 This is part of the Gaussian(R) 09 program.  It is based on
 the Gaussian(R) 03 system (copyright 2003, Gaussian, Inc.),
 the Gaussian(R) 98 system (copyright 1998, Gaussian, Inc.),
 the Gaussian(R) 94 system (copyright 1995, Gaussian, Inc.),
 the Gaussian 92(TM) system (copyright 1992, Gaussian, Inc.),
 the Gaussian 90(TM) system (copyright 1990, Gaussian, Inc.),
 the Gaussian 88(TM) system (copyright 1988, Gaussian, Inc.),
 the Gaussian 86(TM) system (copyright 1986, Carnegie Mellon
 University), and the Gaussian 82(TM) system (copyright 1983,
 Carnegie Mellon University). Gaussian is a federally registered
 trademark of Gaussian, Inc.
  
 This software contains proprietary and confidential information,
 including trade secrets, belonging to Gaussian, Inc.
  
 This software is provided under written license and may be
 used, copied, transmitted, or stored only in accord with that
 written license.
  
 The following legend is applicable only to US Government
 contracts under FAR:
  
                    RESTRICTED RIGHTS LEGEND
  
 Use, reproduction and disclosure by the US Government is
 subject to restrictions as set forth in subparagraphs (a)
 and (c) of the Commercial Computer Software - Restricted
 Rights clause in FAR 52.227-19.
  
 Gaussian, Inc.
 340 Quinnipiac St., Bldg. 40, Wallingford CT 06492
  
  
 ---------------------------------------------------------------
 Warning -- This program may not be used in any manner that
 competes with the business of Gaussian, Inc. or will provide
 assistance to any competitor of Gaussian, Inc.  The licensee
 of this program is prohibited from giving any competitor of
 Gaussian, Inc. access to this program.  By using this program,
 the user acknowledges that Gaussian, Inc. is engaged in the
 business of creating and licensing software in the field of
 computational chemistry and represents and warrants to the
 licensee that it is not a competitor of Gaussian, Inc. and that
 it will not use this program in any manner prohibited above.
 ---------------------------------------------------------------
  

 Cite this work as:
 Gaussian 09, Revision D.01,
 M. J. Frisch, G. W. Trucks, H. B. Schlegel, G. E. Scuseria, 
 M. A. Robb, J. R. Cheeseman, G. Scalmani, V. Barone, B. Mennucci, 
 G. A. Petersson, H. Nakatsuji, M. Caricato, X. Li, H. P. Hratchian, 
 A. F. Izmaylov, J. Bloino, G. Zheng, J. L. Sonnenberg, M. Hada, 
 M. Ehara, K. Toyota, R. Fukuda, J. Hasegawa, M. Ishida, T. Nakajima, 
 Y. Honda, O. Kitao, H. Nakai, T. Vreven, J. A. Montgomery, Jr., 
 J. E. Peralta, F. Ogliaro, M. Bearpark, J. J. Heyd, E. Brothers, 
 K. N. Kudin, V. N. Staroverov, T. Keith, R. Kobayashi, J. Normand, 
 K. Raghavachari, A. Rendell, J. C. Burant, S. S. Iyengar, J. Tomasi, 
 M. Cossi, N. Rega, J. M. Millam, M. Klene, J. E. Knox, J. B. Cross, 
 V. Bakken, C. Adamo, J. Jaramillo, R. Gomperts, R. E. Stratmann, 
 O. Yazyev, A. J. Austin, R. Cammi, C. Pomelli, J. W. Ochterski, 
 R. L. Martin, K. Morokuma, V. G. Zakrzewski, G. A. Voth, 
 P. Salvador, J. J. Dannenberg, S. Dapprich, A. D. Daniels, 
 O. Farkas, J. B. Foresman, J. V. Ortiz, J. Cioslowski, 
 and D. J. Fox, Gaussian, Inc., Wallingford CT, 2013.
 
 ******************************************
 Gaussian 09:  ES64L-G09RevD.01 24-Apr-2013
                28-Aug-2020 
 ******************************************
 %nprocshared=4
 Will use up to    4 processors via shared memory.
 %chk=b3lyp_PM6_2H2O_diene_pm6_cpcmtoluene_2.chk
 ----------------------------------------------------------------------
 # opt freq b3lyp/6-31+g(d,p) scrf=(cpcm,solvent=toluene) geom=connecti
 vity empiricaldispersion=gd3
 ----------------------------------------------------------------------
 1/14=-1,18=20,19=15,26=3,38=1,57=2/1,3;
 2/9=110,12=2,17=6,18=5,40=1/2;
 3/5=1,6=6,7=111,11=2,16=1,25=1,30=1,70=2101,71=1,72=13,74=-5,124=31/1,2,3;
 4//1;
 5/5=2,38=5,53=13/2;
 6/7=2,8=2,9=2,10=2,28=1/1;
 7//1,2,3,16;
 1/14=-1,18=20,19=15,26=3/3(2);
 2/9=110/2;
 99//99;
 2/9=110/2;
 3/5=1,6=6,7=111,11=2,16=1,25=1,30=1,70=2105,71=1,72=13,74=-5,124=31/1,2,3;
 4/5=5,16=3,69=1/1;
 5/5=2,38=5,53=13/2;
 7//1,2,3,16;
 1/14=-1,18=20,19=15,26=3/3(-5);
 2/9=110/2;
 6/7=2,8=2,9=2,10=2,19=2,28=1/1;
 99/9=1/99;
 -------------------
 Title Card Required
 -------------------
 Symbolic Z-matrix:
 Charge =  0 Multiplicity = 1
 C                    -3.31835   0.5111   -0.18848 
 H                    -3.53427   1.49329  -0.61223 
 C                    -1.9       0.12544  -0.18498 
 H                    -1.18201   0.94314  -0.14593 
 C                    -4.33807  -0.20517   0.31427 
 H                    -4.1236   -1.16086   0.79642 
 C                    -5.78059   0.20803   0.27842 
 H                    -6.19947   0.26746   1.29345 
 H                    -5.91049   1.18197  -0.20304 
 H                    -6.38755  -0.5275   -0.26514 
 C                    -1.44195  -1.13581  -0.25406 
 H                    -2.1337   -1.9732   -0.35013 
 C                    -0.00236  -1.54968  -0.21903 
 H                     0.2643   -2.09886  -1.13421 
 H                     0.19475  -2.20122   0.63835 
 C                     2.1499   -0.40311   0.00334 
 C                     2.86145  -1.72794   0.06643 
 H                     2.59595  -2.34896  -0.79624 
 H                     3.93494  -1.5612    0.08712 
 H                     2.56073  -2.27768   0.96807 
 O                     0.82051  -0.36296  -0.12213 
 O                     2.72966   0.68      0.04532 
 O                     5.54309   0.40807   0.29587 
 H                     4.60221   0.64434   0.20729 
 H                     6.03831   1.16199  -0.00194 
 O                     0.60309   2.76093  -0.07602 
 H                     1.03004   3.55166  -0.48522 
 H                     1.29885   2.0801   -0.03632 
 
 Add virtual bond connecting atoms H24        and O22        Dist= 3.55D+00.
 Add virtual bond connecting atoms H28        and O22        Dist= 3.79D+00.

 GradGradGradGradGradGradGradGradGradGradGradGradGradGradGradGradGradGrad
 Berny optimization.
 Initialization pass.
                           ----------------------------
                           !    Initial Parameters    !
                           ! (Angstroms and Degrees)  !
 --------------------------                            --------------------------
 ! Name  Definition              Value          Derivative Info.                !
 --------------------------------------------------------------------------------
 ! R1    R(1,2)                  1.0913         estimate D2E/DX2                !
 ! R2    R(1,3)                  1.4698         estimate D2E/DX2                !
 ! R3    R(1,5)                  1.3437         estimate D2E/DX2                !
 ! R4    R(3,4)                  1.0889         estimate D2E/DX2                !
 ! R5    R(3,11)                 1.3436         estimate D2E/DX2                !
 ! R6    R(5,6)                  1.0917         estimate D2E/DX2                !
 ! R7    R(5,7)                  1.501          estimate D2E/DX2                !
 ! R8    R(7,8)                  1.0997         estimate D2E/DX2                !
 ! R9    R(7,9)                  1.0942         estimate D2E/DX2                !
 ! R10   R(7,10)                 1.0977         estimate D2E/DX2                !
 ! R11   R(11,12)                1.0904         estimate D2E/DX2                !
 ! R12   R(11,13)                1.4983         estimate D2E/DX2                !
 ! R13   R(13,14)                1.1001         estimate D2E/DX2                !
 ! R14   R(13,15)                1.0947         estimate D2E/DX2                !
 ! R15   R(13,21)                1.4473         estimate D2E/DX2                !
 ! R16   R(16,17)                1.5051         estimate D2E/DX2                !
 ! R17   R(16,21)                1.3359         estimate D2E/DX2                !
 ! R18   R(16,22)                1.2292         estimate D2E/DX2                !
 ! R19   R(17,18)                1.0956         estimate D2E/DX2                !
 ! R20   R(17,19)                1.0866         estimate D2E/DX2                !
 ! R21   R(17,20)                1.098          estimate D2E/DX2                !
 ! R22   R(22,24)                1.8799         estimate D2E/DX2                !
 ! R23   R(22,28)                2.0035         estimate D2E/DX2                !
 ! R24   R(23,24)                0.9741         estimate D2E/DX2                !
 ! R25   R(23,25)                0.9499         estimate D2E/DX2                !
 ! R26   R(26,27)                0.9874         estimate D2E/DX2                !
 ! R27   R(26,28)                0.9743         estimate D2E/DX2                !
 ! A1    A(2,1,3)              115.3413         estimate D2E/DX2                !
 ! A2    A(2,1,5)              118.3518         estimate D2E/DX2                !
 ! A3    A(3,1,5)              126.2657         estimate D2E/DX2                !
 ! A4    A(1,3,4)              116.0615         estimate D2E/DX2                !
 ! A5    A(1,3,11)             125.1086         estimate D2E/DX2                !
 ! A6    A(4,3,11)             118.8139         estimate D2E/DX2                !
 ! A7    A(1,5,6)              118.8677         estimate D2E/DX2                !
 ! A8    A(1,5,7)              125.005          estimate D2E/DX2                !
 ! A9    A(6,5,7)              116.1259         estimate D2E/DX2                !
 ! A10   A(5,7,8)              111.0334         estimate D2E/DX2                !
 ! A11   A(5,7,9)              111.6933         estimate D2E/DX2                !
 ! A12   A(5,7,10)             111.0258         estimate D2E/DX2                !
 ! A13   A(8,7,9)              108.2293         estimate D2E/DX2                !
 ! A14   A(8,7,10)             106.4195         estimate D2E/DX2                !
 ! A15   A(9,7,10)             108.2351         estimate D2E/DX2                !
 ! A16   A(3,11,12)            120.6066         estimate D2E/DX2                !
 ! A17   A(3,11,13)            125.8474         estimate D2E/DX2                !
 ! A18   A(12,11,13)           113.5452         estimate D2E/DX2                !
 ! A19   A(11,13,14)           110.5689         estimate D2E/DX2                !
 ! A20   A(11,13,15)           110.8361         estimate D2E/DX2                !
 ! A21   A(11,13,21)           108.744          estimate D2E/DX2                !
 ! A22   A(14,13,15)           108.1055         estimate D2E/DX2                !
 ! A23   A(14,13,21)           109.0992         estimate D2E/DX2                !
 ! A24   A(15,13,21)           109.4624         estimate D2E/DX2                !
 ! A25   A(17,16,21)           120.0551         estimate D2E/DX2                !
 ! A26   A(17,16,22)           123.4475         estimate D2E/DX2                !
 ! A27   A(21,16,22)           116.4917         estimate D2E/DX2                !
 ! A28   A(16,17,18)           110.5703         estimate D2E/DX2                !
 ! A29   A(16,17,19)           109.438          estimate D2E/DX2                !
 ! A30   A(16,17,20)           110.2211         estimate D2E/DX2                !
 ! A31   A(18,17,19)           109.9615         estimate D2E/DX2                !
 ! A32   A(18,17,20)           107.2421         estimate D2E/DX2                !
 ! A33   A(19,17,20)           109.377          estimate D2E/DX2                !
 ! A34   A(13,21,16)           123.1897         estimate D2E/DX2                !
 ! A35   A(16,22,24)           117.1313         estimate D2E/DX2                !
 ! A36   A(16,22,28)           106.1131         estimate D2E/DX2                !
 ! A37   A(24,22,28)           136.7294         estimate D2E/DX2                !
 ! A38   A(24,23,25)           106.4111         estimate D2E/DX2                !
 ! A39   A(27,26,28)           105.5279         estimate D2E/DX2                !
 ! A40   L(22,24,23,19,-1)     167.0661         estimate D2E/DX2                !
 ! A41   L(22,28,26,3,-1)      180.0            estimate D2E/DX2                !
 ! A42   L(22,24,23,19,-2)     180.7827         estimate D2E/DX2                !
 ! A43   L(22,28,26,3,-2)      180.0            estimate D2E/DX2                !
 ! D1    D(2,1,3,4)             27.5948         estimate D2E/DX2                !
 ! D2    D(2,1,3,11)          -150.9271         estimate D2E/DX2                !
 ! D3    D(5,1,3,4)           -150.0176         estimate D2E/DX2                !
 ! D4    D(5,1,3,11)            31.4605         estimate D2E/DX2                !
 ! D5    D(2,1,5,6)           -176.2083         estimate D2E/DX2                !
 ! D6    D(2,1,5,7)              3.3437         estimate D2E/DX2                !
 ! D7    D(3,1,5,6)              1.3397         estimate D2E/DX2                !
 ! D8    D(3,1,5,7)           -179.1084         estimate D2E/DX2                !
 ! D9    D(1,3,11,12)            1.8907         estimate D2E/DX2                !
 ! D10   D(1,3,11,13)         -178.4532         estimate D2E/DX2                !
 ! D11   D(4,3,11,12)         -176.5939         estimate D2E/DX2                !
 ! D12   D(4,3,11,13)            3.0622         estimate D2E/DX2                !
 ! D13   D(1,5,7,8)           -121.5216         estimate D2E/DX2                !
 ! D14   D(1,5,7,9)             -0.6131         estimate D2E/DX2                !
 ! D15   D(1,5,7,10)           120.2975         estimate D2E/DX2                !
 ! D16   D(6,5,7,8)             58.0414         estimate D2E/DX2                !
 ! D17   D(6,5,7,9)            178.9499         estimate D2E/DX2                !
 ! D18   D(6,5,7,10)           -60.1394         estimate D2E/DX2                !
 ! D19   D(3,11,13,14)        -120.77           estimate D2E/DX2                !
 ! D20   D(3,11,13,15)         119.3642         estimate D2E/DX2                !
 ! D21   D(3,11,13,21)          -1.0082         estimate D2E/DX2                !
 ! D22   D(12,11,13,14)         58.9071         estimate D2E/DX2                !
 ! D23   D(12,11,13,15)        -60.9587         estimate D2E/DX2                !
 ! D24   D(12,11,13,21)        178.669          estimate D2E/DX2                !
 ! D25   D(11,13,21,16)        176.1797         estimate D2E/DX2                !
 ! D26   D(14,13,21,16)        -63.1482         estimate D2E/DX2                !
 ! D27   D(15,13,21,16)         54.9617         estimate D2E/DX2                !
 ! D28   D(21,16,17,18)         54.1988         estimate D2E/DX2                !
 ! D29   D(21,16,17,19)        175.4717         estimate D2E/DX2                !
 ! D30   D(21,16,17,20)        -64.2013         estimate D2E/DX2                !
 ! D31   D(22,16,17,18)       -124.9013         estimate D2E/DX2                !
 ! D32   D(22,16,17,19)         -3.6284         estimate D2E/DX2                !
 ! D33   D(22,16,17,20)        116.6986         estimate D2E/DX2                !
 ! D34   D(17,16,21,13)         -0.7279         estimate D2E/DX2                !
 ! D35   D(22,16,21,13)        178.4332         estimate D2E/DX2                !
 ! D36   D(17,16,22,24)         -0.3751         estimate D2E/DX2                !
 ! D37   D(17,16,22,28)       -178.8215         estimate D2E/DX2                !
 ! D38   D(21,16,22,24)       -179.5048         estimate D2E/DX2                !
 ! D39   D(21,16,22,28)          2.0488         estimate D2E/DX2                !
 ! D40   D(16,22,23,25)        157.3016         estimate D2E/DX2                !
 ! D41   D(28,22,23,25)        -25.2633         estimate D2E/DX2                !
 ! D42   D(16,22,26,27)       -152.5055         estimate D2E/DX2                !
 ! D43   D(24,22,26,27)         29.5118         estimate D2E/DX2                !
 --------------------------------------------------------------------------------
 Trust Radius=3.00D-01 FncErr=1.00D-07 GrdErr=1.00D-06
 Number of steps in this run=    123 maximum allowed number of steps=    168.
 GradGradGradGradGradGradGradGradGradGradGradGradGradGradGradGradGradGrad

                          Input orientation:                          
 ---------------------------------------------------------------------
 Center     Atomic      Atomic             Coordinates (Angstroms)
 Number     Number       Type             X           Y           Z
 ---------------------------------------------------------------------
      1          6           0       -3.318347    0.511098   -0.188484
      2          1           0       -3.534274    1.493286   -0.612227
      3          6           0       -1.900000    0.125444   -0.184979
      4          1           0       -1.182008    0.943139   -0.145925
      5          6           0       -4.338069   -0.205170    0.314267
      6          1           0       -4.123597   -1.160858    0.796423
      7          6           0       -5.780589    0.208025    0.278418
      8          1           0       -6.199466    0.267457    1.293452
      9          1           0       -5.910485    1.181971   -0.203039
     10          1           0       -6.387545   -0.527502   -0.265135
     11          6           0       -1.441951   -1.135810   -0.254057
     12          1           0       -2.133702   -1.973196   -0.350134
     13          6           0       -0.002358   -1.549676   -0.219033
     14          1           0        0.264296   -2.098865   -1.134211
     15          1           0        0.194750   -2.201225    0.638348
     16          6           0        2.149900   -0.403113    0.003341
     17          6           0        2.861447   -1.727938    0.066433
     18          1           0        2.595946   -2.348960   -0.796238
     19          1           0        3.934938   -1.561201    0.087118
     20          1           0        2.560731   -2.277678    0.968068
     21          8           0        0.820510   -0.362962   -0.122132
     22          8           0        2.729661    0.680004    0.045315
     23          8           0        5.543092    0.408074    0.295869
     24          1           0        4.602205    0.644343    0.207287
     25          1           0        6.038307    1.161994   -0.001940
     26          8           0        0.603088    2.760932   -0.076020
     27          1           0        1.030042    3.551656   -0.485217
     28          1           0        1.298854    2.080100   -0.036322
 ---------------------------------------------------------------------
                    Distance matrix (angstroms):
                    1          2          3          4          5
     1  C    0.000000
     2  H    1.091273   0.000000
     3  C    1.469847   2.173565   0.000000
     4  H    2.180003   2.460336   1.088881   0.000000
     5  C    1.343738   2.095049   2.510524   3.389854   0.000000
     6  H    2.100930   3.062038   2.749928   3.737348   1.091702
     7  C    2.524378   2.736983   3.909032   4.676260   1.500959
     8  H    3.249052   3.498216   4.548773   5.263386   2.155685
     9  H    2.677585   2.431199   4.147356   4.734849   2.159689
    10  H    3.241071   3.513575   4.535507   5.410602   2.154056
    11  C    2.497492   3.379090   1.343630   2.097926   3.094605
    12  H    2.757033   3.747905   2.118061   3.074481   2.902857
    13  C    3.904293   4.678531   2.531449   2.758812   4.570612
    14  H    4.532288   5.254060   3.245423   3.510312   5.183236
    15  H    4.514665   5.396200   3.237164   3.521019   4.963438
    16  C    5.547459   6.023710   4.088585   3.596705   6.498430
    17  C    6.577851   7.193199   5.115624   4.850699   7.362966
    18  H    6.597587   7.237148   5.168157   5.053094   7.342317
    19  H    7.548544   8.099883   6.079910   5.701681   8.386481
    20  H    6.608967   7.339386   5.196406   5.061891   7.232993
    21  O    4.230664   4.759201   2.764718   2.390930   5.179409
    22  O    6.054882   6.350643   4.668440   3.925171   7.128020
    23  O    8.875264   9.186996   7.463961   6.760802   9.900189
    24  H    7.931553   8.221593   6.534661   5.802685   8.981181
    25  H    9.381121   9.597735   8.007787   7.225066  10.470831
    26  O    4.522395   4.360299   3.636361   2.548691   5.776255
    27  H    5.314276   5.008593   4.518210   3.436953   6.600722
    28  H    4.878880   4.902565   3.751726   2.731185   6.092641
                    6          7          8          9         10
     6  H    0.000000
     7  C    2.210835   0.000000
     8  H    2.568337   1.099675   0.000000
     9  H    3.111389   1.094187   1.777451   0.000000
    10  H    2.579439   1.097655   1.759695   1.775877   0.000000
    11  C    2.880167   4.573095   5.195950   5.034134   4.982877
    12  H    2.436015   4.295648   4.924666   4.923495   4.493599
    13  C    4.262269   6.060109   6.632777   6.509079   6.466651
    14  H    4.884753   6.622529   7.298852   7.053998   6.889954
    15  H    4.444713   6.452806   6.885459   7.030494   6.851587
    16  C    6.368667   7.958757   8.475020   8.217353   8.542571
    17  C    7.045942   8.858763   9.358810   9.245917   9.332461
    18  H    7.007169   8.823797   9.411255   9.229232   9.181661
    19  H    8.099591   9.877157  10.368480  10.224556  10.380090
    20  H    6.779158   8.731091   9.128233   9.225083   9.200845
    21  O    5.091618   6.637844   7.188976   6.906494   7.211351
    22  O    7.135831   8.526515   9.025373   8.658278   9.202059
    23  O    9.805966  11.325461  11.785695  11.490529  11.980406
    24  H    8.930031  10.392201  10.862684  10.534423  11.062143
    25  H   10.454536  11.860648  12.338611  11.950501  12.542945
    26  O    6.203478   6.884351   7.373440   6.703423   7.727775
    27  H    7.100027   7.625464   8.137285   7.339342   8.468091
    28  H    6.371832   7.329546   7.828076   7.266980   8.119894
                   11         12         13         14         15
    11  C    0.000000
    12  H    1.090397   0.000000
    13  C    1.498312   2.176967   0.000000
    14  H    2.147888   2.526057   1.100120   0.000000
    15  H    2.147158   2.539839   1.094746   1.776874   0.000000
    16  C    3.674846   4.575954   2.448729   2.779407   2.731127
    17  C    4.355751   5.018485   2.883513   2.885191   2.768097
    18  H    4.250918   4.765478   2.779065   2.369254   2.801001
    19  H    5.404470   6.098305   3.949198   3.905680   3.834383
    20  H    4.338077   4.885496   2.916954   3.118520   2.390068
    21  O    2.394458   3.372270   1.447340   2.084955   2.085453
    22  O    4.559512   5.554111   3.536281   3.897617   3.883161
    23  O    7.174735   8.063556   5.903382   6.016275   5.960746
    24  H    6.317721   7.248081   5.118346   5.304928   5.263908
    25  H    7.829286   8.759702   6.624947   6.727142   6.772619
    26  O    4.404371   5.475137   4.355268   4.985196   5.029917
    27  H    5.304387   6.368007   5.211554   5.738985   5.920790
    28  H    4.231016   5.320726   3.860286   4.442907   4.472580
                   16         17         18         19         20
    16  C    0.000000
    17  C    1.505138   0.000000
    18  H    2.150489   1.095610   0.000000
    19  H    2.129448   1.086560   1.787115   0.000000
    20  H    2.147900   1.097994   1.766097   1.782655   0.000000
    21  O    1.335902   2.462547   2.747868   3.343535   2.807676
    22  O    1.229238   2.411638   3.146540   2.545082   3.102885
    23  O    3.501050   3.436045   4.180862   2.551035   4.069348
    24  H    2.674427   2.945810   3.740588   2.307403   3.644806
    25  H    4.191575   4.295209   4.980718   3.442075   4.986561
    26  O    3.522798   5.026970   5.531835   5.459732   5.505459
    27  H    4.139199   5.615378   6.112778   5.908240   6.199692
    28  H    2.625300   4.117452   4.677231   4.497027   4.646651
                   21         22         23         24         25
    21  O    0.000000
    22  O    2.181897   0.000000
    23  O    4.803332   2.837625   0.000000
    24  H    3.927391   1.879874   0.974135   0.000000
    25  H    5.437402   3.343903   0.949907   1.540820   0.000000
    26  O    3.131791   2.977801   5.484331   4.533558   5.666012
    27  H    3.937000   3.378839   5.555162   4.657508   5.570167
    28  H    2.490929   2.003532   4.573793   3.610107   4.827682
                   26         27         28
    26  O    0.000000
    27  H    0.987409   0.000000
    28  H    0.974268   1.561808   0.000000
 Stoichiometry    C8H16O4
 Framework group  C1[X(C8H16O4)]
 Deg. of freedom    78
 Full point group                 C1      NOp   1
 Largest Abelian subgroup         C1      NOp   1
 Largest concise Abelian subgroup C1      NOp   1
                         Standard orientation:                         
 ---------------------------------------------------------------------
 Center     Atomic      Atomic             Coordinates (Angstroms)
 Number     Number       Type             X           Y           Z
 ---------------------------------------------------------------------
      1          6           0       -3.318347    0.511098   -0.188484
      2          1           0       -3.534274    1.493286   -0.612227
      3          6           0       -1.900000    0.125444   -0.184979
      4          1           0       -1.182008    0.943139   -0.145925
      5          6           0       -4.338069   -0.205170    0.314267
      6          1           0       -4.123597   -1.160858    0.796423
      7          6           0       -5.780589    0.208025    0.278418
      8          1           0       -6.199466    0.267457    1.293452
      9          1           0       -5.910485    1.181971   -0.203039
     10          1           0       -6.387545   -0.527502   -0.265135
     11          6           0       -1.441951   -1.135810   -0.254057
     12          1           0       -2.133702   -1.973196   -0.350134
     13          6           0       -0.002358   -1.549676   -0.219033
     14          1           0        0.264296   -2.098865   -1.134211
     15          1           0        0.194750   -2.201225    0.638348
     16          6           0        2.149900   -0.403113    0.003341
     17          6           0        2.861447   -1.727938    0.066433
     18          1           0        2.595946   -2.348960   -0.796238
     19          1           0        3.934938   -1.561201    0.087118
     20          1           0        2.560731   -2.277678    0.968068
     21          8           0        0.820510   -0.362962   -0.122132
     22          8           0        2.729661    0.680004    0.045315
     23          8           0        5.543092    0.408074    0.295869
     24          1           0        4.602205    0.644343    0.207287
     25          1           0        6.038307    1.161994   -0.001940
     26          8           0        0.603088    2.760932   -0.076020
     27          1           0        1.030042    3.551656   -0.485217
     28          1           0        1.298854    2.080100   -0.036322
 ---------------------------------------------------------------------
 Rotational constants (GHZ):      1.7750358      0.2715178      0.2383007
 Standard basis: 6-31+G(d,p) (6D, 7F)
 There are   308 symmetry adapted cartesian basis functions of A   symmetry.
 There are   308 symmetry adapted basis functions of A   symmetry.
   308 basis functions,   496 primitive gaussians,   308 cartesian basis functions
    48 alpha electrons       48 beta electrons
       nuclear repulsion energy       684.9456436608 Hartrees.
 NAtoms=   28 NActive=   28 NUniq=   28 SFac= 1.00D+00 NAtFMM=   60 NAOKFM=F Big=F
 Integral buffers will be    131072 words long.
 Raffenetti 2 integral format.
 Two-electron integral symmetry is turned on.
 Nuclear repulsion after empirical dispersion term =      684.9249181548 Hartrees.
 ------------------------------------------------------------------------------
 Polarizable Continuum Model (PCM)
 =================================
 Model                : C-PCM.
 Atomic radii         : UFF (Universal Force Field).
 Polarization charges : Total charges.
 Charge compensation  : None.
 Solution method      : On-the-fly selection.
 Cavity type          : Scaled VdW (van der Waals Surface) (Alpha=1.100).
 Cavity algorithm     : GePol (No added spheres)
                        Default sphere list used, NSphG=   28.
                        Lebedev-Laikov grids with approx.  5.0 points / Ang**2.
                        Smoothing algorithm: Karplus/York (Gamma=1.0000).
                        Polarization charges: spherical gaussians, with
                                              point-specific exponents (IZeta= 3).
                        Self-potential: point-specific (ISelfS= 7).
                        Self-field    : sphere-specific E.n sum rule (ISelfD= 2).
 1st derivatives      : Analytical E(r).r(x)/FMM algorithm (CHGder, D1EAlg=3).
                        Cavity 1st derivative terms included.
 Solvent              : Toluene, Eps=   2.374100 Eps(inf)=   2.238315
 ------------------------------------------------------------------------------
 One-electron integrals computed using PRISM.
 NBasis=   308 RedAO= T EigKep=  4.73D-06  NBF=   308
 NBsUse=   308 1.00D-06 EigRej= -1.00D+00 NBFU=   308
 ExpMin= 4.38D-02 ExpMax= 5.48D+03 ExpMxC= 8.25D+02 IAcc=2 IRadAn=         4 AccDes= 0.00D+00
 Harris functional with IExCor=  402 and IRadAn=       4 diagonalized for initial guess.
 HarFok:  IExCor=  402 AccDes= 0.00D+00 IRadAn=         4 IDoV= 1 UseB2=F ITyADJ=14
 ICtDFT=  3500011 ScaDFX=  1.000000  1.000000  1.000000  1.000000
 FoFCou: FMM=F IPFlag=           0 FMFlag=      100000 FMFlg1=           0
         NFxFlg=           0 DoJE=T BraDBF=F KetDBF=T FulRan=T
         wScrn=  0.000000 ICntrl=     500 IOpCl=  0 I1Cent=   200000004 NGrid=           0
         NMat0=    1 NMatS0=      1 NMatT0=    0 NMatD0=    1 NMtDS0=    0 NMtDT0=    0
 Petite list used in FoFCou.
 Requested convergence on RMS density matrix=1.00D-08 within 128 cycles.
 Requested convergence on MAX density matrix=1.00D-06.
 Requested convergence on             energy=1.00D-06.
 No special actions if energy rises.
 Inv3:  Mode=1 IEnd=    16036032.
 Iteration    1 A*A^-1 deviation from unit magnitude is 5.00D-15 for   2312.
 Iteration    1 A*A^-1 deviation from orthogonality  is 1.62D-15 for   2242    453.
 Iteration    1 A^-1*A deviation from unit magnitude is 5.00D-15 for   2312.
 Iteration    1 A^-1*A deviation from orthogonality  is 1.36D-15 for   2276   1986.
 Error on total polarization charges =  0.01121
 SCF Done:  E(RB3LYP) =  -615.444844134     A.U. after   14 cycles
            NFock= 14  Conv=0.39D-08     -V/T= 2.0097

 **********************************************************************

            Population analysis using the SCF density.

 **********************************************************************

 Orbital symmetries:
       Occupied  (A) (A) (A) (A) (A) (A) (A) (A) (A) (A) (A) (A)
                 (A) (A) (A) (A) (A) (A) (A) (A) (A) (A) (A) (A)
                 (A) (A) (A) (A) (A) (A) (A) (A) (A) (A) (A) (A)
                 (A) (A) (A) (A) (A) (A) (A) (A) (A) (A) (A) (A)
       Virtual   (A) (A) (A) (A) (A) (A) (A) (A) (A) (A) (A) (A)
                 (A) (A) (A) (A) (A) (A) (A) (A) (A) (A) (A) (A)
                 (A) (A) (A) (A) (A) (A) (A) (A) (A) (A) (A) (A)
                 (A) (A) (A) (A) (A) (A) (A) (A) (A) (A) (A) (A)
                 (A) (A) (A) (A) (A) (A) (A) (A) (A) (A) (A) (A)
                 (A) (A) (A) (A) (A) (A) (A) (A) (A) (A) (A) (A)
                 (A) (A) (A) (A) (A) (A) (A) (A) (A) (A) (A) (A)
                 (A) (A) (A) (A) (A) (A) (A) (A) (A) (A) (A) (A)
                 (A) (A) (A) (A) (A) (A) (A) (A) (A) (A) (A) (A)
                 (A) (A) (A) (A) (A) (A) (A) (A) (A) (A) (A) (A)
                 (A) (A) (A) (A) (A) (A) (A) (A) (A) (A) (A) (A)
                 (A) (A) (A) (A) (A) (A) (A) (A) (A) (A) (A) (A)
                 (A) (A) (A) (A) (A) (A) (A) (A) (A) (A) (A) (A)
                 (A) (A) (A) (A) (A) (A) (A) (A) (A) (A) (A) (A)
                 (A) (A) (A) (A) (A) (A) (A) (A) (A) (A) (A) (A)
                 (A) (A) (A) (A) (A) (A) (A) (A) (A) (A) (A) (A)
                 (A) (A) (A) (A) (A) (A) (A) (A) (A) (A) (A) (A)
                 (A) (A) (A) (A) (A) (A) (A) (A) (A) (A) (A) (A)
                 (A) (A) (A) (A) (A) (A) (A) (A) (A) (A) (A) (A)
                 (A) (A) (A) (A) (A) (A) (A) (A) (A) (A) (A) (A)
                 (A) (A) (A) (A) (A) (A) (A) (A) (A) (A) (A) (A)
                 (A) (A) (A) (A) (A) (A) (A) (A)
 The electronic state is 1-A.
 Alpha  occ. eigenvalues --  -19.22371 -19.17448 -19.14767 -19.14733 -10.35492
 Alpha  occ. eigenvalues --  -10.27378 -10.21695 -10.20348 -10.19794 -10.19646
 Alpha  occ. eigenvalues --  -10.19253 -10.18716  -1.13432  -1.04784  -1.00398
 Alpha  occ. eigenvalues --   -0.99331  -0.82495  -0.79111  -0.77074  -0.73449
 Alpha  occ. eigenvalues --   -0.67153  -0.61967  -0.58296  -0.53964  -0.53205
 Alpha  occ. eigenvalues --   -0.52584  -0.51719  -0.50870  -0.50005  -0.47232
 Alpha  occ. eigenvalues --   -0.45476  -0.45060  -0.42662  -0.41721  -0.41360
 Alpha  occ. eigenvalues --   -0.40771  -0.39782  -0.38317  -0.37847  -0.36850
 Alpha  occ. eigenvalues --   -0.35672  -0.35008  -0.33100  -0.31240  -0.30673
 Alpha  occ. eigenvalues --   -0.30473  -0.30140  -0.22988
 Alpha virt. eigenvalues --   -0.03437  -0.02697  -0.00276   0.01145   0.01534
 Alpha virt. eigenvalues --    0.02960   0.03002   0.03461   0.04246   0.04553
 Alpha virt. eigenvalues --    0.05195   0.05462   0.05910   0.07218   0.07504
 Alpha virt. eigenvalues --    0.07760   0.08322   0.09095   0.09336   0.10107
 Alpha virt. eigenvalues --    0.10263   0.10745   0.11304   0.12331   0.13176
 Alpha virt. eigenvalues --    0.13958   0.14498   0.15346   0.16318   0.16764
 Alpha virt. eigenvalues --    0.17356   0.17568   0.17764   0.18184   0.18725
 Alpha virt. eigenvalues --    0.19505   0.19892   0.20138   0.20526   0.21198
 Alpha virt. eigenvalues --    0.21848   0.22057   0.22754   0.23305   0.23782
 Alpha virt. eigenvalues --    0.24109   0.24403   0.24954   0.25152   0.25376
 Alpha virt. eigenvalues --    0.25950   0.26205   0.27265   0.27668   0.28066
 Alpha virt. eigenvalues --    0.29116   0.29775   0.30073   0.30488   0.31149
 Alpha virt. eigenvalues --    0.32432   0.33462   0.34062   0.35012   0.35360
 Alpha virt. eigenvalues --    0.37446   0.38391   0.40381   0.41111   0.42303
 Alpha virt. eigenvalues --    0.44138   0.44791   0.46274   0.48470   0.51412
 Alpha virt. eigenvalues --    0.55426   0.60906   0.61759   0.63844   0.66039
 Alpha virt. eigenvalues --    0.66172   0.66806   0.68054   0.69073   0.70675
 Alpha virt. eigenvalues --    0.72868   0.73696   0.75076   0.75732   0.76121
 Alpha virt. eigenvalues --    0.77490   0.78641   0.79293   0.82011   0.86784
 Alpha virt. eigenvalues --    0.88299   0.89278   0.90958   0.92663   0.93922
 Alpha virt. eigenvalues --    0.94811   0.95273   0.96067   0.97443   0.97658
 Alpha virt. eigenvalues --    0.99396   1.01675   1.02546   1.04290   1.05631
 Alpha virt. eigenvalues --    1.06911   1.09154   1.10332   1.11908   1.13723
 Alpha virt. eigenvalues --    1.13996   1.14388   1.16898   1.17304   1.18130
 Alpha virt. eigenvalues --    1.19216   1.21217   1.21746   1.22270   1.23549
 Alpha virt. eigenvalues --    1.24234   1.25079   1.26585   1.27760   1.28381
 Alpha virt. eigenvalues --    1.30051   1.33684   1.34429   1.37120   1.37845
 Alpha virt. eigenvalues --    1.38949   1.40014   1.43723   1.44957   1.45777
 Alpha virt. eigenvalues --    1.47064   1.50796   1.53414   1.54039   1.55169
 Alpha virt. eigenvalues --    1.58178   1.59008   1.61630   1.63898   1.65144
 Alpha virt. eigenvalues --    1.65419   1.67751   1.68290   1.70341   1.75944
 Alpha virt. eigenvalues --    1.76375   1.77748   1.79158   1.81102   1.82432
 Alpha virt. eigenvalues --    1.83520   1.84018   1.87086   1.90841   1.92527
 Alpha virt. eigenvalues --    1.93205   1.96011   1.97746   1.98288   2.00751
 Alpha virt. eigenvalues --    2.01616   2.04090   2.06064   2.06768   2.08847
 Alpha virt. eigenvalues --    2.10390   2.10782   2.11591   2.14668   2.14703
 Alpha virt. eigenvalues --    2.15982   2.18680   2.20483   2.22689   2.26369
 Alpha virt. eigenvalues --    2.27300   2.27663   2.29322   2.31114   2.32014
 Alpha virt. eigenvalues --    2.38199   2.38608   2.39680   2.43334   2.45078
 Alpha virt. eigenvalues --    2.45589   2.49809   2.52025   2.52623   2.54173
 Alpha virt. eigenvalues --    2.55185   2.55531   2.57768   2.58251   2.59817
 Alpha virt. eigenvalues --    2.61586   2.63290   2.63968   2.65208   2.66500
 Alpha virt. eigenvalues --    2.66658   2.67601   2.68001   2.68520   2.70068
 Alpha virt. eigenvalues --    2.76610   2.77392   2.79002   2.79870   2.82092
 Alpha virt. eigenvalues --    2.86270   2.86469   2.87190   2.87933   2.95322
 Alpha virt. eigenvalues --    2.98486   3.03771   3.04593   3.09841   3.10934
 Alpha virt. eigenvalues --    3.17224   3.19069   3.23300   3.28331   3.32855
 Alpha virt. eigenvalues --    3.39568   3.39846   3.42302   3.43219   3.44581
 Alpha virt. eigenvalues --    3.45461   3.47318   3.48037   3.48712   3.49849
 Alpha virt. eigenvalues --    3.66259   3.66471   3.68692   4.15044   4.23575
 Alpha virt. eigenvalues --    4.30380   4.34300   4.38993   4.40911   4.47065
 Alpha virt. eigenvalues --    4.51744   4.56093   4.61530   4.63977   4.73635
          Condensed to atoms (all electrons):
               1          2          3          4          5          6
     1  C    9.742649   0.241194  -3.672702   0.051363  -0.438328   0.001728
     2  H    0.241194   0.572700   0.065250  -0.005011   0.014745   0.005182
     3  C   -3.672702   0.065250   8.922444   0.225353   0.844070  -0.044238
     4  H    0.051363  -0.005011   0.225353   0.519677  -0.010134   0.000038
     5  C   -0.438328   0.014745   0.844070  -0.010134   6.358732   0.330283
     6  H    0.001728   0.005182  -0.044238   0.000038   0.330283   0.572446
     7  C    0.756485  -0.049434  -0.611859   0.007938  -0.807905   0.003915
     8  H    0.039066   0.000119  -0.024355   0.000005  -0.107212  -0.001735
     9  H    0.029095   0.003529  -0.023374  -0.000001  -0.148846   0.003712
    10  H   -0.001614   0.000077   0.000293   0.000000  -0.118586  -0.002170
    11  C   -0.489578   0.016135   0.417367   0.064249   0.006896  -0.013586
    12  H    0.037548   0.000063  -0.061587   0.004707  -0.008365   0.001161
    13  C    0.157999   0.005829  -0.388667  -0.032447  -0.125358   0.017262
    14  H    0.003927   0.000005  -0.003355   0.000092   0.003806   0.000003
    15  H    0.004640   0.000000   0.011491  -0.000014  -0.003236  -0.000001
    16  C   -0.056089   0.000265  -0.060009  -0.001367   0.002020  -0.000141
    17  C   -0.003853  -0.000064   0.019636   0.000752   0.000232   0.000010
    18  H    0.000192   0.000000   0.001532   0.000000  -0.000096   0.000000
    19  H   -0.000071   0.000000  -0.000344   0.000000  -0.000007   0.000000
    20  H    0.000098   0.000000   0.002121   0.000000   0.000163   0.000000
    21  O    0.125948   0.000448   0.095333   0.000635   0.001436   0.000011
    22  O   -0.006924   0.000002  -0.012913   0.000368  -0.000275   0.000000
    23  O   -0.000047   0.000000  -0.000333   0.000000   0.000000   0.000000
    24  H    0.000039   0.000000   0.000223   0.000000   0.000000   0.000000
    25  H    0.000002   0.000000   0.000019   0.000000   0.000000   0.000000
    26  O    0.056311   0.000159  -0.030901  -0.009852  -0.000556   0.000000
    27  H   -0.003220  -0.000001   0.000865   0.000178   0.000015   0.000000
    28  H   -0.009718   0.000000   0.002661  -0.000109  -0.000007   0.000000
               7          8          9         10         11         12
     1  C    0.756485   0.039066   0.029095  -0.001614  -0.489578   0.037548
     2  H   -0.049434   0.000119   0.003529   0.000077   0.016135   0.000063
     3  C   -0.611859  -0.024355  -0.023374   0.000293   0.417367  -0.061587
     4  H    0.007938   0.000005  -0.000001   0.000000   0.064249   0.004707
     5  C   -0.807905  -0.107212  -0.148846  -0.118586   0.006896  -0.008365
     6  H    0.003915  -0.001735   0.003712  -0.002170  -0.013586   0.001161
     7  C    6.084614   0.435351   0.496533   0.479598  -0.052710   0.007537
     8  H    0.435351   0.550264  -0.026395  -0.032906   0.007154   0.000004
     9  H    0.496533  -0.026395   0.535120  -0.026635   0.000630   0.000000
    10  H    0.479598  -0.032906  -0.026635   0.549760  -0.007416   0.000001
    11  C   -0.052710   0.007154   0.000630  -0.007416   7.008590   0.275858
    12  H    0.007537   0.000004   0.000000   0.000001   0.275858   0.556807
    13  C    0.007268   0.000751   0.000699  -0.000586  -1.036515   0.053384
    14  H    0.000176   0.000000   0.000000   0.000000   0.063154  -0.000416
    15  H   -0.000098   0.000000   0.000000   0.000000  -0.092730  -0.001044
    16  C   -0.000713  -0.000004  -0.000002   0.000001   0.182267  -0.006541
    17  C   -0.000084   0.000000   0.000000   0.000000   0.012561   0.003524
    18  H   -0.000004   0.000000   0.000000   0.000000  -0.002969  -0.000002
    19  H    0.000000   0.000000   0.000000   0.000000  -0.009192   0.000000
    20  H    0.000007   0.000000   0.000000   0.000000   0.022735  -0.000002
    21  O    0.000571   0.000000   0.000001   0.000000  -0.218333   0.001632
    22  O    0.000007   0.000000   0.000000   0.000000   0.023649   0.000003
    23  O    0.000000   0.000000   0.000000   0.000000   0.000570   0.000000
    24  H    0.000000   0.000000   0.000000   0.000000  -0.000168   0.000000
    25  H    0.000000   0.000000   0.000000   0.000000   0.000035   0.000000
    26  O    0.000543   0.000000   0.000000   0.000000  -0.027026  -0.000068
    27  H   -0.000013   0.000000   0.000000   0.000000   0.003535   0.000000
    28  H   -0.000043   0.000000   0.000000   0.000000   0.000927   0.000001
              13         14         15         16         17         18
     1  C    0.157999   0.003927   0.004640  -0.056089  -0.003853   0.000192
     2  H    0.005829   0.000005   0.000000   0.000265  -0.000064   0.000000
     3  C   -0.388667  -0.003355   0.011491  -0.060009   0.019636   0.001532
     4  H   -0.032447   0.000092  -0.000014  -0.001367   0.000752   0.000000
     5  C   -0.125358   0.003806  -0.003236   0.002020   0.000232  -0.000096
     6  H    0.017262   0.000003  -0.000001  -0.000141   0.000010   0.000000
     7  C    0.007268   0.000176  -0.000098  -0.000713  -0.000084  -0.000004
     8  H    0.000751   0.000000   0.000000  -0.000004   0.000000   0.000000
     9  H    0.000699   0.000000   0.000000  -0.000002   0.000000   0.000000
    10  H   -0.000586   0.000000   0.000000   0.000001   0.000000   0.000000
    11  C   -1.036515   0.063154  -0.092730   0.182267   0.012561  -0.002969
    12  H    0.053384  -0.000416  -0.001044  -0.006541   0.003524  -0.000002
    13  C    7.042653   0.295791   0.431380  -0.224528  -0.063194   0.023171
    14  H    0.295791   0.571782  -0.046359  -0.000847  -0.008912   0.001305
    15  H    0.431380  -0.046359   0.574125  -0.007492   0.009996  -0.001643
    16  C   -0.224528  -0.000847  -0.007492   5.384602  -0.194774  -0.053283
    17  C   -0.063194  -0.008912   0.009996  -0.194774   5.765975   0.382107
    18  H    0.023171   0.001305  -0.001643  -0.053283   0.382107   0.509488
    19  H   -0.000019   0.000003   0.000043  -0.055431   0.428683  -0.020889
    20  H   -0.006573  -0.000425   0.001086  -0.038773   0.370580  -0.025225
    21  O    0.058872  -0.040212  -0.039595   0.096835  -0.171117  -0.002580
    22  O    0.022602  -0.000281  -0.000366   0.426791  -0.109783   0.004152
    23  O    0.000484  -0.000004   0.000001  -0.052657   0.038027  -0.000034
    24  H   -0.000814   0.000000   0.000000   0.010039  -0.007367   0.000038
    25  H   -0.000020   0.000000   0.000000   0.004225  -0.002070  -0.000003
    26  O    0.005743  -0.000056  -0.000054  -0.025579  -0.002638   0.000019
    27  H   -0.000993   0.000000   0.000000   0.003177   0.000308   0.000000
    28  H    0.003230   0.000000   0.000004   0.003133   0.002155  -0.000011
              19         20         21         22         23         24
     1  C   -0.000071   0.000098   0.125948  -0.006924  -0.000047   0.000039
     2  H    0.000000   0.000000   0.000448   0.000002   0.000000   0.000000
     3  C   -0.000344   0.002121   0.095333  -0.012913  -0.000333   0.000223
     4  H    0.000000   0.000000   0.000635   0.000368   0.000000   0.000000
     5  C   -0.000007   0.000163   0.001436  -0.000275   0.000000   0.000000
     6  H    0.000000   0.000000   0.000011   0.000000   0.000000   0.000000
     7  C    0.000000   0.000007   0.000571   0.000007   0.000000   0.000000
     8  H    0.000000   0.000000   0.000000   0.000000   0.000000   0.000000
     9  H    0.000000   0.000000   0.000001   0.000000   0.000000   0.000000
    10  H    0.000000   0.000000   0.000000   0.000000   0.000000   0.000000
    11  C   -0.009192   0.022735  -0.218333   0.023649   0.000570  -0.000168
    12  H    0.000000  -0.000002   0.001632   0.000003   0.000000   0.000000
    13  C   -0.000019  -0.006573   0.058872   0.022602   0.000484  -0.000814
    14  H    0.000003  -0.000425  -0.040212  -0.000281  -0.000004   0.000000
    15  H    0.000043   0.001086  -0.039595  -0.000366   0.000001   0.000000
    16  C   -0.055431  -0.038773   0.096835   0.426791  -0.052657   0.010039
    17  C    0.428683   0.370580  -0.171117  -0.109783   0.038027  -0.007367
    18  H   -0.020889  -0.025225  -0.002580   0.004152  -0.000034   0.000038
    19  H    0.466696  -0.019787   0.007769  -0.007483   0.000937  -0.000004
    20  H   -0.019787   0.499041  -0.000086   0.001876  -0.000011   0.000066
    21  O    0.007769  -0.000086   8.539048  -0.092741  -0.001499   0.002271
    22  O   -0.007483   0.001876  -0.092741   8.299427  -0.001882   0.023803
    23  O    0.000937  -0.000011  -0.001499  -0.001882   8.317684   0.231799
    24  H   -0.000004   0.000066   0.002271   0.023803   0.231799   0.326107
    25  H   -0.000001  -0.000001   0.000040  -0.001467   0.270940  -0.013582
    26  O   -0.000011   0.000018   0.003940  -0.002236  -0.000295   0.000044
    27  H    0.000000   0.000000  -0.001358   0.000147   0.000008  -0.000004
    28  H   -0.000001  -0.000013  -0.005573   0.027446   0.000019  -0.000052
              25         26         27         28
     1  C    0.000002   0.056311  -0.003220  -0.009718
     2  H    0.000000   0.000159  -0.000001   0.000000
     3  C    0.000019  -0.030901   0.000865   0.002661
     4  H    0.000000  -0.009852   0.000178  -0.000109
     5  C    0.000000  -0.000556   0.000015  -0.000007
     6  H    0.000000   0.000000   0.000000   0.000000
     7  C    0.000000   0.000543  -0.000013  -0.000043
     8  H    0.000000   0.000000   0.000000   0.000000
     9  H    0.000000   0.000000   0.000000   0.000000
    10  H    0.000000   0.000000   0.000000   0.000000
    11  C    0.000035  -0.027026   0.003535   0.000927
    12  H    0.000000  -0.000068   0.000000   0.000001
    13  C   -0.000020   0.005743  -0.000993   0.003230
    14  H    0.000000  -0.000056   0.000000   0.000000
    15  H    0.000000  -0.000054   0.000000   0.000004
    16  C    0.004225  -0.025579   0.003177   0.003133
    17  C   -0.002070  -0.002638   0.000308   0.002155
    18  H   -0.000003   0.000019   0.000000  -0.000011
    19  H   -0.000001  -0.000011   0.000000  -0.000001
    20  H   -0.000001   0.000018   0.000000  -0.000013
    21  O    0.000040   0.003940  -0.001358  -0.005573
    22  O   -0.001467  -0.002236   0.000147   0.027446
    23  O    0.270940  -0.000295   0.000008   0.000019
    24  H   -0.013582   0.000044  -0.000004  -0.000052
    25  H    0.371732  -0.000003   0.000000  -0.000006
    26  O   -0.000003   8.326046   0.257501   0.241248
    27  H    0.000000   0.257501   0.383789  -0.014330
    28  H   -0.000006   0.241248  -0.014330   0.322844
 Mulliken charges:
               1
     1  C   -0.566139
     2  H    0.128808
     3  C    0.325979
     4  H    0.183582
     5  C    0.206514
     6  H    0.126119
     7  C   -0.757682
     8  H    0.159892
     9  H    0.155934
    10  H    0.160184
    11  C   -0.156091
    12  H    0.135795
    13  C   -0.247403
    14  H    0.160821
    15  H    0.159867
    16  C    0.664876
    17  C   -0.470690
    18  H    0.184733
    19  H    0.209107
    20  H    0.193105
    21  O   -0.361697
    22  O   -0.593922
    23  O   -0.803707
    24  H    0.427563
    25  H    0.370158
    26  O   -0.792298
    27  H    0.370396
    28  H    0.426197
 Sum of Mulliken charges =   0.00000
 Mulliken charges with hydrogens summed into heavy atoms:
               1
     1  C   -0.437330
     3  C    0.509561
     5  C    0.332633
     7  C   -0.281673
    11  C   -0.020296
    13  C    0.073285
    16  C    0.664876
    17  C    0.116255
    21  O   -0.361697
    22  O   -0.593922
    23  O   -0.005986
    26  O    0.004295
 Electronic spatial extent (au):  <R**2>=           4500.4233
 Charge=              0.0000 electrons
 Dipole moment (field-independent basis, Debye):
    X=             -1.6155    Y=             -3.7896    Z=             -1.5378  Tot=              4.3973
 Quadrupole moment (field-independent basis, Debye-Ang):
   XX=            -80.7909   YY=            -63.3163   ZZ=            -77.5139
   XY=              5.6113   XZ=             -6.7608   YZ=             -4.2553
 Traceless Quadrupole moment (field-independent basis, Debye-Ang):
   XX=             -6.9172   YY=             10.5574   ZZ=             -3.6402
   XY=              5.6113   XZ=             -6.7608   YZ=             -4.2553
 Octapole moment (field-independent basis, Debye-Ang**2):
  XXX=            -80.3615  YYY=             18.1183  ZZZ=              0.0705  XYY=             44.3820
  XXY=             44.0232  XXZ=            -27.1990  XZZ=             14.6937  YZZ=             -0.6144
  YYZ=            -14.0955  XYZ=             -3.2311
 Hexadecapole moment (field-independent basis, Debye-Ang**3):
 XXXX=          -5153.1496 YYYY=           -657.2423 ZZZZ=           -128.4675 XXXY=            328.7610
 XXXZ=           -206.7891 YYYX=             85.0924 YYYZ=            -48.9789 ZZZX=             -9.3002
 ZZZY=             -4.1063 XXYY=           -824.2929 XXZZ=           -902.2311 YYZZ=           -148.2581
 XXYZ=            -36.7921 YYXZ=             -9.1026 ZZXY=              1.1357
 N-N= 6.849249181548D+02 E-N=-2.806092193904D+03  KE= 6.095585002814D+02
 D1PCM: C-PCM CHGder 1st derivatives, ID1Alg=3 FixD1E=F DoIter=F DoCFld=F I1PDM=0.
 Calling FoFJK, ICntrl=      2127 FMM=F ISym2X=0 I1Cent= 0 IOpClX= 0 NMat=1 NMatS=1 NMatT=0.
 ***** Axes restored to original set *****
 -------------------------------------------------------------------
 Center     Atomic                   Forces (Hartrees/Bohr)
 Number     Number              X              Y              Z
 -------------------------------------------------------------------
      1        6           0.000658301    0.001049390   -0.000046481
      2        1           0.000031728   -0.000288203    0.000034059
      3        6           0.000377415   -0.000352696   -0.000209390
      4        1          -0.000115168   -0.000071942   -0.000117238
      5        6          -0.000503459   -0.001450012   -0.000055818
      6        1          -0.000058404    0.000506707   -0.000067175
      7        6          -0.000182631    0.000145190    0.001811122
      8        1           0.000410223   -0.000036653   -0.001053776
      9        1          -0.000111240    0.000221653   -0.000283165
     10        1           0.000014022   -0.000124795   -0.000269305
     11        6          -0.001332845   -0.000798577    0.000511574
     12        1           0.000462140    0.000685283   -0.000048313
     13        6           0.000943957    0.001715294   -0.002258967
     14        1          -0.000048592    0.000671623    0.001261529
     15        1           0.000040739   -0.001117522    0.001243323
     16        6           0.000908770    0.001463484   -0.002765356
     17        6          -0.003674484   -0.002334411    0.001444375
     18        1           0.000609840    0.000731274    0.000482510
     19        1           0.001516782    0.000226236   -0.000092729
     20        1           0.000417995    0.001277723   -0.001269119
     21        8           0.000051592   -0.001497216    0.000676706
     22        8          -0.000534583   -0.000947122    0.001207211
     23        8          -0.006681706   -0.013340175    0.005057445
     24        1          -0.001595341    0.000949231   -0.000185853
     25        1           0.008206751    0.012617303   -0.004898289
     26        8           0.007582429    0.016546616   -0.008529551
     27        1          -0.008320401   -0.017213588    0.008975895
     28        1           0.000926168    0.000765904   -0.000555221
 -------------------------------------------------------------------
 Cartesian Forces:  Max     0.017213588 RMS     0.004118168

 GradGradGradGradGradGradGradGradGradGradGradGradGradGradGradGradGradGrad
 Berny optimization.
 FormGI is forming the generalized inverse of G from B-inverse, IUseBI=4.
 Internal  Forces:  Max     0.021102264 RMS     0.002542076
 Search for a local minimum.
 Step number   1 out of a maximum of  123
 All quantities printed in internal units (Hartrees-Bohrs-Radians)
 Mixed Optimization -- RFO/linear search
 Second derivative matrix not updated -- first step.
 ITU=  0
     Eigenvalues ---    0.00230   0.00230   0.00698   0.00753   0.00788
     Eigenvalues ---    0.01066   0.01091   0.01165   0.01256   0.01369
     Eigenvalues ---    0.01371   0.01610   0.01669   0.01829   0.02022
     Eigenvalues ---    0.02024   0.02038   0.02540   0.02833   0.02834
     Eigenvalues ---    0.03948   0.04282   0.05290   0.06449   0.07087
     Eigenvalues ---    0.07269   0.07346   0.07356   0.07411   0.11339
     Eigenvalues ---    0.13856   0.15992   0.15994   0.15997   0.15998
     Eigenvalues ---    0.16000   0.16000   0.16000   0.16000   0.16000
     Eigenvalues ---    0.16000   0.16000   0.16000   0.16000   0.16000
     Eigenvalues ---    0.22000   0.22000   0.22001   0.22002   0.22032
     Eigenvalues ---    0.24998   0.24999   0.25000   0.31844   0.32277
     Eigenvalues ---    0.32555   0.33669   0.33718   0.33905   0.33943
     Eigenvalues ---    0.34172   0.34270   0.34333   0.34617   0.34666
     Eigenvalues ---    0.34767   0.34942   0.35213   0.35759   0.38596
     Eigenvalues ---    0.49972   0.52514   0.52541   0.56375   0.56399
     Eigenvalues ---    0.57702   0.58133   0.91404
 RFO step:  Lambda=-1.62466304D-03 EMin= 2.30000000D-03
 Linear search not attempted -- first point.
 Iteration  1 RMS(Cart)=  0.03219567 RMS(Int)=  0.00084062
 Iteration  2 RMS(Cart)=  0.00097264 RMS(Int)=  0.00003872
 Iteration  3 RMS(Cart)=  0.00000106 RMS(Int)=  0.00003870
 Iteration  4 RMS(Cart)=  0.00000000 RMS(Int)=  0.00003870
 Variable       Old X    -DE/DX   Delta X   Delta X   Delta X     New X
                                 (Linear)    (Quad)   (Total)
    R1        2.06221  -0.00028   0.00000  -0.00080  -0.00080   2.06141
    R2        2.77761  -0.00024   0.00000  -0.00068  -0.00068   2.77693
    R3        2.53930   0.00075   0.00000   0.00133   0.00133   2.54063
    R4        2.05769  -0.00013   0.00000  -0.00038  -0.00038   2.05731
    R5        2.53909  -0.00056   0.00000  -0.00099  -0.00099   2.53810
    R6        2.06302  -0.00048   0.00000  -0.00139  -0.00139   2.06162
    R7        2.83640  -0.00007   0.00000  -0.00023  -0.00023   2.83618
    R8        2.07808  -0.00113   0.00000  -0.00333  -0.00333   2.07475
    R9        2.06771   0.00033   0.00000   0.00097   0.00097   2.06868
   R10        2.07427   0.00021   0.00000   0.00061   0.00061   2.07488
   R11        2.06055  -0.00082   0.00000  -0.00233  -0.00233   2.05822
   R12        2.83140   0.00019   0.00000   0.00058   0.00058   2.83198
   R13        2.07893  -0.00140   0.00000  -0.00413  -0.00413   2.07480
   R14        2.06877   0.00165   0.00000   0.00478   0.00478   2.07355
   R15        2.73508  -0.00099   0.00000  -0.00255  -0.00255   2.73253
   R16        2.84430  -0.00042   0.00000  -0.00132  -0.00132   2.84298
   R17        2.52449  -0.00076   0.00000  -0.00131  -0.00131   2.52318
   R18        2.32292  -0.00071   0.00000  -0.00078  -0.00078   2.32215
   R19        2.07040  -0.00094   0.00000  -0.00274  -0.00274   2.06766
   R20        2.05330   0.00153   0.00000   0.00433   0.00433   2.05763
   R21        2.07491  -0.00180   0.00000  -0.00528  -0.00528   2.06963
   R22        3.55245  -0.00008   0.00000  -0.00140  -0.00140   3.55105
   R23        3.78613  -0.00006   0.00000  -0.00139  -0.00139   3.78473
   R24        1.84085   0.00166   0.00000   0.00315   0.00315   1.84400
   R25        1.79506   0.01583   0.00000   0.02735   0.02735   1.82242
   R26        1.86593  -0.02110   0.00000  -0.04209  -0.04209   1.82384
   R27        1.84110   0.00004   0.00000   0.00008   0.00008   1.84118
    A1        2.01309   0.00019   0.00000   0.00093   0.00093   2.01402
    A2        2.06563   0.00017   0.00000   0.00079   0.00079   2.06641
    A3        2.20375  -0.00035   0.00000  -0.00156  -0.00156   2.20219
    A4        2.02565   0.00009   0.00000   0.00033   0.00033   2.02599
    A5        2.18356  -0.00024   0.00000  -0.00110  -0.00110   2.18246
    A6        2.07369   0.00016   0.00000   0.00078   0.00078   2.07448
    A7        2.07463   0.00005   0.00000   0.00016   0.00015   2.07478
    A8        2.18175  -0.00013   0.00000  -0.00060  -0.00061   2.18114
    A9        2.02678   0.00008   0.00000   0.00040   0.00039   2.02717
   A10        1.93790   0.00012   0.00000   0.00126   0.00126   1.93916
   A11        1.94942   0.00008   0.00000   0.00032   0.00032   1.94974
   A12        1.93777  -0.00024   0.00000  -0.00185  -0.00185   1.93591
   A13        1.88896   0.00001   0.00000   0.00073   0.00072   1.88968
   A14        1.85737   0.00011   0.00000   0.00100   0.00100   1.85837
   A15        1.88906  -0.00008   0.00000  -0.00143  -0.00143   1.88763
   A16        2.10498   0.00010   0.00000   0.00030   0.00030   2.10528
   A17        2.19645  -0.00036   0.00000  -0.00164  -0.00164   2.19481
   A18        1.98174   0.00026   0.00000   0.00132   0.00132   1.98305
   A19        1.92979   0.00017   0.00000   0.00196   0.00196   1.93175
   A20        1.93445  -0.00046   0.00000  -0.00307  -0.00307   1.93138
   A21        1.89794   0.00069   0.00000   0.00348   0.00348   1.90142
   A22        1.88680  -0.00004   0.00000  -0.00155  -0.00155   1.88524
   A23        1.90414  -0.00036   0.00000  -0.00135  -0.00136   1.90278
   A24        1.91048  -0.00001   0.00000   0.00051   0.00051   1.91099
   A25        2.09536  -0.00191   0.00000  -0.00748  -0.00767   2.08769
   A26        2.15457   0.00087   0.00000   0.00360   0.00341   2.15797
   A27        2.03316   0.00105   0.00000   0.00436   0.00416   2.03733
   A28        1.92982   0.00011   0.00000   0.00093   0.00093   1.93074
   A29        1.91005  -0.00002   0.00000  -0.00082  -0.00082   1.90923
   A30        1.92372  -0.00049   0.00000  -0.00255  -0.00255   1.92117
   A31        1.91919  -0.00021   0.00000  -0.00215  -0.00215   1.91704
   A32        1.87173   0.00045   0.00000   0.00418   0.00418   1.87591
   A33        1.90899   0.00016   0.00000   0.00048   0.00048   1.90946
   A34        2.15007  -0.00115   0.00000  -0.00456  -0.00456   2.14550
   A35        2.04433   0.00004   0.00000   0.00021   0.00021   2.04453
   A36        1.85202   0.00018   0.00000   0.00106   0.00105   1.85308
   A37        2.38638  -0.00023   0.00000  -0.00144  -0.00145   2.38493
   A38        1.85722  -0.00009   0.00000  -0.00054  -0.00054   1.85669
   A39        1.84181  -0.00156   0.00000  -0.00963  -0.00963   1.83217
   A40        2.91585  -0.00052   0.00000  -0.03403  -0.03403   2.88182
   A41        3.14159  -0.00039   0.00000  -0.02538  -0.02538   3.11621
   A42        3.15525   0.00001   0.00000   0.00177   0.00173   3.15699
   A43        3.14159  -0.00025   0.00000  -0.01857  -0.01857   3.12302
    D1        0.48162   0.00003   0.00000   0.00022   0.00022   0.48184
    D2       -2.63418   0.00001   0.00000  -0.00036  -0.00036  -2.63454
    D3       -2.61830  -0.00008   0.00000  -0.00460  -0.00460  -2.62290
    D4        0.54909  -0.00009   0.00000  -0.00518  -0.00518   0.54391
    D5       -3.07541   0.00001   0.00000   0.00123   0.00123  -3.07418
    D6        0.05836  -0.00012   0.00000  -0.00622  -0.00622   0.05214
    D7        0.02338   0.00012   0.00000   0.00619   0.00619   0.02957
    D8       -3.12603  -0.00001   0.00000  -0.00127  -0.00127  -3.12730
    D9        0.03300   0.00013   0.00000   0.00548   0.00548   0.03848
   D10       -3.11460   0.00005   0.00000   0.00066   0.00067  -3.11393
   D11       -3.08214   0.00012   0.00000   0.00490   0.00490  -3.07725
   D12        0.05345   0.00003   0.00000   0.00008   0.00008   0.05352
   D13       -2.12095   0.00004   0.00000   0.00354   0.00354  -2.11741
   D14       -0.01070   0.00019   0.00000   0.00556   0.00556  -0.00514
   D15        2.09959  -0.00002   0.00000   0.00268   0.00268   2.10227
   D16        1.01301  -0.00009   0.00000  -0.00373  -0.00373   1.00928
   D17        3.12326   0.00006   0.00000  -0.00171  -0.00171   3.12156
   D18       -1.04963  -0.00015   0.00000  -0.00460  -0.00459  -1.05423
   D19       -2.10783  -0.00001   0.00000   0.00664   0.00664  -2.10120
   D20        2.08330   0.00022   0.00000   0.00930   0.00930   2.09260
   D21       -0.01760   0.00008   0.00000   0.00835   0.00835  -0.00925
   D22        1.02812  -0.00009   0.00000   0.00211   0.00211   1.03023
   D23       -1.06393   0.00014   0.00000   0.00478   0.00477  -1.05916
   D24        3.11836   0.00000   0.00000   0.00382   0.00382   3.12218
   D25        3.07492  -0.00012   0.00000   0.00355   0.00355   3.07847
   D26       -1.10214   0.00029   0.00000   0.00722   0.00722  -1.09492
   D27        0.95926   0.00003   0.00000   0.00485   0.00485   0.96411
   D28        0.94595   0.00064   0.00000   0.02751   0.02747   0.97342
   D29        3.06256   0.00045   0.00000   0.02489   0.02484   3.08740
   D30       -1.12052   0.00033   0.00000   0.02337   0.02333  -1.09720
   D31       -2.17994  -0.00020   0.00000  -0.01044  -0.01040  -2.19034
   D32       -0.06333  -0.00039   0.00000  -0.01306  -0.01302  -0.07635
   D33        2.03678  -0.00051   0.00000  -0.01458  -0.01454   2.02224
   D34       -0.01270   0.00003   0.00000  -0.00192  -0.00188  -0.01458
   D35        3.11425   0.00082   0.00000   0.03346   0.03342  -3.13552
   D36       -0.00655   0.00031   0.00000   0.01459   0.01471   0.00817
   D37       -3.12102   0.00038   0.00000   0.01976   0.01979  -3.10124
   D38       -3.13295  -0.00048   0.00000  -0.02201  -0.02204   3.12819
   D39        0.03576  -0.00041   0.00000  -0.01684  -0.01697   0.01879
   D40        2.74543   0.00012   0.00000   0.02107   0.02113   2.76656
   D41       -0.44093   0.00001   0.00000   0.01124   0.01118  -0.42975
   D42       -2.66172  -0.00039   0.00000  -0.08124  -0.08125  -2.74298
   D43        0.51508  -0.00019   0.00000  -0.06614  -0.06613   0.44895
         Item               Value     Threshold  Converged?
 Maximum Force            0.021102     0.000450     NO 
 RMS     Force            0.002542     0.000300     NO 
 Maximum Displacement     0.166884     0.001800     NO 
 RMS     Displacement     0.032231     0.001200     NO 
 Predicted change in Energy=-8.301827D-04
 GradGradGradGradGradGradGradGradGradGradGradGradGradGradGradGradGradGrad

                          Input orientation:                          
 ---------------------------------------------------------------------
 Center     Atomic      Atomic             Coordinates (Angstroms)
 Number     Number       Type             X           Y           Z
 ---------------------------------------------------------------------
      1          6           0       -3.323322    0.504904   -0.209637
      2          1           0       -3.548850    1.473447   -0.657981
      3          6           0       -1.903440    0.126313   -0.208435
      4          1           0       -1.189076    0.947779   -0.198322
      5          6           0       -4.334722   -0.206333    0.318319
      6          1           0       -4.109797   -1.145925    0.825052
      7          6           0       -5.779566    0.198542    0.286386
      8          1           0       -6.189341    0.281790    1.301552
      9          1           0       -5.919961    1.158766   -0.220199
     10          1           0       -6.386320   -0.554480   -0.233576
     11          6           0       -1.441316   -1.134213   -0.246456
     12          1           0       -2.129399   -1.975483   -0.317731
     13          6           0        0.001070   -1.539449   -0.212274
     14          1           0        0.266227   -2.105752   -1.114745
     15          1           0        0.204152   -2.174821    0.658975
     16          6           0        2.150928   -0.391547   -0.030298
     17          6           0        2.849478   -1.721516    0.050632
     18          1           0        2.592346   -2.344952   -0.810992
     19          1           0        3.926203   -1.562899    0.083778
     20          1           0        2.532865   -2.258252    0.951265
     21          8           0        0.821205   -0.350496   -0.144027
     22          8           0        2.734571    0.688438    0.024594
     23          8           0        5.535816    0.371108    0.306618
     24          1           0        4.604301    0.644169    0.207062
     25          1           0        6.071015    1.126955    0.037751
     26          8           0        0.602029    2.762879   -0.076526
     27          1           0        1.026269    3.568399   -0.396906
     28          1           0        1.312010    2.096000   -0.054631
 ---------------------------------------------------------------------
                    Distance matrix (angstroms):
                    1          2          3          4          5
     1  C    0.000000
     2  H    1.090849   0.000000
     3  C    1.469489   2.173531   0.000000
     4  H    2.179741   2.460924   1.088680   0.000000
     5  C    1.344442   2.095809   2.509832   3.390277   0.000000
     6  H    2.101038   3.061888   2.748581   3.736509   1.090964
     7  C    2.524487   2.737390   3.908250   4.676419   1.500839
     8  H    3.247697   3.497429   4.546777   5.262681   2.155139
     9  H    2.677720   2.431634   4.147112   4.735638   2.160204
    10  H    3.241115   3.513381   4.534350   5.410118   2.152871
    11  C    2.495997   3.378008   1.343105   2.097768   3.090587
    12  H    2.754897   3.745094   2.116731   3.073097   2.897913
    13  C    3.902687   4.677406   2.530205   2.757344   4.567036
    14  H    4.529857   5.251106   3.242063   3.504539   5.179787
    15  H    4.514254   5.397153   3.238760   3.525149   4.959069
    16  C    5.550063   6.029897   4.091187   3.602451   6.497653
    17  C    6.567202   7.186691   5.106057   4.847374   7.347119
    18  H    6.593817   7.233109   5.165492   5.051395   7.337117
    19  H    7.544370   8.102224   6.076476   5.705188   8.374853
    20  H    6.578575   7.314541   5.168352   5.045100   7.195467
    21  O    4.232389   4.763223   2.766800   2.393678   5.178622
    22  O    6.065197   6.368950   4.677759   3.938522   7.131745
    23  O    8.875176   9.201998   7.461081   6.768433   9.887421
    24  H    7.939789   8.240745   6.541522   5.815474   8.980082
    25  H    9.418159   9.651213   8.040760   7.266138  10.494557
    26  O    4.530402   4.385262   3.639540   2.552935   5.774394
    27  H    5.323440   5.038721   4.524010   3.437272   6.595481
    28  H    4.903256   4.937567   3.773915   2.755810   6.109452
                    6          7          8          9         10
     6  H    0.000000
     7  C    2.210403   0.000000
     8  H    2.567086   1.097911   0.000000
     9  H    3.111405   1.094701   1.776901   0.000000
    10  H    2.579352   1.097977   1.759195   1.775636   0.000000
    11  C    2.875597   4.569526   5.190870   5.031570   4.978887
    12  H    2.432302   4.291278   4.919399   4.919491   4.488620
    13  C    4.257949   6.056816   6.627953   6.506845   6.462923
    14  H    4.881974   6.620012   7.294739   7.051682   6.887619
    15  H    4.438059   6.447989   6.879288   7.027838   6.845179
    16  C    6.363756   7.958720   8.472738   8.220631   8.541222
    17  C    7.025848   8.843224   9.342285   9.234308   9.313577
    18  H    7.002358   8.818305   9.406414   9.224122   9.173638
    19  H    8.080882   9.866392  10.354230  10.219922  10.366569
    20  H    6.736332   8.693355   9.091282   9.192313   9.157432
    21  O    5.087888   6.637535   7.185906   6.908472   7.210967
    22  O    7.130988   8.532237   9.023978   8.670758   9.208808
    23  O    9.777935  11.316716  11.767633  11.494902  11.970207
    24  H    8.917503  10.393728  10.855042  10.545495  11.064569
    25  H   10.461107  11.889493  12.354264  11.993793  12.573228
    26  O    6.188125   6.887110   7.360544   6.717899   7.737348
    27  H    7.077938   7.625105   8.108735   7.354432   8.483590
    28  H    6.378081   7.348952   7.835870   7.294328   8.143793
                   11         12         13         14         15
    11  C    0.000000
    12  H    1.089162   0.000000
    13  C    1.498620   2.177187   0.000000
    14  H    2.147911   2.528087   1.097936   0.000000
    15  H    2.147147   2.537548   1.097276   1.776149   0.000000
    16  C    3.674574   4.573037   2.443908   2.768867   2.728571
    17  C    4.340980   4.998941   2.866304   2.859883   2.751966
    18  H    4.249119   4.761794   2.778850   2.358031   2.809486
    19  H    5.394728   6.082906   3.936352   3.889290   3.815621
    20  H    4.300246   4.840146   2.877584   3.070717   2.348467
    21  O    2.396603   3.372954   1.445991   2.081158   2.086559
    22  O    4.564379   5.556245   3.534348   3.898501   3.873462
    23  O    7.159068   8.040636   5.878171   5.993637   5.918830
    24  H    6.318054   7.244356   5.112120   5.303596   5.245211
    25  H    7.850400   8.774866   6.634490   6.743457   6.760749
    26  O    4.403573   5.474573   4.346217   4.989412   5.008008
    27  H    5.312830   6.379587   5.212987   5.769658   5.897062
    28  H    4.248750   5.337555   3.867804   4.457828   4.469507
                   16         17         18         19         20
    16  C    0.000000
    17  C    1.504440   0.000000
    18  H    2.149447   1.094160   0.000000
    19  H    2.129949   1.088850   1.786448   0.000000
    20  H    2.143346   1.095202   1.765390   1.782537   0.000000
    21  O    1.335209   2.455908   2.749479   3.341082   2.787289
    22  O    1.228828   2.412832   3.149584   2.547941   3.095542
    23  O    3.486061   3.414823   4.158130   2.526043   4.043119
    24  H    2.673591   2.949634   3.744227   2.312177   3.642627
    25  H    4.204469   4.300262   4.987549   3.440589   4.981229
    26  O    3.514488   5.017668   5.530889   5.457855   5.476882
    27  H    4.132847   5.613161   6.131213   5.913619   6.167435
    28  H    2.625312   4.116833   4.683310   4.498967   4.632691
                   21         22         23         24         25
    21  O    0.000000
    22  O    2.183755   0.000000
    23  O    4.790757   2.833234   0.000000
    24  H    3.927396   1.879135   0.975804   0.000000
    25  H    5.456777   3.365165   0.964382   1.553383   0.000000
    26  O    3.121810   2.976788   5.496328   4.537350   5.709564
    27  H    3.932395   3.374927   5.572578   4.660280   5.621302
    28  H    2.496842   2.002795   4.576712   3.607697   4.857542
                   26         27         28
    26  O    0.000000
    27  H    0.965135   0.000000
    28  H    0.974310   1.538427   0.000000
 Stoichiometry    C8H16O4
 Framework group  C1[X(C8H16O4)]
 Deg. of freedom    78
 Full point group                 C1      NOp   1
 Largest Abelian subgroup         C1      NOp   1
 Largest concise Abelian subgroup C1      NOp   1
                         Standard orientation:                         
 ---------------------------------------------------------------------
 Center     Atomic      Atomic             Coordinates (Angstroms)
 Number     Number       Type             X           Y           Z
 ---------------------------------------------------------------------
      1          6           0       -3.322712    0.503497   -0.205415
      2          1           0       -3.548518    1.471792   -0.654155
      3          6           0       -1.902642    0.125614   -0.203453
      4          1           0       -1.188692    0.947438   -0.193264
      5          6           0       -4.333998   -0.208083    0.322296
      6          1           0       -4.108836   -1.147410    0.829416
      7          6           0       -5.779029    0.196063    0.289584
      8          1           0       -6.189307    0.279414    1.304539
      9          1           0       -5.919671    1.156063   -0.217355
     10          1           0       -6.385172   -0.557419   -0.230426
     11          6           0       -1.439874   -1.134694   -0.240883
     12          1           0       -2.127506   -1.976328   -0.312215
     13          6           0        0.002697   -1.539202   -0.205922
     14          1           0        0.268547   -2.105646   -1.108101
     15          1           0        0.205700   -2.174209    0.665611
     16          6           0        2.151901   -0.390174   -0.023317
     17          6           0        2.851076   -1.719771    0.058334
     18          1           0        2.594646   -2.343596   -0.803218
     19          1           0        3.927707   -1.560608    0.091921
     20          1           0        2.534321   -2.256392    0.958985
     21          8           0        0.822210   -0.349820   -0.137663
     22          8           0        2.734982    0.690117    0.031513
     23          8           0        5.536256    0.374267    0.314907
     24          1           0        4.604651    0.646834    0.214845
     25          1           0        6.071201    1.130299    0.046054
     26          8           0        0.601454    2.763465   -0.071204
     27          1           0        1.025439    3.569100   -0.391635
     28          1           0        1.311757    2.096947   -0.048785
 ---------------------------------------------------------------------
 Rotational constants (GHZ):      1.7809126      0.2716666      0.2386086
 Standard basis: 6-31+G(d,p) (6D, 7F)
 There are   308 symmetry adapted cartesian basis functions of A   symmetry.
 There are   308 symmetry adapted basis functions of A   symmetry.
   308 basis functions,   496 primitive gaussians,   308 cartesian basis functions
    48 alpha electrons       48 beta electrons
       nuclear repulsion energy       685.3918243425 Hartrees.
 NAtoms=   28 NActive=   28 NUniq=   28 SFac= 1.00D+00 NAtFMM=   60 NAOKFM=F Big=F
 Integral buffers will be    131072 words long.
 Raffenetti 2 integral format.
 Two-electron integral symmetry is turned on.
 Nuclear repulsion after empirical dispersion term =      685.3710744002 Hartrees.
 ------------------------------------------------------------------------------
 Polarizable Continuum Model (PCM)
 =================================
 Model                : C-PCM.
 Atomic radii         : UFF (Universal Force Field).
 Polarization charges : Total charges.
 Charge compensation  : None.
 Solution method      : On-the-fly selection.
 Cavity type          : Scaled VdW (van der Waals Surface) (Alpha=1.100).
 Cavity algorithm     : GePol (No added spheres)
                        Default sphere list used, NSphG=   28.
                        Lebedev-Laikov grids with approx.  5.0 points / Ang**2.
                        Smoothing algorithm: Karplus/York (Gamma=1.0000).
                        Polarization charges: spherical gaussians, with
                                              point-specific exponents (IZeta= 3).
                        Self-potential: point-specific (ISelfS= 7).
                        Self-field    : sphere-specific E.n sum rule (ISelfD= 2).
 1st derivatives      : Analytical E(r).r(x)/FMM algorithm (CHGder, D1EAlg=3).
                        Cavity 1st derivative terms included.
 Solvent              : Toluene, Eps=   2.374100 Eps(inf)=   2.238315
 ------------------------------------------------------------------------------
 One-electron integrals computed using PRISM.
 NBasis=   308 RedAO= T EigKep=  4.71D-06  NBF=   308
 NBsUse=   308 1.00D-06 EigRej= -1.00D+00 NBFU=   308
 Initial guess from the checkpoint file:  "b3lyp_PM6_2H2O_diene_pm6_cpcmtoluene_2.chk"
 B after Tr=     0.000000    0.000000    0.000000
         Rot=    1.000000   -0.000225   -0.000004    0.000013 Ang=  -0.03 deg.
 ExpMin= 4.38D-02 ExpMax= 5.48D+03 ExpMxC= 8.25D+02 IAcc=2 IRadAn=         4 AccDes= 0.00D+00
 Harris functional with IExCor=  402 and IRadAn=       4 diagonalized for initial guess.
 HarFok:  IExCor=  402 AccDes= 0.00D+00 IRadAn=         4 IDoV= 1 UseB2=F ITyADJ=14
 ICtDFT=  3500011 ScaDFX=  1.000000  1.000000  1.000000  1.000000
 FoFCou: FMM=F IPFlag=           0 FMFlag=      100000 FMFlg1=           0
         NFxFlg=           0 DoJE=T BraDBF=F KetDBF=T FulRan=T
         wScrn=  0.000000 ICntrl=     500 IOpCl=  0 I1Cent=   200000004 NGrid=           0
         NMat0=    1 NMatS0=      1 NMatT0=    0 NMatD0=    1 NMtDS0=    0 NMtDT0=    0
 Petite list used in FoFCou.
 Requested convergence on RMS density matrix=1.00D-08 within 128 cycles.
 Requested convergence on MAX density matrix=1.00D-06.
 Requested convergence on             energy=1.00D-06.
 No special actions if energy rises.
 Inv3:  Mode=1 IEnd=    15966747.
 Iteration    1 A*A^-1 deviation from unit magnitude is 6.66D-15 for   2278.
 Iteration    1 A*A^-1 deviation from orthogonality  is 3.61D-15 for   2294   1972.
 Iteration    1 A^-1*A deviation from unit magnitude is 6.88D-15 for   2278.
 Iteration    1 A^-1*A deviation from orthogonality  is 3.53D-15 for   2302   1971.
 Error on total polarization charges =  0.01120
 SCF Done:  E(RB3LYP) =  -615.445647142     A.U. after   11 cycles
            NFock= 11  Conv=0.40D-08     -V/T= 2.0096
 D1PCM: C-PCM CHGder 1st derivatives, ID1Alg=3 FixD1E=F DoIter=F DoCFld=F I1PDM=0.
 Calling FoFJK, ICntrl=      2127 FMM=F ISym2X=0 I1Cent= 0 IOpClX= 0 NMat=1 NMatS=1 NMatT=0.
 ***** Axes restored to original set *****
 -------------------------------------------------------------------
 Center     Atomic                   Forces (Hartrees/Bohr)
 Number     Number              X              Y              Z
 -------------------------------------------------------------------
      1        6           0.000035750    0.000183499   -0.000041730
      2        1          -0.000049072   -0.000031910    0.000044445
      3        6           0.000070999    0.000122835   -0.000207310
      4        1           0.000048071   -0.000038300    0.000190711
      5        6          -0.000014921   -0.000117436    0.000045387
      6        1           0.000005821    0.000058584   -0.000002425
      7        6          -0.000032302    0.000040908    0.000217238
      8        1           0.000047899   -0.000006194   -0.000076676
[...]
 8776,0.00457578,0.01637936,0.02046861,0.00739057,-0.01072542,0.0024617
 1,-0.05044978,-0.00210922,0.00023964,0.01774988,-0.00264785,0.00269307
 ,-0.00016742,-0.00017575,0.00022228,0.00228343,0.00242446,-0.00268110,
 0.00002901,0.02390827,0.00799542,0.06143449,0.00012434,-0.00044601,0.0
 0024543,-0.00025064,0.00014192,-0.00008649,0.00020228,0.00036917,-0.00
 006767,0.00044739,-0.00037229,0.00003034,-0.00008054,0.00028369,-0.000
 00239,0.00005238,0.00001885,-0.00005638,-0.00009323,-0.00021242,0.0000
 4706,-0.00014462,0.00007111,0.00005004,-0.00003091,0.00006704,-0.00003
 587,-0.00017906,0.00003545,-0.00006076,-0.00020169,-0.00399427,-0.0000
 6283,-0.00149221,0.00051707,-0.00009491,0.00423865,0.01273337,0.000088
 31,-0.00195944,-0.00246023,-0.00076410,-0.00195961,-0.00236259,0.00054
 524,-0.19716202,-0.21699805,-0.00639143,0.01297305,0.00526813,-0.00063
 981,0.00038548,0.00270919,0.00052640,0.00229782,-0.00116066,0.00016143
 ,0.00024454,0.00310061,-0.00033817,-0.08739321,-0.07739575,-0.00502199
 ,0.28712441,0.00014887,-0.00034753,0.00031898,-0.00032247,0.00015642,-
 0.00011714,-0.00040106,0.00013665,-0.00012468,0.00011924,-0.00084044,-
 0.00000468,-0.00013382,0.00029646,0.00003381,0.00004929,0.00002761,-0.
 00007211,-0.00008625,-0.00020951,0.00001661,-0.00012406,0.00004988,0.0
 0004035,-0.00003825,0.00006685,-0.00004401,-0.00015378,0.00004616,-0.0
 0004558,0.00061188,-0.00227800,0.00001455,-0.00105566,0.00033444,-0.00
 007380,0.00676347,0.01116587,0.00036204,-0.00140076,-0.00129731,-0.000
 04493,-0.00138547,-0.00123809,-0.00009453,-0.19244688,-0.55465628,-0.0
 1033984,-0.01910721,-0.04831105,-0.00106365,0.00232320,-0.00471363,0.0
 0187599,-0.00171517,0.00120086,-0.00008426,0.00257110,-0.00477718,-0.0
 0164798,-0.07330762,-0.00622005,-0.00338971,0.27354888,0.61342805,0.00
 000682,-0.00001514,0.00003458,-0.00000321,-0.00000156,-0.00001433,0.00
 001216,0.00001987,0.00008208,0.00003063,-0.00001666,-0.00007904,-0.000
 00487,0.00002408,0.00000271,-0.00000031,-0.00000848,-0.00000544,-0.000
 00761,-0.00001653,-0.00000199,-0.00001152,0.00000335,0.00000510,-0.000
 00052,-0.00000014,-0.00000271,-0.00000853,0.00000488,-0.00000347,-0.00
 001821,-0.00020254,0.00024262,-0.00005960,0.00002325,-0.00019839,-0.00
 018374,0.00050645,0.00755503,0.00077651,0.00083027,-0.00028925,-0.0009
 2331,-0.00103149,-0.00032828,-0.00641158,-0.01152609,-0.07503999,-0.00
 075192,0.00005388,0.02702458,-0.00211001,0.00400909,-0.00123843,0.0001
 4601,-0.00005310,-0.00046895,0.00228964,-0.00366918,-0.00108119,-0.004
 77670,-0.00350646,0.01304241,0.01256190,0.01421036,0.03631010,0.000018
 96,-0.00012160,0.00005468,-0.00004598,0.00002984,-0.00001875,-0.000002
 18,0.00007187,-0.00002192,0.00009420,-0.00008207,0.00000730,-0.0000000
 9,0.00005855,-0.00000619,0.00001047,0.00000465,-0.00000837,-0.00002317
 ,-0.00005182,0.00001399,-0.00003546,0.00001949,0.00001518,-0.00000569,
 0.00001775,-0.00000901,-0.00004486,0.00000623,-0.00001748,0.00005996,-
 0.00029770,0.00000101,-0.00019159,0.00003217,-0.00001506,0.00093805,0.
 00153013,0.00006977,-0.00015660,-0.00025305,-0.00001638,-0.00016602,-0
 .00024915,-0.00000376,0.00589768,0.00931664,0.00028338,0.00000478,-0.0
 0121738,0.00000206,-0.00022494,-0.00021516,-0.00003788,-0.00062209,0.0
 0032571,-0.00004583,-0.00022314,-0.00021451,0.00001355,-0.00611024,-0.
 00252036,-0.00029139,-0.01722236,-0.00619373,-0.00098353,0.62828668,0.
 00000572,-0.00001014,0.00001999,-0.00001643,0.00000800,-0.00000765,-0.
 00003763,-0.00000473,-0.00001107,-0.00000106,-0.00002367,-0.00000082,-
 0.00000438,0.00001416,0.00000542,0.00000203,0.00000204,-0.00000535,-0.
 00000425,-0.00001038,-0.00000027,-0.00000541,0.00000110,0.00000211,-0.
 00000221,0.00000430,-0.00000358,-0.00000633,0.00000271,-0.00000147,0.0
 0006208,0.00005011,0.00000402,-0.00001184,0.00000059,-0.00000087,0.000
 10145,-0.00002776,0.00000382,0.00001557,-0.00000059,0.00006401,0.00001
 889,0.00000111,-0.00006151,0.00200016,-0.00183632,0.00008913,0.0006815
 2,-0.00025035,0.00004712,-0.00040167,0.00001676,-0.00003705,-0.0007637
 7,-0.00006480,-0.00006803,-0.00041727,0.00001539,-0.00000824,-0.000305
 86,0.00063681,-0.00001454,-0.00196911,0.00449860,-0.00008420,0.0958425
 0,0.47333402,0.00000017,0.00000086,0.00000458,0.00000032,-0.00000443,-
 0.00000776,0.00000317,0.00000165,0.00001799,0.00000595,-0.00000431,-0.
 00002703,0.00000042,0.00000952,0.00000235,-0.00000025,-0.00000634,-0.0
 0000382,-0.00000263,-0.00000308,-0.00000020,-0.00000558,0.00000117,0.0
 0000325,0.00000024,-0.00000202,-0.00000126,-0.00000123,0.00000267,-0.0
 0000209,-0.00000002,-0.00001193,0.00002968,-0.00000823,0.00000243,-0.0
 0000926,0.00005308,0.00007166,-0.00019222,-0.00002339,-0.00001183,0.00
 001020,0.00000640,-0.00001142,0.00001206,0.00028147,0.00043354,0.00006
 354,-0.00001148,-0.00005335,0.00028489,0.00015911,0.00008072,0.0000071
 1,-0.00003821,-0.00001154,-0.00051778,-0.00017699,-0.00009695,-0.00000
 668,-0.00028034,-0.00011838,-0.00012763,-0.00093236,-0.00028758,0.0027
 5253,0.02920381,0.00523258,0.00543671,-0.00002583,0.00015987,-0.000068
 51,0.00006262,-0.00003939,0.00002441,-0.00000708,-0.00010103,0.0000266
 7,-0.00013676,0.00011789,-0.00000929,0.00001154,-0.00007934,0.00000582
 ,-0.00001381,-0.00000502,0.00001257,0.00002933,0.00006546,-0.00001893,
 0.00004575,-0.00002407,-0.00001800,0.00000786,-0.00002189,0.00001139,0
 .00005644,-0.00000901,0.00002114,-0.00005298,0.00056027,-0.00000167,0.
 00029212,-0.00005465,0.00002291,-0.00130385,-0.00231594,-0.00009926,0.
 00028098,0.00041520,0.00009084,0.00029839,0.00041244,-0.00005524,-0.01
 246154,-0.01739009,-0.00061383,0.00051702,0.00136558,0.00006233,-0.000
 20992,0.00050641,-0.00001545,0.00057616,-0.00056451,-0.00003347,-0.000
 23204,0.00050325,-0.00001188,0.00998210,0.00438609,0.00045388,0.007386
 44,0.01057329,0.00069868,-0.43284087,0.09438714,-0.01972126,0.44704404
 ,-0.00000628,0.00001856,-0.00002064,0.00001806,-0.00000901,0.00000785,
 0.00004198,0.00000080,0.00001227,-0.00000882,0.00002767,0.00000033,0.0
 0000442,-0.00001637,-0.00000342,-0.00000263,-0.00000178,0.00000460,0.0
 0000541,0.00001151,-0.00000089,0.00000770,-0.00000283,-0.00000305,0.00
 000220,-0.00000479,0.00000366,0.00000965,-0.00000295,0.00000288,-0.000
 06007,-0.00004203,-0.00001035,0.00002312,-0.00000181,0.00000185,-0.000
 18860,-0.00006111,-0.00000204,-0.00000577,0.00002385,-0.00006036,-0.00
 000742,0.00002236,0.00005930,-0.00589566,0.00040469,-0.00029271,-0.001
 21547,-0.00015793,-0.00007102,0.00048207,0.00007903,0.00004400,-0.0003
 3554,-0.00284796,0.00000717,0.00049774,0.00008216,0.00000997,0.0007808
 1,-0.00057533,0.00003422,0.00514869,-0.00597223,0.00022489,0.14922594,
 -0.08639862,0.00681129,-0.10608411,0.08834957,-0.00000043,0.00000462,-
 0.00000541,0.00000105,0.00000181,0.00000540,-0.00000327,-0.00000505,-0
 .00000417,-0.00000814,0.00000578,0.00002196,0.00000097,-0.00000712,-0.
 00000149,0.00000021,0.00000378,0.00000261,0.00000223,0.00000285,-0.000
 00090,0.00000453,-0.00000115,-0.00000219,-0.00000004,0.00000072,0.0000
 0109,0.00000197,-0.00000163,0.00000181,-0.00000024,0.00002288,-0.00002
 248,0.00001318,-0.00000276,-0.00000195,-0.00007656,-0.00010812,0.00040
 661,0.00005768,0.00004774,-0.00001006,-0.00002890,-0.00000949,-0.00002
 169,-0.00056327,-0.00079784,-0.00002954,0.00005972,0.00006660,-0.00089
 115,-0.00017640,-0.00012601,0.00001260,-0.00001900,-0.00005302,0.00086
 063,0.00015026,0.00016718,0.00002928,0.00042724,0.00020257,0.00059800,
 0.00059447,0.00049299,-0.00546483,-0.01963843,0.00424956,-0.00753776,0
 .02012818,-0.00481067,0.01253522,0.00000045,0.00001321,-0.00000352,0.0
 0000014,-0.00000161,0.00000041,-0.00001115,-0.00000782,0.00000178,-0.0
 0000869,-0.00000026,-0.00000134,-0.00000562,-0.00000346,0.00000177,-0.
 00000072,-0.00000056,-0.00000061,0.00000243,0.00000481,-0.00000167,0.0
 0000351,-0.00000275,-0.00000221,-0.00000002,-0.00000185,0.00000054,0.0
 0000499,0.00000025,0.00000260,0.00000025,-0.00000287,0.00000390,0.0000
 0517,0.00000349,0.00000052,-0.00005761,-0.00008159,-0.00000641,-0.0000
 0182,0.00000023,0.00000208,-0.00000185,-0.00000067,-0.00000246,0.00023
 706,0.00040604,0.00001255,0.00030846,0.00006352,0.00000131,0.00000436,
 0.00000596,0.00002118,-0.00045228,-0.00020572,-0.00000751,0.00001212,0
 .00000648,-0.00001980,0.00005559,-0.00004386,0.00000315,-0.00176204,0.
 00079356,-0.00007992,-0.17772958,-0.18919020,-0.00852607,-0.01879644,-
 0.04240919,-0.00090035,0.19819969,-0.00000164,0.00000258,-0.00000430,0
 .00000262,-0.00000127,0.00000155,-0.00000187,-0.00000156,0.00000203,-0
 .00000285,0.00000563,-0.00000019,0.00000130,-0.00000329,-0.00000192,-0
 .00000020,-0.00000051,0.00000134,0.00000075,0.00000215,0.,0.00000071,0
 .00000012,-0.00000021,0.00000046,-0.00000069,0.00000073,0.00000055,-0.
 00000050,0.,0.00000146,0.00002855,0.00000462,0.00000838,-0.00000318,0.
 00000057,-0.00000980,-0.00004370,-0.00000470,0.00001401,0.00001368,0.0
 0000797,0.00001469,0.00001361,-0.00000641,-0.00051703,-0.00091850,-0.0
 0002958,0.00023162,0.00006204,0.00001678,-0.00008964,0.00000573,-0.000
 00193,-0.00002366,0.00000037,-0.00000357,-0.00009173,0.00000631,-0.000
 00826,0.00029924,0.00019592,0.00001412,0.00165453,0.00022672,0.0000844
 1,-0.24445497,-0.38987909,-0.01199970,0.01230363,0.00690856,0.00061334
 ,0.23067950,0.38332950,0.00000018,-0.00000260,-0.00000186,-0.00000101,
 0.00000224,0.00000289,-0.00000156,0.00000061,-0.00000914,-0.00000096,0
 .00000016,0.00000942,-0.00000075,-0.00000285,-0.00000135,0.00000018,0.
 00000266,0.00000132,0.00000070,0.00000061,0.00000062,0.00000177,-0.000
 00014,-0.00000118,-0.00000015,0.00000107,0.00000043,-0.00000005,-0.000
 00102,0.00000057,0.00000106,-0.00000036,-0.00000629,-0.00000008,-0.000
 00028,0.00000460,-0.00000349,-0.00000395,0.00000445,-0.00000380,-0.000
 00585,-0.00000135,0.00000428,0.00000558,-0.00000091,0.00000794,0.00001
 887,0.00001615,0.00000145,0.00000131,0.00029163,0.00004777,-0.00000592
 ,-0.00000433,-0.00000795,-0.00001212,-0.00026207,-0.00004548,0.0000073
 9,-0.00001096,0.00000810,-0.00000124,-0.00007279,-0.00008705,0.0000391
 2,0.00017879,-0.00858830,-0.00941623,-0.00016050,-0.00083488,-0.001941
 94,-0.00055259,0.00950262,0.01131641,0.00055205,0.00001822,-0.00017778
 ,-0.00007075,0.00011858,0.00000124,0.00005071,0.00063208,0.00033856,0.
 00000890,-0.00093948,-0.00024876,0.00004774,0.00002908,0.00000193,-0.0
 0004110,-0.00000639,-0.00002433,0.00002134,-0.00000899,-0.00000255,0.0
 0002928,-0.00002421,0.00001857,0.00000897,0.00001274,0.00000188,0.0000
 0701,-0.00002034,-0.00001251,-0.00000995,-0.00050686,0.00001563,-0.000
 00299,0.00012218,-0.00018237,0.00000832,-0.00041627,-0.00070675,-0.000
 02842,0.00013217,0.00006025,-0.00001460,0.00012558,0.00006203,0.000023
 94,-0.00785442,-0.00379578,-0.00037087,0.00077979,0.00082558,0.0000879
 9,-0.00011328,0.00025084,-0.00001079,0.00011681,-0.00013246,0.00000428
 ,-0.00010599,0.00024206,-0.00000541,0.00357022,-0.00051863,0.00015798,
 -0.00066836,0.00967147,-0.00042682,-0.00055471,0.00007371,-0.00004903,
 0.00079976,0.00002228,0.00005319,0.00009519,-0.00000743,0.00001481,0.4
 3708861,0.00007333,-0.00088158,0.00016590,-0.00013867,0.00008637,-0.00
 008149,0.00028620,0.00072245,-0.00006457,0.00056513,-0.00054240,0.0001
 3276,-0.00022198,0.00021839,-0.00004363,0.00002928,0.00000319,-0.00004
 789,-0.00004572,-0.00010667,0.00010544,-0.00009236,0.00002816,0.000019
 25,-0.00001852,0.00003805,-0.00003142,-0.00006777,0.00001922,-0.000021
 15,-0.00033994,-0.00034767,0.00001898,-0.00011554,-0.00022159,-0.00002
 245,0.00131642,0.00130048,0.00007951,-0.00011985,-0.00033415,-0.000053
 73,-0.00014160,-0.00034988,0.00003471,0.00232435,0.00449978,0.00009690
 ,-0.00025613,-0.00086897,-0.00007441,0.00006518,-0.00023132,0.00001966
 ,-0.00005061,0.00000337,-0.00000018,0.00006120,-0.00022003,-0.00000910
 ,-0.00185921,-0.00281726,0.00000272,0.00613944,-0.00763799,0.00061875,
 0.00089215,0.00020370,0.00004495,-0.00145197,-0.00034088,-0.00006558,0
 .00003016,-0.00007371,0.00000037,-0.02441789,0.66856927,-0.00002131,0.
 00009229,0.00003812,0.00004904,-0.00003222,-0.00006051,0.00001655,-0.0
 0003355,0.00023175,0.00001296,0.00007007,-0.00077495,0.00000700,0.0000
 0390,0.00004749,-0.00001105,-0.00003167,-0.00001202,-0.00000542,0.0000
 0006,-0.00000998,-0.00001444,-0.00000698,0.00000831,0.00000371,-0.0000
 1161,-0.00000718,0.00000571,0.00000901,-0.00000093,-0.00001091,0.00003
 778,0.00016104,0.00001253,0.00000487,-0.00006447,-0.00005357,-0.000075
 69,-0.00007588,0.00000371,0.00008729,0.00001168,0.00000745,-0.00005071
 ,0.00000784,-0.00053289,-0.00033825,-0.00038056,0.00008096,0.00008754,
 -0.00045527,0.00002776,-0.00001293,0.00001194,0.00000947,-0.00000896,-
 0.00001669,-0.00004431,0.00006363,0.00001409,0.00021619,0.00003840,0.0
 0058963,-0.00037653,0.00084829,0.00256182,-0.00007477,-0.00000279,0.00
 026145,0.00010976,0.00001510,-0.00018346,0.00000919,0.00000101,-0.0001
 1558,0.03454479,-0.01789762,0.00770409,0.00002337,-0.00024447,0.000017
 98,-0.00002608,0.00002224,-0.00002345,0.00017022,0.00014464,0.00001159
 ,0.00021076,0.00029399,0.00001702,-0.00007087,0.00005495,-0.00001101,0
 .00000642,-0.00000050,-0.00001400,-0.00001019,-0.00002174,0.00004018,-
 0.00002291,0.00000445,0.00000224,-0.00000518,0.00000862,-0.00000900,-0
 .00001067,0.00000589,-0.00000290,-0.00020752,-0.00012481,-0.00001295,0
 .00001867,-0.00009287,-0.00000305,-0.00016514,-0.00003235,-0.00001584,
 0.00002871,0.00000634,-0.00000138,0.00003111,0.00000906,0.00000409,0.0
 0019624,-0.00053964,0.00001468,-0.00000563,0.00006075,0.00001120,-0.00
 000138,0.00000832,0.00000178,0.00000528,0.00000660,-0.00000070,-0.0000
 0121,0.00000440,-0.00000179,0.00021038,0.00021461,-0.00000987,-0.00140
 942,0.00049689,-0.00010314,-0.00001547,-0.00009647,0.00001071,0.000102
 11,0.00011427,-0.00000427,-0.00006388,0.00003088,-0.00000855,-0.144389
 37,-0.22368292,-0.00595776,0.13259934,-0.00002405,0.00003173,-0.000012
 64,0.00000084,-0.00000414,0.00000588,0.00011652,0.00018055,0.00000706,
 -0.00024851,-0.00034509,-0.00000250,-0.00000183,-0.00000694,-0.0000028
 7,-0.00000029,-0.00000273,0.00000346,0.00000314,0.00001118,-0.00000238
 ,0.00000644,-0.00000204,-0.00000336,0.00000167,-0.00000452,0.00000436,
 0.00000676,-0.00000227,0.00000255,0.00004756,-0.00005487,-0.00000184,0
 .00000431,0.00000412,0.00000212,0.00000286,-0.00008415,0.00000206,0.00
 000300,-0.00000643,0.00000638,0.00000444,-0.00000594,-0.00000760,-0.00
 093098,-0.00042900,-0.00006171,0.00007510,0.00009852,-0.00000025,-0.00
 001073,0.00001532,0.00000247,0.00001416,-0.00001584,0.00000065,-0.0000
 1158,0.00001762,-0.00000352,0.00035482,-0.00014822,0.00004436,0.000735
 77,0.00083464,0.00004861,-0.00009538,0.00003710,-0.00000895,0.00008739
 ,-0.00003390,0.00000591,0.00004607,-0.00000249,0.00000402,-0.16766509,
 -0.42317816,-0.00308998,0.19058130,0.44968664,-0.00000164,-0.00003156,
 0.00000213,-0.00000657,0.00000948,0.00001549,0.00000436,0.00000285,0.0
 0013719,0.00000029,-0.00000335,-0.00019474,-0.00000280,0.00000028,-0.0
 0002045,0.00000225,0.00000889,0.00000284,0.00000013,-0.00000101,0.0000
 0434,0.00000494,0.00000302,-0.00000347,-0.00000063,0.00000410,0.000003
 03,-0.00000155,-0.00000349,0.00000020,-0.00000921,0.00000426,-0.000039
 12,0.00000127,-0.00000264,-0.00001522,-0.00001599,0.00000095,0.0000527
 5,0.00001091,0.00000806,-0.00000395,-0.00000435,-0.00000341,-0.0000033
 3,0.00002282,-0.00003796,-0.00006118,-0.00000391,0.00000146,0.00000740
 ,-0.00000396,-0.00000801,-0.00000016,-0.00000036,0.00000087,0.00000898
 ,0.00000430,0.00000754,-0.00000029,0.00000699,0.00003069,0.00026315,-0
 .00011963,0.00003065,-0.00007863,0.00000691,-0.00000627,-0.00012666,-0
 .00000067,0.00000755,0.00009675,-0.00000767,0.00000232,0.00006136,-0.0
 0727607,-0.00747848,-0.00073317,0.00581756,0.00424767,0.00083375,0.000
 04603,0.00029317,0.00001521,-0.00002591,0.00000243,-0.00000894,-0.0002
 3289,-0.00048210,0.00001837,-0.00092040,-0.00023544,-0.00007888,0.0000
 3584,-0.00002309,0.00003981,-0.00000045,0.00001011,-0.00000690,0.00000
 716,0.00000291,-0.00003855,0.00001996,-0.00001143,-0.00000437,-0.00000
 456,-0.00000229,-0.00000090,0.00000995,0.00000631,0.00000669,0.0002419
 8,-0.00022297,-0.00000651,-0.00011545,0.00014344,-0.00000640,-0.000062
 15,0.00074682,0.00001654,-0.00008697,-0.00000556,0.00002003,-0.0000828
 6,-0.00000366,-0.00002478,0.01352005,0.00806596,0.00057488,-0.00123219
 ,-0.00159423,-0.00016673,0.00018044,-0.00041478,0.00002456,-0.00019656
 ,0.00021012,-0.00000501,0.00016969,-0.00039038,0.00000415,-0.00620552,
 0.00054594,-0.00022401,-0.00346743,-0.00979896,0.00034270,0.00090424,0
 .00004313,0.00005223,-0.00141154,-0.00016476,-0.00007559,-0.00003772,-
 0.00004353,-0.00000679,-0.28803235,0.24123786,-0.02801382,0.01280229,-
 0.02310374,0.00157226,0.27417735,-0.00003464,0.00022795,-0.00013761,0.
 00013882,-0.00005379,0.00005579,0.00011370,-0.00031985,0.00007099,-0.0
 0049706,0.00055947,-0.00000381,0.00009101,-0.00011106,-0.00001047,-0.0
 0002031,-0.00001573,0.00003127,0.00002320,0.00006848,-0.00001348,0.000
 03839,-0.00001031,-0.00000974,0.00001631,-0.00002238,0.00001858,0.0000
 4109,-0.00001781,0.00001058,-0.00029982,0.00032230,-0.00002065,0.00026
 210,-0.00006658,0.00002049,-0.00241399,-0.00198255,-0.00017340,0.00034
 418,0.00054158,0.00006358,0.00037029,0.00056041,-0.00001953,-0.0032237
 5,-0.01279680,0.00000447,0.00041687,0.00141890,0.00009616,-0.00013077,
 0.00036324,-0.00002045,0.00009619,0.00000761,0.00000108,-0.00012563,0.
 00034753,0.00000064,0.00491325,0.00066940,0.00019307,-0.00517154,0.006
 03009,-0.00053058,-0.00140673,-0.00032002,-0.00006124,0.00229712,0.000
 54075,0.00010012,-0.00010086,0.00012703,-0.00000591,0.18630630,-0.2375
 4017,0.02023372,0.03276757,-0.02659069,0.00320554,-0.21481128,0.268062
 99,0.00001183,-0.00001123,-0.00002401,-0.00001421,0.00001334,0.0000130
 0,-0.00001939,-0.00000113,-0.00014815,-0.00004805,-0.00001001,0.000315
 87,0.00000132,-0.00000635,-0.00000351,0.00000277,0.00001206,0.00000359
 ,0.00000309,0.00000028,0.00000247,0.00000508,0.00000074,-0.00000269,-0
 .00000195,0.00000460,0.00000108,-0.00000183,-0.00000284,0.00000082,0.0
 0002059,-0.00003671,-0.00008208,-0.00001538,0.00000530,0.00003391,0.00
 006422,0.00008679,-0.00013765,-0.00004381,-0.00011636,-0.00000706,0.00
 002029,0.00007872,-0.00000244,0.00089450,0.00073304,0.00148396,-0.0001
 4422,-0.00015374,0.00100676,-0.00005839,0.00009966,-0.00004072,-0.0000
 1536,0.00001592,0.00000184,0.00008831,-0.00017625,-0.00003815,-0.00042
 122,0.00007486,-0.00132801,0.00028777,-0.00084926,-0.00549743,0.000105
 43,0.00001218,-0.00016569,-0.00016623,-0.00002983,0.00015773,-0.000004
 09,-0.00000642,0.00007663,-0.02676244,0.02455178,-0.00875856,0.0002306
 5,-0.00118996,-0.00020900,0.02598073,-0.02309920,0.01334748\\0.0000011
 6,0.00000089,0.00000098,0.00000086,0.00000146,0.00000142,-0.00000129,0
 .00000114,-0.00000371,-0.00000095,0.00000004,-0.00000010,-0.00000047,0
 .00000066,-0.00000146,-0.00000083,0.00000096,-0.00000026,0.00000019,0.
 00000177,0.00000068,0.00000019,0.00000132,-0.00000022,0.00000036,0.000
 00169,0.00000014,-0.00000011,0.00000177,-0.00000036,0.00000062,-0.0000
 0017,0.00000212,-0.00000064,0.00000069,0.00000165,-0.00000780,-0.00000
 858,-0.00000151,0.00000112,0.00000322,-0.00000127,-0.00000100,-0.00000
 061,-0.00000227,-0.00001591,0.00000145,0.00000141,0.00000039,-0.000001
 88,-0.00000461,0.00000016,-0.00000137,0.00000049,0.00000057,-0.0000000
 3,-0.00000035,-0.00000006,0.00000012,-0.00000006,0.00001155,0.00000608
 ,0.00000476,-0.00000193,-0.00001225,-0.00000339,-0.00000393,-0.0000060
 3,0.00000035,0.00000827,0.00000672,0.00000273,0.00000175,0.00000166,0.
 00000050,0.00000290,0.00000363,0.00000127,-0.00000141,-0.00000332,0.00
 000074,0.00000624,-0.00000105,0.00000034\\\@


 IF MATHEMATICALLY YOU END UP WITH THE INCORRECT ANSWER,
 TRY MULTIPLYING BY THE PAGE NUMBER.
 Job cpu time:       0 days  0 hours 36 minutes 50.2 seconds.
 File lengths (MBytes):  RWF=    314 Int=      0 D2E=      0 Chk=     16 Scr=      1
 Normal termination of Gaussian 09 at Fri Aug 28 16:52:27 2020.
