 Entering Gaussian System, Link 0=g09
 Input=b3lyp_PM6_2H2O_dienophile_pm6_cpcmtoluene_1.com
 Output=b3lyp_PM6_2H2O_dienophile_pm6_cpcmtoluene_1.log
 Initial command:
 /apps/applications/gaussian/G09.D01/2/default/g09/l1.exe "/local/713767.1.40core-192G.q/Gau-156557.inp" -scrdir="/local/713767.1.40core-192G.q/"
 Entering Link 1 = /apps/applications/gaussian/G09.D01/2/default/g09/l1.exe PID=    156558.
  
 Copyright (c) 1988,1990,1992,1993,1995,1998,2003,2009,2013,
            Gaussian, Inc.  All Rights Reserved.
  
 This is part of the Gaussian(R) 09 program.  It is based on
 the Gaussian(R) 03 system (copyright 2003, Gaussian, Inc.),
 the Gaussian(R) 98 system (copyright 1998, Gaussian, Inc.),
 the Gaussian(R) 94 system (copyright 1995, Gaussian, Inc.),
 the Gaussian 92(TM) system (copyright 1992, Gaussian, Inc.),
 the Gaussian 90(TM) system (copyright 1990, Gaussian, Inc.),
 the Gaussian 88(TM) system (copyright 1988, Gaussian, Inc.),
 the Gaussian 86(TM) system (copyright 1986, Carnegie Mellon
 University), and the Gaussian 82(TM) system (copyright 1983,
 Carnegie Mellon University). Gaussian is a federally registered
 trademark of Gaussian, Inc.
  
 This software contains proprietary and confidential information,
 including trade secrets, belonging to Gaussian, Inc.
  
 This software is provided under written license and may be
 used, copied, transmitted, or stored only in accord with that
 written license.
  
 The following legend is applicable only to US Government
 contracts under FAR:
  
                    RESTRICTED RIGHTS LEGEND
  
 Use, reproduction and disclosure by the US Government is
 subject to restrictions as set forth in subparagraphs (a)
 and (c) of the Commercial Computer Software - Restricted
 Rights clause in FAR 52.227-19.
  
 Gaussian, Inc.
 340 Quinnipiac St., Bldg. 40, Wallingford CT 06492
  
  
 ---------------------------------------------------------------
 Warning -- This program may not be used in any manner that
 competes with the business of Gaussian, Inc. or will provide
 assistance to any competitor of Gaussian, Inc.  The licensee
 of this program is prohibited from giving any competitor of
 Gaussian, Inc. access to this program.  By using this program,
 the user acknowledges that Gaussian, Inc. is engaged in the
 business of creating and licensing software in the field of
 computational chemistry and represents and warrants to the
 licensee that it is not a competitor of Gaussian, Inc. and that
 it will not use this program in any manner prohibited above.
 ---------------------------------------------------------------
  

 Cite this work as:
 Gaussian 09, Revision D.01,
 M. J. Frisch, G. W. Trucks, H. B. Schlegel, G. E. Scuseria, 
 M. A. Robb, J. R. Cheeseman, G. Scalmani, V. Barone, B. Mennucci, 
 G. A. Petersson, H. Nakatsuji, M. Caricato, X. Li, H. P. Hratchian, 
 A. F. Izmaylov, J. Bloino, G. Zheng, J. L. Sonnenberg, M. Hada, 
 M. Ehara, K. Toyota, R. Fukuda, J. Hasegawa, M. Ishida, T. Nakajima, 
 Y. Honda, O. Kitao, H. Nakai, T. Vreven, J. A. Montgomery, Jr., 
 J. E. Peralta, F. Ogliaro, M. Bearpark, J. J. Heyd, E. Brothers, 
 K. N. Kudin, V. N. Staroverov, T. Keith, R. Kobayashi, J. Normand, 
 K. Raghavachari, A. Rendell, J. C. Burant, S. S. Iyengar, J. Tomasi, 
 M. Cossi, N. Rega, J. M. Millam, M. Klene, J. E. Knox, J. B. Cross, 
 V. Bakken, C. Adamo, J. Jaramillo, R. Gomperts, R. E. Stratmann, 
 O. Yazyev, A. J. Austin, R. Cammi, C. Pomelli, J. W. Ochterski, 
 R. L. Martin, K. Morokuma, V. G. Zakrzewski, G. A. Voth, 
 P. Salvador, J. J. Dannenberg, S. Dapprich, A. D. Daniels, 
 O. Farkas, J. B. Foresman, J. V. Ortiz, J. Cioslowski, 
 and D. J. Fox, Gaussian, Inc., Wallingford CT, 2013.
 
 ******************************************
 Gaussian 09:  ES64L-G09RevD.01 24-Apr-2013
                27-Aug-2020 
 ******************************************
 %nprocshared=4
 Will use up to    4 processors via shared memory.
 %chk=b3lyp_PM6_2H2O_dienophile_pm6_cpcmtoluene_1.chk
 ----------------------------------------------------------------------
 # opt freq b3lyp/6-31+g(d,p) scrf=(cpcm,solvent=toluene) geom=connecti
 vity empiricaldispersion=gd3
 ----------------------------------------------------------------------
 1/14=-1,18=20,19=15,26=3,38=1,57=2/1,3;
 2/9=110,12=2,17=6,18=5,40=1/2;
 3/5=1,6=6,7=111,11=2,16=1,25=1,30=1,70=2101,71=1,72=13,74=-5,124=31/1,2,3;
 4//1;
 5/5=2,38=5,53=13/2;
 6/7=2,8=2,9=2,10=2,28=1/1;
 7//1,2,3,16;
 1/14=-1,18=20,19=15,26=3/3(2);
 2/9=110/2;
 99//99;
 2/9=110/2;
 3/5=1,6=6,7=111,11=2,16=1,25=1,30=1,70=2105,71=1,72=13,74=-5,124=31/1,2,3;
 4/5=5,16=3,69=1/1;
 5/5=2,38=5,53=13/2;
 7//1,2,3,16;
 1/14=-1,18=20,19=15,26=3/3(-5);
 2/9=110/2;
 6/7=2,8=2,9=2,10=2,19=2,28=1/1;
 99/9=1/99;
 -------------------
 Title Card Required
 -------------------
 Symbolic Z-matrix:
 Charge =  0 Multiplicity = 1
 C                     1.1779   -0.36839   0.02536 
 C                     0.66795   1.0592    0.07632 
 C                    -0.66858   1.0593    0.07635 
 C                    -1.17845  -0.36786   0.02534 
 H                     1.37574   1.88473   0.10473 
 H                    -1.37627   1.88498   0.10488 
 C                     0.00212  -2.65839  -0.04298 
 H                    -1.00989  -3.03716  -0.27502 
 H                     0.69949  -3.02465  -0.81757 
 H                     0.31486  -3.07306   0.93229 
 N                    -0.00054  -1.18567  -0.00701 
 O                    -2.31112  -0.78503   0.00614 
 O                     2.31073  -0.78438   0.00659 
 O                    -3.61343   1.77012   0.00635 
 H                    -4.23578   1.96486  -0.68986 
 H                    -3.61074   0.80685   0.10782 
 O                     3.61305   1.77127   0.00608 
 H                     3.61014   0.80796   0.10722 
 H                     4.23677   1.96621  -0.68888 
 
 Add virtual bond connecting atoms H16        and O12        Dist= 3.89D+00.
 Add virtual bond connecting atoms H18        and O13        Dist= 3.89D+00.

 GradGradGradGradGradGradGradGradGradGradGradGradGradGradGradGradGradGrad
 Berny optimization.
 Initialization pass.
                           ----------------------------
                           !    Initial Parameters    !
                           ! (Angstroms and Degrees)  !
 --------------------------                            --------------------------
 ! Name  Definition              Value          Derivative Info.                !
 --------------------------------------------------------------------------------
 ! R1    R(1,2)                  1.5168         estimate D2E/DX2                !
 ! R2    R(1,11)                 1.4345         estimate D2E/DX2                !
 ! R3    R(1,13)                 1.2069         estimate D2E/DX2                !
 ! R4    R(2,3)                  1.3365         estimate D2E/DX2                !
 ! R5    R(2,5)                  1.0878         estimate D2E/DX2                !
 ! R6    R(3,4)                  1.5164         estimate D2E/DX2                !
 ! R7    R(3,6)                  1.0878         estimate D2E/DX2                !
 ! R8    R(4,11)                 1.4343         estimate D2E/DX2                !
 ! R9    R(4,12)                 1.2072         estimate D2E/DX2                !
 ! R10   R(7,8)                  1.1052         estimate D2E/DX2                !
 ! R11   R(7,9)                  1.1047         estimate D2E/DX2                !
 ! R12   R(7,10)                 1.1049         estimate D2E/DX2                !
 ! R13   R(7,11)                 1.4732         estimate D2E/DX2                !
 ! R14   R(12,16)                2.0575         estimate D2E/DX2                !
 ! R15   R(13,18)                2.0577         estimate D2E/DX2                !
 ! R16   R(14,15)                0.9539         estimate D2E/DX2                !
 ! R17   R(14,16)                0.9686         estimate D2E/DX2                !
 ! R18   R(17,18)                0.9686         estimate D2E/DX2                !
 ! R19   R(17,19)                0.9539         estimate D2E/DX2                !
 ! A1    A(2,1,11)             105.1175         estimate D2E/DX2                !
 ! A2    A(2,1,13)             129.8277         estimate D2E/DX2                !
 ! A3    A(11,1,13)            125.0537         estimate D2E/DX2                !
 ! A4    A(1,2,3)              109.6501         estimate D2E/DX2                !
 ! A5    A(1,2,5)              119.762          estimate D2E/DX2                !
 ! A6    A(3,2,5)              130.5879         estimate D2E/DX2                !
 ! A7    A(2,3,4)              109.644          estimate D2E/DX2                !
 ! A8    A(2,3,6)              130.5871         estimate D2E/DX2                !
 ! A9    A(4,3,6)              119.7688         estimate D2E/DX2                !
 ! A10   A(3,4,11)             105.1442         estimate D2E/DX2                !
 ! A11   A(3,4,12)             129.8855         estimate D2E/DX2                !
 ! A12   A(11,4,12)            124.9691         estimate D2E/DX2                !
 ! A13   A(8,7,9)              108.493          estimate D2E/DX2                !
 ! A14   A(8,7,10)             108.4135         estimate D2E/DX2                !
 ! A15   A(8,7,11)             110.2482         estimate D2E/DX2                !
 ! A16   A(9,7,10)             108.4075         estimate D2E/DX2                !
 ! A17   A(9,7,11)             110.4685         estimate D2E/DX2                !
 ! A18   A(10,7,11)            110.7403         estimate D2E/DX2                !
 ! A19   A(1,11,4)             110.4438         estimate D2E/DX2                !
 ! A20   A(1,11,7)             124.6557         estimate D2E/DX2                !
 ! A21   A(4,11,7)             124.8915         estimate D2E/DX2                !
 ! A22   A(4,12,16)            108.9354         estimate D2E/DX2                !
 ! A23   A(1,13,18)            108.9798         estimate D2E/DX2                !
 ! A24   A(15,14,16)           106.3379         estimate D2E/DX2                !
 ! A25   A(12,16,14)           139.9959         estimate D2E/DX2                !
 ! A26   A(18,17,19)           106.3363         estimate D2E/DX2                !
 ! A27   A(13,18,17)           140.0313         estimate D2E/DX2                !
 ! D1    D(11,1,2,3)             0.1331         estimate D2E/DX2                !
 ! D2    D(11,1,2,5)          -179.8037         estimate D2E/DX2                !
 ! D3    D(13,1,2,3)           179.7594         estimate D2E/DX2                !
 ! D4    D(13,1,2,5)            -0.1775         estimate D2E/DX2                !
 ! D5    D(2,1,11,4)            -0.2163         estimate D2E/DX2                !
 ! D6    D(2,1,11,7)          -179.1614         estimate D2E/DX2                !
 ! D7    D(13,1,11,4)         -179.8656         estimate D2E/DX2                !
 ! D8    D(13,1,11,7)            1.1892         estimate D2E/DX2                !
 ! D9    D(2,1,13,18)            1.5072         estimate D2E/DX2                !
 ! D10   D(11,1,13,18)        -178.9336         estimate D2E/DX2                !
 ! D11   D(1,2,3,4)             -0.0033         estimate D2E/DX2                !
 ! D12   D(1,2,3,6)           -179.9338         estimate D2E/DX2                !
 ! D13   D(5,2,3,4)            179.9245         estimate D2E/DX2                !
 ! D14   D(5,2,3,6)             -0.006          estimate D2E/DX2                !
 ! D15   D(2,3,4,11)            -0.1278         estimate D2E/DX2                !
 ! D16   D(2,3,4,12)          -179.7341         estimate D2E/DX2                !
 ! D17   D(6,3,4,11)           179.8114         estimate D2E/DX2                !
 ! D18   D(6,3,4,12)             0.2051         estimate D2E/DX2                !
 ! D19   D(3,4,11,1)             0.2145         estimate D2E/DX2                !
 ! D20   D(3,4,11,7)           179.1566         estimate D2E/DX2                !
 ! D21   D(12,4,11,1)          179.8459         estimate D2E/DX2                !
 ! D22   D(12,4,11,7)           -1.212          estimate D2E/DX2                !
 ! D23   D(3,4,12,16)           -1.5572         estimate D2E/DX2                !
 ! D24   D(11,4,12,16)         178.9066         estimate D2E/DX2                !
 ! D25   D(8,7,11,1)          -168.1987         estimate D2E/DX2                !
 ! D26   D(8,7,11,4)            13.0064         estimate D2E/DX2                !
 ! D27   D(9,7,11,1)           -48.2944         estimate D2E/DX2                !
 ! D28   D(9,7,11,4)           132.9107         estimate D2E/DX2                !
 ! D29   D(10,7,11,1)           71.8215         estimate D2E/DX2                !
 ! D30   D(10,7,11,4)         -106.9734         estimate D2E/DX2                !
 ! D31   D(4,12,16,14)          14.7715         estimate D2E/DX2                !
 ! D32   D(1,13,18,17)         -14.6859         estimate D2E/DX2                !
 ! D33   D(15,14,16,12)        121.0849         estimate D2E/DX2                !
 ! D34   D(19,17,18,13)       -121.2553         estimate D2E/DX2                !
 --------------------------------------------------------------------------------
 Trust Radius=3.00D-01 FncErr=1.00D-07 GrdErr=1.00D-06
 Number of steps in this run=     90 maximum allowed number of steps=    114.
 GradGradGradGradGradGradGradGradGradGradGradGradGradGradGradGradGradGrad

                          Input orientation:                          
 ---------------------------------------------------------------------
 Center     Atomic      Atomic             Coordinates (Angstroms)
 Number     Number       Type             X           Y           Z
 ---------------------------------------------------------------------
      1          6           0        1.177905   -0.368385    0.025356
      2          6           0        0.667953    1.059201    0.076320
      3          6           0       -0.668583    1.059299    0.076348
      4          6           0       -1.178453   -0.367862    0.025335
      5          1           0        1.375738    1.884729    0.104731
      6          1           0       -1.376271    1.884980    0.104877
      7          6           0        0.002117   -2.658390   -0.042979
      8          1           0       -1.009894   -3.037160   -0.275022
      9          1           0        0.699487   -3.024654   -0.817571
     10          1           0        0.314859   -3.073056    0.932285
     11          7           0       -0.000539   -1.185672   -0.007014
     12          8           0       -2.311122   -0.785026    0.006140
     13          8           0        2.310726   -0.784376    0.006592
     14          8           0       -3.613427    1.770115    0.006345
     15          1           0       -4.235777    1.964858   -0.689857
     16          1           0       -3.610739    0.806845    0.107821
     17          8           0        3.613050    1.771265    0.006075
     18          1           0        3.610142    0.807955    0.107219
     19          1           0        4.236771    1.966208   -0.688881
 ---------------------------------------------------------------------
                    Distance matrix (angstroms):
                    1          2          3          4          5
     1  C    0.000000
     2  C    1.516789   0.000000
     3  C    2.334609   1.336536   0.000000
     4  C    2.356358   2.334164   1.516363   0.000000
     5  H    2.263175   1.087779   2.204856   3.406518   0.000000
     6  H    3.407021   2.204899   1.087835   2.262909   2.752009
     7  C    2.575125   3.778631   3.779588   2.577776   4.748535
     8  H    3.463965   4.440584   4.125643   2.691427   5.482741
     9  H    2.827574   4.180659   4.398793   3.360907   5.040833
    10  H    2.980371   4.234725   4.333145   3.220344   5.137114
    11  N    1.434481   2.343775   2.343742   1.434343   3.366599
    12  O    3.513868   3.504424   2.470708   1.207201   4.553048
    13  O    1.206932   2.470292   3.504324   3.514001   2.829833
    14  O    5.246943   4.340566   3.030225   3.240433   4.991451
    15  H    5.938308   5.045177   3.759253   3.911561   5.668059
    16  H    4.931438   4.286243   2.953135   2.702361   5.101646
    17  O    3.241667   3.030770   4.340992   5.247355   2.242359
    18  H    2.703008   2.953059   4.286212   4.931520   2.480325
    19  H    3.913709   3.760938   5.046836   5.939919   2.970180
                    6          7          8          9         10
     6  H    0.000000
     7  C    4.750161   0.000000
     8  H    4.950355   1.105204   0.000000
     9  H    5.409638   1.104747   1.793460   0.000000
    10  H    5.303456   1.104941   1.792721   1.792283   0.000000
    11  N    3.366610   1.473159   2.125708   2.128120   2.131661
    12  O    2.830658   2.977076   2.616172   3.841640   3.603970
    13  O    4.552919   2.973897   4.022544   2.879962   3.174657
    14  O    2.242269   5.717189   5.474253   6.501529   6.304372
    15  H    2.968966   6.304968   5.966456   7.019143   6.979986
    16  H    2.480974   5.008325   4.656967   5.840786   5.580653
    17  O    4.991595   5.715163   6.676195   5.671691   5.933243
    18  H    5.101402   5.005592   6.022935   4.900616   5.157700
    19  H    5.669470   6.303681   7.261712   6.118631   6.588153
                   11         12         13         14         15
    11  N    0.000000
    12  O    2.345098   0.000000
    13  O    2.345884   4.621848   0.000000
    14  O    4.667956   2.867881   6.451435   0.000000
    15  H    5.322533   3.427911   7.134426   0.953909   0.000000
    16  H    4.125149   2.057522   6.132371   0.968604   1.538817
    17  O    4.669226   6.452165   2.868336   7.226477   7.881998
    18  H    4.126090   6.132632   2.057699   7.288064   7.970709
    19  H    5.324856   7.136333   3.429146   7.883362   8.472548
                   16         17         18         19
    16  H    0.000000
    17  O    7.288593   0.000000
    18  H    7.220881   0.968610   0.000000
    19  H    7.972595   0.953936   1.538827   0.000000
 Stoichiometry    C5H9NO4
 Framework group  C1[X(C5H9NO4)]
 Deg. of freedom    51
 Full point group                 C1      NOp   1
 Largest Abelian subgroup         C1      NOp   1
 Largest concise Abelian subgroup C1      NOp   1
                         Standard orientation:                         
 ---------------------------------------------------------------------
 Center     Atomic      Atomic             Coordinates (Angstroms)
 Number     Number       Type             X           Y           Z
 ---------------------------------------------------------------------
      1          6           0        1.177905    0.368385   -0.025356
      2          6           0        0.667953   -1.059201   -0.076320
      3          6           0       -0.668583   -1.059299   -0.076348
      4          6           0       -1.178453    0.367862   -0.025335
      5          1           0        1.375738   -1.884729   -0.104731
      6          1           0       -1.376271   -1.884980   -0.104877
      7          6           0        0.002117    2.658390    0.042979
      8          1           0       -1.009894    3.037160    0.275022
      9          1           0        0.699487    3.024654    0.817571
     10          1           0        0.314859    3.073056   -0.932285
     11          7           0       -0.000539    1.185672    0.007014
     12          8           0       -2.311122    0.785026   -0.006140
     13          8           0        2.310726    0.784376   -0.006592
     14          8           0       -3.613427   -1.770115   -0.006345
     15          1           0       -4.235777   -1.964858    0.689857
     16          1           0       -3.610739   -0.806845   -0.107821
     17          8           0        3.613050   -1.771265   -0.006075
     18          1           0        3.610142   -0.807955   -0.107219
     19          1           0        4.236771   -1.966208    0.688881
 ---------------------------------------------------------------------
 Rotational constants (GHZ):      1.6747415      0.7186951      0.5056969
 Standard basis: 6-31+G(d,p) (6D, 7F)
 There are   235 symmetry adapted cartesian basis functions of A   symmetry.
 There are   235 symmetry adapted basis functions of A   symmetry.
   235 basis functions,   383 primitive gaussians,   235 cartesian basis functions
    39 alpha electrons       39 beta electrons
       nuclear repulsion energy       525.1402749002 Hartrees.
 NAtoms=   19 NActive=   19 NUniq=   19 SFac= 1.00D+00 NAtFMM=   60 NAOKFM=F Big=F
 Integral buffers will be    131072 words long.
 Raffenetti 2 integral format.
 Two-electron integral symmetry is turned on.
 Nuclear repulsion after empirical dispersion term =      525.1258701077 Hartrees.
 ------------------------------------------------------------------------------
 Polarizable Continuum Model (PCM)
 =================================
 Model                : C-PCM.
 Atomic radii         : UFF (Universal Force Field).
 Polarization charges : Total charges.
 Charge compensation  : None.
 Solution method      : On-the-fly selection.
 Cavity type          : Scaled VdW (van der Waals Surface) (Alpha=1.100).
 Cavity algorithm     : GePol (No added spheres)
                        Default sphere list used, NSphG=   19.
                        Lebedev-Laikov grids with approx.  5.0 points / Ang**2.
                        Smoothing algorithm: Karplus/York (Gamma=1.0000).
                        Polarization charges: spherical gaussians, with
                                              point-specific exponents (IZeta= 3).
                        Self-potential: point-specific (ISelfS= 7).
                        Self-field    : sphere-specific E.n sum rule (ISelfD= 2).
 1st derivatives      : Analytical E(r).r(x)/FMM algorithm (CHGder, D1EAlg=3).
                        Cavity 1st derivative terms included.
 Solvent              : Toluene, Eps=   2.374100 Eps(inf)=   2.238315
 ------------------------------------------------------------------------------
 Spheres list:
 ISph  on   Nord     Re0    Alpha      Xe            Ye            Ze
    1   C      1    1.9255  1.100      1.177905      0.368385     -0.025356
    2   C      2    1.9255  1.100      0.667953     -1.059201     -0.076320
    3   C      3    1.9255  1.100     -0.668583     -1.059299     -0.076348
    4   C      4    1.9255  1.100     -1.178453      0.367862     -0.025335
    5   H      5    1.4430  1.100      1.375738     -1.884729     -0.104731
    6   H      6    1.4430  1.100     -1.376271     -1.884980     -0.104877
    7   C      7    1.9255  1.100      0.002117      2.658390      0.042979
    8   H      8    1.4430  1.100     -1.009894      3.037160      0.275022
    9   H      9    1.4430  1.100      0.699487      3.024654      0.817571
   10   H     10    1.4430  1.100      0.314859      3.073056     -0.932285
   11   N     11    1.8300  1.100     -0.000539      1.185672      0.007014
   12   O     12    1.7500  1.100     -2.311122      0.785026     -0.006140
   13   O     13    1.7500  1.100      2.310726      0.784376     -0.006592
   14   O     14    1.7500  1.100     -3.613427     -1.770115     -0.006345
   15   H     15    1.4430  1.100     -4.235777     -1.964858      0.689857
   16   H     16    1.4430  1.100     -3.610739     -0.806845     -0.107821
   17   O     17    1.7500  1.100      3.613050     -1.771265     -0.006075
   18   H     18    1.4430  1.100      3.610142     -0.807955     -0.107219
   19   H     19    1.4430  1.100      4.236771     -1.966208      0.688881
 ------------------------------------------------------------------------------
 One-electron integrals computed using PRISM.
 NBasis=   235 RedAO= T EigKep=  8.64D-06  NBF=   235
 NBsUse=   235 1.00D-06 EigRej= -1.00D+00 NBFU=   235
 ExpMin= 4.38D-02 ExpMax= 5.48D+03 ExpMxC= 8.25D+02 IAcc=2 IRadAn=         4 AccDes= 0.00D+00
 Harris functional with IExCor=  402 and IRadAn=       4 diagonalized for initial guess.
 HarFok:  IExCor=  402 AccDes= 0.00D+00 IRadAn=         4 IDoV= 1 UseB2=F ITyADJ=14
 ICtDFT=  3500011 ScaDFX=  1.000000  1.000000  1.000000  1.000000
 FoFCou: FMM=F IPFlag=           0 FMFlag=      100000 FMFlg1=           0
         NFxFlg=           0 DoJE=T BraDBF=F KetDBF=T FulRan=T
         wScrn=  0.000000 ICntrl=     500 IOpCl=  0 I1Cent=   200000004 NGrid=           0
         NMat0=    1 NMatS0=      1 NMatT0=    0 NMatD0=    1 NMtDS0=    0 NMtDT0=    0
 Petite list used in FoFCou.
 Requested convergence on RMS density matrix=1.00D-08 within 128 cycles.
 Requested convergence on MAX density matrix=1.00D-06.
 Requested convergence on             energy=1.00D-06.
 No special actions if energy rises.
 Inv3:  Mode=1 IEnd=     8999472.
 Iteration    1 A*A^-1 deviation from unit magnitude is 6.99D-15 for   1720.
 Iteration    1 A*A^-1 deviation from orthogonality  is 2.08D-15 for   1584    112.
 Iteration    1 A^-1*A deviation from unit magnitude is 6.99D-15 for   1720.
 Iteration    1 A^-1*A deviation from orthogonality  is 1.74D-15 for   1293   1237.
 Error on total polarization charges =  0.00869
 SCF Done:  E(RB3LYP) =  -551.672746597     A.U. after   13 cycles
            NFock= 13  Conv=0.34D-08     -V/T= 2.0096

 **********************************************************************

            Population analysis using the SCF density.

 **********************************************************************

 Orbital symmetries:
       Occupied  (A) (A) (A) (A) (A) (A) (A) (A) (A) (A) (A) (A)
                 (A) (A) (A) (A) (A) (A) (A) (A) (A) (A) (A) (A)
                 (A) (A) (A) (A) (A) (A) (A) (A) (A) (A) (A) (A)
                 (A) (A) (A)
       Virtual   (A) (A) (A) (A) (A) (A) (A) (A) (A) (A) (A) (A)
                 (A) (A) (A) (A) (A) (A) (A) (A) (A) (A) (A) (A)
                 (A) (A) (A) (A) (A) (A) (A) (A) (A) (A) (A) (A)
                 (A) (A) (A) (A) (A) (A) (A) (A) (A) (A) (A) (A)
                 (A) (A) (A) (A) (A) (A) (A) (A) (A) (A) (A) (A)
                 (A) (A) (A) (A) (A) (A) (A) (A) (A) (A) (A) (A)
                 (A) (A) (A) (A) (A) (A) (A) (A) (A) (A) (A) (A)
                 (A) (A) (A) (A) (A) (A) (A) (A) (A) (A) (A) (A)
                 (A) (A) (A) (A) (A) (A) (A) (A) (A) (A) (A) (A)
                 (A) (A) (A) (A) (A) (A) (A) (A) (A) (A) (A) (A)
                 (A) (A) (A) (A) (A) (A) (A) (A) (A) (A) (A) (A)
                 (A) (A) (A) (A) (A) (A) (A) (A) (A) (A) (A) (A)
                 (A) (A) (A) (A) (A) (A) (A) (A) (A) (A) (A) (A)
                 (A) (A) (A) (A) (A) (A) (A) (A) (A) (A) (A) (A)
                 (A) (A) (A) (A) (A) (A) (A) (A) (A) (A) (A) (A)
                 (A) (A) (A) (A) (A) (A) (A) (A) (A) (A) (A) (A)
                 (A) (A) (A) (A)
 The electronic state is 1-A.
 Alpha  occ. eigenvalues --  -19.18365 -19.18337 -19.15935 -19.15935 -14.40082
 Alpha  occ. eigenvalues --  -10.33687 -10.33658 -10.23998 -10.23275 -10.23188
 Alpha  occ. eigenvalues --   -1.09918  -1.08831  -1.01622  -1.01613  -0.96689
 Alpha  occ. eigenvalues --   -0.83430  -0.71714  -0.68770  -0.61177  -0.56802
 Alpha  occ. eigenvalues --   -0.54099  -0.53649  -0.51788  -0.49317  -0.48378
 Alpha  occ. eigenvalues --   -0.46442  -0.45821  -0.44461  -0.42677  -0.42457
 Alpha  occ. eigenvalues --   -0.41060  -0.39143  -0.38682  -0.32624  -0.32171
 Alpha  occ. eigenvalues --   -0.32036  -0.31658  -0.29099  -0.28320
 Alpha virt. eigenvalues --   -0.10904  -0.00054   0.01251   0.01678   0.02854
 Alpha virt. eigenvalues --    0.04178   0.04279   0.04405   0.04710   0.05063
 Alpha virt. eigenvalues --    0.07735   0.08209   0.08461   0.08991   0.09640
 Alpha virt. eigenvalues --    0.10940   0.11391   0.12840   0.13810   0.14224
 Alpha virt. eigenvalues --    0.15157   0.16304   0.16359   0.16985   0.17495
 Alpha virt. eigenvalues --    0.17821   0.18855   0.19310   0.19980   0.20313
 Alpha virt. eigenvalues --    0.21285   0.21494   0.21760   0.22030   0.23880
 Alpha virt. eigenvalues --    0.24720   0.24790   0.25288   0.26119   0.26413
 Alpha virt. eigenvalues --    0.26964   0.27272   0.28487   0.28809   0.29573
 Alpha virt. eigenvalues --    0.29788   0.30599   0.33332   0.34370   0.35193
 Alpha virt. eigenvalues --    0.37503   0.37731   0.39550   0.39835   0.41993
 Alpha virt. eigenvalues --    0.42960   0.43492   0.47471   0.48144   0.57528
 Alpha virt. eigenvalues --    0.63229   0.64407   0.66824   0.69923   0.71085
 Alpha virt. eigenvalues --    0.72350   0.73280   0.75882   0.77449   0.78564
 Alpha virt. eigenvalues --    0.82911   0.84350   0.90284   0.90427   0.93552
 Alpha virt. eigenvalues --    0.94594   0.95675   0.97341   0.98695   1.00995
 Alpha virt. eigenvalues --    1.02153   1.07017   1.09270   1.10137   1.11002
 Alpha virt. eigenvalues --    1.11674   1.14264   1.16119   1.16577   1.17392
 Alpha virt. eigenvalues --    1.19344   1.20304   1.20483   1.21660   1.21995
 Alpha virt. eigenvalues --    1.23772   1.25071   1.26333   1.28798   1.29980
 Alpha virt. eigenvalues --    1.30462   1.32361   1.33424   1.36445   1.36483
 Alpha virt. eigenvalues --    1.39296   1.41138   1.43925   1.48278   1.50057
 Alpha virt. eigenvalues --    1.53410   1.56214   1.56568   1.59211   1.59890
 Alpha virt. eigenvalues --    1.62818   1.65205   1.66163   1.68078   1.70053
 Alpha virt. eigenvalues --    1.72934   1.73890   1.75033   1.75827   1.76617
 Alpha virt. eigenvalues --    1.86191   1.89740   1.91767   1.92542   1.93574
 Alpha virt. eigenvalues --    1.94733   1.98670   2.00026   2.05191   2.05707
 Alpha virt. eigenvalues --    2.06860   2.08780   2.11243   2.15007   2.16088
 Alpha virt. eigenvalues --    2.23237   2.25757   2.27556   2.27935   2.28359
 Alpha virt. eigenvalues --    2.34279   2.36189   2.36946   2.38242   2.41559
 Alpha virt. eigenvalues --    2.46139   2.47619   2.50197   2.50920   2.51205
 Alpha virt. eigenvalues --    2.55469   2.56391   2.63356   2.66108   2.66133
 Alpha virt. eigenvalues --    2.66166   2.67980   2.69578   2.70592   2.73582
 Alpha virt. eigenvalues --    2.74468   2.79735   2.83519   2.85235   2.94871
 Alpha virt. eigenvalues --    3.01484   3.02898   3.05802   3.06595   3.18709
 Alpha virt. eigenvalues --    3.23853   3.25793   3.29549   3.29795   3.39569
 Alpha virt. eigenvalues --    3.41912   3.43622   3.44473   3.60061   3.62115
 Alpha virt. eigenvalues --    3.70686   4.13391   4.20796   4.24021   4.27988
 Alpha virt. eigenvalues --    4.32841   4.45560   4.53959   4.63690   4.66041
 Alpha virt. eigenvalues --    5.01138
          Condensed to atoms (all electrons):
               1          2          3          4          5          6
     1  C    6.050470  -0.205077   0.159167  -0.804505  -0.035958   0.005565
     2  C   -0.205077   9.036206  -2.913878   0.175837   0.284070   0.077820
     3  C    0.159167  -2.913878   9.189435  -0.279005   0.080134   0.288183
     4  C   -0.804505   0.175837  -0.279005   6.084574   0.003837  -0.039456
     5  H   -0.035958   0.284070   0.080134   0.003837   0.477974  -0.002064
     6  H    0.005565   0.077820   0.288183  -0.039456  -0.002064   0.478325
     7  C   -0.115438  -0.021324  -0.059284  -0.068989  -0.000608  -0.000753
     8  H    0.000373  -0.005135   0.001194  -0.003645   0.000002  -0.000002
     9  H   -0.000681   0.002982  -0.000839   0.002032  -0.000001   0.000001
    10  H   -0.001112   0.001918   0.000257  -0.000252   0.000000   0.000001
    11  N    0.237232  -0.289067  -0.329774   0.251248   0.009929   0.010006
    12  O    0.101711  -0.107415   0.033147   0.234436  -0.000429  -0.005699
    13  O    0.237587   0.021259  -0.109766   0.097613  -0.005434  -0.000401
    14  O    0.007099   0.101599   0.009522  -0.109423   0.000095  -0.024798
    15  H   -0.000823   0.003488  -0.004780   0.006031   0.000000   0.000561
    16  H   -0.002453  -0.020473  -0.029616   0.052496  -0.000002   0.000640
    17  O   -0.106074  -0.002184   0.109061   0.007883  -0.024926   0.000098
    18  H    0.053731  -0.029906  -0.021109  -0.002509   0.000663  -0.000002
    19  H    0.006300  -0.004602   0.003060  -0.000839   0.000572   0.000000
               7          8          9         10         11         12
     1  C   -0.115438   0.000373  -0.000681  -0.001112   0.237232   0.101711
     2  C   -0.021324  -0.005135   0.002982   0.001918  -0.289067  -0.107415
     3  C   -0.059284   0.001194  -0.000839   0.000257  -0.329774   0.033147
     4  C   -0.068989  -0.003645   0.002032  -0.000252   0.251248   0.234436
     5  H   -0.000608   0.000002  -0.000001   0.000000   0.009929  -0.000429
     6  H   -0.000753  -0.000002   0.000001   0.000001   0.010006  -0.005699
     7  C    5.141876   0.414110   0.397686   0.400979   0.217429  -0.032483
     8  H    0.414110   0.501992  -0.023771  -0.026622  -0.045209   0.006434
     9  H    0.397686  -0.023771   0.521622  -0.031365  -0.043100   0.000108
    10  H    0.400979  -0.026622  -0.031365   0.530426  -0.045629   0.000445
    11  N    0.217429  -0.045209  -0.043100  -0.045629   7.380794  -0.082368
    12  O   -0.032483   0.006434   0.000108   0.000445  -0.082368   8.418731
    13  O   -0.011632  -0.000056   0.003251   0.001510  -0.077836  -0.001966
    14  O   -0.000754   0.000014   0.000000  -0.000002  -0.005229  -0.015875
    15  H    0.000019   0.000000   0.000000   0.000000   0.000179  -0.000167
    16  H    0.000751  -0.000004   0.000000   0.000000   0.002493   0.012046
    17  O    0.000120  -0.000001   0.000001  -0.000003  -0.004603   0.000042
    18  H    0.000656   0.000000  -0.000001   0.000001   0.002369   0.000004
    19  H    0.000002   0.000000   0.000000   0.000000   0.000149   0.000000
              13         14         15         16         17         18
     1  C    0.237587   0.007099  -0.000823  -0.002453  -0.106074   0.053731
     2  C    0.021259   0.101599   0.003488  -0.020473  -0.002184  -0.029906
     3  C   -0.109766   0.009522  -0.004780  -0.029616   0.109061  -0.021109
     4  C    0.097613  -0.109423   0.006031   0.052496   0.007883  -0.002509
     5  H   -0.005434   0.000095   0.000000  -0.000002  -0.024926   0.000663
     6  H   -0.000401  -0.024798   0.000561   0.000640   0.000098  -0.000002
     7  C   -0.011632  -0.000754   0.000019   0.000751   0.000120   0.000656
     8  H   -0.000056   0.000014   0.000000  -0.000004  -0.000001   0.000000
     9  H    0.003251   0.000000   0.000000   0.000000   0.000001  -0.000001
    10  H    0.001510  -0.000002   0.000000   0.000000  -0.000003   0.000001
    11  N   -0.077836  -0.005229   0.000179   0.002493  -0.004603   0.002369
    12  O   -0.001966  -0.015875  -0.000167   0.012046   0.000042   0.000004
    13  O    8.404788   0.000030   0.000000   0.000004  -0.015690   0.012382
    14  O    0.000030   8.222396   0.279140   0.274641   0.000018   0.000000
    15  H    0.000000   0.279140   0.362763  -0.017613   0.000000   0.000000
    16  H    0.000004   0.274641  -0.017613   0.336445   0.000000   0.000000
    17  O   -0.015690   0.000018   0.000000   0.000000   8.219930   0.274289
    18  H    0.012382   0.000000   0.000000   0.000000   0.274289   0.336911
    19  H   -0.000237   0.000000   0.000000   0.000000   0.279337  -0.017541
              19
     1  C    0.006300
     2  C   -0.004602
     3  C    0.003060
     4  C   -0.000839
     5  H    0.000572
     6  H    0.000000
     7  C    0.000002
     8  H    0.000000
     9  H    0.000000
    10  H    0.000000
    11  N    0.000149
    12  O    0.000000
    13  O   -0.000237
    14  O    0.000000
    15  H    0.000000
    16  H    0.000000
    17  O    0.279337
    18  H   -0.017541
    19  H    0.362711
 Mulliken charges:
               1
     1  C    0.412885
     2  C   -0.106118
     3  C   -0.125111
     4  C    0.392636
     5  H    0.212146
     6  H    0.211974
     7  C   -0.262363
     8  H    0.180326
     9  H    0.172073
    10  H    0.169448
    11  N   -0.189013
    12  O   -0.560701
    13  O   -0.555409
    14  O   -0.738474
    15  H    0.371202
    16  H    0.390643
    17  O   -0.737297
    18  H    0.390064
    19  H    0.371088
 Sum of Mulliken charges =   0.00000
 Mulliken charges with hydrogens summed into heavy atoms:
               1
     1  C    0.412885
     2  C    0.106028
     3  C    0.086864
     4  C    0.392636
     7  C    0.259484
    11  N   -0.189013
    12  O   -0.560701
    13  O   -0.555409
    14  O    0.023371
    17  O    0.023855
 Electronic spatial extent (au):  <R**2>=           2123.5519
 Charge=              0.0000 electrons
 Dipole moment (field-independent basis, Debye):
    X=             -0.0377    Y=              1.5008    Z=              2.3027  Tot=              2.7489
 Quadrupole moment (field-independent basis, Debye-Ang):
   XX=            -59.9625   YY=            -58.7747   ZZ=            -58.7175
   XY=             -0.1936   XZ=             -0.0068   YZ=             -5.3128
 Traceless Quadrupole moment (field-independent basis, Debye-Ang):
   XX=             -0.8109   YY=              0.3769   ZZ=              0.4340
   XY=             -0.1936   XZ=             -0.0068   YZ=             -5.3128
 Octapole moment (field-independent basis, Debye-Ang**2):
  XXX=             -0.4418  YYY=             20.4836  ZZZ=              2.9397  XYY=             -0.6549
  XXY=            -16.1893  XXZ=             51.4084  XZZ=              0.5148  YZZ=             -0.8842
  YYZ=             13.2343  XYZ=             -0.0148
 Hexadecapole moment (field-independent basis, Debye-Ang**3):
 XXXX=          -1335.0627 YYYY=           -791.7049 ZZZZ=            -69.6910 XXXY=             -2.6441
 XXXZ=             -0.1049 YYYX=             -2.4194 YYYZ=            -27.3398 ZZZX=              0.0872
 ZZZY=             -8.1932 XXYY=           -446.4199 XXZZ=           -267.8511 YYZZ=           -146.9044
 XXYZ=           -111.4065 YYXZ=             -0.1394 ZZXY=              1.6729
 N-N= 5.251258701077D+02 E-N=-2.340556328529D+03  KE= 5.464332943144D+02
 D1PCM: C-PCM CHGder 1st derivatives, ID1Alg=3 FixD1E=F DoIter=F DoCFld=F I1PDM=0.
 Calling FoFJK, ICntrl=      2127 FMM=F ISym2X=0 I1Cent= 0 IOpClX= 0 NMat=1 NMatS=1 NMatT=0.
 ***** Axes restored to original set *****
 -------------------------------------------------------------------
 Center     Atomic                   Forces (Hartrees/Bohr)
 Number     Number              X              Y              Z
 -------------------------------------------------------------------
      1        6          -0.048877742   -0.001431527   -0.000674334
      2        6           0.007730671   -0.002996993    0.000601212
      3        6          -0.007843061   -0.002807446    0.000605462
      4        6           0.047587001   -0.001777564   -0.000708238
      5        1          -0.004091422   -0.002129618   -0.000347819
      6        1           0.004099339   -0.002193824   -0.000354199
      7        6           0.001547673   -0.001421955    0.000409846
      8        1           0.006899460    0.008007952    0.001872026
      9        1          -0.004173172    0.005042819    0.005063951
     10        1          -0.001697156    0.003665224   -0.005638919
     11        7          -0.001320864    0.006643594   -0.000898781
     12        8          -0.016162309   -0.005550932    0.000880567
     13        8           0.016320639   -0.006544780    0.000854051
     14        8           0.003600371    0.002366392    0.009020449
     15        1          -0.008276140    0.002212085   -0.008194866
     16        1           0.002408563   -0.002821052   -0.001659589
     17        8          -0.003623653    0.002359615    0.008976743
     18        1          -0.002403342   -0.002834618   -0.001648084
     19        1           0.008275143    0.002212628   -0.008159478
 -------------------------------------------------------------------
 Cartesian Forces:  Max     0.048877742 RMS     0.010463237

 GradGradGradGradGradGradGradGradGradGradGradGradGradGradGradGradGradGrad
 Berny optimization.
 FormGI is forming the generalized inverse of G from B-inverse, IUseBI=4.
 Internal  Forces:  Max     0.025297805 RMS     0.006707717
 Search for a local minimum.
 Step number   1 out of a maximum of   90
 All quantities printed in internal units (Hartrees-Bohrs-Radians)
 Mixed Optimization -- RFO/linear search
 Second derivative matrix not updated -- first step.
 ITU=  0
     Eigenvalues ---    0.00230   0.00230   0.00724   0.00869   0.01102
     Eigenvalues ---    0.01147   0.01444   0.01444   0.01632   0.01804
     Eigenvalues ---    0.01839   0.02264   0.03920   0.03922   0.04242
     Eigenvalues ---    0.04246   0.07290   0.07338   0.16000   0.16000
     Eigenvalues ---    0.16000   0.16000   0.16000   0.16000   0.16000
     Eigenvalues ---    0.16000   0.16000   0.22683   0.24788   0.24993
     Eigenvalues ---    0.24999   0.24999   0.25000   0.25000   0.29622
     Eigenvalues ---    0.30503   0.33113   0.33142   0.33163   0.35064
     Eigenvalues ---    0.35071   0.35365   0.38161   0.39525   0.53662
     Eigenvalues ---    0.53663   0.55425   0.56798   0.56805   1.01287
     Eigenvalues ---    1.01416
 RFO step:  Lambda=-9.97749048D-03 EMin= 2.30000000D-03
 Linear search not attempted -- first point.
 Iteration  1 RMS(Cart)=  0.14222102 RMS(Int)=  0.00381670
 Iteration  2 RMS(Cart)=  0.01487481 RMS(Int)=  0.00008877
 Iteration  3 RMS(Cart)=  0.00010539 RMS(Int)=  0.00007603
 Iteration  4 RMS(Cart)=  0.00000001 RMS(Int)=  0.00007603
 Variable       Old X    -DE/DX   Delta X   Delta X   Delta X     New X
                                 (Linear)    (Quad)   (Total)
    R1        2.86632  -0.00730   0.00000  -0.02175  -0.02175   2.84457
    R2        2.71078  -0.02530   0.00000  -0.06378  -0.06376   2.64702
    R3        2.28077   0.01909   0.00000   0.01864   0.01864   2.29941
    R4        2.52569  -0.00376   0.00000  -0.00419  -0.00422   2.52147
    R5        2.05560  -0.00429   0.00000  -0.01189  -0.01189   2.04372
    R6        2.86551  -0.00723   0.00000  -0.02135  -0.02136   2.84415
    R7        2.05571  -0.00434   0.00000  -0.01204  -0.01204   2.04367
    R8        2.71052  -0.02382   0.00000  -0.06011  -0.06009   2.65043
    R9        2.28128   0.01860   0.00000   0.01819   0.01819   2.29946
   R10        2.08853  -0.00946   0.00000  -0.02772  -0.02772   2.06081
   R11        2.08767  -0.00786   0.00000  -0.02300  -0.02300   2.06467
   R12        2.08804  -0.00683   0.00000  -0.02001  -0.02001   2.06802
   R13        2.78387  -0.01533   0.00000  -0.04215  -0.04215   2.74172
   R14        3.88815   0.00275   0.00000   0.05592   0.05592   3.94408
   R15        3.88849   0.00272   0.00000   0.05536   0.05536   3.94385
   R16        1.80263   0.01183   0.00000   0.02047   0.02047   1.82310
   R17        1.83040   0.00448   0.00000   0.00820   0.00820   1.83859
   R18        1.83041   0.00448   0.00000   0.00819   0.00819   1.83859
   R19        1.80268   0.01181   0.00000   0.02043   0.02043   1.82311
    A1        1.83465   0.00554   0.00000   0.01938   0.01940   1.85405
    A2        2.26592   0.00076   0.00000   0.00392   0.00390   2.26982
    A3        2.18260  -0.00630   0.00000  -0.02327  -0.02328   2.15931
    A4        1.91375  -0.00568   0.00000  -0.01674  -0.01676   1.89700
    A5        2.09024   0.00460   0.00000   0.01873   0.01873   2.10897
    A6        2.27919   0.00108   0.00000  -0.00200  -0.00199   2.27720
    A7        1.91365  -0.00567   0.00000  -0.01650  -0.01653   1.89712
    A8        2.27917   0.00111   0.00000  -0.00191  -0.00190   2.27728
    A9        2.09036   0.00456   0.00000   0.01840   0.01841   2.10877
   A10        1.83511   0.00514   0.00000   0.01815   0.01815   1.85326
   A11        2.26693  -0.00006   0.00000   0.00057   0.00056   2.26749
   A12        2.18112  -0.00507   0.00000  -0.01868  -0.01869   2.16243
   A13        1.89356   0.00406   0.00000   0.02079   0.02036   1.91392
   A14        1.89217   0.00325   0.00000   0.01819   0.01809   1.91027
   A15        1.92419  -0.00682   0.00000  -0.04222  -0.04248   1.88171
   A16        1.89207   0.00193   0.00000   0.01538   0.01538   1.90744
   A17        1.92804  -0.00230   0.00000  -0.01305  -0.01326   1.91478
   A18        1.93278   0.00020   0.00000   0.00280   0.00275   1.93553
   A19        1.92761   0.00068   0.00000  -0.00429  -0.00425   1.92336
   A20        2.17565  -0.00107   0.00000  -0.00068  -0.00070   2.17496
   A21        2.17977   0.00039   0.00000   0.00494   0.00492   2.18469
   A22        1.90128   0.01143   0.00000   0.06724   0.06724   1.96852
   A23        1.90206   0.01138   0.00000   0.06697   0.06697   1.96903
   A24        1.85595  -0.00046   0.00000  -0.00273  -0.00273   1.85322
   A25        2.44339   0.00938   0.00000   0.03608   0.03608   2.47947
   A26        1.85592  -0.00046   0.00000  -0.00270  -0.00270   1.85322
   A27        2.44401   0.00933   0.00000   0.03588   0.03588   2.47989
    D1        0.00232  -0.00005   0.00000  -0.00098  -0.00099   0.00134
    D2       -3.13817   0.00009   0.00000   0.00426   0.00427  -3.13390
    D3        3.13739   0.00010   0.00000   0.00532   0.00539  -3.14041
    D4       -0.00310   0.00024   0.00000   0.01057   0.01064   0.00754
    D5       -0.00378   0.00007   0.00000   0.00162   0.00163  -0.00214
    D6       -3.12696   0.00008   0.00000   0.00280   0.00278  -3.12417
    D7       -3.13925  -0.00010   0.00000  -0.00441  -0.00435   3.13959
    D8        0.02076  -0.00009   0.00000  -0.00323  -0.00320   0.01756
    D9        0.02631  -0.00036   0.00000  -0.00856  -0.00852   0.01779
   D10       -3.12298  -0.00014   0.00000  -0.00096  -0.00100  -3.12398
   D11       -0.00006   0.00000   0.00000  -0.00001  -0.00001  -0.00006
   D12       -3.14044   0.00015   0.00000   0.00601   0.00594  -3.13449
   D13        3.14027  -0.00015   0.00000  -0.00599  -0.00592   3.13436
   D14       -0.00010   0.00000   0.00000   0.00003   0.00003  -0.00007
   D15       -0.00223   0.00005   0.00000   0.00100   0.00100  -0.00123
   D16       -3.13695  -0.00011   0.00000  -0.00534  -0.00538   3.14085
   D17        3.13830  -0.00009   0.00000  -0.00427  -0.00428   3.13402
   D18        0.00358  -0.00024   0.00000  -0.01061  -0.01067  -0.00709
   D19        0.00374  -0.00007   0.00000  -0.00163  -0.00164   0.00211
   D20        3.12687  -0.00010   0.00000  -0.00288  -0.00287   3.12400
   D21        3.13890   0.00010   0.00000   0.00439   0.00435  -3.13994
   D22       -0.02115   0.00007   0.00000   0.00314   0.00311  -0.01804
   D23       -0.02718   0.00034   0.00000   0.00825   0.00821  -0.01897
   D24        3.12251   0.00012   0.00000   0.00064   0.00068   3.12319
   D25       -2.93562   0.00018   0.00000   0.00104   0.00091  -2.93471
   D26        0.22700   0.00018   0.00000   0.00249   0.00234   0.22934
   D27       -0.84290  -0.00062   0.00000  -0.00858  -0.00839  -0.85128
   D28        2.31973  -0.00062   0.00000  -0.00713  -0.00696   2.31277
   D29        1.25352   0.00042   0.00000   0.00396   0.00393   1.25745
   D30       -1.86704   0.00042   0.00000   0.00541   0.00536  -1.86168
   D31        0.25781   0.00067   0.00000   0.05445   0.05445   0.31226
   D32       -0.25632  -0.00067   0.00000  -0.05452  -0.05452  -0.31084
   D33        2.11333   0.00120   0.00000   0.04906   0.04906   2.16239
   D34       -2.11630  -0.00120   0.00000  -0.04895  -0.04895  -2.16525
         Item               Value     Threshold  Converged?
 Maximum Force            0.025298     0.000450     NO 
 RMS     Force            0.006708     0.000300     NO 
 Maximum Displacement     0.633672     0.001800     NO 
 RMS     Displacement     0.154678     0.001200     NO 
 Predicted change in Energy=-5.234121D-03
 GradGradGradGradGradGradGradGradGradGradGradGradGradGradGradGradGradGrad

                          Input orientation:                          
 ---------------------------------------------------------------------
 Center     Atomic      Atomic             Coordinates (Angstroms)
 Number     Number       Type             X           Y           Z
 ---------------------------------------------------------------------
      1          6           0        1.148238   -0.326009    0.025924
      2          6           0        0.664638    1.098209    0.085899
      3          6           0       -0.669667    1.097052    0.085754
      4          6           0       -1.150886   -0.327732    0.025596
      5          1           0        1.365914    1.921009    0.114711
      6          1           0       -1.372428    1.918556    0.114472
      7          6           0        0.009187   -2.578276   -0.050651
      8          1           0       -1.002399   -2.911582   -0.284896
      9          1           0        0.697973   -2.920830   -0.826506
     10          1           0        0.315657   -2.994144    0.914096
     11          7           0        0.000380   -1.128025   -0.009751
     12          8           0       -2.284814   -0.768805    0.007596
     13          8           0        2.281824   -0.767900    0.008493
     14          8           0       -3.861905    1.684344   -0.017045
     15          1           0       -4.570618    1.779519   -0.664650
     16          1           0       -3.736043    0.727789    0.108556
     17          8           0        3.862014    1.683309   -0.017621
     18          1           0        3.734782    0.726940    0.108029
     19          1           0        4.572096    1.777449   -0.663887
 ---------------------------------------------------------------------
                    Distance matrix (angstroms):
                    1          2          3          4          5
     1  C    0.000000
     2  C    1.505279   0.000000
     3  C    2.309429   1.334305   0.000000
     4  C    2.299125   2.309345   1.505059   0.000000
     5  H    2.259283   1.081489   2.196209   3.376250   0.000000
     6  H    3.376340   2.196229   1.081465   2.258936   2.738343
     7  C    2.525076   3.736952   3.739985   2.533087   4.702299
     8  H    3.377430   4.358317   4.039460   2.606671   5.396529
     9  H    2.768116   4.121440   4.341202   3.296742   4.977493
    10  H    2.932743   4.189875   4.288927   3.170162   5.089281
    11  N    1.400742   2.325189   2.325737   1.402545   3.343169
    12  O    3.461539   3.491581   2.469055   1.216824   4.535900
    13  O    1.216793   2.470556   3.492179   3.460858   2.842605
    14  O    5.398602   4.565494   3.247439   3.376373   5.234832
    15  H    6.133144   5.332486   4.030668   4.075722   5.989143
    16  H    4.997351   4.416301   3.088614   2.793572   5.239635
    17  O    3.376956   3.252118   4.570614   5.401418   2.510882
    18  H    2.793860   3.092591   4.420029   4.998888   2.652807
    19  H    4.077153   4.036307   5.338631   6.136750   3.302488
                    6          7          8          9         10
     6  H    0.000000
     7  C    4.707189   0.000000
     8  H    4.860725   1.090536   0.000000
     9  H    5.347116   1.092575   1.784570   0.000000
    10  H    5.255820   1.094352   1.783723   1.783602   0.000000
    11  N    3.343903   1.450855   2.064545   2.089946   2.106013
    12  O    2.840032   2.922331   2.514286   3.771466   3.540667
    13  O    4.536720   2.906172   3.932883   2.800163   3.105172
    14  O    2.503927   5.758161   5.419507   6.531105   6.340922
    15  H    3.294660   6.351534   5.906169   7.062402   7.011132
    16  H    2.646628   4.998216   4.568658   5.817839   5.560391
    17  O    5.241390   5.745126   6.696788   5.644780   5.943341
    18  H    5.244386   4.982940   5.986160   4.837540   5.117287
    19  H    5.996925   6.337866   7.294219   6.091724   6.586001
                   11         12         13         14         15
    11  N    0.000000
    12  O    2.313321   0.000000
    13  O    2.309763   4.566638   0.000000
    14  O    4.777732   2.916464   6.615100   0.000000
    15  H    5.456806   3.488663   7.341554   0.964741   0.000000
    16  H    4.173596   2.087115   6.201759   0.972941   1.549355
    17  O    4.776596   6.617929   2.916523   7.723919   8.457965
    18  H    4.171393   6.203457   2.086994   7.657802   8.407415
    19  H    5.456212   7.345169   3.489447   8.459282   9.142714
                   16         17         18         19
    16  H    0.000000
    17  O    7.658943   0.000000
    18  H    7.470825   0.972942   0.000000
    19  H    8.409734   0.964748   1.549360   0.000000
 Stoichiometry    C5H9NO4
 Framework group  C1[X(C5H9NO4)]
 Deg. of freedom    51
 Full point group                 C1      NOp   1
 Largest Abelian subgroup         C1      NOp   1
 Largest concise Abelian subgroup C1      NOp   1
                         Standard orientation:                         
 ---------------------------------------------------------------------
 Center     Atomic      Atomic             Coordinates (Angstroms)
 Number     Number       Type             X           Y           Z
 ---------------------------------------------------------------------
      1          6           0        1.148625    0.332064   -0.029444
      2          6           0        0.663715   -1.091735   -0.088800
      3          6           0       -0.670588   -1.089352   -0.088632
      4          6           0       -1.150496    0.335901   -0.029075
      5          1           0        1.364234   -1.915191   -0.117273
      6          1           0       -1.374104   -1.910221   -0.116986
      7          6           0        0.011647    2.585409    0.046188
      8          1           0       -0.999628    2.919745    0.280308
      9          1           0        0.700761    2.927662    0.821884
     10          1           0        0.318481    3.000582   -0.918742
     11          7           0        0.001506    1.135149    0.005909
     12          8           0       -2.284018    0.778023   -0.011244
     13          8           0        2.282617    0.772919   -0.012221
     14          8           0       -3.863363   -1.673664    0.014474
     15          1           0       -4.572151   -1.767911    0.662132
     16          1           0       -3.736624   -0.717279   -0.111539
     17          8           0        3.860554   -1.679729    0.014914
     18          1           0        3.734199   -0.723298   -0.111143
     19          1           0        4.570561   -1.774246    0.661208
 ---------------------------------------------------------------------
 Rotational constants (GHZ):      1.7890874      0.6608779      0.4851818
 Standard basis: 6-31+G(d,p) (6D, 7F)
 There are   235 symmetry adapted cartesian basis functions of A   symmetry.
 There are   235 symmetry adapted basis functions of A   symmetry.
   235 basis functions,   383 primitive gaussians,   235 cartesian basis functions
    39 alpha electrons       39 beta electrons
       nuclear repulsion energy       523.2228216789 Hartrees.
 NAtoms=   19 NActive=   19 NUniq=   19 SFac= 1.00D+00 NAtFMM=   60 NAOKFM=F Big=F
 Integral buffers will be    131072 words long.
 Raffenetti 2 integral format.
 Two-electron integral symmetry is turned on.
 Nuclear repulsion after empirical dispersion term =      523.2088560243 Hartrees.
 ------------------------------------------------------------------------------
 Polarizable Continuum Model (PCM)
 =================================
 Model                : C-PCM.
 Atomic radii         : UFF (Universal Force Field).
 Polarization charges : Total charges.
 Charge compensation  : None.
 Solution method      : On-the-fly selection.
 Cavity type          : Scaled VdW (van der Waals Surface) (Alpha=1.100).
 Cavity algorithm     : GePol (No added spheres)
                        Default sphere list used, NSphG=   19.
                        Lebedev-Laikov grids with approx.  5.0 points / Ang**2.
                        Smoothing algorithm: Karplus/York (Gamma=1.0000).
                        Polarization charges: spherical gaussians, with
                                              point-specific exponents (IZeta= 3).
                        Self-potential: point-specific (ISelfS= 7).
                        Self-field    : sphere-specific E.n sum rule (ISelfD= 2).
 1st derivatives      : Analytical E(r).r(x)/FMM algorithm (CHGder, D1EAlg=3).
                        Cavity 1st derivative terms included.
 Solvent              : Toluene, Eps=   2.374100 Eps(inf)=   2.238315
 ------------------------------------------------------------------------------
 Spheres list:
 ISph  on   Nord     Re0    Alpha      Xe            Ye            Ze
    1   C      1    1.9255  1.100      1.148625      0.332064     -0.029444
    2   C      2    1.9255  1.100      0.663715     -1.091735     -0.088800
    3   C      3    1.9255  1.100     -0.670588     -1.089352     -0.088632
    4   C      4    1.9255  1.100     -1.150496      0.335901     -0.029075
    5   H      5    1.4430  1.100      1.364234     -1.915191     -0.117273
    6   H      6    1.4430  1.100     -1.374104     -1.910221     -0.116986
    7   C      7    1.9255  1.100      0.011647      2.585409      0.046188
    8   H      8    1.4430  1.100     -0.999628      2.919745      0.280308
    9   H      9    1.4430  1.100      0.700761      2.927662      0.821884
   10   H     10    1.4430  1.100      0.318481      3.000582     -0.918742
   11   N     11    1.8300  1.100      0.001506      1.135149      0.005909
   12   O     12    1.7500  1.100     -2.284018      0.778023     -0.011244
   13   O     13    1.7500  1.100      2.282617      0.772919     -0.012221
   14   O     14    1.7500  1.100     -3.863363     -1.673664      0.014474
   15   H     15    1.4430  1.100     -4.572151     -1.767911      0.662132
   16   H     16    1.4430  1.100     -3.736624     -0.717279     -0.111539
   17   O     17    1.7500  1.100      3.860554     -1.679729      0.014914
   18   H     18    1.4430  1.100      3.734199     -0.723298     -0.111143
   19   H     19    1.4430  1.100      4.570561     -1.774246      0.661208
 ------------------------------------------------------------------------------
 One-electron integrals computed using PRISM.
 NBasis=   235 RedAO= T EigKep=  8.33D-06  NBF=   235
 NBsUse=   235 1.00D-06 EigRej= -1.00D+00 NBFU=   235
 Initial guess from the checkpoint file:  "b3lyp_PM6_2H2O_dienophile_pm6_cpcmtoluene_1.chk"
 B after Tr=     0.000000    0.000000    0.000000
         Rot=    0.999999    0.001385   -0.000016    0.000517 Ang=   0.17 deg.
 ExpMin= 4.38D-02 ExpMax= 5.48D+03 ExpMxC= 8.25D+02 IAcc=2 IRadAn=         4 AccDes= 0.00D+00
 Harris functional with IExCor=  402 and IRadAn=       4 diagonalized for initial guess.
 HarFok:  IExCor=  402 AccDes= 0.00D+00 IRadAn=         4 IDoV= 1 UseB2=F ITyADJ=14
 ICtDFT=  3500011 ScaDFX=  1.000000  1.000000  1.000000  1.000000
 FoFCou: FMM=F IPFlag=           0 FMFlag=      100000 FMFlg1=           0
         NFxFlg=           0 DoJE=T BraDBF=F KetDBF=T FulRan=T
         wScrn=  0.000000 ICntrl=     500 IOpCl=  0 I1Cent=   200000004 NGrid=           0
         NMat0=    1 NMatS0=      1 NMatT0=    0 NMatD0=    1 NMtDS0=    0 NMtDT0=    0
 Petite list used in FoFCou.
 Requested convergence on RMS density matrix=1.00D-08 within 128 cycles.
 Requested convergence on MAX density matrix=1.00D-06.
 Requested convergence on             energy=1.00D-06.
 No special actions if energy rises.
 Inv3:  Mode=1 IEnd=     9145548.
 Iteration    1 A*A^-1 deviation from unit magnitude is 5.55D-15 for   1739.
 Iteration    1 A*A^-1 deviation from orthogonality  is 1.97D-15 for   1736    837.
 Iteration    1 A^-1*A deviation from unit magnitude is 5.55D-15 for   1739.
 Iteration    1 A^-1*A deviation from orthogonality  is 1.45D-15 for   1735   1725.
 Error on total polarization charges =  0.00868
 SCF Done:  E(RB3LYP) =  -551.677670352     A.U. after   12 cycles
            NFock= 12  Conv=0.81D-08     -V/T= 2.0093
 D1PCM: C-PCM CHGder 1st derivatives, ID1Alg=3 FixD1E=F DoIter=F DoCFld=F I1PDM=0.
 Calling FoFJK, ICntrl=      2127 FMM=F ISym2X=0 I1Cent= 0 IOpClX= 0 NMat=1 NMatS=1 NMatT=0.
 ***** Axes restored to original set *****
 -------------------------------------------------------------------
 Center     Atomic                   Forces (Hartrees/Bohr)
 Number     Number              X              Y              Z
 -------------------------------------------------------------------
      1        6          -0.016142472   -0.004275966    0.000110502
      2        6           0.007586021   -0.001094209   -0.000076322
      3        6          -0.007304549   -0.001236259   -0.000082657
      4        6           0.015296264   -0.004732055    0.000067862
      5        1           0.000065844    0.000897785   -0.000080797
      6        1          -0.000125521    0.000834214   -0.000089230
      7        6          -0.000145895   -0.001932847   -0.000665080
      8        1           0.000062549   -0.000248477    0.000219342
      9        1           0.000018334    0.000141334    0.000513901
     10        1           0.000081291    0.000272882   -0.000375920
     11        7           0.000405587    0.007776791   -0.000019785
     12        8          -0.008432748    0.001308343    0.000937208
     13        8           0.008697381    0.000675543    0.000938931
     14        8          -0.000439043   -0.000236973    0.001706972
     15        1          -0.000560372   -0.000462285    0.000032312
     16        1           0.002690943    0.001509685   -0.002438296
     17        8           0.000426694   -0.000204106    0.001691762
     18        1          -0.002734236    0.001469661   -0.002429027
     19        1           0.000553928   -0.000463061    0.000038322
 -------------------------------------------------------------------
 Cartesian Forces:  Max     0.016142472 RMS     0.003984346

 GradGradGradGradGradGradGradGradGradGradGradGradGradGradGradGradGradGrad
 Berny optimization.
 Using GEDIIS/GDIIS optimizer.
 FormGI is forming the generalized inverse of G from B-inverse, IUseBI=4.
 Internal  Forces:  Max     0.008438202 RMS     0.002298051
 Search for a local minimum.
 Step number   2 out of a maximum of   90
 All quantities printed in internal units (Hartrees-Bohrs-Radians)
 Mixed Optimization -- RFO/linear search
 Update second derivatives using D2CorX and points    1    2
 DE= -4.92D-03 DEPred=-5.23D-03 R= 9.41D-01
 TightC=F SS=  1.41D+00  RLast= 2.22D-01 DXNew= 5.0454D-01 6.6564D-01
 Trust test= 9.41D-01 RLast= 2.22D-01 DXMaxT set to 5.05D-01
 ITU=  1  0
 Use linear search instead of GDIIS.
     Eigenvalues ---    0.00230   0.00235   0.00724   0.00868   0.01101
     Eigenvalues ---    0.01133   0.01436   0.01444   0.01617   0.01787
     Eigenvalues ---    0.01821   0.02252   0.03921   0.04009   0.04243
     Eigenvalues ---    0.04247   0.07368   0.07663   0.15549   0.15999
     Eigenvalues ---    0.16000   0.16000   0.16000   0.16000   0.16000
     Eigenvalues ---    0.16000   0.17449   0.21205   0.22708   0.24868
     Eigenvalues ---    0.24992   0.25000   0.25000   0.27086   0.29572
     Eigenvalues ---    0.30479   0.33125   0.33153   0.33493   0.35067
     Eigenvalues ---    0.35089   0.35545   0.38241   0.39500   0.53663
     Eigenvalues ---    0.53848   0.55694   0.56801   0.57185   0.98069
     Eigenvalues ---    1.01350
 RFO step:  Lambda=-1.82321194D-03 EMin= 2.29999997D-03
 Quartic linear search produced a step of  0.03477.
 Iteration  1 RMS(Cart)=  0.07092743 RMS(Int)=  0.00134989
 Iteration  2 RMS(Cart)=  0.00169053 RMS(Int)=  0.00003839
 Iteration  3 RMS(Cart)=  0.00000309 RMS(Int)=  0.00003834
 Iteration  4 RMS(Cart)=  0.00000000 RMS(Int)=  0.00003834
 Variable       Old X    -DE/DX   Delta X   Delta X   Delta X     New X
                                 (Linear)    (Quad)   (Total)
    R1        2.84457  -0.00208  -0.00076  -0.01015  -0.01090   2.83367
    R2        2.64702  -0.00483  -0.00222  -0.02372  -0.02594   2.62108
    R3        2.29941   0.00593   0.00065   0.00911   0.00975   2.30916
    R4        2.52147   0.00216  -0.00015   0.00391   0.00377   2.52524
    R5        2.04372   0.00072  -0.00041   0.00017  -0.00024   2.04347
    R6        2.84415  -0.00194  -0.00074  -0.00955  -0.01030   2.83385
    R7        2.04367   0.00071  -0.00042   0.00011  -0.00030   2.04337
    R8        2.65043  -0.00434  -0.00209  -0.02184  -0.02393   2.62649
    R9        2.29946   0.00551   0.00063   0.00861   0.00924   2.30871
   R10        2.06081  -0.00003  -0.00096  -0.00466  -0.00562   2.05520
   R11        2.06467  -0.00040  -0.00080  -0.00503  -0.00583   2.05884
   R12        2.06802  -0.00041  -0.00070  -0.00457  -0.00526   2.06276
   R13        2.74172   0.00177  -0.00147  -0.00177  -0.00323   2.73849
   R14        3.94408  -0.00063   0.00194  -0.00636  -0.00441   3.93966
   R15        3.94385  -0.00068   0.00192  -0.00779  -0.00587   3.93798
   R16        1.82310   0.00034   0.00071   0.00399   0.00470   1.82780
   R17        1.83859  -0.00078   0.00028  -0.00016   0.00013   1.83872
   R18        1.83859  -0.00075   0.00028  -0.00010   0.00018   1.83878
   R19        1.82311   0.00034   0.00071   0.00397   0.00468   1.82779
    A1        1.85405   0.00274   0.00067   0.01384   0.01450   1.86854
    A2        2.26982  -0.00810   0.00014  -0.03236  -0.03223   2.23760
    A3        2.15931   0.00536  -0.00081   0.01852   0.01771   2.17703
    A4        1.89700  -0.00206  -0.00058  -0.00956  -0.01015   1.88684
    A5        2.10897   0.00157   0.00065   0.00994   0.01059   2.11957
    A6        2.27720   0.00049  -0.00007  -0.00041  -0.00047   2.27672
    A7        1.89712  -0.00178  -0.00057  -0.00815  -0.00874   1.88838
    A8        2.27728   0.00044  -0.00007  -0.00053  -0.00059   2.27669
    A9        2.10877   0.00134   0.00064   0.00865   0.00929   2.11806
   A10        1.85326   0.00239   0.00063   0.01225   0.01285   1.86611
   A11        2.26749  -0.00844   0.00002  -0.03434  -0.03431   2.23318
   A12        2.16243   0.00605  -0.00065   0.02209   0.02145   2.18388
   A13        1.91392   0.00009   0.00071   0.00576   0.00645   1.92037
   A14        1.91027  -0.00008   0.00063   0.00266   0.00327   1.91354
   A15        1.88171   0.00055  -0.00148  -0.00254  -0.00403   1.87768
   A16        1.90744  -0.00012   0.00053  -0.00020   0.00033   1.90777
   A17        1.91478  -0.00006  -0.00046  -0.00279  -0.00326   1.91152
   A18        1.93553  -0.00036   0.00010  -0.00278  -0.00269   1.93284
   A19        1.92336  -0.00129  -0.00015  -0.00841  -0.00858   1.91478
   A20        2.17496   0.00017  -0.00002   0.00174   0.00172   2.17668
   A21        2.18469   0.00111   0.00017   0.00654   0.00671   2.19140
   A22        1.96852  -0.00430   0.00234  -0.01638  -0.01404   1.95448
   A23        1.96903  -0.00447   0.00233  -0.01753  -0.01520   1.95383
   A24        1.85322  -0.00092  -0.00009  -0.00631  -0.00641   1.84681
   A25        2.47947   0.00335   0.00125   0.01974   0.02100   2.50047
   A26        1.85322  -0.00092  -0.00009  -0.00632  -0.00641   1.84680
   A27        2.47989   0.00331   0.00125   0.01953   0.02078   2.50067
    D1        0.00134   0.00011  -0.00003   0.00792   0.00791   0.00925
    D2       -3.13390   0.00015   0.00015   0.01172   0.01187  -3.12203
    D3       -3.14041  -0.00004   0.00019   0.00180   0.00209  -3.13831
    D4        0.00754   0.00001   0.00037   0.00561   0.00605   0.01360
    D5       -0.00214  -0.00017   0.00006  -0.01302  -0.01298  -0.01512
    D6       -3.12417  -0.00012   0.00010  -0.00602  -0.00601  -3.13018
    D7        3.13959  -0.00004  -0.00015  -0.00739  -0.00741   3.13218
    D8        0.01756   0.00001  -0.00011  -0.00039  -0.00044   0.01712
    D9        0.01779   0.00012  -0.00030   0.00356   0.00325   0.02104
   D10       -3.12398  -0.00005  -0.00003  -0.00349  -0.00352  -3.12750
   D11       -0.00006   0.00000   0.00000  -0.00007  -0.00006  -0.00012
   D12       -3.13449   0.00005   0.00021   0.00436   0.00449  -3.13000
   D13        3.13436  -0.00005  -0.00021  -0.00432  -0.00445   3.12990
   D14       -0.00007   0.00000   0.00000   0.00010   0.00010   0.00003
   D15       -0.00123  -0.00011   0.00003  -0.00779  -0.00779  -0.00902
   D16        3.14085   0.00004  -0.00019  -0.00156  -0.00187   3.13898
   D17        3.13402  -0.00015  -0.00015  -0.01174  -0.01189   3.12213
   D18       -0.00709  -0.00001  -0.00037  -0.00551  -0.00597  -0.01306
   D19        0.00211   0.00017  -0.00006   0.01297   0.01293   0.01503
   D20        3.12400   0.00011  -0.00010   0.00586   0.00581   3.12982
   D21       -3.13994   0.00004   0.00015   0.00719   0.00720  -3.13273
   D22       -0.01804  -0.00002   0.00011   0.00008   0.00009  -0.01795
   D23       -0.01897  -0.00014   0.00029  -0.00422  -0.00392  -0.02289
   D24        3.12319   0.00002   0.00002   0.00300   0.00301   3.12619
   D25       -2.93471  -0.00018   0.00003  -0.00725  -0.00722  -2.94193
   D26        0.22934  -0.00009   0.00008   0.00096   0.00103   0.23037
   D27       -0.85128   0.00022  -0.00029  -0.00340  -0.00368  -0.85497
   D28        2.31277   0.00030  -0.00024   0.00481   0.00456   2.31733
   D29        1.25745  -0.00021   0.00014  -0.00727  -0.00713   1.25032
   D30       -1.86168  -0.00013   0.00019   0.00093   0.00111  -1.86057
   D31        0.31226  -0.00056   0.00189  -0.12865  -0.12676   0.18550
   D32       -0.31084   0.00056  -0.00190   0.12808   0.12618  -0.18466
   D33        2.16239   0.00070   0.00171   0.05307   0.05478   2.21716
   D34       -2.16525  -0.00069  -0.00170  -0.05277  -0.05447  -2.21973
         Item               Value     Threshold  Converged?
 Maximum Force            0.008438     0.000450     NO 
 RMS     Force            0.002298     0.000300     NO 
 Maximum Displacement     0.216727     0.001800     NO 
 RMS     Displacement     0.071161     0.001200     NO 
 Predicted change in Energy=-9.635889D-04
 GradGradGradGradGradGradGradGradGradGradGradGradGradGradGradGradGradGrad

                          Input orientation:                          
 ---------------------------------------------------------------------
 Center     Atomic      Atomic             Coordinates (Angstroms)
 Number     Number       Type             X           Y           Z
 ---------------------------------------------------------------------
      1          6           0        1.132199   -0.363361    0.016789
      2          6           0        0.664236    1.060836    0.051640
      3          6           0       -0.672061    1.059063    0.051260
      4          6           0       -1.138443   -0.365744    0.015983
      5          1           0        1.364659    1.884625    0.062522
      6          1           0       -1.374613    1.880969    0.061720
      7          6           0        0.012728   -2.612039   -0.041442
      8          1           0       -0.997042   -2.945794   -0.268958
      9          1           0        0.701922   -2.956039   -0.811938
     10          1           0        0.322647   -3.013275    0.925241
     11          7           0       -0.000521   -1.163188   -0.015403
     12          8           0       -2.287695   -0.780160    0.007986
     13          8           0        2.280305   -0.781664    0.009957
     14          8           0       -3.771994    1.737901    0.033862
     15          1           0       -4.458744    1.894206   -0.629067
     16          1           0       -3.677420    0.771425    0.094900
     17          8           0        3.770773    1.731891    0.032828
     18          1           0        3.673496    0.765718    0.094904
     19          1           0        4.459510    1.885503   -0.628666
 ---------------------------------------------------------------------
                    Distance matrix (angstroms):
                    1          2          3          4          5
     1  C    0.000000
     2  C    1.499513   0.000000
     3  C    2.297788   1.336298   0.000000
     4  C    2.270643   2.299141   1.499610   0.000000
     5  H    2.260436   1.081360   2.197705   3.366281   0.000000
     6  H    3.364987   2.197640   1.081304   2.259555   2.739274
     7  C    2.512600   3.731372   3.735575   2.524744   4.696649
     8  H    3.359208   4.349219   4.030761   2.599585   5.387064
     9  H    2.755705   4.108829   4.330587   3.283600   4.963460
    10  H    2.915940   4.180699   4.282198   3.157681   5.081289
    11  N    1.387016   2.322214   2.322458   1.389880   3.340502
    12  O    3.445210   3.479234   2.448446   1.221714   4.521476
    13  O    1.221954   2.451168   3.479432   3.443961   2.819622
    14  O    5.335419   4.487635   3.173438   3.370643   5.138828
    15  H    6.064024   5.234767   3.936912   4.067907   5.864334
    16  H    4.942294   4.351506   3.019408   2.783125   5.163606
    17  O    3.369334   3.178246   4.493530   5.338610   2.411140
    18  H    2.781926   3.024006   4.355665   4.943803   2.565878
    19  H    4.067555   3.942968   5.241977   6.068011   3.171095
                    6          7          8          9         10
     6  H    0.000000
     7  C    4.703454   0.000000
     8  H    4.852787   1.087563   0.000000
     9  H    5.335909   1.089490   1.783651   0.000000
    10  H    5.251664   1.091566   1.781080   1.779022   0.000000
    11  N    3.340803   1.449145   2.057918   2.083797   2.100493
    12  O    2.813933   2.941117   2.536228   3.787418   3.555565
    13  O    4.522247   2.914588   3.937291   2.809754   3.106487
    14  O    2.401808   5.766435   5.452436   6.539448   6.335165
    15  H    3.160574   6.375391   5.961431   7.084547   7.025734
    16  H    2.556386   5.008354   4.597231   5.821940   5.569017
    17  O    5.147626   5.744401   6.686096   5.666407   5.933176
    18  H    5.169940   4.982876   5.976759   4.848102   5.118441
    19  H    5.874831   6.351896   7.296902   6.131361   6.597446
                   11         12         13         14         15
    11  N    0.000000
    12  O    2.319143   0.000000
    13  O    2.312655   4.568001   0.000000
    14  O    4.758440   2.923088   6.555845   0.000000
    15  H    5.440588   3.503074   7.278971   0.967229   0.000000
    16  H    4.156258   2.084780   6.157418   0.973009   1.547654
    17  O    4.754626   6.558663   2.922323   7.542770   8.257688
    18  H    4.151054   6.158985   2.083888   7.508940   8.242023
    19  H    5.437140   7.282573   3.502935   8.259442   8.918259
                   16         17         18         19
    16  H    0.000000
    17  O    7.510122   0.000000
    18  H    7.350918   0.973039   0.000000
    19  H    8.244656   0.967227   1.547672   0.000000
 Stoichiometry    C5H9NO4
 Framework group  C1[X(C5H9NO4)]
 Deg. of freedom    51
 Full point group                 C1      NOp   1
 Largest Abelian subgroup         C1      NOp   1
 Largest concise Abelian subgroup C1      NOp   1
                         Standard orientation:                         
 ---------------------------------------------------------------------
 Center     Atomic      Atomic             Coordinates (Angstroms)
 Number     Number       Type             X           Y           Z
 ---------------------------------------------------------------------
      1          6           0        1.133915    0.360084   -0.017612
      2          6           0        0.662535   -1.063100   -0.047408
      3          6           0       -0.673753   -1.058119   -0.047052
      4          6           0       -1.136715    0.367919   -0.016843
      5          1           0        1.360980   -1.888601   -0.055356
      6          1           0       -1.378275   -1.878369   -0.054601
      7          6           0        0.019843    2.611635    0.032618
      8          1           0       -0.989125    2.948618    0.258934
      9          1           0        0.709857    2.956716    0.801895
     10          1           0        0.330727    3.008690   -0.935481
     11          7           0        0.003117    1.162737    0.011725
     12          8           0       -2.284970    0.785118   -0.010332
     13          8           0        2.283022    0.775653   -0.012251
     14          8           0       -3.775306   -1.729451   -0.027282
     15          1           0       -4.462432   -1.881752    0.636189
     16          1           0       -3.678413   -0.763428   -0.091752
     17          8           0        3.767454   -1.741536   -0.026173
     18          1           0        3.672495   -0.775360   -0.091683
     19          1           0        4.455817   -1.894450    0.635870
 ---------------------------------------------------------------------
 Rotational constants (GHZ):      1.7334346      0.6841015      0.4929293
 Standard basis: 6-31+G(d,p) (6D, 7F)
 There are   235 symmetry adapted cartesian basis functions of A   symmetry.
 There are   235 symmetry adapted basis functions of A   symmetry.
   235 basis functions,   383 primitive gaussians,   235 cartesian basis functions
    39 alpha electrons       39 beta electrons
       nuclear repulsion energy       525.2834004128 Hartrees.
 NAtoms=   19 NActive=   19 NUniq=   19 SFac= 1.00D+00 NAtFMM=   60 NAOKFM=F Big=F
 Integral buffers will be    131072 words long.
 Raffenetti 2 integral format.
 Two-electron integral symmetry is turned on.
 Nuclear repulsion after empirical dispersion term =      525.2692368520 Hartrees.
 ------------------------------------------------------------------------------
 Polarizable Continuum Model (PCM)
 =================================
 Model                : C-PCM.
 Atomic radii         : UFF (Universal Force Field).
 Polarization charges : Total charges.
 Charge compensation  : None.
 Solution method      : On-the-fly selection.
 Cavity type          : Scaled VdW (van der Waals Surface) (Alpha=1.100).
 Cavity algorithm     : GePol (No added spheres)
                        Default sphere list used, NSphG=   19.
                        Lebedev-Laikov grids with approx.  5.0 points / Ang**2.
                        Smoothing algorithm: Karplus/York (Gamma=1.0000).
                        Polarization charges: spherical gaussians, with
                                              point-specific exponents (IZeta= 3).
                        Self-potential: point-specific (ISelfS= 7).
                        Self-field    : sphere-specific E.n sum rule (ISelfD= 2).
 1st derivatives      : Analytical E(r).r(x)/FMM algorithm (CHGder, D1EAlg=3).
                        Cavity 1st derivative terms included.
 Solvent              : Toluene, Eps=   2.374100 Eps(inf)=   2.238315
 ------------------------------------------------------------------------------
 Spheres list:
 ISph  on   Nord     Re0    Alpha      Xe            Ye            Ze
    1   C      1    1.9255  1.100      1.133915      0.360084     -0.017612
    2   C      2    1.9255  1.100      0.662535     -1.063100     -0.047408
    3   C      3    1.9255  1.100     -0.673753     -1.058119     -0.047052
    4   C      4    1.9255  1.100     -1.136715      0.367919     -0.016843
    5   H      5    1.4430  1.100      1.360980     -1.888601     -0.055356
    6   H      6    1.4430  1.100     -1.378275     -1.878369     -0.054601
    7   C      7    1.9255  1.100      0.019843      2.611635      0.032618
    8   H      8    1.4430  1.100     -0.989125      2.948618      0.258934
    9   H      9    1.4430  1.100      0.709857      2.956716      0.801895
   10   H     10    1.4430  1.100      0.330727      3.008690     -0.935481
   11   N     11    1.8300  1.100      0.003117      1.162737      0.011725
   12   O     12    1.7500  1.100     -2.284970      0.785118     -0.010332
   13   O     13    1.7500  1.100      2.283022      0.775653     -0.012251
   14   O     14    1.7500  1.100     -3.775306     -1.729451     -0.027282
   15   H     15    1.4430  1.100     -4.462432     -1.881752      0.636189
   16   H     16    1.4430  1.100     -3.678413     -0.763428     -0.091752
   17   O     17    1.7500  1.100      3.767454     -1.741536     -0.026173
[...]
 001792,-0.03550985,-0.03263393,0.00029305,-0.08972758,0.00812936,-0.00
 021540,0.93229537,0.03122361,0.07112216,-0.00119557,-0.02206969,-0.010
 93511,0.00009365,-0.00296790,-0.18593171,0.00173163,0.16462489,0.55993
 822,-0.00094362,-0.00153483,-0.01727993,0.00013094,0.00003715,0.002952
 83,-0.00004448,0.00179203,-0.07311898,0.00151223,-0.00482622,0.1902142
 2,0.01230431,0.00929105,-0.00007869,-0.18055980,-0.15120077,0.00155293
 ,-0.00723929,-0.02235573,0.00026427,-0.00461209,0.00308513,-0.00014122
 ,0.18159820,-0.01957856,-0.01031492,0.00005864,-0.14806741,-0.23708966
 ,0.00228836,0.00505907,0.01049136,-0.00001572,0.00327210,-0.00251080,0
 .00024824,0.15857906,0.24103778,0.00036952,0.00021702,0.00041698,0.001
 50348,0.00226942,-0.03682638,-0.00016020,-0.00016514,0.00771048,-0.000
 14355,0.00024805,0.01236695,-0.00159569,-0.00248038,0.02457073,-0.0046
 0973,-0.00310771,-0.00004494,-0.00728442,0.02232998,-0.00042875,-0.181
 18436,0.15133177,-0.00313679,0.01219375,-0.00933534,0.00020923,0.00106
 079,-0.00061104,0.00004563,0.18232535,-0.00323448,-0.00251906,0.000213
 16,-0.00509439,0.01053057,-0.00007004,0.14808808,-0.23636861,0.0039043
 2,0.01951365,-0.01041344,0.00027542,0.00061573,0.00009926,-0.00008366,
 -0.15858933,0.24037875,-0.00004286,0.00021417,0.01236826,-0.00000330,0
 .00007912,0.00780434,-0.00308674,0.00392301,-0.03692572,-0.00023826,0.
 00011733,0.00044973,0.00002671,-0.00009017,-0.00551250,0.00332162,-0.0
 0421580,0.02463612,0.00749333,-0.02847481,0.00048057,-0.00589590,-0.00
 287467,0.00000293,-0.00377589,0.00413782,-0.00010703,0.01369497,0.0247
 2102,-0.00026471,0.00102801,-0.00131722,0.00002202,0.00089716,0.001055
 44,-0.00001975,0.61921788,-0.01733763,-0.02209800,0.00022819,0.0001753
 2,0.00320607,-0.00001306,-0.00005156,0.00319130,0.00000393,0.01936988,
 -0.02112461,0.00033805,-0.00004902,0.00046780,0.00000701,0.00004807,0.
 00050715,0.00001273,-0.00301762,0.46816873,0.00029509,0.00015579,-0.00
 127500,-0.00005445,-0.00002626,0.00227503,-0.00003109,0.00002964,0.003
 41027,-0.00016992,0.00035461,-0.00616751,0.00000157,-0.00000080,0.0009
 3961,-0.00000356,0.00001739,0.00131753,0.00025240,0.00171650,0.5800678
 8,0.00041265,0.00159165,-0.00002227,-0.00007302,0.00000942,-0.00000347
 ,0.00002741,-0.00007346,0.00000051,-0.00183557,0.00112243,-0.00003384,
 -0.00003366,0.00002693,-0.00000074,-0.00001423,-0.00005392,0.00000102,
 -0.30369349,-0.08423743,-0.00061659,0.32209607,0.00543416,-0.00466628,
 0.00008706,-0.00160821,-0.00128183,0.00001843,-0.00017941,0.00012471,-
 0.00000285,-0.00425377,-0.00039222,0.00000324,0.00038105,-0.00042698,0
 .00000986,0.00005794,0.00006956,-0.00000124,-0.07140994,-0.07257971,-0
 .00017486,0.08874511,0.08877560,-0.00007248,0.00008168,-0.00029410,0.0
 0002391,0.00002447,0.00032235,0.00000302,-0.00000302,0.00000583,0.0000
 3929,0.00003370,0.00142689,-0.00000618,0.00000704,0.00000482,-0.000000
 84,-0.00000194,-0.00003585,-0.00081539,-0.00026469,-0.04922030,0.00070
 699,-0.00000870,0.04602314,0.00032796,-0.00106149,-0.00090990,0.000230
 60,-0.00009752,0.00035592,-0.00025475,-0.00018527,0.00015381,-0.000441
 29,-0.00002303,0.00061352,-0.00000853,0.00002437,0.00001619,0.00002372
 ,0.00004179,-0.00002531,-0.11151323,0.04290527,0.10589343,-0.01084441,
 0.01048353,0.02472838,0.11251640,0.00494966,0.00106599,-0.00090596,0.0
 0059588,-0.00079470,0.00034235,0.00037005,-0.00147329,0.00087267,-0.00
 642527,-0.00118449,-0.00308841,0.00000958,0.00001171,0.00011756,-0.000
 22929,-0.00022978,0.00030263,0.03853434,-0.07336842,-0.06713271,-0.003
 38211,0.00458497,0.00962420,-0.04859659,0.09234982,0.00198652,-0.00015
 606,0.00048730,-0.00007043,-0.00016556,-0.00025650,-0.00020527,-0.0000
 5092,-0.00025572,-0.00102803,0.00145228,-0.00014725,0.00002758,-0.0000
 2322,0.00000076,0.00000201,0.00003516,-0.00000654,0.10622461,-0.072623
 11,-0.23157973,-0.00153512,0.00180217,0.00204423,-0.11502009,0.0787581
 4,0.24200351,0.00034630,-0.00103575,0.00094308,0.00023251,-0.00010998,
 -0.00034780,-0.00025485,-0.00019019,-0.00014564,-0.00044205,-0.0000178
 5,-0.00061821,-0.00000789,0.00002321,-0.00001728,0.00002353,0.00004308
 ,0.00002458,-0.10832688,0.03855094,-0.10524678,-0.01050017,0.00973035,
 -0.02524170,0.00812709,-0.00545911,0.01368211,0.10904637,0.00488285,0.
 00110216,0.00094690,0.00060188,-0.00080433,-0.00032172,0.00037835,-0.0
 0149729,-0.00083058,-0.00642426,-0.00111347,0.00304504,0.00001063,0.00
 000821,-0.00011855,-0.00022493,-0.00023878,-0.00029779,0.03427202,-0.0
 6915083,0.06258542,-0.00319120,0.00423046,-0.00974230,-0.00576282,0.00
 476150,-0.00788513,-0.04386435,0.08758262,-0.00213469,0.00012035,0.000
 43688,0.00005698,0.00018087,-0.00025602,0.00019223,0.00008746,-0.00023
 352,0.00121953,-0.00141959,-0.00019060,-0.00002807,0.00002331,0.000003
 29,0.00000550,-0.00002718,0.00000401,-0.10544161,0.06811959,-0.2389313
 7,0.00144260,-0.00171953,0.00203958,-0.01308355,0.00702634,-0.02013431
 ,0.11439314,-0.07460276,0.25018661,-0.14462918,-0.03887828,0.00013636,
 0.01077666,-0.01172283,0.00015767,0.00964622,0.01156958,-0.00020669,-0
 .14506109,0.03724535,-0.00109130,-0.00017381,0.00071374,-0.00001178,-0
 .00013194,-0.00060408,0.00001212,-0.10808284,0.00378953,-0.00033794,0.
 00407661,-0.03892708,0.00065100,0.00120258,0.01988989,-0.00359181,0.00
 112804,0.01956139,0.00289117,0.58462152,-0.06345075,-0.20764176,0.0019
 6199,-0.02118892,-0.05367211,0.00095124,0.02114968,-0.05363330,0.00116
 736,0.05935760,-0.20515937,0.00269482,0.00450052,-0.00416783,0.0000871
 9,-0.00449478,-0.00421150,0.00003233,0.00626368,-0.21642574,0.00255712
 ,-0.00204102,-0.02110344,0.00028684,0.00079001,-0.02803101,-0.00199685
 ,0.00083949,-0.02715207,0.00310894,-0.00375936,0.75984990,0.00051891,0
 .00210250,-0.05868237,0.00031072,0.00100076,0.01535477,-0.00036117,0.0
 0111231,0.01438331,-0.00143341,0.00257845,-0.05242460,-0.00007027,0.00
 006718,-0.00014159,0.00007198,0.00005450,-0.00053753,-0.00037815,0.002
 52441,-0.05702892,0.00007848,0.00002950,-0.00152445,-0.00268845,-0.025
 91342,0.00796936,0.00257545,0.02728972,0.00716362,0.00276340,-0.010430
 16,0.09148001,0.02479334,0.02564900,-0.00030403,0.00575341,-0.00419864
 ,0.00009108,-0.02425146,-0.02504757,0.00015494,-0.59232422,-0.20386073
 ,0.00028083,-0.00074862,-0.00004352,0.00001003,-0.00064955,-0.00174015
 ,0.00002816,-0.00206494,-0.01031571,0.00014959,0.00033098,0.00186660,-
 0.00001929,0.00017744,0.00174694,0.00019140,0.00017551,0.00174371,-0.0
 0024367,-0.10907309,-0.00206693,-0.00064801,0.71424484,0.00015702,-0.0
 1216640,0.00031411,-0.00129439,-0.00782486,0.00013306,-0.04556108,-0.0
 0397058,0.00009390,-0.19526188,-0.18300434,0.00073522,-0.00207147,0.00
 136572,-0.00007083,0.00177092,0.00229932,-0.00003962,-0.00182614,-0.00
 102784,-0.00002478,0.00173058,0.00135825,-0.00002298,0.00068914,0.0010
 5578,-0.00004167,0.00069288,0.00106040,0.00002041,0.02059307,0.0306403
 1,-0.00011109,0.21408047,0.17794790,0.00008725,0.00045415,0.00818093,0
 .00004477,0.00011594,0.00118316,0.00047233,0.00020735,0.01823741,0.000
 14283,0.00068886,-0.06649348,0.00004159,-0.00005967,-0.00247286,-0.000
 02617,-0.00005882,-0.00087818,0.00002398,-0.00006004,-0.00118346,-0.00
 002038,-0.00002404,-0.00099804,-0.00037564,-0.00021341,-0.00006595,0.0
 0035955,0.00019828,-0.00007143,-0.00099777,-0.00024064,0.01607322,0.00
 041166,-0.00107816,0.03256618,-0.59130600,0.20356833,-0.00603265,-0.02
 376353,0.02530680,-0.00062148,0.00566286,0.00412454,-0.00004057,0.0241
 5844,-0.02552256,0.00048099,-0.00072748,0.00183106,-0.00002813,-0.0007
 4469,0.00005396,0.00000915,0.00087809,0.01018209,-0.00013272,0.0000818
 3,-0.00043153,0.00000519,0.00047407,-0.00196356,-0.00063815,0.00047035
 ,-0.00194417,0.00070410,-0.11041297,0.00414942,-0.00076728,-0.01797190
 ,0.00254408,-0.00012674,0.71167206,0.19553600,-0.18420582,0.00289448,0
 .04535749,-0.00404614,0.00059173,0.00109033,-0.00783456,0.00014715,-0.
 00068762,-0.01168026,0.00030155,-0.00179984,0.00230212,-0.00005946,0.0
 0206538,0.00137764,-0.00004910,-0.00007748,0.00075178,-0.00006564,-0.0
 0029205,0.00131028,-0.00001462,0.00084104,0.00118460,0.00089249,0.0008
 4618,0.00114440,-0.00091288,-0.01945396,0.03118236,-0.00032930,-0.0024
 0079,0.00332598,-0.00009195,-0.21725472,0.17631102,-0.00590504,0.00293
 849,-0.06673528,-0.00093238,0.00048206,0.01811744,0.00000778,0.0001627
 5,0.00122813,0.00009977,0.00016569,0.00814876,0.00002881,-0.00003945,-
 0.00088195,-0.00002236,-0.00005990,-0.00250495,0.00001969,0.00000218,-
 0.00264325,0.00000381,-0.00001988,0.00019900,0.00031729,0.00019535,-0.
 00005287,-0.00033751,-0.00024920,-0.00001100,-0.00040202,-0.00020422,0
 .01679290,-0.00005295,-0.00006477,-0.00179136,0.00709553,-0.00341705,0
 .03246985,0.00133230,-0.00083576,0.00002179,-0.00041129,0.00163649,-0.
 00002881,-0.00135688,-0.00237033,0.00002908,0.00631965,0.00043100,0.00
 002764,0.00002831,0.00007310,-0.00000077,-0.00079969,0.00118834,-0.000
 01866,-0.00009707,-0.00068817,0.00001069,0.00007967,-0.00010291,0.0000
 0209,-0.00006653,0.00013395,0.00001834,-0.00006630,0.00013369,-0.00002
 377,-0.00236995,0.00083857,-0.00002465,-0.00764578,0.00812788,-0.00017
 873,-0.00166526,0.00071335,-0.00002080,0.61133453,-0.00208296,-0.00094
 827,-0.00000013,0.00019155,-0.00007590,0.00000615,0.00078601,0.0003044
 0,-0.00000128,-0.00764707,-0.00337390,0.00001140,0.00005887,-0.0000385
 0,0.00000015,-0.00043144,-0.00054874,-0.00000125,-0.00002099,0.0006155
 7,-0.00001067,-0.00009749,0.00015379,-0.00000316,0.00005331,-0.0000914
 8,-0.00001955,0.00005366,-0.00009115,0.00002348,0.00407529,0.00033618,
 0.00001252,0.01180861,-0.00395380,0.00016463,0.00179149,-0.00012392,0.
 00001329,-0.11233381,0.49978323,0.00004051,0.00000654,-0.00022714,-0.0
 0000683,0.00001501,0.00023449,-0.00002306,-0.00001854,0.00003647,0.000
 15396,0.00005487,0.00004339,-0.00000059,0.00000029,-0.00004510,0.00000
 795,0.00000725,-0.00060212,-0.00000022,-0.00001377,-0.00003672,0.00000
 229,-0.00000354,-0.00003664,-0.00003262,0.00000449,0.00000480,0.000030
 22,-0.00000014,0.00000448,-0.00007476,-0.00000479,-0.00026812,-0.00023
 955,0.00014723,0.00245417,-0.00003759,0.00000747,0.00009743,0.00642193
 ,-0.00812483,0.00371083,-0.00014741,-0.00013085,0.00000129,-0.00003256
 ,0.00018053,-0.00000257,0.00017917,-0.00047092,0.00000572,-0.00043387,
 -0.00023212,0.00000214,0.00000083,-0.00000353,-0.00000007,-0.00033064,
 0.00023291,-0.00000429,0.00000045,0.00002033,-0.00000045,-0.00000595,0
 .00001547,-0.00000033,0.00000367,-0.00000140,-0.00000260,0.00000373,-0
 .00000137,0.00000272,0.00023554,0.00009002,-0.00000004,0.00064897,0.00
 020510,-0.00000054,0.00007290,0.00002973,0.00000004,-0.52574278,0.0190
 1084,-0.00442676,0.53969284,-0.00008747,-0.00021000,0.00000232,-0.0000
 8267,0.00028587,-0.00000606,-0.00040258,-0.00007883,0.00000522,-0.0011
 6154,-0.00036212,-0.00000284,0.00001369,0.00000975,0.00000027,0.000809
 80,0.00004443,-0.00000053,0.00002082,0.00002059,-0.00000001,-0.0000011
 1,0.00001245,0.,0.00000662,0.00000128,0.00000234,0.00000639,0.00000124
 ,-0.00000234,0.00029977,0.00011831,-0.00000005,0.00150047,-0.00199639,
 0.00003974,-0.00002356,0.00007574,-0.00000143,-0.03696294,-0.04331222,
 0.00034784,-0.00924791,0.04296778,0.00000081,0.00000252,-0.00003141,0.
 00000186,-0.00000574,-0.00005682,0.00000830,0.00000581,0.00035814,0.00
 001496,0.00000331,-0.00010586,-0.00000028,0.00000013,0.00002096,-0.000
 01589,-0.00000411,-0.00020897,-0.00000030,0.00000002,0.00001187,-0.000
 00013,0.00000013,0.00001430,0.00000801,-0.00000176,-0.00000176,-0.0000
 0810,0.00000159,-0.00000185,-0.00000292,-0.00000192,-0.00002206,-0.000
 01904,0.00003236,0.00023640,0.00000125,-0.00000149,-0.00000843,-0.0036
 1008,0.00078881,0.00012295,0.00439132,-0.00069935,0.00025025,-0.002807
 46,-0.00025530,-0.00001320,0.00045740,-0.00040001,0.00000895,-0.000796
 11,0.00077221,-0.00001310,-0.01569847,0.00034367,-0.00009241,0.0000973
 1,-0.00008377,0.00000137,-0.00090412,-0.00153334,0.00001588,0.00015460
 ,0.00095532,-0.00001469,-0.00012536,0.00018279,-0.00000341,0.00009357,
 -0.00017482,-0.00002483,0.00009302,-0.00017430,0.00003201,0.00520175,-
 0.00066669,0.00003447,0.00764602,-0.00433253,0.00013291,0.00254270,-0.
 00051566,0.00002269,-0.07892856,0.08487945,-0.00181672,-0.01414063,0.0
 4531075,-0.00076968,0.09722419,0.00320989,0.00196701,-0.00000808,-0.00
 012463,-0.00076221,0.00000996,-0.00097888,0.00086130,-0.00002864,0.011
 92870,0.00531821,-0.00001280,-0.00010931,0.00001371,0.00000052,-0.0014
 2774,-0.00076097,0.00001265,-0.00003535,-0.00089122,0.00001466,0.00012
 854,-0.00018696,0.00000370,-0.00007832,0.00013315,0.00002287,-0.000078
 58,0.00013242,-0.00002846,-0.00667272,-0.00068652,-0.00001347,-0.00944
 690,-0.00500685,-0.00004714,-0.00249322,-0.00004272,-0.00001501,0.1399
 6915,-0.44858922,0.00757353,-0.00969035,0.00242832,-0.00012032,-0.1242
 3026,0.44598284,-0.00006651,-0.00002743,0.00031300,0.00000455,0.000009
 00,-0.00008540,0.00001389,-0.00002057,-0.00067003,-0.00027099,-0.00007
 664,0.00026380,0.00000173,0.00000071,0.00008761,0.00001564,0.00001286,
 0.00056616,0.00000142,0.00001944,0.00003318,-0.00000303,0.00000439,0.0
 0002836,0.00003566,0.00000715,-0.00000385,-0.00003228,-0.00001311,-0.0
 0000298,0.00012659,0.00001996,0.00082691,0.00021454,-0.00002188,-0.004
 93766,0.00005270,-0.00000374,-0.00012270,-0.00262481,0.00714017,-0.005
 50034,0.00003433,0.00031480,-0.00057464,0.00249912,-0.00736314,0.00978
 921,0.00626999,-0.00049622,0.00004202,-0.00136624,0.00238588,-0.000045
 80,-0.00041567,-0.00163728,0.00002182,0.00131152,0.00084233,-0.0000042
 7,-0.00078394,-0.00118021,0.00001878,0.00002654,-0.00007451,0.00000151
 ,-0.00011647,0.00072741,-0.00001172,-0.00004906,-0.00004946,0.00000067
 ,0.00007193,-0.00008192,-0.00000485,0.00007157,-0.00008233,0.00000851,
 -0.00240456,-0.00078307,-0.00000010,-0.00166982,-0.00070912,0.00000126
 ,-0.00768744,-0.00821740,0.00007123,-0.00034361,0.00022285,-0.00000574
 ,0.00001603,-0.00003268,0.00000081,0.00038083,-0.00023746,0.00000588,0
 .61170549,0.00759007,-0.00349139,0.00009586,-0.00079614,0.00031231,-0.
 00000762,-0.00019247,-0.00006062,0.00000329,0.00207283,-0.00096499,0.0
 0002255,0.00042737,-0.00054170,-0.00000035,-0.00006051,-0.00003926,-0.
 00000039,-0.00002882,0.00063056,-0.00001190,-0.00003968,-0.00002963,0.
 00000042,0.00008767,-0.00003046,0.00002209,0.00008801,-0.00003220,-0.0
 0001910,-0.00410286,0.00042898,-0.00003323,-0.00180869,-0.00010725,-0.
 00000661,-0.01189214,-0.00400122,0.00003157,-0.00022345,0.00024946,-0.
 00000396,0.00000988,-0.00003050,0.00000017,0.00030904,-0.00026585,0.00
 000514,0.11212674,0.49886123,-0.00007967,0.00005160,0.00003234,0.00000
 056,0.00001082,0.00003089,-0.00000118,-0.00000593,0.00024635,-0.000023
 36,0.00001608,-0.00022858,-0.00000469,-0.00000912,-0.00059810,0.000001
 26,-0.00000056,-0.00004893,0.00000044,-0.00000711,-0.00009449,0.000000
 35,0.00000019,0.00000222,-0.00000963,0.00001210,0.00001562,0.00000739,
 -0.00001157,0.00001696,0.00005064,-0.00001532,-0.00029166,0.00001751,-
 0.00000103,0.00009848,0.00012306,0.00004947,0.00251093,0.00000110,-0.0
 0000152,0.00007027,0.00000015,-0.00000005,-0.00002554,-0.00000236,0.00
 000212,-0.00003762,0.00319730,-0.00716048,0.00373659,-0.01561820,-0.00
 024944,-0.00008381,-0.00078215,-0.00077578,0.00001149,0.00045649,0.000
 38205,-0.00000307,-0.00277233,0.00025701,-0.00002070,-0.00089124,0.001
 51779,-0.00003179,0.00010135,0.00008726,-0.00000136,0.00020059,-0.0010
 0607,0.00001703,0.00006676,0.00006864,-0.00000100,-0.00011540,0.000088
 81,-0.00001356,-0.00011492,0.00009038,0.00000891,0.00522040,0.00055680
 ,0.00001551,0.00255556,0.00049985,0.00000683,0.00762158,0.00443481,0.0
 0000050,0.00038260,-0.00030796,0.00000709,-0.00001594,0.00003133,-0.00
 000073,-0.00047468,0.00035471,-0.00000807,-0.07932466,-0.08540670,0.00
 078430,0.09772034,-0.01181781,0.00550606,-0.00014599,0.00101649,0.0008
 3976,-0.00001849,0.00012651,-0.00077859,0.00001156,-0.00316491,0.00197
 897,-0.00004265,0.00142178,-0.00077062,0.00002895,0.00011161,0.0000131
 3,0.00000182,0.00008949,-0.00092234,0.00001663,0.00005284,0.00004565,-
 0.00000064,-0.00011611,0.00005320,-0.00002350,-0.00011678,0.00005495,0
 .00001924,0.00668170,-0.00080251,0.00006332,0.00251023,-0.00007304,0.0
 0001267,0.00947844,-0.00500841,0.00005002,0.00023850,-0.00026575,0.000
 00486,-0.00001277,0.00001546,-0.00000020,-0.00035518,0.00034015,-0.000
 00690,-0.14049262,-0.44755685,0.00605188,0.12463288,0.44478778,0.00009
 292,-0.00008079,0.00027193,-0.00001689,-0.00002710,-0.00068563,0.00000
 085,0.00001206,-0.00008867,0.00003119,-0.00002336,0.00032261,-0.000028
 59,0.00002842,0.00056211,-0.00000165,0.00000169,0.00009318,-0.00000098
 ,0.00000997,0.00007595,-0.00000047,-0.00000031,-0.00000070,0.00002424,
 -0.00000316,-0.00001833,-0.00002146,0.00000187,-0.00001937,-0.00007828
 ,0.00002858,0.00089554,-0.00002377,0.00000167,-0.00012959,-0.00007425,
 0.00002390,-0.00504640,-0.00000139,0.00000185,-0.00003751,0.00000003,0
 .00000009,0.00001134,0.00000279,-0.00000303,0.00001557,0.00167941,0.00
 650721,-0.00554222,-0.00131333,-0.00605224,0.00988040,-0.00042382,0.00
 023352,-0.00000476,0.00018528,0.00046960,-0.00000928,-0.00003038,-0.00
 017745,0.00000317,-0.00014473,0.00013277,-0.00000274,-0.00033140,-0.00
 023517,0.00000299,0.00000119,0.00000396,-0.00000021,0.00000162,-0.0000
 2095,0.00000010,0.00000294,-0.00000334,0.00000007,-0.00000491,-0.00000
 502,0.00000218,-0.00000496,-0.00000518,-0.00000204,0.00023012,-0.00008
 425,0.00000260,0.00007332,-0.00003440,0.00000101,0.00064439,-0.0002147
 6,0.00000595,0.00001665,-0.00001023,0.00000048,-0.00000434,0.00000283,
 -0.00000016,-0.00001601,0.00001273,-0.00000037,-0.52569242,-0.01816017
 ,-0.00406316,-0.01421614,0.00971570,-0.00027037,0.53971359,0.00115319,
 -0.00037231,0.00001089,0.00040763,-0.00007712,0.00000844,0.00008106,0.
 00028251,-0.00000463,0.00008102,-0.00020673,0.00000304,-0.00080833,0.0
 0005360,-0.00000763,-0.00001335,0.00001033,0.00000009,-0.00001160,0.00
 002915,-0.00000012,0.00000195,0.00000134,0.,-0.00000161,0.00000163,-0.
 00000199,-0.00000160,0.00000176,0.00000185,-0.00029814,0.00013111,-0.0
 0000447,0.00002362,0.00007769,-0.00000115,-0.00150476,-0.00202287,0.00
 002950,0.00003334,-0.00002978,0.00000019,-0.00000360,0.00000882,0.0000
 0003,-0.00003137,0.00001539,-0.00000021,0.03776908,-0.04333060,0.00101
 843,-0.04525637,0.00254302,-0.00042733,0.00837982,0.04288305,-0.000020
 85,0.00000472,-0.00010893,-0.00000409,0.00000770,0.00035942,-0.0000005
 7,-0.00000482,-0.00006235,-0.00000180,0.00000288,-0.00003239,0.0000090
 9,-0.00000379,-0.00020582,0.00000013,0.00000023,0.00002198,0.00000008,
 -0.00000024,0.00002944,0.,-0.00000003,-0.00000064,-0.00000124,-0.00000
 416,-0.00000275,0.00000126,0.00000403,-0.00000299,0.00000631,-0.000002
 49,-0.00001834,0.00000057,-0.00000115,-0.00000793,0.00002757,0.0000369
 7,0.00023372,-0.00000020,-0.00000004,-0.00002560,-0.00000006,0.0000000
 3,0.00001114,0.00000023,0.00000008,0.00001144,-0.00497673,0.00055535,0
 .00010649,0.00062577,0.00002964,-0.00056021,0.00433453,-0.00062495,0.0
 0025432\\-0.00000241,-0.00000065,-0.00000025,-0.00000018,0.00000055,0.
 00000003,0.00000011,-0.00000001,-0.00000039,-0.00000130,0.00000066,-0.
 00000003,0.,-0.00000021,0.00000013,-0.00000044,-0.00000012,0.00000007,
 0.00000104,-0.00000179,-0.00000046,0.00000006,0.00000085,0.00000007,0.
 00000035,-0.00000023,-0.00000002,-0.00000004,-0.00000027,-0.00000006,0
 .00000089,0.00000110,0.00000108,0.00000012,0.00000182,-0.00000197,0.00
 000117,-0.00000165,0.00000100,0.00000004,0.00000056,-0.00000095,0.0000
 0009,0.,-0.00000087,0.00000015,-0.00000153,0.00000348,0.00000042,-0.00
 000038,0.00000087,-0.00000009,0.00000136,-0.00000271,0.00000001,-0.000
 00006,0.00000098\\\@


 DO NOT LET SELFISH MEN OR GREEDY INTERESTS SKIN YOUR COUNTRY OF ITS
 BEAUTY, ITS RICHES, OR ITS ROMANCE. -- THEODORE ROOSEVELT
 Job cpu time:       0 days  0 hours 17 minutes  1.6 seconds.
 File lengths (MBytes):  RWF=    143 Int=      0 D2E=      0 Chk=     11 Scr=      1
 Normal termination of Gaussian 09 at Thu Aug 27 17:21:12 2020.
