 Entering Gaussian System, Link 0=g09
 Input=freq_b3lyp_PM6_Diels_Alder_4H2O_TS_1.com
 Output=freq_b3lyp_PM6_Diels_Alder_4H2O_TS_1.log
 Initial command:
 /apps/applications/gaussian/G09.D01/2/default/g09/l1.exe "/local/718415.1.40core-192G.q/Gau-280079.inp" -scrdir="/local/718415.1.40core-192G.q/"
 Entering Link 1 = /apps/applications/gaussian/G09.D01/2/default/g09/l1.exe PID=    280080.
  
 Copyright (c) 1988,1990,1992,1993,1995,1998,2003,2009,2013,
            Gaussian, Inc.  All Rights Reserved.
  
 This is part of the Gaussian(R) 09 program.  It is based on
 the Gaussian(R) 03 system (copyright 2003, Gaussian, Inc.),
 the Gaussian(R) 98 system (copyright 1998, Gaussian, Inc.),
 the Gaussian(R) 94 system (copyright 1995, Gaussian, Inc.),
 the Gaussian 92(TM) system (copyright 1992, Gaussian, Inc.),
 the Gaussian 90(TM) system (copyright 1990, Gaussian, Inc.),
 the Gaussian 88(TM) system (copyright 1988, Gaussian, Inc.),
 the Gaussian 86(TM) system (copyright 1986, Carnegie Mellon
 University), and the Gaussian 82(TM) system (copyright 1983,
 Carnegie Mellon University). Gaussian is a federally registered
 trademark of Gaussian, Inc.
  
 This software contains proprietary and confidential information,
 including trade secrets, belonging to Gaussian, Inc.
  
 This software is provided under written license and may be
 used, copied, transmitted, or stored only in accord with that
 written license.
  
 The following legend is applicable only to US Government
 contracts under FAR:
  
                    RESTRICTED RIGHTS LEGEND
  
 Use, reproduction and disclosure by the US Government is
 subject to restrictions as set forth in subparagraphs (a)
 and (c) of the Commercial Computer Software - Restricted
 Rights clause in FAR 52.227-19.
  
 Gaussian, Inc.
 340 Quinnipiac St., Bldg. 40, Wallingford CT 06492
  
  
 ---------------------------------------------------------------
 Warning -- This program may not be used in any manner that
 competes with the business of Gaussian, Inc. or will provide
 assistance to any competitor of Gaussian, Inc.  The licensee
 of this program is prohibited from giving any competitor of
 Gaussian, Inc. access to this program.  By using this program,
 the user acknowledges that Gaussian, Inc. is engaged in the
 business of creating and licensing software in the field of
 computational chemistry and represents and warrants to the
 licensee that it is not a competitor of Gaussian, Inc. and that
 it will not use this program in any manner prohibited above.
 ---------------------------------------------------------------
  

 Cite this work as:
 Gaussian 09, Revision D.01,
 M. J. Frisch, G. W. Trucks, H. B. Schlegel, G. E. Scuseria, 
 M. A. Robb, J. R. Cheeseman, G. Scalmani, V. Barone, B. Mennucci, 
 G. A. Petersson, H. Nakatsuji, M. Caricato, X. Li, H. P. Hratchian, 
 A. F. Izmaylov, J. Bloino, G. Zheng, J. L. Sonnenberg, M. Hada, 
 M. Ehara, K. Toyota, R. Fukuda, J. Hasegawa, M. Ishida, T. Nakajima, 
 Y. Honda, O. Kitao, H. Nakai, T. Vreven, J. A. Montgomery, Jr., 
 J. E. Peralta, F. Ogliaro, M. Bearpark, J. J. Heyd, E. Brothers, 
 K. N. Kudin, V. N. Staroverov, T. Keith, R. Kobayashi, J. Normand, 
 K. Raghavachari, A. Rendell, J. C. Burant, S. S. Iyengar, J. Tomasi, 
 M. Cossi, N. Rega, J. M. Millam, M. Klene, J. E. Knox, J. B. Cross, 
 V. Bakken, C. Adamo, J. Jaramillo, R. Gomperts, R. E. Stratmann, 
 O. Yazyev, A. J. Austin, R. Cammi, C. Pomelli, J. W. Ochterski, 
 R. L. Martin, K. Morokuma, V. G. Zakrzewski, G. A. Voth, 
 P. Salvador, J. J. Dannenberg, S. Dapprich, A. D. Daniels, 
 O. Farkas, J. B. Foresman, J. V. Ortiz, J. Cioslowski, 
 and D. J. Fox, Gaussian, Inc., Wallingford CT, 2013.
 
 ******************************************
 Gaussian 09:  ES64L-G09RevD.01 24-Apr-2013
                28-Aug-2020 
 ******************************************
 %nprocshared=4
 Will use up to    4 processors via shared memory.
 %chk=PM6_Diels_Alder_4H2O.chk
 ----------------------------------------------------------------------
 # freq b3lyp/6-31+g(d,p) scrf=(cpcm,solvent=toluene) geom=connectivity
  empiricaldispersion=gd3
 ----------------------------------------------------------------------
 1/10=4,30=1,38=1,57=2/1,3;
 2/12=2,17=6,18=5,40=1/2;
 3/5=1,6=6,7=111,11=2,16=1,25=1,30=1,70=2101,71=2,72=13,74=-5,124=31,140=1/1,2,3;
 4//1;
 5/5=2,38=5,53=13,98=1/2;
 8/6=4,10=90,11=11/1;
 11/6=1,8=1,9=11,15=111,16=1/1,2,10;
 10/6=1/2;
 6/7=2,8=2,9=2,10=2,18=1,28=1/1;
 7/8=1,10=1,25=1/1,2,3,16;
 1/10=4,30=1/3;
 99//99;
 -------------------
 Title Card Required
 -------------------
 Symbolic Z-matrix:
 Charge =  0 Multiplicity = 1
 C                     2.67997   0.44069   0.89592 
 C                     1.63595  -0.60104   0.78898 
 C                     0.407     0.05581   0.61067 
 C                     0.68394   1.51271   0.59499 
 H                     1.78655  -1.5634    1.25577 
 H                    -0.54919  -0.31612   0.94904 
 C                     2.74438   2.95769   0.5912 
 H                     2.64535   3.39469  -0.40586 
 H                     2.3136    3.63874   1.32917 
 H                     3.79703   2.78614   0.81702 
 N                     2.06365   1.67357   0.64478 
 O                    -0.11523   2.44924   0.52481 
 O                     3.87501   0.31428   1.15793 
 C                     1.14131  -2.11084  -1.54622 
 H                     1.14422  -3.198    -1.49246 
 C                    -0.09435  -1.47081  -1.68944 
 H                    -0.98945  -2.08752  -1.70369 
 C                     2.32678  -1.43963  -1.24737 
 H                     2.42279  -0.40338  -1.56416 
 C                     3.623    -2.16082  -1.02463 
 H                     4.29103  -1.58766  -0.37777 
 H                     3.46816  -3.14777  -0.5809 
 H                     4.13757  -2.2903   -1.9866 
 C                    -0.23946  -0.09049  -1.54506 
 H                     0.57053   0.5737   -1.83452 
 C                    -1.58066   0.58296  -1.62001 
 H                    -1.86361   0.75312  -2.66466 
 H                    -1.55328   1.54668  -1.11512 
 C                    -3.40229   0.05205  -0.05217 
 C                    -3.45981   1.47844   0.4236 
 H                    -3.71309   2.14475  -0.40718 
 H                    -4.21679   1.56009   1.20227 
 H                    -2.48795   1.79693   0.81525 
 O                    -2.58552  -0.29251  -1.05447 
 O                    -4.08408  -0.85137   0.42702 
 H                     4.18147  -1.35237   1.9995 
 H                     0.17369   3.28411  -1.24782 
 H                    -3.27315  -2.54308  -0.21109 
 H                    -5.25822  -0.41849   1.82423 
 O                    -2.76786  -3.33488  -0.47177 
 H                    -3.21599  -4.07817  -0.04973 
 O                    -5.77124   0.01253   2.53428 
 H                    -6.48902  -0.59456   2.7513 
 O                     0.3974    3.1259   -2.18094 
 H                     0.39018   3.9896   -2.61171 
 O                     4.11579  -2.25257   2.3722 
 H                     4.53321  -2.20807   3.24109 
 

 GradGradGradGradGradGradGradGradGradGradGradGradGradGradGradGradGradGrad
 Berny optimization.
 Initialization pass.
 Trust Radius=3.00D-01 FncErr=1.00D-07 GrdErr=1.00D-07
 Number of steps in this run=      2 maximum allowed number of steps=      2.
 GradGradGradGradGradGradGradGradGradGradGradGradGradGradGradGradGradGrad

                          Input orientation:                          
 ---------------------------------------------------------------------
 Center     Atomic      Atomic             Coordinates (Angstroms)
 Number     Number       Type             X           Y           Z
 ---------------------------------------------------------------------
      1          6           0        2.679967    0.440689    0.895924
      2          6           0        1.635953   -0.601035    0.788982
      3          6           0        0.406995    0.055810    0.610667
      4          6           0        0.683941    1.512705    0.594992
      5          1           0        1.786545   -1.563399    1.255774
      6          1           0       -0.549193   -0.316123    0.949039
      7          6           0        2.744380    2.957687    0.591196
      8          1           0        2.645352    3.394690   -0.405857
      9          1           0        2.313603    3.638740    1.329172
     10          1           0        3.797028    2.786144    0.817019
     11          7           0        2.063653    1.673570    0.644782
     12          8           0       -0.115225    2.449241    0.524810
     13          8           0        3.875006    0.314277    1.157927
     14          6           0        1.141313   -2.110836   -1.546219
     15          1           0        1.144216   -3.197999   -1.492462
     16          6           0       -0.094348   -1.470808   -1.689439
     17          1           0       -0.989453   -2.087521   -1.703687
     18          6           0        2.326775   -1.439630   -1.247374
     19          1           0        2.422793   -0.403377   -1.564160
     20          6           0        3.622997   -2.160825   -1.024632
     21          1           0        4.291030   -1.587655   -0.377771
     22          1           0        3.468159   -3.147766   -0.580898
     23          1           0        4.137570   -2.290300   -1.986598
     24          6           0       -0.239456   -0.090488   -1.545059
     25          1           0        0.570529    0.573703   -1.834522
     26          6           0       -1.580658    0.582964   -1.620012
     27          1           0       -1.863610    0.753124   -2.664657
     28          1           0       -1.553278    1.546676   -1.115123
     29          6           0       -3.402286    0.052047   -0.052171
     30          6           0       -3.459809    1.478438    0.423599
     31          1           0       -3.713093    2.144751   -0.407183
     32          1           0       -4.216793    1.560089    1.202269
     33          1           0       -2.487945    1.796932    0.815253
     34          8           0       -2.585515   -0.292511   -1.054473
     35          8           0       -4.084081   -0.851365    0.427020
     36          1           0        4.181469   -1.352372    1.999498
     37          1           0        0.173690    3.284112   -1.247816
     38          1           0       -3.273146   -2.543077   -0.211092
     39          1           0       -5.258220   -0.418492    1.824228
     40          8           0       -2.767862   -3.334877   -0.471766
     41          1           0       -3.215990   -4.078172   -0.049730
     42          8           0       -5.771237    0.012532    2.534277
     43          1           0       -6.489025   -0.594563    2.751302
     44          8           0        0.397398    3.125905   -2.180938
     45          1           0        0.390183    3.989598   -2.611709
     46          8           0        4.115791   -2.252574    2.372197
     47          1           0        4.533210   -2.208068    3.241089
 ---------------------------------------------------------------------
                    Distance matrix (angstroms):
                    1          2          3          4          5
     1  C    0.000000
     2  C    1.478713   0.000000
     3  C    2.322909   1.404841   0.000000
     4  C    2.285585   2.326340   1.483067   0.000000
     5  H    2.223525   1.080147   2.222872   3.333884   0.000000
     6  H    3.317086   2.209447   1.080336   2.233961   2.665606
     7  C    2.536195   3.732591   3.726210   2.516624   4.668975
     8  H    3.228305   4.290961   4.146285   2.896670   5.299171
     9  H    3.247993   4.327437   4.121746   2.777561   5.229286
    10  H    2.599079   4.017961   4.357709   3.370794   4.811764
    11  N    1.401039   2.318954   2.315778   1.389950   3.305763
    12  O    3.461951   3.527123   2.451244   1.233163   4.500257
    13  O    1.229936   2.446891   3.520426   3.454855   2.810144
    14  C    3.852505   2.824417   3.144159   4.233677   2.926974
    15  H    4.615514   3.491563   3.943846   5.173012   3.261488
    16  C    4.246734   3.145317   2.805779   3.837409   3.495799
    17  H    5.158921   3.913540   3.449662   4.587570   4.091366
    18  C    2.872990   2.308078   3.061734   3.848311   2.563770
    19  H    2.613541   2.489069   3.000694   3.370002   3.114882
    20  C    3.368340   3.109740   4.234424   4.975546   2.988265
    21  H    2.886521   3.063359   4.331710   4.854852   2.990235
    22  H    3.959704   3.423359   4.588404   5.554690   2.951510
    23  H    4.229875   4.100677   5.115389   5.749348   4.070464
    24  C    3.842340   3.037361   2.255317   2.828906   3.757501
    25  H    3.452935   3.065601   2.504777   2.607130   3.949156
    26  C    4.950061   4.189474   3.033906   3.301374   4.920882
    27  H    5.780955   5.099834   4.045941   4.206221   5.836068
    28  H    4.815380   4.290626   3.007275   2.816167   5.142775
    29  C    6.167960   5.149554   3.866522   4.387436   5.589665
    30  C    6.244747   5.515841   4.124444   4.147435   6.121235
    31  H    6.743377   6.130452   4.730203   4.553871   6.838262
    32  H    6.993726   6.252671   4.898190   4.938444   6.767504
    33  H    5.343521   4.770479   3.384382   3.192203   5.455011
    34  O    5.662767   4.616742   3.442257   4.082754   5.105615
    35  O    6.902291   5.736939   4.585461   5.324573   5.971438
    36  H    2.586011   2.917106   4.261277   4.734343   2.516609
    37  H    4.354549   4.623973   3.732335   2.606565   5.689255
    38  H    6.750400   5.373167   4.579622   5.723432   5.358352
    39  H    8.038330   6.973857   5.813119   6.367874   7.159795
    40  O    6.767889   5.334507   4.769501   6.045822   5.183160
    41  H    7.488436   6.027874   5.536420   6.847119   5.749242
    42  O    8.619186   7.634722   6.470912   6.905119   7.825484
    43  H    9.411939   8.358589   7.249855   7.780854   8.465241
    44  O    4.678417   4.923873   4.149534   3.223400   5.977482
    45  H    5.490114   5.847269   5.085143   4.062539   6.909633
    46  O    3.390374   3.373981   4.710286   5.395681   2.673340
    47  H    3.993773   4.121830   5.391652   5.971838   3.449818
                    6          7          8          9         10
     6  H    0.000000
     7  C    4.657629   0.000000
     8  H    5.080452   1.093112   0.000000
     9  H    4.897044   1.092708   1.783240   0.000000
    10  H    5.341454   1.090179   1.786648   1.785993   0.000000
    11  N    3.298244   1.454379   2.098683   2.095891   2.066900
    12  O    2.831172   2.905213   3.062809   2.821544   3.937590
    13  O    4.473765   2.930378   3.666935   3.676868   2.496483
    14  C    3.507865   5.729598   5.820084   6.534505   6.051292
    15  H    4.139296   6.692879   6.848187   7.487996   6.941259
    16  C    2.915776   5.733345   5.729451   6.404508   6.288623
    17  H    3.220036   6.682972   6.704536   7.273134   7.281275
    18  C    3.789154   4.784468   4.917346   5.694612   4.927528
    19  H    3.893133   4.005712   3.976998   4.972123   4.210888
    20  C    4.970460   5.438937   5.674718   6.394518   5.281521
    21  H    5.177352   4.898077   5.247171   5.842865   4.560886
    22  H    5.147623   6.258931   6.596316   7.144091   6.105212
    23  H    5.872060   6.010605   6.086425   7.033826   5.809176
    24  C    2.523365   4.770559   4.665444   5.355974   5.490685
    25  H    3.129501   4.036473   3.782055   4.737269   4.726083
    26  C    2.910722   5.406913   5.219113   5.762007   6.301796
    27  H    3.991213   6.057578   5.693047   6.459610   6.949681
    28  H    2.956175   4.834495   4.641843   5.030316   5.821961
    29  C    3.045999   6.829214   6.918980   6.887951   7.749897
    30  C    3.459512   6.380300   6.452365   6.230510   7.384210
    31  H    4.231489   6.584572   6.480137   6.447325   7.636228
    32  H    4.127419   7.126333   7.282916   6.854412   8.116216
    33  H    2.870829   5.364213   5.513137   5.168291   6.362345
    34  O    2.856786   6.455989   6.432583   6.718471   7.329219
    35  O    3.613090   7.820723   8.000496   7.867991   8.688812
    36  H    4.955445   4.756590   5.538952   5.371169   4.321269
    37  H    4.279068   3.177572   2.613472   3.368361   4.200011
    38  H    3.704747   8.192234   8.385918   8.473431   8.913191
    39  H    4.790759   8.772717   9.054286   8.604575   9.658244
    40  O    4.006751   8.432738   8.636799   8.814533   9.067836
    41  H    4.718300   9.243382   9.503990   9.593149   9.851523
    42  O    5.467242   9.217659   9.535321   8.942388  10.109085
    43  H    6.213476  10.126219  10.455555   9.870642  10.998796
    44  O    4.747668   3.636117   2.876883   4.031837   4.545401
    45  H    5.665738   4.106785   3.210216   4.399226   4.981071
    46  O    5.247599   5.674465   6.463077   6.248469   5.282884
    47  H    5.887595   6.075103   6.946591   6.539667   5.600021
                   11         12         13         14         15
    11  N    0.000000
    12  O    2.315938   0.000000
    13  O    2.322067   4.569557   0.000000
    14  C    4.469108   5.163560   4.546059   0.000000
    15  H    5.398644   6.127552   5.178596   1.088495   0.000000
    16  C    4.471316   4.502235   5.200942   1.398930   2.134486
    17  H    5.383546   5.129589   6.133550   2.136704   2.414606
    18  C    3.652602   4.922125   3.355396   1.394685   2.133161
    19  H    3.053214   4.352328   3.167603   2.134931   3.074055
    20  C    4.463304   6.134149   3.309562   2.536397   2.727444
    21  H    4.079511   6.043696   2.479675   3.399957   3.706505
    22  H    5.169159   6.737189   3.895482   2.724203   2.496835
    23  H    5.190140   6.845194   4.091552   3.033760   3.166742
    24  C    3.634779   3.278721   4.939511   2.447107   3.402049
    25  H    3.096139   3.091011   4.465604   2.759649   3.830386
    26  C    4.427157   3.198554   6.128084   3.830291   4.662284
    27  H    5.217567   4.013273   6.909157   4.299155   5.102199
    28  H    4.024370   2.360508   6.012639   4.563339   5.470905
    29  C    5.743829   4.109041   7.381875   5.249241   5.771301
    30  C    5.531332   3.484099   7.462843   6.159009   6.836476
    31  H    5.890623   3.729072   7.961121   6.555355   7.301798
    32  H    6.306161   4.251165   8.187260   7.052601   7.657767
    33  H    4.556459   2.477835   6.542388   5.832556   6.592987
    34  O    5.326134   4.014184   6.855745   4.175807   4.748114
    35  O    6.649613   5.162885   8.077129   5.725791   6.043690
    36  H    3.934047   5.923559   1.892057   4.731799   4.982472
    37  H    3.122136   1.980577   5.320457   5.489153   6.558928
    38  H    6.855221   5.952920   7.818872   4.632153   4.645850
    39  H    7.705689   6.030156   9.186769   7.428187   7.727696
    40  O    7.048032   6.440937   7.752414   4.234900   4.045357
    41  H    7.838336   7.249273   8.428183   5.009589   4.676278
    42  O    8.228897   6.478115   9.748610   8.303161   8.622391
    43  H    9.095612   7.405899  10.525112   8.887622   9.113385
    44  O    3.587531   2.835794   5.580952   5.327263   6.404959
    45  H    4.332346   3.530706   6.313646   6.238170   7.313196
    46  O    4.754981   6.589492   2.849764   4.921544   4.965851
    47  H    5.282673   7.118753   3.336918   5.867941   5.905231
                   16         17         18         19         20
    16  C    0.000000
    17  H    1.087084   0.000000
    18  C    2.461347   3.409597   0.000000
    19  H    2.736988   3.807786   1.087839   0.000000
    20  C    3.838847   4.662744   1.499976   2.195496   0.000000
    21  H    4.578828   5.467305   2.153234   2.510048   1.092347
    22  H    4.090539   4.717529   2.159786   3.096977   1.093127
    23  H    4.320764   5.138825   2.132855   2.584452   1.098603
    24  C    1.395416   2.139112   2.914505   2.680641   4.413126
    25  H    2.154794   3.087519   2.735444   2.111555   4.177454
    26  C    2.536122   2.736424   4.415629   4.123543   5.912773
    27  H    3.004532   3.123600   4.937225   4.574040   6.425234
    28  H    3.400518   3.724472   4.897992   4.451234   6.367698
    29  C    3.992767   3.623123   6.039516   6.035318   7.429474
    30  C    4.948667   4.831570   6.692670   6.488252   8.093686
    31  H    5.273686   5.197236   7.073451   6.743934   8.528625
    32  H    5.877318   5.671452   7.603772   7.456033   8.959163
    33  H    4.762448   4.866160   6.157215   5.883733   7.509503
    34  O    2.827981   2.488163   5.048137   5.035397   6.483603
    35  O    4.558627   3.955340   6.651972   6.819450   7.951165
    36  H    5.648442   6.402535   3.740278   4.085730   3.179756
    37  H    4.782901   5.514994   5.191292   4.330833   6.449408
    38  H    3.666064   2.765976   5.800913   6.233204   6.954477
    39  H    6.333940   5.783962   8.246794   8.395199   9.488295
    40  O    3.479247   2.497251   5.490797   6.060521   6.521283
    41  H    4.385390   3.414049   6.254478   6.898804   7.169268
    42  O    7.229602   6.725773   9.054693   9.171275  10.278178
    43  H    7.834531   7.233336   9.717092   9.903548  10.907055
    44  O    4.648995   5.415804   5.043624   4.115637   6.300083
    45  H    5.558902   6.297561   5.923539   4.952483   7.127244
    46  O    5.901976   6.534798   4.118586   4.666977   3.433615
    47  H    6.802055   7.413848   5.060153   5.549882   4.362006
                   21         22         23         24         25
    21  H    0.000000
    22  H    1.775478   0.000000
    23  H    1.762267   1.777456   0.000000
    24  C    4.912166   4.901323   4.918586   0.000000
    25  H    4.542656   4.880283   4.577054   1.086745   0.000000
    26  C    6.382121   6.363070   6.410005   1.502657   2.161876
    27  H    6.970559   6.927247   6.762866   2.145474   2.578051
    28  H    6.672605   6.894781   6.918642   2.142727   2.444334
    29  C    7.872849   7.597458   8.128839   3.500361   4.385449
    30  C    8.373686   8.390919   8.816610   4.087520   4.707577
    31  H    8.831631   8.922516   9.154078   4.284531   4.780680
    32  H    9.208033   9.187060   9.736003   5.107977   5.754434
    33  H    7.670283   7.866031   8.273650   3.766846   4.227512
    34  O    7.030092   6.709972   7.075301   2.405303   3.364434
    35  O    8.445845   7.957744   8.688592   4.387388   5.367568
    36  H    2.391395   3.223460   4.095192   5.805240   5.607884
    37  H    6.437669   7.257228   6.879841   3.412765   2.801432
    38  H    7.626098   6.778466   7.624633   4.122855   5.208040
    39  H    9.869342   9.454272  10.310525   6.053732   6.953073
    40  O    7.272522   6.239782   7.146387   4.250983   5.317796
    41  H    7.916163   6.769464   7.811708   5.195901   6.258047
    42  O   10.596690  10.249792  11.132197   6.874023   7.721354
    43  H   11.268847  10.805920  11.757880   7.600653   8.498937
    44  O    6.374122   7.165797   6.584978   3.339927   2.581417
    45  H    7.163298   8.033685   7.339672   4.263952   3.507832
    46  O    2.834634   3.153025   4.359013   6.244012   6.184918
    47  H    3.679635   4.077371   5.243282   7.083057   7.014479
                   26         27         28         29         30
    26  C    0.000000
    27  H    1.095582   0.000000
    28  H    1.088303   1.768357   0.000000
    29  C    2.461367   3.111931   2.604345   0.000000
    30  C    2.917092   3.551233   2.450955   1.504745   0.000000
    31  H    2.908163   3.233172   2.350250   2.145238   1.094680
    32  H    3.983623   4.598019   3.530552   2.123966   1.089045
    33  H    2.868345   3.686340   2.159301   2.152456   1.095149
    34  O    1.447767   2.051144   2.109929   1.338075   2.466850
    35  O    3.537622   4.130780   3.812318   1.229074   2.411993
    36  H    7.074495   7.920255   7.140915   7.980920   8.299763
    37  H    3.242294   3.544563   2.453306   4.966227   4.388212
    38  H    3.823834   4.344159   4.527836   2.603191   4.075569
    39  H    5.137136   5.748578   5.121354   2.680815   2.965533
    40  O    4.251753   4.726330   5.071359   3.471283   4.944539
    41  H    5.183270   5.657579   5.961425   4.134419   5.582061
    42  O    5.928276   6.545757   5.784712   3.507592   3.456377
    43  H    6.677351   7.248678   6.625386   4.219659   4.346456
    44  O    3.270152   3.313040   2.726731   5.330840   4.937186
    45  H    4.058674   3.944255   3.461889   6.036420   5.508308
    46  O    7.511827   8.375999   7.663814   8.228628   8.666441
    47  H    8.294549   9.195967   8.373770   8.884018   9.242128
                   31         32         33         34         35
    31  H    0.000000
    32  H    1.784903   0.000000
    33  H    1.765309   1.787398   0.000000
    34  O    2.762365   3.344560   2.805560   0.000000
    35  O    3.132130   2.536481   3.116384   2.180101   0.000000
    36  H    8.963598   8.924618   7.470049   7.499474   8.428702
    37  H    4.136652   5.315215   3.681339   4.521374   6.167322
    38  H    4.712509   4.441174   4.528311   2.499835   1.981588
    39  H    3.733206   2.320816   3.687893   3.930158   1.875679
    40  O    5.560931   5.372382   5.298135   3.103029   2.950946
    41  H    6.252972   5.861663   5.982900   3.967145   3.375375
    42  O    4.175464   2.566218   4.113287   4.808430   2.834316
    43  H    5.018532   3.493575   5.047393   5.460087   3.354399
    44  O    4.583122   5.932000   4.366753   4.674640   6.534813
    45  H    5.010017   6.455476   4.983520   5.442079   7.258639
    46  O    9.399619   9.237807   7.901386   7.777623   8.543126
    47  H   10.012913   9.742605   8.439273   8.532143   9.166097
                   36         37         38         39         40
    36  H    0.000000
    37  H    6.935728   0.000000
    38  H    7.866115   6.849205   0.000000
    39  H    9.487391   7.256196   3.549212   0.000000
    40  O    7.637452   7.284641   0.974787   4.469762   0.000000
    41  H    8.145657   8.193202   1.544610   4.590826   0.965101
    42  O   10.060085   7.768502   4.506512   0.976288   5.409409
    43  H   10.723755   8.684978   4.786895   1.550918   5.634230
    44  O    7.200709   0.972518   7.034952   7.783966   7.394717
    45  H    8.010850   1.550737   7.865036   8.426936   8.258362
    46  O    0.976515   7.700620   7.832890   9.567456   7.526233
    47  H    1.548382   8.325847   8.542188  10.053963   8.268050
                   41         42         43         44         45
    41  H    0.000000
    42  O    5.471767   0.000000
    43  H    5.540223   0.964823   0.000000
    44  O    8.336507   8.365309   9.251578   0.000000
    45  H    9.200931   8.958868   9.853929   0.965185   0.000000
    46  O    7.934327  10.144471  10.740337   7.967780   8.813863
    47  H    8.624203  10.564671  11.150469   8.657632   9.477921
                   46         47
    46  O    0.000000
    47  H    0.964983   0.000000
 Stoichiometry    C13H25NO8
 Framework group  C1[X(C13H25NO8)]
 Deg. of freedom   135
 Full point group                 C1      NOp   1
 Largest Abelian subgroup         C1      NOp   1
 Largest concise Abelian subgroup C1      NOp   1
                         Standard orientation:                         
 ---------------------------------------------------------------------
 Center     Atomic      Atomic             Coordinates (Angstroms)
 Number     Number       Type             X           Y           Z
 ---------------------------------------------------------------------
      1          6           0        2.679967    0.440689    0.895924
      2          6           0        1.635953   -0.601035    0.788982
      3          6           0        0.406995    0.055810    0.610667
      4          6           0        0.683941    1.512705    0.594992
      5          1           0        1.786545   -1.563399    1.255774
      6          1           0       -0.549193   -0.316123    0.949039
      7          6           0        2.744380    2.957687    0.591196
      8          1           0        2.645352    3.394690   -0.405857
      9          1           0        2.313603    3.638740    1.329172
     10          1           0        3.797028    2.786144    0.817019
     11          7           0        2.063653    1.673570    0.644782
     12          8           0       -0.115225    2.449241    0.524810
     13          8           0        3.875006    0.314277    1.157927
     14          6           0        1.141313   -2.110836   -1.546219
     15          1           0        1.144216   -3.197999   -1.492462
     16          6           0       -0.094348   -1.470808   -1.689439
     17          1           0       -0.989453   -2.087521   -1.703687
     18          6           0        2.326775   -1.439630   -1.247374
     19          1           0        2.422793   -0.403377   -1.564160
     20          6           0        3.622997   -2.160825   -1.024632
     21          1           0        4.291030   -1.587655   -0.377771
     22          1           0        3.468159   -3.147766   -0.580898
     23          1           0        4.137570   -2.290300   -1.986598
     24          6           0       -0.239456   -0.090488   -1.545059
     25          1           0        0.570529    0.573703   -1.834522
     26          6           0       -1.580658    0.582964   -1.620012
     27          1           0       -1.863610    0.753124   -2.664657
     28          1           0       -1.553278    1.546676   -1.115123
     29          6           0       -3.402286    0.052047   -0.052171
     30          6           0       -3.459809    1.478438    0.423599
     31          1           0       -3.713093    2.144751   -0.407183
     32          1           0       -4.216793    1.560089    1.202269
     33          1           0       -2.487945    1.796932    0.815253
     34          8           0       -2.585515   -0.292511   -1.054473
     35          8           0       -4.084081   -0.851365    0.427020
     36          1           0        4.181469   -1.352372    1.999498
     37          1           0        0.173690    3.284112   -1.247816
     38          1           0       -3.273146   -2.543077   -0.211092
     39          1           0       -5.258220   -0.418492    1.824228
     40          8           0       -2.767862   -3.334877   -0.471766
     41          1           0       -3.215990   -4.078172   -0.049730
     42          8           0       -5.771237    0.012532    2.534277
     43          1           0       -6.489025   -0.594563    2.751302
     44          8           0        0.397398    3.125905   -2.180938
     45          1           0        0.390183    3.989598   -2.611709
     46          8           0        4.115791   -2.252574    2.372197
     47          1           0        4.533210   -2.208068    3.241089
 ---------------------------------------------------------------------
 Rotational constants (GHZ):      0.3137809      0.1575454      0.1378716
 Standard basis: 6-31+G(d,p) (6D, 7F)
 There are   543 symmetry adapted cartesian basis functions of A   symmetry.
 There are   543 symmetry adapted basis functions of A   symmetry.
   543 basis functions,   879 primitive gaussians,   543 cartesian basis functions
    87 alpha electrons       87 beta electrons
       nuclear repulsion energy      2018.6402937387 Hartrees.
 NAtoms=   47 NActive=   47 NUniq=   47 SFac= 1.00D+00 NAtFMM=   60 NAOKFM=F Big=F
 Integral buffers will be    131072 words long.
 Raffenetti 2 integral format.
 Two-electron integral symmetry is turned on.
 Nuclear repulsion after empirical dispersion term =     2018.5818422404 Hartrees.
 Force inversion solution in PCM.
 ------------------------------------------------------------------------------
 Polarizable Continuum Model (PCM)
 =================================
 Model                : C-PCM.
 Atomic radii         : UFF (Universal Force Field).
 Polarization charges : Total charges.
 Charge compensation  : None.
 Solution method      : Matrix inversion.
 Cavity type          : Scaled VdW (van der Waals Surface) (Alpha=1.100).
 Cavity algorithm     : GePol (No added spheres)
                        Default sphere list used, NSphG=   47.
                        Lebedev-Laikov grids with approx.  5.0 points / Ang**2.
                        Smoothing algorithm: Karplus/York (Gamma=1.0000).
                        Polarization charges: spherical gaussians, with
                                              point-specific exponents (IZeta= 3).
                        Self-potential: point-specific (ISelfS= 7).
                        Self-field    : sphere-specific E.n sum rule (ISelfD= 2).
 1st derivatives      : Analytical E(r).r(x)/FMM algorithm (CHGder, D1EAlg=3).
                        Cavity 1st derivative terms included.
 2nd derivatives      : Analytical E(r).r(xy)/FMM algorithm (CHGder, D2EAlg=3).
                        Cavity 2nd derivative terms included.
 Solvent              : Toluene, Eps=   2.374100 Eps(inf)=   2.238315
 ------------------------------------------------------------------------------
 One-electron integrals computed using PRISM.
 NBasis=   543 RedAO= T EigKep=  1.95D-06  NBF=   543
 NBsUse=   543 1.00D-06 EigRej= -1.00D+00 NBFU=   543
 ExpMin= 4.38D-02 ExpMax= 5.48D+03 ExpMxC= 8.25D+02 IAcc=2 IRadAn=         4 AccDes= 0.00D+00
 Harris functional with IExCor=  402 and IRadAn=       4 diagonalized for initial guess.
 HarFok:  IExCor=  402 AccDes= 0.00D+00 IRadAn=         4 IDoV= 1 UseB2=F ITyADJ=14
 ICtDFT=  3500011 ScaDFX=  1.000000  1.000000  1.000000  1.000000
 FoFCou: FMM=F IPFlag=           0 FMFlag=      100000 FMFlg1=           0
         NFxFlg=           0 DoJE=T BraDBF=F KetDBF=T FulRan=T
         wScrn=  0.000000 ICntrl=     500 IOpCl=  0 I1Cent=   200000004 NGrid=           0
         NMat0=    1 NMatS0=      1 NMatT0=    0 NMatD0=    1 NMtDS0=    0 NMtDT0=    0
 Petite list used in FoFCou.
 Requested convergence on RMS density matrix=1.00D-08 within 128 cycles.
 Requested convergence on MAX density matrix=1.00D-06.
 Requested convergence on             energy=1.00D-06.
 No special actions if energy rises.
 Inv3:  Mode=2 IEnd=    21872498.
 Iteration    1 A*A^-1 deviation from unit magnitude is 7.22D-15 for   3303.
 Iteration    1 A*A^-1 deviation from orthogonality  is 2.67D-15 for   3294   1508.
 Iteration    1 A^-1*A deviation from unit magnitude is 7.22D-15 for   3303.
 Iteration    1 A^-1*A deviation from orthogonality  is 3.23D-15 for   3302   1045.
 Error on total polarization charges =  0.01180
 SCF Done:  E(RB3LYP) =  -1167.12070722     A.U. after   15 cycles
            NFock= 15  Conv=0.53D-08     -V/T= 2.0094
 DoSCS=F DFT=T ScalE2(SS,OS)=  1.000000  1.000000
 Range of M.O.s used for correlation:     1   543
 NBasis=   543 NAE=    87 NBE=    87 NFC=     0 NFV=     0
 NROrb=    543 NOA=    87 NOB=    87 NVA=   456 NVB=   456

 **** Warning!!: The largest alpha MO coefficient is  0.11633751D+03

 PrsmSu:  requested number of processors reduced to:   1 ShMem   1 Linda.
 Symmetrizing basis deriv contribution to polar:
 IMax=3 JMax=2 DiffMx= 0.00D+00
 G2DrvN: will do     8 centers at a time, making    6 passes.
 Calling FoFCou, ICntrl=  3107 FMM=F I1Cent=   0 AccDes= 0.00D+00.
 Calling FoFCou, ICntrl=  3107 FMM=F I1Cent=   0 AccDes= 0.00D+00.
 Calling FoFCou, ICntrl=  3107 FMM=F I1Cent=   0 AccDes= 0.00D+00.
 Calling FoFCou, ICntrl=  3107 FMM=F I1Cent=   0 AccDes= 0.00D+00.
 Calling FoFCou, ICntrl=  3107 FMM=F I1Cent=   0 AccDes= 0.00D+00.
 Calling FoFCou, ICntrl=  3107 FMM=F I1Cent=   0 AccDes= 0.00D+00.
 NEqPCM:  Using equilibrium solvation (IEInf=0, Eps=   2.3741, EpsInf=   2.2383)
 G2PCM: DoFxE=T DoFxN=T DoGrad=T DoDP/DQ/DG/TGxP=FFFF NFrqRd=   0 IEInf=0 SqF1=F DoCFld=F IF1Alg=4.
 End of G2Drv F.D. properties file   721 does not exist.
 End of G2Drv F.D. properties file   722 does not exist.
 End of G2Drv F.D. properties file   788 does not exist.
          IDoAtm=11111111111111111111111111111111111111111111111
 NEqPCM:  Using equilibrium solvation (IEInf=0, Eps=   2.3741, EpsInf=   2.2383)
          Differentiating once with respect to electric field.
                with respect to dipole field.
          Differentiating once with respect to nuclear coordinates.
          There are   144 degrees of freedom in the 1st order CPHF.  IDoFFX=6 NUNeed=     3.
    144 vectors produced by pass  0 Test12= 3.97D-14 1.00D-09 XBig12= 2.71D+02 7.29D+00.
 AX will form     8 AO Fock derivatives at one time.
    144 vectors produced by pass  1 Test12= 3.97D-14 1.00D-09 XBig12= 7.99D+01 1.64D+00.
    142 vectors produced by pass  2 Test12= 3.97D-14 1.00D-09 XBig12= 6.66D-01 9.98D-02.
    141 vectors produced by pass  3 Test12= 3.97D-14 1.00D-09 XBig12= 1.99D-03 4.73D-03.
    141 vectors produced by pass  4 Test12= 3.97D-14 1.00D-09 XBig12= 4.09D-06 1.94D-04.
    141 vectors produced by pass  5 Test12= 3.97D-14 1.00D-09 XBig12= 4.53D-09 4.38D-06.
    111 vectors produced by pass  6 Test12= 3.97D-14 1.00D-09 XBig12= 5.94D-12 2.23D-07.
     86 vectors produced by pass  7 Test12= 3.97D-14 1.00D-09 XBig12= 1.55D-13 1.95D-08.
     75 vectors produced by pass  8 Test12= 3.97D-14 1.00D-09 XBig12= 1.79D-14 9.28D-09.
     68 vectors produced by pass  9 Test12= 3.97D-14 1.00D-09 XBig12= 1.13D-14 5.09D-09.
     54 vectors produced by pass 10 Test12= 3.97D-14 1.00D-09 XBig12= 5.46D-15 3.67D-09.
     46 vectors produced by pass 11 Test12= 3.97D-14 1.00D-09 XBig12= 8.05D-15 3.75D-09.
     36 vectors produced by pass 12 Test12= 3.97D-14 1.00D-09 XBig12= 2.82D-15 2.92D-09.
     34 vectors produced by pass 13 Test12= 3.97D-14 1.00D-09 XBig12= 3.04D-15 3.16D-09.
     27 vectors produced by pass 14 Test12= 3.97D-14 1.00D-09 XBig12= 3.55D-15 3.42D-09.
     19 vectors produced by pass 15 Test12= 3.97D-14 1.00D-09 XBig12= 2.21D-15 2.10D-09.
     16 vectors produced by pass 16 Test12= 3.97D-14 1.00D-09 XBig12= 2.17D-15 2.15D-09.
     11 vectors produced by pass 17 Test12= 3.97D-14 1.00D-09 XBig12= 1.66D-15 1.97D-09.
      4 vectors produced by pass 18 Test12= 3.97D-14 1.00D-09 XBig12= 1.75D-15 2.14D-09.
      4 vectors produced by pass 19 Test12= 3.97D-14 1.00D-09 XBig12= 2.34D-15 2.00D-09.
      4 vectors produced by pass 20 Test12= 3.97D-14 1.00D-09 XBig12= 1.69D-15 2.01D-09.
      4 vectors produced by pass 21 Test12= 3.97D-14 1.00D-09 XBig12= 2.62D-15 2.20D-09.
      3 vectors produced by pass 22 Test12= 3.97D-14 1.00D-09 XBig12= 1.40D-15 1.65D-09.
      1 vectors produced by pass 23 Test12= 3.97D-14 1.00D-09 XBig12= 7.63D-16 1.28D-09.
 InvSVY:  IOpt=1 It=  1 EMax= 2.13D-14
 Solved reduced A of dimension  1456 with   144 vectors.
 Isotropic polarizability for W=    0.000000      259.45 Bohr**3.
 End of Minotr F.D. properties file   721 does not exist.
 End of Minotr F.D. properties file   722 does not exist.
 End of Minotr F.D. properties file   788 does not exist.

 **********************************************************************

            Population analysis using the SCF density.

 **********************************************************************

 Orbital symmetries:
       Occupied  (A) (A) (A) (A) (A) (A) (A) (A) (A) (A) (A) (A)
                 (A) (A) (A) (A) (A) (A) (A) (A) (A) (A) (A) (A)
                 (A) (A) (A) (A) (A) (A) (A) (A) (A) (A) (A) (A)
                 (A) (A) (A) (A) (A) (A) (A) (A) (A) (A) (A) (A)
                 (A) (A) (A) (A) (A) (A) (A) (A) (A) (A) (A) (A)
                 (A) (A) (A) (A) (A) (A) (A) (A) (A) (A) (A) (A)
                 (A) (A) (A) (A) (A) (A) (A) (A) (A) (A) (A) (A)
                 (A) (A) (A)
       Virtual   (A) (A) (A) (A) (A) (A) (A) (A) (A) (A) (A) (A)
                 (A) (A) (A) (A) (A) (A) (A) (A) (A) (A) (A) (A)
                 (A) (A) (A) (A) (A) (A) (A) (A) (A) (A) (A) (A)
                 (A) (A) (A) (A) (A) (A) (A) (A) (A) (A) (A) (A)
                 (A) (A) (A) (A) (A) (A) (A) (A) (A) (A) (A) (A)
                 (A) (A) (A) (A) (A) (A) (A) (A) (A) (A) (A) (A)
                 (A) (A) (A) (A) (A) (A) (A) (A) (A) (A) (A) (A)
                 (A) (A) (A) (A) (A) (A) (A) (A) (A) (A) (A) (A)
                 (A) (A) (A) (A) (A) (A) (A) (A) (A) (A) (A) (A)
                 (A) (A) (A) (A) (A) (A) (A) (A) (A) (A) (A) (A)
                 (A) (A) (A) (A) (A) (A) (A) (A) (A) (A) (A) (A)
                 (A) (A) (A) (A) (A) (A) (A) (A) (A) (A) (A) (A)
                 (A) (A) (A) (A) (A) (A) (A) (A) (A) (A) (A) (A)
                 (A) (A) (A) (A) (A) (A) (A) (A) (A) (A) (A) (A)
                 (A) (A) (A) (A) (A) (A) (A) (A) (A) (A) (A) (A)
                 (A) (A) (A) (A) (A) (A) (A) (A) (A) (A) (A) (A)
                 (A) (A) (A) (A) (A) (A) (A) (A) (A) (A) (A) (A)
                 (A) (A) (A) (A) (A) (A) (A) (A) (A) (A) (A) (A)
                 (A) (A) (A) (A) (A) (A) (A) (A) (A) (A) (A) (A)
                 (A) (A) (A) (A) (A) (A) (A) (A) (A) (A) (A) (A)
                 (A) (A) (A) (A) (A) (A) (A) (A) (A) (A) (A) (A)
                 (A) (A) (A) (A) (A) (A) (A) (A) (A) (A) (A) (A)
                 (A) (A) (A) (A) (A) (A) (A) (A) (A) (A) (A) (A)
                 (A) (A) (A) (A) (A) (A) (A) (A) (A) (A) (A) (A)
                 (A) (A) (A) (A) (A) (A) (A) (A) (A) (A) (A) (A)
                 (A) (A) (A) (A) (A) (A) (A) (A) (A) (A) (A) (A)
                 (A) (A) (A) (A) (A) (A) (A) (A) (A) (A) (A) (A)
                 (A) (A) (A) (A) (A) (A) (A) (A) (A) (A) (A) (A)
                 (A) (A) (A) (A) (A) (A) (A) (A) (A) (A) (A) (A)
                 (A) (A) (A) (A) (A) (A) (A) (A) (A) (A) (A) (A)
                 (A) (A) (A) (A) (A) (A) (A) (A) (A) (A) (A) (A)
                 (A) (A) (A) (A) (A) (A) (A) (A) (A) (A) (A) (A)
                 (A) (A) (A) (A) (A) (A) (A) (A) (A) (A) (A) (A)
                 (A) (A) (A) (A) (A) (A) (A) (A) (A) (A) (A) (A)
                 (A) (A) (A) (A) (A) (A) (A) (A) (A) (A) (A) (A)
                 (A) (A) (A) (A) (A) (A) (A) (A) (A) (A) (A) (A)
                 (A) (A) (A) (A) (A) (A) (A) (A) (A) (A) (A) (A)
                 (A) (A) (A) (A) (A) (A) (A) (A) (A) (A) (A) (A)
 The electronic state is 1-A.
 Alpha  occ. eigenvalues --  -19.22332 -19.17415 -19.17004 -19.16977 -19.16869
 Alpha  occ. eigenvalues --  -19.14918 -19.14877 -19.14770 -14.40343 -10.35436
 Alpha  occ. eigenvalues --  -10.32855 -10.32707 -10.26943 -10.23542 -10.23260
 Alpha  occ. eigenvalues --  -10.23240 -10.22834 -10.22245 -10.20986 -10.20794
 Alpha  occ. eigenvalues --  -10.20738 -10.18948  -1.13356  -1.08919  -1.06967
 Alpha  occ. eigenvalues --   -1.04737  -1.02117  -1.00153  -1.00078  -0.99946
 Alpha  occ. eigenvalues --   -0.97762  -0.85339  -0.82611  -0.80201  -0.76831
 Alpha  occ. eigenvalues --   -0.74645  -0.72112  -0.69731  -0.67534  -0.63174
 Alpha  occ. eigenvalues --   -0.62166  -0.59330  -0.56611  -0.54949  -0.54218
 Alpha  occ. eigenvalues --   -0.53252  -0.52927  -0.52668  -0.52034  -0.51281
 Alpha  occ. eigenvalues --   -0.50886  -0.50664  -0.50103  -0.48118  -0.47803
 Alpha  occ. eigenvalues --   -0.46451  -0.45806  -0.45387  -0.44593  -0.44300
 Alpha  occ. eigenvalues --   -0.43508  -0.42434  -0.42204  -0.41550  -0.41275
 Alpha  occ. eigenvalues --   -0.40661  -0.40505  -0.40096  -0.39441  -0.38452
 Alpha  occ. eigenvalues --   -0.38130  -0.37994  -0.37266  -0.36937  -0.36101
 Alpha  occ. eigenvalues --   -0.35449  -0.32819  -0.32584  -0.31486  -0.31146
 Alpha  occ. eigenvalues --   -0.30792  -0.30642  -0.30521  -0.29826  -0.29213
 Alpha  occ. eigenvalues --   -0.25879  -0.24963
 Alpha virt. eigenvalues --   -0.09313  -0.05627  -0.02697  -0.00731   0.00204
 Alpha virt. eigenvalues --    0.00743   0.01269   0.01860   0.02412   0.02713
 Alpha virt. eigenvalues --    0.02885   0.03408   0.03695   0.03954   0.04959
 Alpha virt. eigenvalues --    0.05049   0.05424   0.06012   0.06327   0.06422
 Alpha virt. eigenvalues --    0.07548   0.07810   0.08259   0.08303   0.08613
 Alpha virt. eigenvalues --    0.08771   0.08991   0.09360   0.10060   0.10400
 Alpha virt. eigenvalues --    0.10959   0.11353   0.11616   0.11922   0.12747
 Alpha virt. eigenvalues --    0.12878   0.13139   0.13495   0.13945   0.14255
 Alpha virt. eigenvalues --    0.14459   0.14647   0.15189   0.15315   0.16197
 Alpha virt. eigenvalues --    0.16372   0.16563   0.16776   0.17501   0.17843
 Alpha virt. eigenvalues --    0.18258   0.18405   0.18679   0.18750   0.18990
 Alpha virt. eigenvalues --    0.19239   0.19679   0.19975   0.20177   0.20804
 Alpha virt. eigenvalues --    0.20874   0.21203   0.21584   0.21950   0.22028
 Alpha virt. eigenvalues --    0.22246   0.22503   0.22608   0.22965   0.23131
 Alpha virt. eigenvalues --    0.23459   0.23949   0.24283   0.24318   0.24816
 Alpha virt. eigenvalues --    0.25106   0.25375   0.25950   0.26076   0.26490
 Alpha virt. eigenvalues --    0.27036   0.27214   0.27283   0.27519   0.27585
 Alpha virt. eigenvalues --    0.28691   0.28849   0.29203   0.29640   0.29917
 Alpha virt. eigenvalues --    0.30487   0.30749   0.30785   0.30917   0.31303
 Alpha virt. eigenvalues --    0.31869   0.32182   0.32650   0.33193   0.33789
 Alpha virt. eigenvalues --    0.34041   0.34409   0.34883   0.35302   0.35368
 Alpha virt. eigenvalues --    0.35932   0.36001   0.36569   0.36958   0.37447
 Alpha virt. eigenvalues --    0.38142   0.38471   0.39091   0.39568   0.40109
 Alpha virt. eigenvalues --    0.40549   0.40970   0.41285   0.41551   0.42594
 Alpha virt. eigenvalues --    0.43158   0.43733   0.44593   0.45126   0.46161
 Alpha virt. eigenvalues --    0.46989   0.47282   0.48174   0.48964   0.49152
 Alpha virt. eigenvalues --    0.50208   0.50695   0.51780   0.55038   0.55628
 Alpha virt. eigenvalues --    0.57356   0.64058   0.65468   0.66366   0.67191
 Alpha virt. eigenvalues --    0.68033   0.69564   0.70430   0.70915   0.71298
 Alpha virt. eigenvalues --    0.72090   0.73502   0.74291   0.75543   0.75880
 Alpha virt. eigenvalues --    0.77047   0.77881   0.78711   0.79159   0.81047
 Alpha virt. eigenvalues --    0.81522   0.82189   0.83094   0.84484   0.85125
 Alpha virt. eigenvalues --    0.86077   0.86811   0.87858   0.88119   0.89388
 Alpha virt. eigenvalues --    0.90713   0.91664   0.92981   0.93597   0.93976
 Alpha virt. eigenvalues --    0.94507   0.95217   0.96048   0.96254   0.97392
 Alpha virt. eigenvalues --    0.97964   0.98522   0.98987   0.99777   1.01602
 Alpha virt. eigenvalues --    1.01854   1.02219   1.02697   1.03202   1.03932
 Alpha virt. eigenvalues --    1.04326   1.06199   1.07547   1.08686   1.08993
 Alpha virt. eigenvalues --    1.09754   1.10934   1.11582   1.12051   1.12802
 Alpha virt. eigenvalues --    1.14176   1.14731   1.15239   1.15618   1.15961
 Alpha virt. eigenvalues --    1.16584   1.17064   1.17407   1.18285   1.18714
 Alpha virt. eigenvalues --    1.19327   1.20674   1.20991   1.21526   1.22588
 Alpha virt. eigenvalues --    1.23421   1.23589   1.24070   1.24779   1.25369
 Alpha virt. eigenvalues --    1.25576   1.26056   1.26266   1.27190   1.27422
 Alpha virt. eigenvalues --    1.29214   1.29496   1.30500   1.31051   1.32659
 Alpha virt. eigenvalues --    1.34071   1.34612   1.35289   1.36382   1.36656
 Alpha virt. eigenvalues --    1.38214   1.38908   1.39737   1.40186   1.41217
 Alpha virt. eigenvalues --    1.41684   1.41937   1.42402   1.43960   1.44437
 Alpha virt. eigenvalues --    1.46177   1.46546   1.47583   1.48577   1.50098
 Alpha virt. eigenvalues --    1.51113   1.53375   1.54499   1.54968   1.55625
 Alpha virt. eigenvalues --    1.55853   1.57491   1.58385   1.58961   1.59349
 Alpha virt. eigenvalues --    1.60006   1.60919   1.61917   1.62422   1.63121
 Alpha virt. eigenvalues --    1.63731   1.64536   1.65371   1.65742   1.66557
 Alpha virt. eigenvalues --    1.67039   1.68116   1.68550   1.69820   1.70144
 Alpha virt. eigenvalues --    1.70624   1.72660   1.73345   1.75607   1.78564
 Alpha virt. eigenvalues --    1.79588   1.80349   1.81245   1.81636   1.83491
 Alpha virt. eigenvalues --    1.83956   1.85079   1.85830   1.86492   1.87953
 Alpha virt. eigenvalues --    1.88669   1.89850   1.91291   1.92725   1.93534
 Alpha virt. eigenvalues --    1.95188   1.95734   1.96348   1.96745   1.98494
 Alpha virt. eigenvalues --    1.99437   2.00430   2.00967   2.02239   2.03304
 Alpha virt. eigenvalues --    2.03906   2.04103   2.04942   2.05454   2.06268
 Alpha virt. eigenvalues --    2.06488   2.07711   2.08345   2.09677   2.10292
 Alpha virt. eigenvalues --    2.10587   2.11556   2.13359   2.14006   2.14377
 Alpha virt. eigenvalues --    2.16390   2.17504   2.18625   2.19117   2.21055
 Alpha virt. eigenvalues --    2.22247   2.23778   2.24865   2.25634   2.26817
 Alpha virt. eigenvalues --    2.27010   2.27646   2.28563   2.29176   2.30796
 Alpha virt. eigenvalues --    2.32331   2.33163   2.33889   2.34288   2.35238
 Alpha virt. eigenvalues --    2.37004   2.38002   2.38949   2.40109   2.41024
 Alpha virt. eigenvalues --    2.43232   2.43304   2.44886   2.45550   2.45678
 Alpha virt. eigenvalues --    2.47695   2.49722   2.50755   2.51741   2.53419
 Alpha virt. eigenvalues --    2.53697   2.54760   2.55054   2.55218   2.56156
 Alpha virt. eigenvalues --    2.56711   2.58745   2.58918   2.60197   2.61389
 Alpha virt. eigenvalues --    2.61638   2.63594   2.64268   2.64639   2.65281
 Alpha virt. eigenvalues --    2.65457   2.65724   2.65786   2.66671   2.67057
 Alpha virt. eigenvalues --    2.67260   2.67805   2.68549   2.69762   2.70657
 Alpha virt. eigenvalues --    2.71151   2.72248   2.73759   2.74280   2.75277
 Alpha virt. eigenvalues --    2.76294   2.79618   2.80856   2.82803   2.83235
 Alpha virt. eigenvalues --    2.83961   2.86329   2.87272   2.87327   2.87786
 Alpha virt. eigenvalues --    2.88943   2.90005   2.92698   2.95317   2.97197
 Alpha virt. eigenvalues --    2.99997   3.01911   3.03784   3.05611   3.05776
 Alpha virt. eigenvalues --    3.06061   3.07397   3.10178   3.11990   3.17473
 Alpha virt. eigenvalues --    3.19841   3.23018   3.27080   3.27529   3.29450
 Alpha virt. eigenvalues --    3.30298   3.31084   3.35270   3.35598   3.36712
 Alpha virt. eigenvalues --    3.42686   3.43875   3.44149   3.45454   3.45990
 Alpha virt. eigenvalues --    3.46589   3.47556   3.48513   3.48747   3.49210
 Alpha virt. eigenvalues --    3.49959   3.53526   3.56734   3.61475   3.65898
 Alpha virt. eigenvalues --    3.66097   3.67280   3.67898   3.70494   4.16908
 Alpha virt. eigenvalues --    4.26179   4.28286   4.31108   4.35541   4.38252
 Alpha virt. eigenvalues --    4.40566   4.41239   4.44311   4.45237   4.48442
 Alpha virt. eigenvalues --    4.54821   4.56172   4.58166   4.61255   4.61764
 Alpha virt. eigenvalues --    4.67224   4.70950   4.77008   4.78130   4.88857
 Alpha virt. eigenvalues --    5.23279
          Condensed to atoms (all electrons):
               1          2          3          4          5          6
     1  C   10.671509  -5.253142   3.187005  -4.005060  -0.054020   0.029111
     2  C   -5.253142  19.762337 -11.256189   4.348137   0.269350   0.174944
     3  C    3.187005 -11.256189  20.160751  -6.732223   0.030362   0.128065
     4  C   -4.005060   4.348137  -6.732223  13.956275   0.028049  -0.072055
     5  H   -0.054020   0.269350   0.030362   0.028049   0.500839  -0.003473
     6  H    0.029111   0.174944   0.128065  -0.072055  -0.003473   0.528629
     7  C    0.098888  -0.229902  -0.047467  -0.363312   0.002151   0.002311
     8  H   -0.003356   0.006813  -0.010832  -0.007409   0.000000  -0.000004
     9  H   -0.005378  -0.005534   0.010922   0.001940   0.000005   0.000004
    10  H    0.005297  -0.004394  -0.004560  -0.002753  -0.000002   0.000004
    11  N    0.420745  -0.718074   0.082479  -0.662393   0.018947   0.021211
    12  O    0.128349  -0.268282  -0.025725   0.472631  -0.001036   0.002569
    13  O    0.359931  -0.035272  -0.127098   0.149538   0.000609  -0.000775
    14  C   -0.629319   0.810644  -0.890379   0.750477   0.024190   0.002366
    15  H    0.013092   0.022493  -0.017099  -0.008637   0.000230  -0.000004
    16  C    0.194497  -1.489646   2.204424  -0.987455  -0.025689  -0.040934
    17  H   -0.002591  -0.026406   0.023644   0.013284   0.000015   0.000313
    18  C    0.445304  -0.758857   0.370993  -0.287903   0.029083  -0.009860
    19  H    0.005427  -0.045816   0.049581  -0.040283   0.001604  -0.000110
    20  C    0.062084   0.193817  -0.043971  -0.179062  -0.029028   0.005193
    21  H   -0.014739  -0.010868   0.016412  -0.002236  -0.000147  -0.000002
    22  H    0.003954  -0.023784   0.015182  -0.002122   0.000901  -0.000002
    23  H    0.003972   0.024819  -0.013302   0.000287  -0.000012   0.000001
    24  C   -0.076981   0.923688  -1.608255   0.271244   0.005215   0.072956
    25  H   -0.000313  -0.031088   0.046997  -0.036662  -0.000079   0.001674
    26  C    0.016192   0.092598   0.095290   0.045571   0.004880  -0.025014
    27  H    0.000888  -0.003743   0.019354   0.003853   0.000001  -0.000050
    28  H    0.001666   0.011363  -0.021688  -0.017004  -0.000001   0.000186
    29  C    0.047022  -0.068534  -0.053166  -0.081119  -0.000552  -0.003476
    30  C   -0.005166  -0.023678   0.113535  -0.052067   0.000015   0.002321
    31  H    0.000099  -0.002734  -0.002834  -0.002600   0.000000   0.000026
    32  H   -0.000061   0.000844   0.001516   0.000312   0.000000   0.000020
    33  H   -0.001275   0.015000   0.003946   0.005832   0.000000  -0.000333
    34  O    0.000005   0.015009   0.021559   0.003590  -0.000013   0.002523
    35  O   -0.000067  -0.002334  -0.006598  -0.004205  -0.000003   0.000875
    36  H    0.107082  -0.107517   0.000670  -0.011632   0.000340   0.000001
    37  H    0.004302  -0.006046   0.052953  -0.058420   0.000000   0.000002
    38  H    0.000002   0.002216  -0.001243  -0.001890   0.000000   0.000079
    39  H   -0.000008   0.000132  -0.000459   0.000029   0.000000  -0.000005
    40  O    0.000811  -0.003465   0.003093   0.000258  -0.000022   0.000106
    41  H    0.000020   0.000816  -0.000857  -0.000281   0.000000   0.000002
    42  O    0.000048   0.000072   0.000246   0.000044   0.000000   0.000014
    43  H   -0.000001   0.000004  -0.000014   0.000000   0.000000   0.000000
    44  O    0.032187  -0.007363  -0.021363  -0.066338  -0.000009   0.000014
    45  H   -0.000078  -0.000502   0.004128  -0.003323   0.000000   0.000000
    46  O   -0.077695   0.107064  -0.007752  -0.008429   0.000596   0.000026
    47  H    0.033391  -0.036963   0.009148  -0.002593   0.000176   0.000000
               7          8          9         10         11         12
     1  C    0.098888  -0.003356  -0.005378   0.005297   0.420745   0.128349
     2  C   -0.229902   0.006813  -0.005534  -0.004394  -0.718074  -0.268282
     3  C   -0.047467  -0.010832   0.010922  -0.004560   0.082479  -0.025725
     4  C   -0.363312  -0.007409   0.001940  -0.002753  -0.662393   0.472631
     5  H    0.002151   0.000000   0.000005  -0.000002   0.018947  -0.001036
     6  H    0.002311  -0.000004   0.000004   0.000004   0.021211   0.002569
     7  C    5.285545   0.399171   0.408294   0.424260   0.252525  -0.042163
     8  H    0.399171   0.520650  -0.031316  -0.024145  -0.035084   0.003952
     9  H    0.408294  -0.031316   0.520765  -0.022865  -0.050073   0.001824
    10  H    0.424260  -0.024145  -0.022865   0.496293  -0.055067   0.000174
    11  N    0.252525  -0.035084  -0.050073  -0.055067   7.719376  -0.129290
    12  O   -0.042163   0.003952   0.001824   0.000174  -0.129290   8.377954
    13  O   -0.034978   0.000714   0.000207   0.005333  -0.098092  -0.005530
    14  C    0.010965  -0.002333   0.000657  -0.000679  -0.006522  -0.002700
    15  H    0.000186   0.000000   0.000000   0.000000   0.000600   0.000003
    16  C   -0.030794   0.002124  -0.000511   0.000471   0.038826  -0.003596
    17  H    0.000149   0.000000   0.000000   0.000000   0.000457  -0.000056
    18  C   -0.006545   0.005173  -0.000896  -0.001155   0.047990  -0.010327
    19  H    0.004293  -0.000079   0.000006   0.000000   0.017164   0.000424
    20  C    0.019570  -0.000248   0.000010   0.000240   0.011566  -0.001218
    21  H   -0.000424   0.000000   0.000000  -0.000003   0.000199   0.000017
    22  H    0.000121   0.000000   0.000000   0.000000   0.000257   0.000001
    23  H    0.000174   0.000000   0.000000   0.000000   0.000133  -0.000002
    24  C    0.046950   0.003151  -0.002263   0.000337   0.085501   0.041236
    25  H    0.001032  -0.000112   0.000014   0.000003   0.014541   0.001489
    26  C   -0.005109  -0.002378   0.001141   0.000003  -0.048804  -0.053940
    27  H    0.000297   0.000000   0.000000   0.000000   0.000492  -0.001717
    28  H    0.000981  -0.000010   0.000003   0.000000   0.000727   0.001124
    29  C    0.000685  -0.000027  -0.000029   0.000013   0.000897   0.037233
    30  C   -0.002316   0.000026   0.000061  -0.000009  -0.004360  -0.033181
    31  H    0.000074   0.000000   0.000000   0.000000   0.000273   0.002261
    32  H    0.000004   0.000000   0.000000   0.000000   0.000000   0.000293
    33  H   -0.000182   0.000000   0.000000   0.000000  -0.000302  -0.003923
    34  O   -0.000065  -0.000002   0.000000   0.000000   0.001046   0.003902
    35  O    0.000002   0.000000   0.000000   0.000000   0.000105   0.000436
    36  H    0.002217   0.000000   0.000000  -0.000011   0.004111   0.000010
    37  H    0.002133  -0.000559  -0.000077   0.000015   0.002212   0.014135
    38  H   -0.000003   0.000000   0.000000   0.000000   0.000000   0.000002
    39  H    0.000000   0.000000   0.000000   0.000000   0.000000   0.000001
    40  O    0.000034   0.000000   0.000000   0.000000   0.000051   0.000039
    41  H    0.000000   0.000000   0.000000   0.000000   0.000000   0.000000
    42  O    0.000002   0.000000   0.000000   0.000000   0.000003  -0.000006
    43  H    0.000000   0.000000   0.000000   0.000000   0.000000   0.000000
    44  O    0.002153   0.001142   0.000190   0.000136   0.047336  -0.010523
    45  H   -0.000823  -0.000090  -0.000008   0.000001  -0.000976  -0.000201
    46  O   -0.000022   0.000000  -0.000001   0.000017  -0.007298  -0.000075
    47  H    0.000360   0.000000   0.000000   0.000000   0.000068   0.000000
              13         14         15         16         17         18
     1  C    0.359931  -0.629319   0.013092   0.194497  -0.002591   0.445304
     2  C   -0.035272   0.810644   0.022493  -1.489646  -0.026406  -0.758857
     3  C   -0.127098  -0.890379  -0.017099   2.204424   0.023644   0.370993
     4  C    0.149538   0.750477  -0.008637  -0.987455   0.013284  -0.287903
     5  H    0.000609   0.024190   0.000230  -0.025689   0.000015   0.029083
     6  H   -0.000775   0.002366  -0.000004  -0.040934   0.000313  -0.009860
     7  C   -0.034978   0.010965   0.000186  -0.030794   0.000149  -0.006545
     8  H    0.000714  -0.002333   0.000000   0.002124   0.000000   0.005173
     9  H    0.000207   0.000657   0.000000  -0.000511   0.000000  -0.000896
    10  H    0.005333  -0.000679   0.000000   0.000471   0.000000  -0.001155
    11  N   -0.098092  -0.006522   0.000600   0.038826   0.000457   0.047990
    12  O   -0.005530  -0.002700   0.000003  -0.003596  -0.000056  -0.010327
    13  O    8.334950  -0.003233  -0.000054   0.007651  -0.000002   0.013229
    14  C   -0.003233  12.983117   0.356237  -8.229408  -0.075572  -3.279754
    15  H   -0.000054   0.356237   0.557999  -0.024495  -0.007601  -0.074580
    16  C    0.007651  -8.229408  -0.024495  21.155239   0.414893   3.574515
    17  H   -0.000002  -0.075572  -0.007601   0.414893   0.506786   0.008109
    18  C    0.013229  -3.279754  -0.074580   3.574515   0.008109  11.188403
    19  H    0.000536   0.182484   0.004599  -0.137383  -0.000009   0.118169
    20  C   -0.027155   0.035078  -0.043191   0.322789   0.007786  -2.278071
    21  H    0.006613   0.015033   0.000133  -0.012551   0.000003  -0.149600
    22  H    0.000538   0.082199   0.002380  -0.014208  -0.000001  -0.205072
    23  H   -0.001103   0.021501   0.000248  -0.005990   0.000000  -0.187799
    24  C   -0.010123   3.222307   0.059258  -8.051913   0.015641  -2.254212
    25  H   -0.000008  -0.070557   0.000046   0.053760   0.003743  -0.002690
    26  C   -0.001740   0.792459   0.016428  -2.622209  -0.074746  -0.674587
    27  H    0.000001   0.022299   0.000000   0.024020   0.000187  -0.002661
    28  H    0.000002   0.000504   0.000003  -0.037492   0.000097  -0.008143
    29  C    0.000200   0.099260   0.000694  -0.386815  -0.001192  -0.048319
    30  C   -0.000253  -0.049604  -0.000107   0.128682   0.000994   0.016732
    31  H    0.000000   0.000181   0.000000   0.000459   0.000000  -0.000056
    32  H    0.000000  -0.000083   0.000000  -0.000064   0.000000   0.000048
    33  H    0.000003  -0.000854   0.000000   0.003938   0.000001   0.000754
    34  O   -0.000009   0.104324   0.000329  -0.061719   0.007196  -0.025051
    35  O   -0.000001  -0.008837   0.000000  -0.007345   0.000571  -0.000170
    36  H    0.033117  -0.000485   0.000002   0.000588   0.000000   0.007660
    37  H    0.000016   0.001056   0.000000   0.003028   0.000000  -0.000239
    38  H    0.000000  -0.009734  -0.000002   0.007414  -0.000169   0.000759
    39  H    0.000000   0.000141   0.000000   0.000248   0.000000  -0.000012
    40  O    0.000000   0.107780   0.000398  -0.136504  -0.007347  -0.025837
    41  H    0.000000  -0.003072  -0.000005   0.002827   0.000261   0.000041
    42  O    0.000000  -0.000066   0.000000  -0.000608   0.000000  -0.000006
    43  H    0.000000   0.000006   0.000000   0.000008   0.000000   0.000000
    44  O   -0.000148   0.005951   0.000006  -0.109554  -0.000040  -0.015325
    45  H    0.000002   0.000010   0.000000   0.007726   0.000000   0.000396
    46  O   -0.026015   0.026804  -0.000075  -0.011113   0.000003  -0.040209
    47  H   -0.001369  -0.002266   0.000000  -0.000016   0.000000   0.003441
              19         20         21         22         23         24
     1  C    0.005427   0.062084  -0.014739   0.003954   0.003972  -0.076981
     2  C   -0.045816   0.193817  -0.010868  -0.023784   0.024819   0.923688
     3  C    0.049581  -0.043971   0.016412   0.015182  -0.013302  -1.608255
     4  C   -0.040283  -0.179062  -0.002236  -0.002122   0.000287   0.271244
     5  H    0.001604  -0.029028  -0.000147   0.000901  -0.000012   0.005215
     6  H   -0.000110   0.005193  -0.000002  -0.000002   0.000001   0.072956
     7  C    0.004293   0.019570  -0.000424   0.000121   0.000174   0.046950
     8  H   -0.000079  -0.000248   0.000000   0.000000   0.000000   0.003151
     9  H    0.000006   0.000010   0.000000   0.000000   0.000000  -0.002263
    10  H    0.000000   0.000240  -0.000003   0.000000   0.000000   0.000337
    11  N    0.017164   0.011566   0.000199   0.000257   0.000133   0.085501
    12  O    0.000424  -0.001218   0.000017   0.000001  -0.000002   0.041236
    13  O    0.000536  -0.027155   0.006613   0.000538  -0.001103  -0.010123
    14  C    0.182484   0.035078   0.015033   0.082199   0.021501   3.222307
    15  H    0.004599  -0.043191   0.000133   0.002380   0.000248   0.059258
    16  C   -0.137383   0.322789  -0.012551  -0.014208  -0.005990  -8.051913
    17  H   -0.000009   0.007786   0.000003  -0.000001   0.000000   0.015641
    18  C    0.118169  -2.278071  -0.149600  -0.205072  -0.187799  -2.254212
    19  H    0.587883  -0.027910  -0.003293   0.004403  -0.001401   0.089753
    20  C   -0.027910   7.565696   0.509979   0.480782   0.506763  -0.253072
    21  H   -0.003293   0.509979   0.517675  -0.024337  -0.026805   0.003405
    22  H    0.004403   0.480782  -0.024337   0.527381  -0.024983   0.011354
    23  H   -0.001401   0.506763  -0.026805  -0.024983   0.539527  -0.001703
    24  C    0.089753  -0.253072   0.003405   0.011354  -0.001703  15.804262
    25  H    0.003985   0.015446   0.000005   0.000000   0.000001   0.247712
    26  C    0.039671  -0.194124  -0.000033   0.000490  -0.001122  -2.011095
    27  H    0.000002  -0.000874   0.000000   0.000000   0.000000  -0.230581
    28  H    0.000008  -0.000639   0.000000   0.000000   0.000000  -0.219444
    29  C    0.000493  -0.003263   0.000010   0.000024  -0.000010  -0.109174
    30  C   -0.000072   0.001073   0.000000  -0.000002   0.000001   0.064120
    31  H    0.000000  -0.000001   0.000000   0.000000   0.000000   0.002675
    32  H    0.000000   0.000002   0.000000   0.000000   0.000000   0.007638
    33  H    0.000000   0.000027   0.000000   0.000000   0.000000   0.007643
    34  O    0.000147  -0.003456   0.000000   0.000002  -0.000002  -0.362434
    35  O   -0.000001   0.000036   0.000000   0.000000   0.000000   0.037321
    36  H   -0.000004  -0.006988   0.000198   0.000115   0.000037   0.000501
    37  H    0.000003  -0.000137   0.000000   0.000000   0.000000   0.014383
    38  H    0.000000   0.000027   0.000000   0.000000   0.000000   0.003116
    39  H    0.000000   0.000000   0.000000   0.000000   0.000000  -0.000998
    40  O   -0.000002  -0.000023   0.000000   0.000001   0.000000   0.033720
    41  H    0.000000  -0.000006   0.000000   0.000000   0.000000   0.002671
    42  O    0.000000  -0.000001   0.000000   0.000000   0.000000   0.000931
    43  H    0.000000   0.000000   0.000000   0.000000   0.000000  -0.000042
    44  O    0.000933   0.005121   0.000004   0.000001   0.000001  -0.132867
    45  H    0.000002  -0.000011   0.000000   0.000000   0.000000   0.019983
    46  O    0.000045   0.011654   0.000267   0.000411  -0.000035   0.002523
    47  H    0.000000   0.000709   0.000066   0.000015  -0.000003  -0.000136
              25         26         27         28         29         30
     1  C   -0.000313   0.016192   0.000888   0.001666   0.047022  -0.005166
     2  C   -0.031088   0.092598  -0.003743   0.011363  -0.068534  -0.023678
     3  C    0.046997   0.095290   0.019354  -0.021688  -0.053166   0.113535
     4  C   -0.036662   0.045571   0.003853  -0.017004  -0.081119  -0.052067
     5  H   -0.000079   0.004880   0.000001  -0.000001  -0.000552   0.000015
     6  H    0.001674  -0.025014  -0.000050   0.000186  -0.003476   0.002321
     7  C    0.001032  -0.005109   0.000297   0.000981   0.000685  -0.002316
     8  H   -0.000112  -0.002378   0.000000  -0.000010  -0.000027   0.000026
     9  H    0.000014   0.001141   0.000000   0.000003  -0.000029   0.000061
    10  H    0.000003   0.000003   0.000000   0.000000   0.000013  -0.000009
    11  N    0.014541  -0.048804   0.000492   0.000727   0.000897  -0.004360
    12  O    0.001489  -0.053940  -0.001717   0.001124   0.037233  -0.033181
    13  O   -0.000008  -0.001740   0.000001   0.000002   0.000200  -0.000253
    14  C   -0.070557   0.792459   0.022299   0.000504   0.099260  -0.049604
    15  H    0.000046   0.016428   0.000000   0.000003   0.000694  -0.000107
    16  C    0.053760  -2.622209   0.024020  -0.037492  -0.386815   0.128682
    17  H    0.003743  -0.074746   0.000187   0.000097  -0.001192   0.000994
    18  C   -0.002690  -0.674587  -0.002661  -0.008143  -0.048319   0.016732
    19  H    0.003985   0.039671   0.000002   0.000008   0.000493  -0.000072
    20  C    0.015446  -0.194124  -0.000874  -0.000639  -0.003263   0.001073
    21  H    0.000005  -0.000033   0.000000   0.000000   0.000010   0.000000
    22  H    0.000000   0.000490   0.000000   0.000000   0.000024  -0.000002
    23  H    0.000001  -0.001122   0.000000   0.000000  -0.000010   0.000001
    24  C    0.247712  -2.011095  -0.230581  -0.219444  -0.109174   0.064120
    25  H    0.548827   0.012731   0.001077  -0.002517  -0.001864   0.001880
    26  C    0.012731   9.577493   0.538378   0.631666   0.232762  -0.140622
    27  H    0.001077   0.538378   0.540180  -0.032545  -0.004194  -0.006162
    28  H   -0.002517   0.631666  -0.032545   0.542192   0.015970   0.002439
    29  C   -0.001864   0.232762  -0.004194   0.015970   5.803349  -0.296733
    30  C    0.001880  -0.140622  -0.006162   0.002439  -0.296733   5.780270
    31  H    0.000005  -0.003210   0.000139  -0.001324  -0.040874   0.389789
    32  H    0.000000  -0.005388  -0.000008   0.000165  -0.082034   0.430547
    33  H   -0.000019   0.003323   0.000176  -0.001345  -0.066798   0.383064
    34  O    0.009805   0.297095  -0.045631  -0.043770   0.194773  -0.168403
    35  O    0.000042   0.007081  -0.001394  -0.000037   0.485303  -0.141414
    36  H    0.000000   0.000014   0.000000   0.000000   0.000007  -0.000001
    37  H   -0.000471  -0.014534   0.000124   0.001568  -0.001292   0.001382
    38  H    0.000002  -0.000688  -0.000011   0.000009   0.001494   0.004515
    39  H    0.000000  -0.000085   0.000000   0.000000   0.017976  -0.013475
    40  O   -0.000074   0.018112  -0.000018  -0.000069  -0.033660  -0.003883
    41  H    0.000000  -0.000591   0.000000   0.000000   0.002647   0.000021
    42  O    0.000000   0.000519  -0.000002   0.000003  -0.056204   0.042787
    43  H    0.000000  -0.000033   0.000000   0.000000   0.004281  -0.002543
    44  O    0.003582   0.184911   0.000903   0.001426   0.007321  -0.003976
    45  H    0.000041  -0.018211  -0.000006   0.000136  -0.000186   0.000310
    46  O    0.000000  -0.000579   0.000000   0.000000   0.000081  -0.000054
    47  H    0.000000   0.000002   0.000000   0.000000   0.000001   0.000000
              31         32         33         34         35         36
     1  C    0.000099  -0.000061  -0.001275   0.000005  -0.000067   0.107082
     2  C   -0.002734   0.000844   0.015000   0.015009  -0.002334  -0.107517
     3  C   -0.002834   0.001516   0.003946   0.021559  -0.006598   0.000670
     4  C   -0.002600   0.000312   0.005832   0.003590  -0.004205  -0.011632
     5  H    0.000000   0.000000   0.000000  -0.000013  -0.000003   0.000340
     6  H    0.000026   0.000020  -0.000333   0.002523   0.000875   0.000001
     7  C    0.000074   0.000004  -0.000182  -0.000065   0.000002   0.002217
     8  H    0.000000   0.000000   0.000000  -0.000002   0.000000   0.000000
     9  H    0.000000   0.000000   0.000000   0.000000   0.000000   0.000000
    10  H    0.000000   0.000000   0.000000   0.000000   0.000000  -0.000011
    11  N    0.000273   0.000000  -0.000302   0.001046   0.000105   0.004111
    12  O    0.002261   0.000293  -0.003923   0.003902   0.000436   0.000010
    13  O    0.000000   0.000000   0.000003  -0.000009  -0.000001   0.033117
    14  C    0.000181  -0.000083  -0.000854   0.104324  -0.008837  -0.000485
    15  H    0.000000   0.000000   0.000000   0.000329   0.000000   0.000002
    16  C    0.000459  -0.000064   0.003938  -0.061719  -0.007345   0.000588
    17  H    0.000000   0.000000   0.000001   0.007196   0.000571   0.000000
    18  C   -0.000056   0.000048   0.000754  -0.025051  -0.000170   0.007660
    19  H    0.000000   0.000000   0.000000   0.000147  -0.000001  -0.000004
    20  C   -0.000001   0.000002   0.000027  -0.003456   0.000036  -0.006988
    21  H    0.000000   0.000000   0.000000   0.000000   0.000000   0.000198
    22  H    0.000000   0.000000   0.000000   0.000002   0.000000   0.000115
    23  H    0.000000   0.000000   0.000000  -0.000002   0.000000   0.000037
    24  C    0.002675   0.007638   0.007643  -0.362434   0.037321   0.000501
    25  H    0.000005   0.000000  -0.000019   0.009805   0.000042   0.000000
    26  C   -0.003210  -0.005388   0.003323   0.297095   0.007081   0.000014
    27  H    0.000139  -0.000008   0.000176  -0.045631  -0.001394   0.000000
    28  H   -0.001324   0.000165  -0.001345  -0.043770  -0.000037   0.000000
    29  C   -0.040874  -0.082034  -0.066798   0.194773   0.485303   0.000007
    30  C    0.389789   0.430547   0.383064  -0.168403  -0.141414  -0.000001
    31  H    0.502621  -0.020713  -0.024023   0.004937   0.002809   0.000000
    32  H   -0.020713   0.474837  -0.017840   0.008485  -0.002554   0.000000
    33  H   -0.024023  -0.017840   0.477294  -0.001612   0.003289   0.000000
    34  O    0.004937   0.008485  -0.001612   8.417778  -0.088183   0.000000
    35  O    0.002809  -0.002554   0.003289  -0.088183   8.224513   0.000000
    36  H    0.000000   0.000000   0.000000   0.000000   0.000000   0.332059
    37  H   -0.000008   0.000000   0.000073  -0.000081   0.000000   0.000000
    38  H   -0.000011  -0.000001  -0.000018  -0.006066   0.029531   0.000000
    39  H    0.000038  -0.000178   0.000012   0.001242   0.023541   0.000000
    40  O    0.000013   0.000005   0.000062   0.012661  -0.011096   0.000000
    41  H    0.000000   0.000000   0.000000  -0.000668  -0.000738   0.000000
    42  O   -0.000095   0.000336   0.000058  -0.000933  -0.004393   0.000000
    43  H   -0.000003   0.000012  -0.000001   0.000001  -0.000996   0.000000
    44  O    0.000167   0.000002  -0.000353   0.003631  -0.000012   0.000000
    45  H   -0.000001   0.000000   0.000000   0.000011   0.000000   0.000000
    46  O    0.000000   0.000000   0.000000   0.000003   0.000000   0.257751
    47  H    0.000000   0.000000   0.000000   0.000000   0.000000  -0.015428
              37         38         39         40         41         42
     1  C    0.004302   0.000002  -0.000008   0.000811   0.000020   0.000048
     2  C   -0.006046   0.002216   0.000132  -0.003465   0.000816   0.000072
     3  C    0.052953  -0.001243  -0.000459   0.003093  -0.000857   0.000246
     4  C   -0.058420  -0.001890   0.000029   0.000258  -0.000281   0.000044
     5  H    0.000000   0.000000   0.000000  -0.000022   0.000000   0.000000
     6  H    0.000002   0.000079  -0.000005   0.000106   0.000002   0.000014
     7  C    0.002133  -0.000003   0.000000   0.000034   0.000000   0.000002
     8  H   -0.000559   0.000000   0.000000   0.000000   0.000000   0.000000
     9  H   -0.000077   0.000000   0.000000   0.000000   0.000000   0.000000
    10  H    0.000015   0.000000   0.000000   0.000000   0.000000   0.000000
    11  N    0.002212   0.000000   0.000000   0.000051   0.000000   0.000003
    12  O    0.014135   0.000002   0.000001   0.000039   0.000000  -0.000006
    13  O    0.000016   0.000000   0.000000   0.000000   0.000000   0.000000
    14  C    0.001056  -0.009734   0.000141   0.107780  -0.003072  -0.000066
    15  H    0.000000  -0.000002   0.000000   0.000398  -0.000005   0.000000
    16  C    0.003028   0.007414   0.000248  -0.136504   0.002827  -0.000608
    17  H    0.000000  -0.000169   0.000000  -0.007347   0.000261   0.000000
    18  C   -0.000239   0.000759  -0.000012  -0.025837   0.000041  -0.000006
    19  H    0.000003   0.000000   0.000000  -0.000002   0.000000   0.000000
    20  C   -0.000137   0.000027   0.000000  -0.000023  -0.000006  -0.000001
    21  H    0.000000   0.000000   0.000000   0.000000   0.000000   0.000000
    22  H    0.000000   0.000000   0.000000   0.000001   0.000000   0.000000
    23  H    0.000000   0.000000   0.000000   0.000000   0.000000   0.000000
    24  C    0.014383   0.003116  -0.000998   0.033720   0.002671   0.000931
    25  H   -0.000471   0.000002   0.000000  -0.000074   0.000000   0.000000
    26  C   -0.014534  -0.000688  -0.000085   0.018112  -0.000591   0.000519
    27  H    0.000124  -0.000011   0.000000  -0.000018   0.000000  -0.000002
    28  H    0.001568   0.000009   0.000000  -0.000069   0.000000   0.000003
    29  C   -0.001292   0.001494   0.017976  -0.033660   0.002647  -0.056204
    30  C    0.001382   0.004515  -0.013475  -0.003883   0.000021   0.042787
    31  H   -0.000008  -0.000011   0.000038   0.000013   0.000000  -0.000095
    32  H    0.000000  -0.000001  -0.000178   0.000005   0.000000   0.000336
    33  H    0.000073  -0.000018   0.000012   0.000062   0.000000   0.000058
    34  O   -0.000081  -0.006066   0.001242   0.012661  -0.000668  -0.000933
    35  O    0.000000   0.029531   0.023541  -0.011096  -0.000738  -0.004393
    36  H    0.000000   0.000000   0.000000   0.000000   0.000000   0.000000
    37  H    0.350122   0.000000   0.000000   0.000000   0.000000   0.000000
    38  H    0.000000   0.326815  -0.000034   0.244302  -0.013473  -0.000024
    39  H    0.000000  -0.000034   0.327531  -0.000039  -0.000006   0.235404
    40  O    0.000000   0.244302  -0.000039   8.350150   0.253755  -0.000335
    41  H    0.000000  -0.013473  -0.000006   0.253755   0.370977   0.000003
    42  O    0.000000  -0.000024   0.235404  -0.000335   0.000003   8.315097
    43  H    0.000000  -0.000005  -0.014028  -0.000002   0.000000   0.267131
    44  O    0.268561   0.000000   0.000000  -0.000001   0.000000   0.000000
    45  H   -0.014163   0.000000   0.000000   0.000000   0.000000   0.000000
    46  O    0.000000   0.000000   0.000000   0.000004   0.000000   0.000000
    47  H    0.000000   0.000000   0.000000   0.000000   0.000000   0.000000
              43         44         45         46         47
     1  C   -0.000001   0.032187  -0.000078  -0.077695   0.033391
     2  C    0.000004  -0.007363  -0.000502   0.107064  -0.036963
     3  C   -0.000014  -0.021363   0.004128  -0.007752   0.009148
     4  C    0.000000  -0.066338  -0.003323  -0.008429  -0.002593
     5  H    0.000000  -0.000009   0.000000   0.000596   0.000176
     6  H    0.000000   0.000014   0.000000   0.000026   0.000000
     7  C    0.000000   0.002153  -0.000823  -0.000022   0.000360
     8  H    0.000000   0.001142  -0.000090   0.000000   0.000000
     9  H    0.000000   0.000190  -0.000008  -0.000001   0.000000
    10  H    0.000000   0.000136   0.000001   0.000017   0.000000
    11  N    0.000000   0.047336  -0.000976  -0.007298   0.000068
    12  O    0.000000  -0.010523  -0.000201  -0.000075   0.000000
    13  O    0.000000  -0.000148   0.000002  -0.026015  -0.001369
    14  C    0.000006   0.005951   0.000010   0.026804  -0.002266
    15  H    0.000000   0.000006   0.000000  -0.000075   0.000000
    16  C    0.000008  -0.109554   0.007726  -0.011113  -0.000016
    17  H    0.000000  -0.000040   0.000000   0.000003   0.000000
    18  C    0.000000  -0.015325   0.000396  -0.040209   0.003441
    19  H    0.000000   0.000933   0.000002   0.000045   0.000000
    20  C    0.000000   0.005121  -0.000011   0.011654   0.000709
    21  H    0.000000   0.000004   0.000000   0.000267   0.000066
    22  H    0.000000   0.000001   0.000000   0.000411   0.000015
    23  H    0.000000   0.000001   0.000000  -0.000035  -0.000003
    24  C   -0.000042  -0.132867   0.019983   0.002523  -0.000136
    25  H    0.000000   0.003582   0.000041   0.000000   0.000000
    26  C   -0.000033   0.184911  -0.018211  -0.000579   0.000002
    27  H    0.000000   0.000903  -0.000006   0.000000   0.000000
    28  H    0.000000   0.001426   0.000136   0.000000   0.000000
    29  C    0.004281   0.007321  -0.000186   0.000081   0.000001
    30  C   -0.002543  -0.003976   0.000310  -0.000054   0.000000
    31  H   -0.000003   0.000167  -0.000001   0.000000   0.000000
    32  H    0.000012   0.000002   0.000000   0.000000   0.000000
    33  H   -0.000001  -0.000353   0.000000   0.000000   0.000000
    34  O    0.000001   0.003631   0.000011   0.000003   0.000000
    35  O   -0.000996  -0.000012   0.000000   0.000000   0.000000
    36  H    0.000000   0.000000   0.000000   0.257751  -0.015428
    37  H    0.000000   0.268561  -0.014163   0.000000   0.000000
    38  H   -0.000005   0.000000   0.000000   0.000000   0.000000
    39  H   -0.014028   0.000000   0.000000   0.000000   0.000000
    40  O   -0.000002  -0.000001   0.000000   0.000004   0.000000
    41  H    0.000000   0.000000   0.000000   0.000000   0.000000
    42  O    0.267131   0.000000   0.000000   0.000000   0.000000
    43  H    0.375157   0.000000   0.000000   0.000000   0.000000
    44  O    0.000000   8.316599   0.254816   0.000001   0.000000
    45  H    0.000000   0.254816   0.352898   0.000000   0.000000
    46  O    0.000000   0.000001   0.000000   8.270828   0.263054
    47  H    0.000000   0.000000   0.000000   0.263054   0.371426
 Mulliken charges:
               1
     1  C    0.256370
     2  C   -0.362024
     3  C    0.240820
     4  C   -0.351885
     5  H    0.196529
     6  H    0.180552
     7  C   -0.201423
     8  H    0.175067
[...]
 02950456,0.10378758,-0.00003256,0.00019000,-0.00001394,0.00010559,0.00
 002004,-0.00013971,0.00005146,-0.00014789,0.00001586,-0.00000999,0.000
 01641,-0.00000435,-0.00008144,-0.00002625,0.00013169,0.00000536,0.0000
 0429,-0.00001905,0.03252386,-0.00098597,0.00036041,-0.00037763,0.00016
 155,0.00024296,0.00016503,-0.00002788,0.00005052,-0.00028848,-0.002506
 88,0.00209146,-0.00023549,0.00004765,0.00001818,-0.00002002,-0.0000039
 6,0.00001439,-0.00000752,-0.00054203,-0.00086377,0.00030724,0.00021364
 ,-0.00014043,-0.00012206,0.00000972,0.00006136,0.00007168,0.00006737,0
 .00008039,-0.00006961,0.00101613,0.00003102,0.00013171,0.00042902,-0.0
 0179618,0.00589728,0.00092876,-0.00012270,0.00024241,0.00020019,0.0000
 3884,-0.00008555,0.00003984,-0.00006907,0.00003464,-0.00072951,-0.0000
 0548,0.00039535,0.00007571,-0.00020798,-0.00006882,-0.00018905,0.00000
 322,-0.00006471,-0.00012126,0.00001201,0.00000704,0.00004009,0.0000001
 0,-0.00009303,-0.00000200,-0.00000601,0.00004023,0.00002194,-0.0000308
 8,0.00001676,0.00006136,-0.00004981,-0.00000834,0.00117670,-0.00031307
 ,-0.00055934,-0.00101716,-0.00060243,0.00065927,0.00030270,0.00081466,
 0.00050228,0.00022406,0.00006647,0.00020467,0.00032204,-0.00075909,-0.
 00056923,0.00116427,-0.00016372,-0.00123363,-0.00007342,0.00010364,0.0
 0015579,0.00002972,-0.00004376,-0.00002017,-0.00003783,-0.00000213,0.0
 0000509,0.00006721,-0.00004400,-0.00007582,-0.00128741,-0.00064287,0.0
 0092347,-0.00058949,-0.00032403,0.00052218,-0.00009407,0.00014435,-0.0
 0012969,0.01790558,-0.06028466,-0.05040142,0.00004128,0.00013187,-0.00
 001814,0.00013648,-0.00002061,-0.00013598,-0.00006651,-0.00015548,0.00
 001887,-0.00000663,0.00001343,0.00001096,-0.00011000,0.00003218,0.0000
 9295,0.00001517,-0.00000670,-0.00000326,-0.03162086,0.49382177,0.00151
 461,-0.00268115,0.00051436,0.00075572,0.00004901,-0.00006603,-0.000704
 45,0.00152464,0.00071902,0.00731420,-0.00759804,0.00063608,-0.00002799
 ,0.00005595,0.00005843,-0.00004476,0.00001164,-0.00005025,-0.00058254,
 0.00017950,0.00037275,0.00088100,0.00040168,-0.00022892,0.00007381,-0.
 00003309,-0.00000135,-0.00003958,0.00011004,-0.00040742,-0.00283317,0.
 00146970,-0.00081398,-0.00254466,0.00973195,-0.01170819,-0.00137082,0.
 00075978,-0.00031907,-0.00087477,-0.00001378,0.00019343,-0.00001130,0.
 00005314,-0.00012374,0.00074986,-0.00043828,0.00009090,-0.00004122,0.0
 0012469,-0.00008734,0.00060486,0.00043608,0.00024043,0.00004383,-0.000
 05934,-0.00021633,-0.00017020,-0.00002454,0.00016587,0.00004517,0.0000
 2653,-0.00005514,-0.00000639,0.00002251,-0.00001345,-0.00009482,0.0000
 9532,0.00000916,-0.00054811,0.00110475,0.00019420,0.00046298,-0.000309
 44,-0.00088881,-0.00044867,-0.00050855,-0.00086200,0.00034591,0.000197
 43,0.00023329,-0.00053257,0.00011781,0.00005929,-0.00044591,-0.0002437
 1,0.00038196,0.00004275,0.00004059,-0.00008521,-0.00003684,0.00000098,
 -0.00000013,0.00003785,0.00001018,0.00001666,-0.00022368,-0.00003222,0
 .00009385,0.00055161,0.00028868,0.00004023,0.00023151,0.00025060,-0.00
 018305,0.00013753,-0.00030599,0.00019227,0.11027269,-0.10415440,-0.448
 86249,-0.00003859,-0.00008153,-0.00002307,-0.00009170,-0.00000126,0.00
 005573,0.00008460,0.00011852,0.00003905,-0.00000248,-0.00001552,-0.000
 02435,0.00009729,-0.00000447,-0.00003204,-0.00001705,0.00000648,-0.000
 00459,-0.11633582,-0.11930681,0.59585553,0.00007624,0.00009356,0.00001
 228,-0.00009097,-0.00002685,-0.00000937,0.00001103,-0.00010146,0.00003
 719,0.00000248,0.00009183,0.00029863,-0.00000616,-0.00000800,-0.000009
 20,-0.00000180,-0.00000823,-0.00000175,0.00013508,0.00029558,-0.000240
 29,-0.00009285,0.00008975,-0.00004111,-0.00000672,-0.00003953,0.000034
 99,-0.00002450,-0.00002251,0.00002369,-0.00010823,-0.00018048,-0.00008
 848,0.00013086,-0.00018724,0.00042089,-0.00009900,-0.00004551,0.000022
 70,0.00005428,-0.00003241,0.00001562,-0.00000137,0.00000014,-0.0000005
 0,0.00004802,0.00011570,-0.00002102,-0.00000654,0.00001308,-0.00000203
 ,-0.00003002,-0.00005140,-0.00005161,0.00002158,0.00000253,0.00000293,
 -0.00000065,0.00000464,0.00001503,-0.00000200,0.00000347,-0.00001030,-
 0.00000448,-0.00000248,0.00000088,-0.00000412,0.00001230,0.00000320,-0
 .00002154,0.00006317,0.00004093,-0.00009012,-0.00019071,-0.00005684,-0
 .00007839,0.00013442,0.00023166,-0.00000904,-0.00005761,-0.00004514,0.
 00018875,-0.00013236,-0.00005765,0.00007797,-0.00013364,-0.00009832,0.
 00000908,0.00002615,0.00004503,-0.00003199,-0.00001229,-0.00000477,-0.
 00000865,0.00001041,-0.00000364,0.00001843,-0.00001846,0.00000584,-0.0
 0010724,-0.00011829,0.00000283,-0.00001056,0.00007532,0.00001650,0.000
 00594,0.00001628,-0.00000976,-0.00039161,-0.00997730,0.00459725,0.0000
 1404,-0.00002364,0.00000051,-0.00000515,-0.00001282,0.00001686,-0.0000
 1919,0.00002200,-0.00000573,0.00000445,-0.00000612,0.00000261,0.000004
 69,0.00001692,-0.00002758,0.00000041,-0.00000306,0.00000818,-0.0029541
 8,0.01523634,0.00391891,0.00341202,0.00006247,-0.00022620,0.00004507,0
 .00004898,0.00003399,-0.00000386,-0.00004490,0.00006111,0.00009470,0.0
 0037603,-0.00045405,-0.00016653,0.00000175,0.00000476,0.00000037,0.000
 00136,0.00000764,0.00000702,-0.00007189,0.00000870,-0.00001041,0.00011
 227,0.00006291,0.00005402,0.00001954,0.00000822,-0.00002126,-0.0000087
 7,0.00001773,-0.00004315,-0.00017952,0.00009771,-0.00004241,-0.0000696
 6,0.00079571,-0.00090196,-0.00007076,0.00006098,-0.00002763,-0.0000149
 5,0.00004722,0.00000256,0.00000642,-0.00000508,-0.00000032,-0.00022285
 ,-0.00010180,0.00006090,0.00001699,-0.00005069,-0.00001461,0.00002992,
 0.00001006,0.00003700,-0.00001745,0.00000050,-0.00000545,-0.00000324,-
 0.00000209,-0.00000565,0.00000646,-0.00000124,0.00000039,0.00000159,0.
 00000124,0.00000010,0.00000880,-0.00000276,0.00000407,0.00035965,0.000
 00022,-0.00012787,-0.00034368,0.00006822,0.00005389,0.00018978,0.00002
 634,0.00011691,0.00000541,-0.00001306,-0.00002790,-0.00001332,-0.00011
 619,-0.00002452,-0.00003396,-0.00002874,0.00000402,0.00001081,-0.00000
 310,0.00000303,-0.00001335,0.00000518,0.00000520,0.00000077,0.00000723
 ,-0.00000176,-0.00001273,-0.00000165,0.00001437,-0.00003055,0.00001800
 ,-0.00002526,0.00001741,0.00002267,-0.00001178,0.00000658,-0.00002008,
 0.00001387,0.00174669,0.00333990,-0.01044207,-0.00000048,-0.00000762,0
 .00000187,-0.00001068,-0.00000076,0.00001283,-0.00000244,0.00000819,0.
 00000101,-0.00000117,-0.00000095,0.00000209,0.00001105,-0.00000162,-0.
 00001240,-0.00000192,0.00000136,0.00000236,0.00305100,-0.43137093,0.21
 841022,-0.00492008,0.42768078,-0.00010992,0.00017247,-0.00002461,0.000
 03026,-0.00008037,-0.00002730,-0.00007000,0.00003370,0.00004781,0.0008
 6143,-0.00073127,-0.00035583,-0.00000736,0.00000042,0.00000131,-0.0000
 0452,-0.00000192,-0.00000325,0.00019574,0.00020987,-0.00017080,-0.0002
 2869,0.00002499,0.00001513,-0.00000790,-0.00001010,-0.00003082,-0.0000
 0910,-0.00005621,0.00007466,-0.00011456,-0.00020276,0.00023448,-0.0001
 7889,0.00086320,-0.00165242,0.00005492,-0.00006913,0.00001088,-0.00003
 440,0.00001209,-0.00002811,0.00000693,-0.00001469,0.00000583,-0.000184
 29,-0.00007946,0.00005665,0.00001253,-0.00005569,-0.00001098,0.0000057
 4,0.00006901,0.00008930,-0.00001649,0.00000611,0.00000045,0.00000450,-
 0.00000588,-0.00001295,-0.00000152,0.00000143,0.00000719,0.00000422,-0
 .00000520,0.00000345,0.00001339,-0.00000956,-0.00000234,0.00018641,-0.
 00021870,-0.00005813,-0.00021727,0.00039499,0.00001805,0.00019058,0.00
 009143,0.00010256,0.00001215,0.00002287,0.00004256,0.00008398,0.000039
 00,-0.00015062,0.00011090,0.00005895,-0.00010597,-0.00000375,-0.000021
 02,0.00000410,0.00002791,0.00000802,0.00001187,0.00000216,-0.00000115,
 0.00000230,-0.00001509,0.00002091,-0.00001465,-0.00015957,-0.00011660,
 0.00007275,-0.00007766,-0.00009021,0.00005347,-0.00001586,0.00003268,-
 0.00001496,-0.00183813,0.04337801,-0.01571540,0.00000330,0.00003218,0.
 00000785,0.00002366,0.00000324,-0.00001640,-0.00001244,-0.00003699,-0.
 00001248,0.00000023,0.00000541,0.00000674,-0.00002532,-0.00000491,0.00
 001181,0.00000383,-0.00000045,0.00000038,0.01048278,0.16337937,-0.1349
 6908,-0.00899703,-0.20702304,0.15248671,0.00095590,-0.00166980,0.00055
 739,-0.00110529,-0.00112043,0.00007483,0.00081028,0.00060768,-0.000152
 43,-0.00007497,-0.00058110,0.00005255,0.00063146,0.00064322,0.00035827
 ,0.00000410,-0.00002825,-0.00001824,-0.00020680,-0.00016237,-0.0000060
 7,0.00000930,0.00006383,-0.00001989,0.00001187,0.00005342,0.00000237,-
 0.00000020,-0.00001682,0.00001057,0.00014196,0.00071769,0.00007950,-0.
 00016959,0.00052102,-0.00002876,0.00170867,0.00337299,-0.00152912,0.00
 031915,0.00005090,-0.00002027,-0.00000818,-0.00000801,0.00006481,-0.00
 019601,0.00022990,-0.00021462,0.00002717,0.00000804,0.00005183,-0.0002
 3500,0.00010811,0.00030504,0.00002159,-0.00000639,-0.00002482,0.000214
 39,-0.00024154,-0.00062356,-0.00037234,0.00008170,0.00005262,-0.000076
 59,0.00020294,0.00006702,-0.00001269,-0.00000730,-0.00017465,-0.000020
 87,-0.00031533,-0.00014183,-0.00001345,0.00000473,0.00005800,0.0001135
 7,0.00002686,-0.00007004,-0.00006410,-0.00000046,-0.00000154,-0.000000
 74,-0.00001391,0.00003303,0.00020337,-0.00001523,-0.00012951,-0.000004
 14,0.00001106,0.00002045,0.00000338,-0.00000360,-0.00000591,-0.0000005
 5,-0.00000230,0.00000270,0.00002174,-0.00001685,-0.00000637,-0.0001718
 9,0.00003689,0.00008816,-0.00012012,-0.00003956,0.00005110,-0.01870387
 ,-0.02806118,-0.00944098,-0.00001144,-0.00008877,0.00010799,0.00004405
 ,0.00001698,0.00002197,0.00005865,-0.00000788,-0.00002616,-0.00008560,
 -0.00005754,-0.00006591,0.00002030,0.00002145,0.00003144,-0.00006825,0
 .00001787,0.00001684,0.00001838,-0.00000718,-0.00000082,0.00003269,0.0
 0008644,-0.00011880,-0.00001230,-0.00000492,0.00001760,0.11686162,-0.0
 1135544,-0.00001371,-0.00152507,0.00170794,0.00083018,0.00050876,-0.00
 050841,0.00033870,-0.00031313,-0.00250100,-0.00041353,-0.00026616,-0.0
 0009392,-0.00057120,0.00007956,0.00009644,-0.00001147,0.00007765,0.000
 32325,0.00052596,-0.00005088,0.00001646,-0.00010941,0.00003724,-0.0000
 0591,-0.00010993,-0.00001421,0.00000495,0.00021602,-0.00003143,0.00400
 115,-0.00175401,0.00023079,0.00128419,-0.00075008,0.00018102,0.0092549
 9,-0.01021022,0.00925883,-0.00064393,-0.00014915,0.00006978,0.00003022
 ,0.00007291,-0.00004457,0.00047345,-0.00056968,0.00025446,-0.00002222,
 -0.00002407,-0.00007807,0.00072323,0.00015485,-0.00019585,-0.00007823,
 0.00002660,-0.00013751,-0.00025359,-0.00022796,0.00022154,0.00007557,-
 0.00017125,-0.00021471,0.00013280,0.00014813,0.00007263,-0.00005475,0.
 00009606,0.00002142,0.00004231,0.00068648,0.00037627,0.00001021,-0.000
 02321,-0.00017055,-0.00018393,-0.00014888,0.00016290,0.00009811,0.0000
 1117,-0.00000303,-0.00001465,0.00004529,-0.00004583,-0.00038384,-0.000
 13842,0.00033206,0.00003565,0.00001559,-0.00003000,-0.00001710,0.00000
 507,0.00000307,0.00001159,-0.00000038,0.00000292,-0.00006393,0.0000003
 0,0.00003043,0.00034640,0.00000510,-0.00022925,0.00020522,0.00022297,-
 0.00015820,-0.05125470,-0.40856406,0.12283553,-0.00004778,0.00015858,-
 0.00023002,-0.00001478,-0.00009925,0.00000294,-0.00006476,-0.00001148,
 0.00006308,0.00001180,0.00015411,-0.00003591,0.00003658,-0.00003021,0.
 00000557,0.00005725,0.00001817,-0.00005705,-0.00000408,-0.00000455,0.0
 0000938,0.00006147,-0.00011634,0.00024053,-0.00001623,0.00001307,-0.00
 003185,0.05694292,0.46191007,0.00603678,-0.00104855,0.00089502,-0.0014
 8718,-0.00078229,0.00009376,0.00037333,0.00049144,0.00008242,0.0011402
 6,-0.00038312,-0.00005192,0.00076224,0.00022616,-0.00062470,-0.0001088
 5,0.00004122,-0.00007536,-0.00027903,-0.00037619,-0.00000959,0.0000147
 1,0.00008798,-0.00001579,-0.00002622,0.00011867,-0.00000379,0.00002038
 ,-0.00014573,-0.00001804,-0.00211133,0.00134835,-0.00041970,-0.0008671
 1,0.00086233,-0.00003541,-0.00461781,0.00873735,-0.00250345,-0.0001854
 3,0.00025894,0.00014118,0.00006104,-0.00002525,0.00002047,-0.00014647,
 0.00014260,-0.00018282,-0.00000844,0.00003422,0.00001490,0.00070169,-0
 .00060903,-0.00009645,-0.00011854,0.00013317,0.00008998,0.00033260,0.0
 0057955,-0.00069209,-0.00071438,-0.00100134,0.00042382,0.00026055,0.00
 071761,0.00017472,-0.00033143,0.00011924,-0.00064027,-0.00006175,-0.00
 024377,-0.00006400,-0.00002365,-0.00002025,0.00007018,0.00026533,0.000
 11355,-0.00020385,-0.00011537,-0.00000612,0.00000556,-0.00000507,-0.00
 002055,0.00004240,0.00042367,0.00006450,-0.00041940,-0.00002522,0.0000
 0209,0.00004662,0.00001539,-0.00000716,0.00000079,-0.00001842,0.000002
 56,-0.00000484,0.00005229,-0.00000521,-0.00003883,-0.00039473,0.000041
 82,0.00030433,-0.00021851,-0.00018374,0.00020193,0.00403742,0.17082452
 ,-0.09725454,0.00001859,-0.00013506,0.00015751,0.00001996,0.00005711,-
 0.00002375,0.00005849,0.00000381,-0.00008291,-0.00004079,-0.00009443,0
 .00006495,-0.00002191,0.00001173,-0.00001633,-0.00003345,-0.00001154,0
 .00008018,-0.00000276,0.00000420,-0.00001535,-0.00003020,0.00012372,-0
 .00015299,0.00001125,-0.00000997,0.00001026,0.20731402,-0.13755268,0.5
 2592049,-0.00050780,-0.00008343,-0.00019793,-0.00033773,-0.00011868,0.
 00007094,0.00004933,0.00018836,-0.00003973,-0.00011701,-0.00004314,-0.
 00004781,0.00030843,0.00005540,-0.00016438,-0.00001852,0.00000394,-0.0
 0001547,0.00002818,0.00002537,-0.00000217,0.00000250,-0.00000347,0.000
 00635,-0.00000196,0.00000433,-0.00000371,0.00000532,0.00000618,-0.0000
 0768,0.00013970,-0.00002090,0.00002441,0.00001410,0.00002879,0.0000301
 3,0.00043022,-0.00040887,0.00037763,0.00000724,-0.00000684,0.00000754,
 0.00000356,0.00000030,-0.00000837,0.00001544,-0.00000669,0.00001207,-0
 .00000006,0.00000077,-0.00000742,0.00000400,0.00001367,0.00005875,-0.0
 0000315,-0.00000083,-0.00000186,0.00001155,-0.00015709,0.00016915,0.00
 008592,0.00008564,-0.00009736,-0.00002460,0.00000624,-0.00001505,0.000
 03429,0.00003376,0.00006845,-0.00001001,0.00002441,-0.00000374,-0.0000
 0086,-0.00000065,-0.00000492,0.00001050,0.00000421,-0.00001176,0.00000
 057,0.00000070,0.00000231,-0.00000013,0.00000167,-0.00000171,0.0000171
 4,0.00001140,-0.00003345,-0.00000526,-0.00000071,0.00000165,0.00000100
 ,-0.00000003,0.00000239,-0.00000378,0.00000171,-0.00000235,0.00000031,
 0.00000302,-0.00000604,-0.00001436,-0.00000098,0.00002305,0.00000009,-
 0.00001691,0.00002087,0.00027338,-0.00335121,0.00323982,0.00000265,0.0
 0001033,-0.00001623,-0.00001020,0.00000281,-0.00001193,-0.00001007,0.0
 0000314,-0.00000779,0.00001818,0.00000294,0.00003265,-0.00001016,-0.00
 000481,-0.00001408,0.00002007,-0.00000895,0.00001100,-0.00000799,0.000
 00370,-0.00000323,-0.00000914,-0.00000905,0.00002021,0.00000403,0.0000
 0156,-0.00000540,-0.10049866,-0.00840089,-0.20992591,0.10010379,-0.000
 42761,0.00012337,-0.00016169,-0.00005990,0.00008178,0.00002149,0.00002
 343,0.00001398,0.00000654,0.00006590,-0.00000560,0.00005105,0.00014879
 ,-0.00013310,0.00005942,0.00000516,0.00000026,-0.00000054,0.00002732,0
 .00000769,0.00001197,-0.00000146,-0.00000431,-0.00000583,0.00001050,-0
 .00001329,0.00000710,-0.00000324,0.00000781,0.00001486,0.00008483,-0.0
 0006164,-0.00000873,-0.00002087,0.00000733,-0.00001596,0.00002710,-0.0
 0203554,0.00023900,-0.00001298,0.00001921,-0.00001380,0.00000581,0.000
 00054,0.00000502,-0.00001139,0.00000789,-0.00001683,-0.00000008,0.0000
 0535,0.00000281,0.00006091,-0.00002147,-0.00002687,-0.00001764,0.00001
 135,-0.00000110,-0.00006722,-0.00012288,-0.00010157,-0.00001017,-0.000
 12812,-0.00002435,0.00005839,0.00018437,0.00007450,-0.00000957,0.00008
 488,-0.00008384,0.00000338,-0.00001735,0.00000385,-0.00000347,-0.00000
 067,0.00000514,0.00003054,0.00001554,-0.00001821,-0.00001194,-0.000000
 95,0.00000044,0.00000105,-0.00000275,0.00000424,0.00004950,0.00002391,
 -0.00004178,-0.00000601,-0.00000294,-0.00000024,0.00000283,-0.00000061
 ,-0.00000066,0.00000099,0.00000056,0.00000055,0.00000405,0.00000049,0.
 00000002,-0.00004561,-0.00000246,0.00003090,-0.00003115,-0.00003469,0.
 00001891,0.01936814,0.00315031,0.03964368,0.00001058,-0.00000880,0.000
 01696,0.00000387,0.00001747,0.00000145,0.00001230,0.00000313,-0.000008
 37,-0.00000616,-0.00002892,0.00000188,-0.00000496,0.00000782,-0.000000
 66,-0.00001330,-0.00000502,0.00000796,0.00000138,0.00000137,-0.0000017
 4,-0.00001701,0.00000891,-0.00002681,0.00000510,-0.00000100,0.00000681
 ,-0.03134989,-0.04143298,-0.04248647,0.01211981,0.04027979,-0.00055354
 ,0.00010551,-0.00006467,0.00026939,-0.00012895,0.00011980,-0.00007749,
 -0.00000123,-0.00000972,-0.00015433,0.00001421,-0.00003195,-0.00024033
 ,0.00008032,-0.00010652,0.00001214,0.00000384,0.00001859,0.00001220,0.
 00002467,0.00000403,-0.00000439,-0.00000469,0.00000243,0.00000240,-0.0
 0001024,-0.00000127,-0.00000384,0.00001322,0.00000366,0.00022045,-0.00
 011390,0.00001347,0.00009434,-0.00008374,0.00000762,0.00053491,-0.0000
 3719,0.00047625,-0.00006623,-0.00000021,-0.00003039,-0.00000144,0.0000
 0340,-0.00000688,0.00004225,-0.00006352,0.00003978,-0.00000356,-0.0000
 0228,-0.00000627,0.00008706,-0.00000907,-0.00001892,-0.00000999,0.0000
 0157,-0.00001007,0.00011628,0.00004371,-0.00006725,-0.00015534,-0.0001
 3272,-0.00003690,0.00003210,0.00008363,0.00003335,-0.00007244,0.000008
 14,-0.00007584,0.00001128,0.00007035,0.00003968,0.00000101,-0.00000061
 ,-0.00001465,-0.00002893,-0.00001697,0.00002258,0.00001046,0.00000140,
 -0.00000092,0.00000078,0.00000422,-0.00000388,-0.00006067,-0.00001073,
 0.00005658,-0.00000133,0.00000218,-0.00000893,-0.00000168,0.00000140,-
 0.00000012,0.00000235,-0.00000075,0.00000064,-0.00000823,0.00000187,0.
 00000548,0.00005229,-0.00000443,-0.00004220,0.00003194,0.00002478,-0.0
 0002858,-0.00995128,-0.00901905,-0.01633405,-0.00000598,0.00001365,-0.
 00001541,-0.00000307,-0.00000629,0.00000467,-0.00000870,-0.00000090,0.
 00001432,0.00000620,0.00000874,-0.00001132,0.00000211,-0.00000080,0.00
 000400,0.00000301,0.00000273,-0.00001564,0.00000150,-0.00000110,0.0000
 0384,0.00001231,-0.00001325,0.00001651,-0.00000431,0.00000195,-0.00000
 145,-0.19661980,0.00633762,-0.42519529,0.20647812,0.00280953,0.4412517
 9\\0.00000265,-0.00000298,-0.00000123,0.00000320,-0.00000042,-0.000002
 49,-0.00000034,-0.00000237,-0.00000068,-0.00000189,-0.00000022,-0.0000
 0277,0.00000047,-0.00000261,-0.00000437,0.00000368,-0.00000167,0.00000
 281,0.00000028,-0.00000063,0.00000162,0.00000093,-0.00000097,0.0000023
 5,0.00000195,-0.00000324,0.00000356,0.00000259,-0.00000284,0.00000093,
 0.00000121,-0.00000060,-0.00000026,0.00000596,-0.00000058,0.00000771,-
 0.00000097,-0.00000293,-0.00000319,-0.00000442,0.00000153,-0.00000367,
 -0.00000231,0.00000188,-0.00000543,-0.00000270,0.00000094,-0.00000391,
 -0.00000310,0.00000229,-0.00000224,0.00000060,0.00000153,-0.00000349,-
 0.00000146,0.00000155,-0.00000264,-0.00000134,0.00000056,-0.00000745,-
 0.00000064,-0.00000191,-0.00000554,-0.00000193,-0.00000020,-0.00000709
 ,-0.00000243,0.00000170,-0.00000701,0.00000013,0.00000303,0.00000494,-
 0.00000077,0.00000260,0.00000160,-0.00000191,0.00000234,-0.00000160,-0
 .00000271,0.00000359,0.00000316,-0.00000025,0.00000279,0.00000212,0.00
 000114,0.00000233,0.00000105,0.00000150,-0.00000395,0.00000489,-0.0000
 0021,0.00000340,0.00000765,0.00000147,0.00000175,0.00000498,-0.0000021
 5,-0.00000255,0.00000607,-0.00000596,0.00000325,0.00000474,0.00000153,
 0.00000126,0.00000131,0.00000057,-0.00000393,-0.00000589,0.00000137,0.
 00000091,0.00000302,0.00000071,0.00000011,-0.00000239,0.00000211,-0.00
 000047,0.00000415,-0.00000341,0.00000300,-0.00000249,-0.00000054,0.000
 00155,-0.00000220,0.00000191,-0.00000213,0.00000530,0.00000223,-0.0000
 0170,0.00000480,0.00000109,0.00000354,0.00000568,-0.00000209,0.0000028
 2,0.00000548,0.00000103,-0.00000499,-0.00000401,0.00000321,-0.00000636
 ,-0.00000788\\\@


 REVOLUTIONS HAVE NEVER LIGHTENED THE BURDEN OF TYRANNY:
 THEY HAVE MERELY SHIFTED IT TO OTHER SHOULDERS.
                                   -- G. B. SHAW (1903)
 Job cpu time:       0 days 14 hours 11 minutes 27.3 seconds.
 File lengths (MBytes):  RWF=   2583 Int=      0 D2E=      0 Chk=     46 Scr=      1
 Normal termination of Gaussian 09 at Fri Aug 28 16:30:18 2020.
