 Entering Gaussian System, Link 0=g09
 Input=dmad.com
 Output=dmad.log
 Initial command:
 /apps/applications/gaussian/G09.D01/2/default/g09/l1.exe "/nobackup/pmmass/Temp/Gau-187017.inp" -scrdir="/nobackup/pmmass/Temp/"
 Entering Link 1 = /apps/applications/gaussian/G09.D01/2/default/g09/l1.exe PID=    187019.
  
 Copyright (c) 1988,1990,1992,1993,1995,1998,2003,2009,2013,
            Gaussian, Inc.  All Rights Reserved.
  
 This is part of the Gaussian(R) 09 program.  It is based on
 the Gaussian(R) 03 system (copyright 2003, Gaussian, Inc.),
 the Gaussian(R) 98 system (copyright 1998, Gaussian, Inc.),
 the Gaussian(R) 94 system (copyright 1995, Gaussian, Inc.),
 the Gaussian 92(TM) system (copyright 1992, Gaussian, Inc.),
 the Gaussian 90(TM) system (copyright 1990, Gaussian, Inc.),
 the Gaussian 88(TM) system (copyright 1988, Gaussian, Inc.),
 the Gaussian 86(TM) system (copyright 1986, Carnegie Mellon
 University), and the Gaussian 82(TM) system (copyright 1983,
 Carnegie Mellon University). Gaussian is a federally registered
 trademark of Gaussian, Inc.
  
 This software contains proprietary and confidential information,
 including trade secrets, belonging to Gaussian, Inc.
  
 This software is provided under written license and may be
 used, copied, transmitted, or stored only in accord with that
 written license.
  
 The following legend is applicable only to US Government
 contracts under FAR:
  
                    RESTRICTED RIGHTS LEGEND
  
 Use, reproduction and disclosure by the US Government is
 subject to restrictions as set forth in subparagraphs (a)
 and (c) of the Commercial Computer Software - Restricted
 Rights clause in FAR 52.227-19.
  
 Gaussian, Inc.
 340 Quinnipiac St., Bldg. 40, Wallingford CT 06492
  
  
 ---------------------------------------------------------------
 Warning -- This program may not be used in any manner that
 competes with the business of Gaussian, Inc. or will provide
 assistance to any competitor of Gaussian, Inc.  The licensee
 of this program is prohibited from giving any competitor of
 Gaussian, Inc. access to this program.  By using this program,
 the user acknowledges that Gaussian, Inc. is engaged in the
 business of creating and licensing software in the field of
 computational chemistry and represents and warrants to the
 licensee that it is not a competitor of Gaussian, Inc. and that
 it will not use this program in any manner prohibited above.
 ---------------------------------------------------------------
  

 Cite this work as:
 Gaussian 09, Revision D.01,
 M. J. Frisch, G. W. Trucks, H. B. Schlegel, G. E. Scuseria, 
 M. A. Robb, J. R. Cheeseman, G. Scalmani, V. Barone, B. Mennucci, 
 G. A. Petersson, H. Nakatsuji, M. Caricato, X. Li, H. P. Hratchian, 
 A. F. Izmaylov, J. Bloino, G. Zheng, J. L. Sonnenberg, M. Hada, 
 M. Ehara, K. Toyota, R. Fukuda, J. Hasegawa, M. Ishida, T. Nakajima, 
 Y. Honda, O. Kitao, H. Nakai, T. Vreven, J. A. Montgomery, Jr., 
 J. E. Peralta, F. Ogliaro, M. Bearpark, J. J. Heyd, E. Brothers, 
 K. N. Kudin, V. N. Staroverov, T. Keith, R. Kobayashi, J. Normand, 
 K. Raghavachari, A. Rendell, J. C. Burant, S. S. Iyengar, J. Tomasi, 
 M. Cossi, N. Rega, J. M. Millam, M. Klene, J. E. Knox, J. B. Cross, 
 V. Bakken, C. Adamo, J. Jaramillo, R. Gomperts, R. E. Stratmann, 
 O. Yazyev, A. J. Austin, R. Cammi, C. Pomelli, J. W. Ochterski, 
 R. L. Martin, K. Morokuma, V. G. Zakrzewski, G. A. Voth, 
 P. Salvador, J. J. Dannenberg, S. Dapprich, A. D. Daniels, 
 O. Farkas, J. B. Foresman, J. V. Ortiz, J. Cioslowski, 
 and D. J. Fox, Gaussian, Inc., Wallingford CT, 2013.
 
 ******************************************
 Gaussian 09:  ES64L-G09RevD.01 24-Apr-2013
                23-Feb-2022 
 ******************************************
 %nprocshared=8
 Will use up to    8 processors via shared memory.
 %mem=4GB
 %NoSave
 %chk="dmad.chk"
 ------------------------------------------------
 #n wB97XD/Def2TZVP scrf(smd,solvent=toluene) opt
 ------------------------------------------------
 1/14=-1,18=20,19=15,26=3,38=1/1,3;
 2/9=110,12=2,17=6,18=5,40=1/2;
 3/5=44,7=101,11=2,16=1,25=1,30=1,70=32201,71=1,72=13,74=-58/1,2,3;
 4//1;
 5/5=2,38=5,53=13/2;
 6/7=2,8=2,9=2,10=2,28=1/1;
 7//1,2,3,16;
 1/14=-1,18=20,19=15,26=3/3(2);
 2/9=110/2;
 99//99;
 2/9=110/2;
 3/5=44,7=101,11=2,16=1,25=1,30=1,70=32205,71=1,72=13,74=-58/1,2,3;
 4/5=5,16=3,69=1/1;
 5/5=2,38=5,53=13/2;
 7//1,2,3,16;
 1/14=-1,18=20,19=15,26=3/3(-5);
 2/9=110/2;
 6/7=2,8=2,9=2,10=2,19=2,28=1/1;
 99/9=1/99;
 --------------------------------
 dmad cycloaddition toluene - opt
 --------------------------------
 Symbolic Z-matrix:
 Charge =  0 Multiplicity = 1
 N                     0.36156   0.31138  -0.49443 
 N                    -0.36157   0.31143   0.49444 
 C                     1.7658    0.36508  -0.17093 
 C                    -1.76581   0.36509   0.17095 
 O                    -2.35821   1.40002   0.13332 
 O                     2.35819   1.40002  -0.13335 
 O                    -2.23902  -0.85205   0.03705 
 O                     2.23903  -0.85205  -0.03702 
 C                     3.65595  -0.95857   0.17259 
 H                     3.85416  -2.02146   0.27544 
 H                     4.19322  -0.55176  -0.68336 
 H                     3.94451  -0.42935   1.07971 
 C                    -3.65592  -0.9586   -0.17261 
 H                    -4.19321  -0.55218   0.68352 
 H                    -3.94456  -0.42905  -1.07951 
 H                    -3.85406  -2.02146  -0.27588 
 

 GradGradGradGradGradGradGradGradGradGradGradGradGradGradGradGradGradGrad
 Berny optimization.
 Initialization pass.
                           ----------------------------
                           !    Initial Parameters    !
                           ! (Angstroms and Degrees)  !
 --------------------------                            --------------------------
 ! Name  Definition              Value          Derivative Info.                !
 --------------------------------------------------------------------------------
 ! R1    R(1,2)                  1.2251         estimate D2E/DX2                !
 ! R2    R(1,3)                  1.442          estimate D2E/DX2                !
 ! R3    R(2,4)                  1.442          estimate D2E/DX2                !
 ! R4    R(3,6)                  1.1931         estimate D2E/DX2                !
 ! R5    R(3,8)                  1.3127         estimate D2E/DX2                !
 ! R6    R(4,5)                  1.1931         estimate D2E/DX2                !
 ! R7    R(4,7)                  1.3127         estimate D2E/DX2                !
 ! R8    R(7,13)                 1.4363         estimate D2E/DX2                !
 ! R9    R(8,9)                  1.4363         estimate D2E/DX2                !
 ! R10   R(9,10)                 1.0861         estimate D2E/DX2                !
 ! R11   R(9,11)                 1.0894         estimate D2E/DX2                !
 ! R12   R(9,12)                 1.0891         estimate D2E/DX2                !
 ! R13   R(13,14)                1.0894         estimate D2E/DX2                !
 ! R14   R(13,15)                1.0891         estimate D2E/DX2                !
 ! R15   R(13,16)                1.0861         estimate D2E/DX2                !
 ! A1    A(2,1,3)              113.1866         estimate D2E/DX2                !
 ! A2    A(1,2,4)              113.1872         estimate D2E/DX2                !
 ! A3    A(1,3,6)              121.5258         estimate D2E/DX2                !
 ! A4    A(1,3,8)              109.8405         estimate D2E/DX2                !
 ! A5    A(6,3,8)              128.4675         estimate D2E/DX2                !
 ! A6    A(2,4,5)              121.5255         estimate D2E/DX2                !
 ! A7    A(2,4,7)              109.841          estimate D2E/DX2                !
 ! A8    A(5,4,7)              128.4675         estimate D2E/DX2                !
 ! A9    A(4,7,13)             116.058          estimate D2E/DX2                !
 ! A10   A(3,8,9)              116.0577         estimate D2E/DX2                !
 ! A11   A(8,9,10)             105.4522         estimate D2E/DX2                !
 ! A12   A(8,9,11)             110.1309         estimate D2E/DX2                !
 ! A13   A(8,9,12)             110.2968         estimate D2E/DX2                !
 ! A14   A(10,9,11)            110.4779         estimate D2E/DX2                !
 ! A15   A(10,9,12)            110.3837         estimate D2E/DX2                !
 ! A16   A(11,9,12)            110.0161         estimate D2E/DX2                !
 ! A17   A(7,13,14)            110.1296         estimate D2E/DX2                !
 ! A18   A(7,13,15)            110.2992         estimate D2E/DX2                !
 ! A19   A(7,13,16)            105.4531         estimate D2E/DX2                !
 ! A20   A(14,13,15)           110.016          estimate D2E/DX2                !
 ! A21   A(14,13,16)           110.477          estimate D2E/DX2                !
 ! A22   A(15,13,16)           110.3828         estimate D2E/DX2                !
 ! D1    D(3,1,2,4)            175.3582         estimate D2E/DX2                !
 ! D2    D(2,1,3,6)            -94.5202         estimate D2E/DX2                !
 ! D3    D(2,1,3,8)             89.7916         estimate D2E/DX2                !
 ! D4    D(1,2,4,5)            -94.5231         estimate D2E/DX2                !
 ! D5    D(1,2,4,7)             89.786          estimate D2E/DX2                !
 ! D6    D(1,3,8,9)            174.8            estimate D2E/DX2                !
 ! D7    D(6,3,8,9)             -0.5049         estimate D2E/DX2                !
 ! D8    D(2,4,7,13)           174.8028         estimate D2E/DX2                !
 ! D9    D(5,4,7,13)            -0.5051         estimate D2E/DX2                !
 ! D10   D(4,7,13,14)          -61.7335         estimate D2E/DX2                !
 ! D11   D(4,7,13,15)           59.8855         estimate D2E/DX2                !
 ! D12   D(4,7,13,16)          179.0643         estimate D2E/DX2                !
 ! D13   D(3,8,9,10)           179.0885         estimate D2E/DX2                !
 ! D14   D(3,8,9,11)           -61.7082         estimate D2E/DX2                !
 ! D15   D(3,8,9,12)            59.9104         estimate D2E/DX2                !
 --------------------------------------------------------------------------------
 Trust Radius=3.00D-01 FncErr=1.00D-07 GrdErr=1.00D-06
 Number of steps in this run=     62 maximum allowed number of steps=    100.
 GradGradGradGradGradGradGradGradGradGradGradGradGradGradGradGradGradGrad

                          Input orientation:                          
 ---------------------------------------------------------------------
 Center     Atomic      Atomic             Coordinates (Angstroms)
 Number     Number       Type             X           Y           Z
 ---------------------------------------------------------------------
      1          7           0        0.361560    0.311380   -0.494430
      2          7           0       -0.361570    0.311430    0.494440
      3          6           0        1.765800    0.365080   -0.170930
      4          6           0       -1.765810    0.365090    0.170950
      5          8           0       -2.358210    1.400020    0.133320
      6          8           0        2.358190    1.400020   -0.133350
      7          8           0       -2.239020   -0.852050    0.037050
      8          8           0        2.239030   -0.852050   -0.037020
      9          6           0        3.655950   -0.958570    0.172590
     10          1           0        3.854160   -2.021460    0.275440
     11          1           0        4.193220   -0.551760   -0.683360
     12          1           0        3.944510   -0.429350    1.079710
     13          6           0       -3.655920   -0.958600   -0.172610
     14          1           0       -4.193210   -0.552180    0.683520
     15          1           0       -3.944560   -0.429050   -1.079510
     16          1           0       -3.854060   -2.021460   -0.275880
 ---------------------------------------------------------------------
                    Distance matrix (angstroms):
                    1          2          3          4          5
     1  N    0.000000
     2  N    1.225064   0.000000
     3  C    1.442021   2.229641   0.000000
     4  C    2.229645   1.442018   3.548119   0.000000
     5  O    2.996057   2.302609   4.262761   1.193077   0.000000
     6  O    2.302617   2.996038   1.193080   4.262752   4.723933
     7  O    2.898113   2.255595   4.190852   1.312740   2.257276
     8  O    2.255590   2.898147   1.312739   4.190874   5.122055
     9  C    3.593145   4.225749   2.332964   5.581000   6.460233
    10  H    4.270023   4.823144   3.202509   6.106603   7.093678
    11  H    3.932216   4.783139   2.644910   6.089376   6.884595
    12  H    3.982980   4.408358   2.634767   5.836500   6.630726
    13  C    4.225703   3.593143   5.580966   2.332960   2.709379
    14  H    4.783224   3.932307   6.089438   2.645068   2.735147
    15  H    4.408313   3.982894   5.836469   2.634627   2.707944
    16  H    4.823003   4.270042   6.106506   3.202509   3.756533
                    6          7          8          9         10
     6  O    0.000000
     7  O    5.122030   0.000000
     8  O    2.257277   4.478663   0.000000
     9  C    2.709378   5.897490   1.436296   0.000000
    10  H    3.756536   6.208961   2.018365   1.086094   0.000000
    11  H    2.734829   6.479419   2.080093   1.089405   1.787254
    12  H    2.708232   6.285050   2.081928   1.089131   1.786009
    13  C    6.460197   1.436285   5.897472   7.320014   7.598139
    14  H    6.884708   2.080073   6.479414   7.876263   8.190572
    15  H    6.630639   2.081947   6.285101   7.721133   8.074137
    16  H    7.093581   2.018365   6.208890   7.598099   7.727911
                   11         12         13         14         15
    11  H    0.000000
    12  H    1.784729   0.000000
    13  C    7.876254   7.721072   0.000000
    14  H    8.497092   8.148285   1.089411   0.000000
    15  H    8.148341   8.179221   1.089130   1.784730   0.000000
    16  H    8.190529   8.074041   1.086092   1.787248   1.785996
                   16
    16  H    0.000000
 Stoichiometry    C4H6N2O4
 Framework group  C1[X(C4H6N2O4)]
 Deg. of freedom    42
 Full point group                 C1      NOp   1
 Largest Abelian subgroup         C1      NOp   1
 Largest concise Abelian subgroup C1      NOp   1
                         Standard orientation:                         
 ---------------------------------------------------------------------
 Center     Atomic      Atomic             Coordinates (Angstroms)
 Number     Number       Type             X           Y           Z
 ---------------------------------------------------------------------
      1          7           0        0.361560    0.311381   -0.494430
      2          7           0       -0.361570    0.311431    0.494440
      3          6           0        1.765800    0.365080   -0.170930
      4          6           0       -1.765810    0.365092    0.170950
      5          8           0       -2.358209    1.400023    0.133320
      6          8           0        2.358191    1.400019   -0.133350
      7          8           0       -2.239021   -0.852047    0.037050
      8          8           0        2.239029   -0.852051   -0.037020
      9          6           0        3.655949   -0.958572    0.172590
     10          1           0        3.854158   -2.021462    0.275440
     11          1           0        4.193219   -0.551762   -0.683360
     12          1           0        3.944509   -0.429352    1.079710
     13          6           0       -3.655921   -0.958596   -0.172610
     14          1           0       -4.193211   -0.552176    0.683520
     15          1           0       -3.944561   -0.429046   -1.079510
     16          1           0       -3.854062   -2.021456   -0.275880
 ---------------------------------------------------------------------
 Rotational constants (GHZ):      3.7390095      0.5969439      0.5279801
 Standard basis: def2TZVP (5D, 7F)
 There are   396 symmetry adapted cartesian basis functions of A   symmetry.
 There are   346 symmetry adapted basis functions of A   symmetry.
   346 basis functions,   558 primitive gaussians,   396 cartesian basis functions
    38 alpha electrons       38 beta electrons
       nuclear repulsion energy       523.1423937554 Hartrees.
 NAtoms=   16 NActive=   16 NUniq=   16 SFac= 1.00D+00 NAtFMM=   60 NAOKFM=F Big=F
 Integral buffers will be    131072 words long.
 Raffenetti 2 integral format.
 Two-electron integral symmetry is turned on.
 Nuclear repulsion after empirical dispersion term =      523.1371876656 Hartrees.
 ------------------------------------------------------------------------------
 Polarizable Continuum Model (PCM)
 =================================
 Model                : PCM (using non-symmetric T matrix).
 Atomic radii         : SMD-Coulomb.
 Polarization charges : Total charges.
 Charge compensation  : None.
 Solution method      : On-the-fly selection.
 Cavity type          : VdW (van der Waals Surface) (Alpha=1.000).
 Cavity algorithm     : GePol (No added spheres)
                        Default sphere list used, NSphG=   16.
                        Lebedev-Laikov grids with approx.  5.0 points / Ang**2.
                        Smoothing algorithm: Karplus/York (Gamma=1.0000).
                        Polarization charges: spherical gaussians, with
                                              point-specific exponents (IZeta= 3).
                        Self-potential: point-specific (ISelfS= 7).
                        Self-field    : sphere-specific E.n sum rule (ISelfD= 2).
 1st derivatives      : Analytical E(r).r(x)/FMM algorithm (CHGder, D1EAlg=3).
                        Cavity 1st derivative terms included.
 Solvent              : Toluene, Eps=   2.374100 Eps(inf)=   2.238315
 ------------------------------------------------------------------------------
 Spheres list:
 ISph  on   Nord     Re0    Alpha      Xe            Ye            Ze
    1   N      1    1.8900  1.000      0.361560      0.311381     -0.494430
    2   N      2    1.8900  1.000     -0.361570      0.311431      0.494440
    3   C      3    1.8500  1.000      1.765800      0.365080     -0.170930
    4   C      4    1.8500  1.000     -1.765810      0.365092      0.170950
    5   O      5    2.2940  1.000     -2.358209      1.400023      0.133320
    6   O      6    2.2940  1.000      2.358191      1.400019     -0.133350
    7   O      7    2.2940  1.000     -2.239021     -0.852047      0.037050
    8   O      8    2.2940  1.000      2.239029     -0.852051     -0.037020
    9   C      9    1.8500  1.000      3.655949     -0.958572      0.172590
   10   H     10    1.2000  1.000      3.854158     -2.021462      0.275440
   11   H     11    1.2000  1.000      4.193219     -0.551762     -0.683360
   12   H     12    1.2000  1.000      3.944509     -0.429352      1.079710
   13   C     13    1.8500  1.000     -3.655921     -0.958596     -0.172610
   14   H     14    1.2000  1.000     -4.193211     -0.552176      0.683520
   15   H     15    1.2000  1.000     -3.944561     -0.429046     -1.079510
   16   H     16    1.2000  1.000     -3.854062     -2.021456     -0.275880
 ------------------------------------------------------------------------------
 ------------------------------------------------------------------------------
 Atomic radii for non-electrostatic terms: SMD-CDS.
 ------------------------------------------------------------------------------
 Nuclear repulsion after PCM non-electrostatic terms =      523.1369624100 Hartrees.
 One-electron integrals computed using PRISM.
   1 Symmetry operations used in ECPInt.
 ECPInt:  NShTT=    9045 NPrTT=   28204 LenC2=    8193 LenP2D=   19172.
 LDataN:  DoStor=T MaxTD1= 6 Len=  172
 NBasis=   346 RedAO= T EigKep=  4.12D-04  NBF=   346
 NBsUse=   346 1.00D-06 EigRej= -1.00D+00 NBFU=   346
 ExpMin= 9.52D-02 ExpMax= 2.70D+04 ExpMxC= 9.22D+02 IAcc=2 IRadAn=         4 AccDes= 0.00D+00
 Harris functional with IExCor= 4639 and IRadAn=       4 diagonalized for initial guess.
 HarFok:  IExCor= 4639 AccDes= 0.00D+00 IRadAn=         4 IDoV= 1 UseB2=F ITyADJ=14
 ICtDFT=  3500011 ScaDFX=  1.000000  1.000000  1.000000  1.000000
 FoFCou: FMM=F IPFlag=           0 FMFlag=      100000 FMFlg1=           0
         NFxFlg=           0 DoJE=T BraDBF=F KetDBF=T FulRan=T
         wScrn=  0.000000 ICntrl=     500 IOpCl=  0 I1Cent=   200000004 NGrid=           0
         NMat0=    1 NMatS0=      1 NMatT0=    0 NMatD0=    1 NMtDS0=    0 NMtDT0=    0
 Petite list used in FoFCou.
 Requested convergence on RMS density matrix=1.00D-08 within 128 cycles.
 Requested convergence on MAX density matrix=1.00D-06.
 Requested convergence on             energy=1.00D-06.
 No special actions if energy rises.
 Inv3:  Mode=1 IEnd=     7795632.
 Iteration    1 A*A^-1 deviation from unit magnitude is 6.66D-15 for   1608.
 Iteration    1 A*A^-1 deviation from orthogonality  is 2.34D-15 for    360     85.
 Iteration    1 A^-1*A deviation from unit magnitude is 6.66D-15 for   1608.
 Iteration    1 A^-1*A deviation from orthogonality  is 7.23D-16 for     92     81.
 Error on total polarization charges =  0.01014
 SCF Done:  E(RwB97XD) =  -566.432883353     A.U. after   13 cycles
            NFock= 13  Conv=0.42D-08     -V/T= 2.0041
 SMD-CDS (non-electrostatic) energy       (kcal/mol) =      -0.14
 (included in total energy above)

 **********************************************************************

            Population analysis using the SCF density.

 **********************************************************************

 Orbital symmetries:
       Occupied  (A) (A) (A) (A) (A) (A) (A) (A) (A) (A) (A) (A)
                 (A) (A) (A) (A) (A) (A) (A) (A) (A) (A) (A) (A)
                 (A) (A) (A) (A) (A) (A) (A) (A) (A) (A) (A) (A)
                 (A) (A)
       Virtual   (A) (A) (A) (A) (A) (A) (A) (A) (A) (A) (A) (A)
                 (A) (A) (A) (A) (A) (A) (A) (A) (A) (A) (A) (A)
                 (A) (A) (A) (A) (A) (A) (A) (A) (A) (A) (A) (A)
                 (A) (A) (A) (A) (A) (A) (A) (A) (A) (A) (A) (A)
                 (A) (A) (A) (A) (A) (A) (A) (A) (A) (A) (A) (A)
                 (A) (A) (A) (A) (A) (A) (A) (A) (A) (A) (A) (A)
                 (A) (A) (A) (A) (A) (A) (A) (A) (A) (A) (A) (A)
                 (A) (A) (A) (A) (A) (A) (A) (A) (A) (A) (A) (A)
                 (A) (A) (A) (A) (A) (A) (A) (A) (A) (A) (A) (A)
                 (A) (A) (A) (A) (A) (A) (A) (A) (A) (A) (A) (A)
                 (A) (A) (A) (A) (A) (A) (A) (A) (A) (A) (A) (A)
                 (A) (A) (A) (A) (A) (A) (A) (A) (A) (A) (A) (A)
                 (A) (A) (A) (A) (A) (A) (A) (A) (A) (A) (A) (A)
                 (A) (A) (A) (A) (A) (A) (A) (A) (A) (A) (A) (A)
                 (A) (A) (A) (A) (A) (A) (A) (A) (A) (A) (A) (A)
                 (A) (A) (A) (A) (A) (A) (A) (A) (A) (A) (A) (A)
                 (A) (A) (A) (A) (A) (A) (A) (A) (A) (A) (A) (A)
                 (A) (A) (A) (A) (A) (A) (A) (A) (A) (A) (A) (A)
                 (A) (A) (A) (A) (A) (A) (A) (A) (A) (A) (A) (A)
                 (A) (A) (A) (A) (A) (A) (A) (A) (A) (A) (A) (A)
                 (A) (A) (A) (A) (A) (A) (A) (A) (A) (A) (A) (A)
                 (A) (A) (A) (A) (A) (A) (A) (A) (A) (A) (A) (A)
                 (A) (A) (A) (A) (A) (A) (A) (A) (A) (A) (A) (A)
                 (A) (A) (A) (A) (A) (A) (A) (A) (A) (A) (A) (A)
                 (A) (A) (A) (A) (A) (A) (A) (A) (A) (A) (A) (A)
                 (A) (A) (A) (A) (A) (A) (A) (A)
 The electronic state is 1-A.
 Alpha  occ. eigenvalues --  -19.32510 -19.32510 -19.26055 -19.26055 -14.53330
 Alpha  occ. eigenvalues --  -14.53268 -10.45585 -10.45584 -10.34741 -10.34741
 Alpha  occ. eigenvalues --   -1.26117  -1.24794  -1.18032  -1.15596  -1.15163
 Alpha  occ. eigenvalues --   -0.91755  -0.85262  -0.81110  -0.71197  -0.67111
 Alpha  occ. eigenvalues --   -0.66158  -0.62771  -0.60190  -0.59648  -0.59016
 Alpha  occ. eigenvalues --   -0.56910  -0.53966  -0.53935  -0.51837  -0.49442
 Alpha  occ. eigenvalues --   -0.48778  -0.47033  -0.46854  -0.41594  -0.41532
 Alpha  occ. eigenvalues --   -0.41229  -0.41100  -0.34530
 Alpha virt. eigenvalues --   -0.01233   0.07036   0.07774   0.12807   0.12903
 Alpha virt. eigenvalues --    0.15222   0.15543   0.18457   0.18587   0.19981
 Alpha virt. eigenvalues --    0.20027   0.22470   0.24005   0.25595   0.26977
 Alpha virt. eigenvalues --    0.27987   0.28118   0.30525   0.30958   0.31878
 Alpha virt. eigenvalues --    0.32328   0.33326   0.35305   0.36280   0.38008
 Alpha virt. eigenvalues --    0.39506   0.40284   0.41314   0.41867   0.43968
 Alpha virt. eigenvalues --    0.45137   0.45937   0.46650   0.47863   0.48180
 Alpha virt. eigenvalues --    0.49171   0.51553   0.52238   0.52595   0.52893
 Alpha virt. eigenvalues --    0.55230   0.56168   0.57102   0.58602   0.58718
 Alpha virt. eigenvalues --    0.60938   0.61311   0.62714   0.64201   0.64528
 Alpha virt. eigenvalues --    0.64733   0.66029   0.69060   0.69604   0.71697
 Alpha virt. eigenvalues --    0.73463   0.75419   0.78043   0.80579   0.80806
 Alpha virt. eigenvalues --    0.80898   0.86546   0.87805   0.87985   0.89045
 Alpha virt. eigenvalues --    0.90024   0.92200   0.93294   0.97258   0.97825
 Alpha virt. eigenvalues --    0.99935   1.00264   1.02507   1.03263   1.05854
 Alpha virt. eigenvalues --    1.06719   1.11201   1.12468   1.14695   1.15810
 Alpha virt. eigenvalues --    1.19903   1.23291   1.28024   1.32108   1.32172
 Alpha virt. eigenvalues --    1.35828   1.40343   1.44419   1.48581   1.49721
 Alpha virt. eigenvalues --    1.51870   1.52016   1.54444   1.54618   1.54729
 Alpha virt. eigenvalues --    1.57741   1.57796   1.59413   1.59543   1.60811
 Alpha virt. eigenvalues --    1.61737   1.64001   1.65111   1.65296   1.65731
 Alpha virt. eigenvalues --    1.66203   1.68925   1.74549   1.79533   1.80092
 Alpha virt. eigenvalues --    1.81083   1.81244   1.83522   1.87074   1.90032
 Alpha virt. eigenvalues --    1.91887   1.93162   1.95269   1.97963   2.01876
 Alpha virt. eigenvalues --    2.01933   2.05952   2.06064   2.07153   2.09098
 Alpha virt. eigenvalues --    2.12842   2.13323   2.14938   2.17360   2.17365
 Alpha virt. eigenvalues --    2.18082   2.19997   2.20459   2.24750   2.28284
 Alpha virt. eigenvalues --    2.30661   2.32400   2.32434   2.33283   2.33575
 Alpha virt. eigenvalues --    2.39087   2.40244   2.41456   2.43360   2.44201
 Alpha virt. eigenvalues --    2.44881   2.48619   2.51876   2.58003   2.60852
 Alpha virt. eigenvalues --    2.61271   2.62289   2.63040   2.66190   2.68492
 Alpha virt. eigenvalues --    2.69562   2.76347   2.78195   2.78403   2.82655
 Alpha virt. eigenvalues --    2.85014   2.85195   2.86209   2.90518   2.94871
 Alpha virt. eigenvalues --    2.96320   2.99156   3.00006   3.01565   3.03333
 Alpha virt. eigenvalues --    3.04335   3.05202   3.11502   3.11822   3.13465
 Alpha virt. eigenvalues --    3.14659   3.16750   3.20287   3.21884   3.24111
 Alpha virt. eigenvalues --    3.26094   3.27668   3.27979   3.32631   3.33738
 Alpha virt. eigenvalues --    3.34764   3.35127   3.36073   3.36134   3.40984
 Alpha virt. eigenvalues --    3.42839   3.43158   3.43461   3.44952   3.46602
 Alpha virt. eigenvalues --    3.46876   3.49143   3.50644   3.55431   3.55488
 Alpha virt. eigenvalues --    3.60101   3.60212   3.65259   3.65912   3.66928
 Alpha virt. eigenvalues --    3.67553   3.68494   3.71524   3.76268   3.81769
 Alpha virt. eigenvalues --    3.85130   3.94005   3.94590   3.95966   4.00919
 Alpha virt. eigenvalues --    4.03584   4.10522   4.19332   4.24462   4.24906
 Alpha virt. eigenvalues --    4.27448   4.35327   4.35337   4.38996   4.42974
 Alpha virt. eigenvalues --    4.47420   4.49225   4.58381   4.58565   4.62842
 Alpha virt. eigenvalues --    4.65991   4.72872   4.76242   4.85794   4.87896
 Alpha virt. eigenvalues --    4.91009   4.92777   4.96201   4.98339   4.98862
 Alpha virt. eigenvalues --    5.01927   5.09443   5.12037   5.21481   5.23399
 Alpha virt. eigenvalues --    5.24855   5.26606   5.27610   5.37955   5.40900
 Alpha virt. eigenvalues --    5.46310   5.52884   5.54388   5.55794   5.61350
 Alpha virt. eigenvalues --    5.67320   5.71801   5.74919   5.76469   5.78113
 Alpha virt. eigenvalues --    5.90656   5.93516   5.98388   6.04442   6.10249
 Alpha virt. eigenvalues --    6.13511   6.19584   6.20420   6.24323   6.24510
 Alpha virt. eigenvalues --    6.25826   6.32201   6.37789   6.42599   6.43334
 Alpha virt. eigenvalues --    6.53641   6.55727   6.58520   6.60066   6.70357
 Alpha virt. eigenvalues --    6.70474   6.71945   6.72189   6.77940   6.81503
 Alpha virt. eigenvalues --    6.90219   6.95633   6.96336   6.97728   6.98664
 Alpha virt. eigenvalues --    7.07573   7.10558   7.21775   7.22526   7.38225
 Alpha virt. eigenvalues --    7.39533   7.46378   7.49124  22.41081  22.41096
 Alpha virt. eigenvalues --   23.40880  23.55472  32.22807  32.50558  43.92069
 Alpha virt. eigenvalues --   43.95342  44.15281  44.19167
          Condensed to atoms (all electrons):
               1          2          3          4          5          6
     1  N    6.598371   0.327918   0.343437  -0.029008  -0.004090  -0.068434
     2  N    0.327918   6.598373  -0.029008   0.343439  -0.068434  -0.004089
     3  C    0.343437  -0.029008   4.261399  -0.003704   0.000781   0.665235
     4  C   -0.029008   0.343439  -0.003704   4.261399   0.665236   0.000782
     5  O   -0.004090  -0.068434   0.000781   0.665236   7.805581   0.000043
     6  O   -0.068434  -0.004089   0.665235   0.000782   0.000043   7.805583
     7  O   -0.000405  -0.084386   0.000996   0.404237  -0.079710   0.000009
     8  O   -0.084387  -0.000405   0.404239   0.000996   0.000009  -0.079710
     9  C    0.003631   0.000940  -0.049068   0.000070   0.000004   0.001625
    10  H    0.000408   0.000013   0.005478   0.000005   0.000000   0.001342
    11  H   -0.000152  -0.000017  -0.007577   0.000002   0.000000   0.003878
    12  H    0.000022  -0.000226  -0.008125  -0.000027   0.000000   0.004344
    13  C    0.000941   0.003630   0.000070  -0.049068   0.001624   0.000004
    14  H   -0.000017  -0.000152   0.000002  -0.007573   0.003872   0.000000
    15  H   -0.000226   0.000022  -0.000027  -0.008129   0.004350   0.000000
    16  H    0.000013   0.000408   0.000005   0.005478   0.001342   0.000000
               7          8          9         10         11         12
     1  N   -0.000405  -0.084387   0.003631   0.000408  -0.000152   0.000022
     2  N   -0.084386  -0.000405   0.000940   0.000013  -0.000017  -0.000226
     3  C    0.000996   0.404239  -0.049068   0.005478  -0.007577  -0.008125
     4  C    0.404237   0.000996   0.000070   0.000005   0.000002  -0.000027
     5  O   -0.079710   0.000009   0.000004   0.000000   0.000000   0.000000
     6  O    0.000009  -0.079710   0.001625   0.001342   0.003878   0.004344
     7  O    7.889055  -0.000003   0.000001   0.000000   0.000000   0.000000
     8  O   -0.000003   7.889055   0.215481  -0.027292  -0.032970  -0.031779
     9  C    0.000001   0.215481   4.803370   0.395863   0.418425   0.416553
    10  H    0.000000  -0.027292   0.395863   0.507208  -0.019709  -0.019476
    11  H    0.000000  -0.032970   0.418425  -0.019709   0.518353  -0.033088
    12  H    0.000000  -0.031779   0.416553  -0.019476  -0.033088   0.517916
    13  C    0.215482   0.000001   0.000000   0.000000   0.000000   0.000000
    14  H   -0.032971   0.000000   0.000000   0.000000   0.000000   0.000000
    15  H   -0.031779   0.000000   0.000000   0.000000   0.000000   0.000000
    16  H   -0.027292   0.000000   0.000000   0.000000   0.000000   0.000000
              13         14         15         16
     1  N    0.000941  -0.000017  -0.000226   0.000013
     2  N    0.003630  -0.000152   0.000022   0.000408
     3  C    0.000070   0.000002  -0.000027   0.000005
     4  C   -0.049068  -0.007573  -0.008129   0.005478
     5  O    0.001624   0.003872   0.004350   0.001342
     6  O    0.000004   0.000000   0.000000   0.000000
     7  O    0.215482  -0.032971  -0.031779  -0.027292
     8  O    0.000001   0.000000   0.000000   0.000000
     9  C    0.000000   0.000000   0.000000   0.000000
    10  H    0.000000   0.000000   0.000000   0.000000
    11  H    0.000000   0.000000   0.000000   0.000000
    12  H    0.000000   0.000000   0.000000   0.000000
    13  C    4.803371   0.418429   0.416550   0.395863
    14  H    0.418429   0.518356  -0.033088  -0.019711
    15  H    0.416550  -0.033088   0.517918  -0.019476
    16  H    0.395863  -0.019711  -0.019476   0.507209
 Mulliken charges:
               1
     1  N   -0.088022
     2  N   -0.088026
     3  C    0.415865
     4  C    0.415865
     5  O   -0.330608
     6  O   -0.330611
     7  O   -0.253235
     8  O   -0.253236
     9  C   -0.206895
    10  H    0.156161
    11  H    0.152855
    12  H    0.153884
    13  C   -0.206896
    14  H    0.152853
    15  H    0.153885
    16  H    0.156160
 Sum of Mulliken charges =   0.00000
 Mulliken charges with hydrogens summed into heavy atoms:
               1
     1  N   -0.088022
     2  N   -0.088026
     3  C    0.415865
     4  C    0.415865
     5  O   -0.330608
     6  O   -0.330611
     7  O   -0.253235
     8  O   -0.253236
     9  C    0.256006
    13  C    0.256002
 Electronic spatial extent (au):  <R**2>=           2038.6710
 Charge=              0.0000 electrons
 Dipole moment (field-independent basis, Debye):
    X=              0.0001    Y=             -4.7588    Z=              0.0000  Tot=              4.7588
 Quadrupole moment (field-independent basis, Debye-Ang):
   XX=            -35.5538   YY=            -62.4552   ZZ=            -56.1786
   XY=              0.0001   XZ=              1.8440   YZ=              0.0001
 Traceless Quadrupole moment (field-independent basis, Debye-Ang):
   XX=             15.8420   YY=            -11.0593   ZZ=             -4.7828
   XY=              0.0001   XZ=              1.8440   YZ=              0.0001
 Octapole moment (field-independent basis, Debye-Ang**2):
  XXX=              0.0025  YYY=            -17.0644  ZZZ=              0.0008  XYY=              0.0001
  XXY=            -56.1590  XXZ=             -0.0006  XZZ=             -0.0003  YZZ=              0.3121
  YYZ=             -0.0011  XYZ=             -0.9891
 Hexadecapole moment (field-independent basis, Debye-Ang**3):
 XXXX=          -1698.7322 YYYY=           -335.8080 ZZZZ=            -87.5402 XXXY=              0.0010
 XXXZ=             19.8697 YYYX=             -0.0012 YYYZ=              0.0032 ZZZX=             -0.4965
 ZZZY=             -0.0010 XXYY=           -409.5539 XXZZ=           -343.1192 YYZZ=            -71.8631
 XXYZ=              0.0007 YYXZ=              6.7332 ZZXY=              0.0009
 N-N= 5.231369624100D+02 E-N=-2.375100022100D+03  KE= 5.641320463580D+02
   1 Symmetry operations used in ECPInt.
 ECPInt:  NShTT=    9045 NPrTT=   28204 LenC2=    8193 LenP2D=   19172.
 LDataN:  DoStor=T MaxTD1= 7 Len=  274
 D1PCM: PCM CHGder 1st derivatives, ID1Alg=3 FixD1E=F DoIter=F DoCFld=F I1PDM=0.
 Calling FoFJK, ICntrl=      2127 FMM=F ISym2X=0 I1Cent= 0 IOpClX= 0 NMat=1 NMatS=1 NMatT=0.
 ***** Axes restored to original set *****
 -------------------------------------------------------------------
 Center     Atomic                   Forces (Hartrees/Bohr)
 Number     Number              X              Y              Z
 -------------------------------------------------------------------
      1        7           0.000391270   -0.000087789   -0.000791900
      2        7          -0.000391034   -0.000089278    0.000795519
      3        6          -0.000266153    0.000362039    0.000101463
      4        6           0.000267807    0.000359986   -0.000109108
      5        8          -0.000034090   -0.000153628    0.000018549
      6        8           0.000031529   -0.000156746   -0.000015575
      7        8          -0.000018322   -0.000279236   -0.000014908
      8        8           0.000023279   -0.000279143    0.000013309
      9        6          -0.000122270    0.000133018   -0.000028114
     10        1          -0.000031013   -0.000036455   -0.000002946
     11        1           0.000011413    0.000037290    0.000009020
     12        1           0.000022192    0.000028083   -0.000019323
     13        6           0.000113684    0.000134704    0.000034816
     14        1          -0.000010636    0.000036765   -0.000012027
     15        1          -0.000019706    0.000028835    0.000017827
     16        1           0.000032049   -0.000038444    0.000003398
 -------------------------------------------------------------------
 Cartesian Forces:  Max     0.000795519 RMS     0.000218521

 GradGradGradGradGradGradGradGradGradGradGradGradGradGradGradGradGradGrad
 Berny optimization.
 FormGI is forming the generalized inverse of G from B-inverse, IUseBI=4.
 Internal  Forces:  Max     0.000604886 RMS     0.000159796
 Search for a local minimum.
 Step number   1 out of a maximum of   62
 All quantities printed in internal units (Hartrees-Bohrs-Radians)
 Mixed Optimization -- En-DIIS/RFO-DIIS
 Second derivative matrix not updated -- first step.
 ITU=  0
     Eigenvalues ---    0.01136   0.01136   0.01212   0.01212   0.02105
     Eigenvalues ---    0.02105   0.02846   0.02846   0.03609   0.10204
     Eigenvalues ---    0.10204   0.10689   0.10689   0.16000   0.16000
     Eigenvalues ---    0.16000   0.16000   0.16000   0.16000   0.24965
     Eigenvalues ---    0.24965   0.25000   0.25000   0.25000   0.25000
     Eigenvalues ---    0.25000   0.25000   0.34881   0.34881   0.34913
     Eigenvalues ---    0.34913   0.35268   0.35268   0.39309   0.39310
     Eigenvalues ---    0.40098   0.40099   0.63776   0.63776   0.93174
     Eigenvalues ---    1.08379   1.08380
 RFO step:  Lambda=-4.44235592D-06 EMin= 1.13591683D-02
 Linear search not attempted -- first point.
 Iteration  1 RMS(Cart)=  0.00405744 RMS(Int)=  0.00000553
 Iteration  2 RMS(Cart)=  0.00000810 RMS(Int)=  0.00000010
 Iteration  3 RMS(Cart)=  0.00000000 RMS(Int)=  0.00000010
 Variable       Old X    -DE/DX   Delta X   Delta X   Delta X     New X
                                 (Linear)    (Quad)   (Total)
    R1        2.31503   0.00060   0.00000   0.00065   0.00065   2.31568
    R2        2.72503  -0.00030   0.00000  -0.00076  -0.00076   2.72426
    R3        2.72502  -0.00030   0.00000  -0.00076  -0.00076   2.72426
    R4        2.25459  -0.00012   0.00000  -0.00011  -0.00011   2.25448
    R5        2.48072   0.00007   0.00000   0.00011   0.00011   2.48083
    R6        2.25459  -0.00012   0.00000  -0.00011  -0.00011   2.25448
    R7        2.48072   0.00007   0.00000   0.00011   0.00011   2.48083
    R8        2.71419  -0.00013   0.00000  -0.00033  -0.00033   2.71386
    R9        2.71421  -0.00013   0.00000  -0.00033  -0.00033   2.71387
   R10        2.05242   0.00003   0.00000   0.00009   0.00009   2.05251
   R11        2.05868   0.00001   0.00000   0.00002   0.00002   2.05870
   R12        2.05816   0.00001   0.00000   0.00002   0.00002   2.05818
   R13        2.05869   0.00001   0.00000   0.00002   0.00002   2.05870
   R14        2.05816   0.00001   0.00000   0.00002   0.00002   2.05818
   R15        2.05242   0.00003   0.00000   0.00009   0.00009   2.05251
    A1        1.97548  -0.00042   0.00000  -0.00169  -0.00169   1.97379
    A2        1.97549  -0.00043   0.00000  -0.00170  -0.00170   1.97379
    A3        2.12103   0.00014   0.00000   0.00055   0.00055   2.12157
    A4        1.91708  -0.00006   0.00000  -0.00025  -0.00025   1.91683
    A5        2.24218  -0.00009   0.00000  -0.00037  -0.00037   2.24181
    A6        2.12102   0.00014   0.00000   0.00054   0.00054   2.12156
    A7        1.91709  -0.00006   0.00000  -0.00026  -0.00026   1.91682
    A8        2.24218  -0.00009   0.00000  -0.00037  -0.00037   2.24181
    A9        2.02559  -0.00036   0.00000  -0.00144  -0.00144   2.02416
   A10        2.02559  -0.00036   0.00000  -0.00144  -0.00144   2.02415
   A11        1.84049  -0.00005   0.00000  -0.00027  -0.00027   1.84022
   A12        1.92215   0.00001   0.00000   0.00006   0.00006   1.92221
   A13        1.92504   0.00002   0.00000   0.00010   0.00010   1.92515
   A14        1.92820   0.00003   0.00000   0.00025   0.00025   1.92845
   A15        1.92656   0.00002   0.00000   0.00018   0.00018   1.92674
   A16        1.92014  -0.00004   0.00000  -0.00032  -0.00032   1.91983
   A17        1.92212   0.00001   0.00000   0.00008   0.00008   1.92220
   A18        1.92508   0.00002   0.00000   0.00008   0.00008   1.92516
   A19        1.84050  -0.00005   0.00000  -0.00028  -0.00028   1.84022
   A20        1.92014  -0.00004   0.00000  -0.00031  -0.00031   1.91983
   A21        1.92819   0.00003   0.00000   0.00026   0.00026   1.92845
   A22        1.92654   0.00003   0.00000   0.00019   0.00019   1.92673
    D1        3.06058  -0.00008   0.00000  -0.00233  -0.00233   3.05825
    D2       -1.64969  -0.00005   0.00000  -0.00341  -0.00341  -1.65310
    D3        1.56716  -0.00002   0.00000  -0.00247  -0.00247   1.56469
    D4       -1.64974  -0.00005   0.00000  -0.00353  -0.00353  -1.65327
    D5        1.56706  -0.00002   0.00000  -0.00230  -0.00230   1.56476
    D6        3.05084   0.00000   0.00000  -0.00034  -0.00034   3.05050
    D7       -0.00881   0.00001   0.00000   0.00065   0.00065  -0.00817
    D8        3.05088  -0.00001   0.00000  -0.00050  -0.00050   3.05038
    D9       -0.00882   0.00001   0.00000   0.00079   0.00079  -0.00803
   D10       -1.07745   0.00002   0.00000   0.00036   0.00036  -1.07709
   D11        1.04520  -0.00001   0.00000   0.00008   0.00008   1.04528
   D12        3.12526   0.00000   0.00000   0.00018   0.00018   3.12544
   D13        3.12568   0.00000   0.00000   0.00009   0.00009   3.12577
   D14       -1.07701   0.00002   0.00000   0.00026   0.00026  -1.07675
   D15        1.04563  -0.00001   0.00000  -0.00003  -0.00003   1.04560
         Item               Value     Threshold  Converged?
 Maximum Force            0.000605     0.000450     NO 
 RMS     Force            0.000160     0.000300     YES
 Maximum Displacement     0.010983     0.001800     NO 
 RMS     Displacement     0.004060     0.001200     NO 
 Predicted change in Energy=-2.221180D-06
 GradGradGradGradGradGradGradGradGradGradGradGradGradGradGradGradGradGrad

                          Input orientation:                          
 ---------------------------------------------------------------------
 Center     Atomic      Atomic             Coordinates (Angstroms)
 Number     Number       Type             X           Y           Z
 ---------------------------------------------------------------------
      1          7           0        0.360642    0.308059   -0.495391
      2          7           0       -0.360617    0.308020    0.495269
      3          6           0        1.764565    0.363299   -0.172577
      4          6           0       -1.764538    0.363273    0.172459
      5          8           0       -2.357266    1.398097    0.139132
      6          8           0        2.357256    1.398137   -0.139003
      7          8           0       -2.238063   -0.853431    0.035164
      8          8           0        2.238084   -0.853408   -0.035295
      9          6           0        3.655140   -0.957020    0.173641
     10          1           0        3.854827   -2.019370    0.279642
     11          1           0        4.191240   -0.551889   -0.683855
     12          1           0        3.943614   -0.424435    1.078830
     13          6           0       -3.655135   -0.957049   -0.173622
     14          1           0       -4.191141   -0.552276    0.684103
     15          1           0       -3.943772   -0.424147   -1.078572
     16          1           0       -3.854777   -2.019370   -0.279995
 ---------------------------------------------------------------------
                    Distance matrix (angstroms):
                    1          2          3          4          5
     1  N    0.000000
     2  N    1.225407   0.000000
     3  C    1.441617   2.228335   0.000000
     4  C    2.228332   1.441615   3.545930   0.000000
     5  O    2.996302   2.302544   4.261158   1.193020   0.000000
     6  O    2.302552   2.996247   1.193021   4.261120   4.722719
     7  O    2.895482   2.255098   4.188630   1.312801   2.257078
     8  O    2.255102   2.895456   1.312800   4.188611   5.120249
     9  C    3.591900   4.222568   2.331819   5.578180   6.457306
    10  H    4.269301   4.820084   3.201688   6.104567   7.091468
    11  H    3.930459   4.780082   2.643431   6.086222   6.882056
    12  H    3.981508   4.404933   2.633400   5.833094   6.626141
    13  C    4.222618   3.591888   5.578214   2.331818   2.707211
    14  H    4.780179   3.930481   6.086265   2.643560   2.732041
    15  H    4.405021   3.981462   5.833182   2.633281   2.705620
    16  H    4.820071   4.269301   6.104561   3.201688   3.754636
                    6          7          8          9         10
     6  O    0.000000
     7  O    5.120239   0.000000
     8  O    2.257080   4.476701   0.000000
     9  C    2.707215   5.895739   1.436118   0.000000
    10  H    3.754642   6.208259   2.018046   1.086139   0.000000
    11  H    2.731843   6.476407   2.079991   1.089418   1.787456
    12  H    2.705812   6.283820   2.081855   1.089143   1.786169
    13  C    6.457317   1.436113   5.895753   7.318518   7.598256
    14  H    6.882087   2.079983   6.476353   7.873278   8.188623
    15  H    6.626195   2.081859   6.283951   7.719809   8.075124
    16  H    7.091445   2.018045   6.208245   7.598239   7.729889
                   11         12         13         14         15
    11  H    0.000000
    12  H    1.784551   0.000000
    13  C    7.873379   7.719669   0.000000
    14  H    8.493269   8.145329   1.089420   0.000000
    15  H    8.145584   8.177117   1.089142   1.784554   0.000000
    16  H    8.188712   8.074969   1.086140   1.787454   1.786164
                   16
    16  H    0.000000
 Stoichiometry    C4H6N2O4
 Framework group  C1[X(C4H6N2O4)]
 Deg. of freedom    42
 Full point group                 C1      NOp   1
 Largest Abelian subgroup         C1      NOp   1
 Largest concise Abelian subgroup C1      NOp   1
                         Standard orientation:                         
 ---------------------------------------------------------------------
 Center     Atomic      Atomic             Coordinates (Angstroms)
 Number     Number       Type             X           Y           Z
 ---------------------------------------------------------------------
      1          7           0        0.360761    0.309213   -0.495292
      2          7           0       -0.360744    0.309202    0.495190
      3          6           0        1.764604    0.364452   -0.172133
      4          6           0       -1.764585    0.364456    0.172032
      5          8           0       -2.357298    1.399283    0.138534
      6          8           0        2.357293    1.399287   -0.138438
      7          8           0       -2.238082   -0.852249    0.034650
      8          8           0        2.238082   -0.852254   -0.034705
      9          6           0        3.655085   -0.955870    0.174583
     10          1           0        3.854740   -2.018219    0.280660
     11          1           0        4.191400   -0.550763   -0.682790
     12          1           0        3.943339   -0.423265    1.079831
     13          6           0       -3.655104   -0.955863   -0.174483
     14          1           0       -4.191319   -0.551067    0.683100
     15          1           0       -3.943514   -0.422982   -1.079518
     16          1           0       -3.854726   -2.018186   -0.280880
 ---------------------------------------------------------------------
 Rotational constants (GHZ):      3.7438643      0.5972864      0.5284457
 Standard basis: def2TZVP (5D, 7F)
 There are   396 symmetry adapted cartesian basis functions of A   symmetry.
 There are   346 symmetry adapted basis functions of A   symmetry.
   346 basis functions,   558 primitive gaussians,   396 cartesian basis functions
    38 alpha electrons       38 beta electrons
       nuclear repulsion energy       523.2778388031 Hartrees.
 NAtoms=   16 NActive=   16 NUniq=   16 SFac= 1.00D+00 NAtFMM=   60 NAOKFM=F Big=F
 Integral buffers will be    131072 words long.
 Raffenetti 2 integral format.
 Two-electron integral symmetry is turned on.
 Nuclear repulsion after empirical dispersion term =      523.2726320868 Hartrees.
 ------------------------------------------------------------------------------
 Polarizable Continuum Model (PCM)
 =================================
 Model                : PCM (using non-symmetric T matrix).
 Atomic radii         : SMD-Coulomb.
 Polarization charges : Total charges.
 Charge compensation  : None.
 Solution method      : On-the-fly selection.
 Cavity type          : VdW (van der Waals Surface) (Alpha=1.000).
 Cavity algorithm     : GePol (No added spheres)
                        Default sphere list used, NSphG=   16.
                        Lebedev-Laikov grids with approx.  5.0 points / Ang**2.
                        Smoothing algorithm: Karplus/York (Gamma=1.0000).
                        Polarization charges: spherical gaussians, with
                                              point-specific exponents (IZeta= 3).
                        Self-potential: point-specific (ISelfS= 7).
                        Self-field    : sphere-specific E.n sum rule (ISelfD= 2).
 1st derivatives      : Analytical E(r).r(x)/FMM algorithm (CHGder, D1EAlg=3).
                        Cavity 1st derivative terms included.
 Solvent              : Toluene, Eps=   2.374100 Eps(inf)=   2.238315
 ------------------------------------------------------------------------------
 Spheres list:
 ISph  on   Nord     Re0    Alpha      Xe            Ye            Ze
    1   N      1    1.8900  1.000      0.360761      0.309213     -0.495292
    2   N      2    1.8900  1.000     -0.360744      0.309202      0.495190
    3   C      3    1.8500  1.000      1.764604      0.364452     -0.172133
    4   C      4    1.8500  1.000     -1.764585      0.364456      0.172032
    5   O      5    2.2940  1.000     -2.357298      1.399283      0.138534
    6   O      6    2.2940  1.000      2.357293      1.399287     -0.138438
    7   O      7    2.2940  1.000     -2.238082     -0.852249      0.034650
    8   O      8    2.2940  1.000      2.238082     -0.852254     -0.034705
    9   C      9    1.8500  1.000      3.655085     -0.955870      0.174583
   10   H     10    1.2000  1.000      3.854740     -2.018219      0.280660
   11   H     11    1.2000  1.000      4.191400     -0.550763     -0.682790
   12   H     12    1.2000  1.000      3.943339     -0.423265      1.079831
   13   C     13    1.8500  1.000     -3.655104     -0.955863     -0.174483
   14   H     14    1.2000  1.000     -4.191319     -0.551067      0.683100
   15   H     15    1.2000  1.000     -3.943514     -0.422982     -1.079518
   16   H     16    1.2000  1.000     -3.854726     -2.018186     -0.280880
 ------------------------------------------------------------------------------
 ------------------------------------------------------------------------------
 Atomic radii for non-electrostatic terms: SMD-CDS.
 ------------------------------------------------------------------------------
 Nuclear repulsion after PCM non-electrostatic terms =      523.2724040007 Hartrees.
 One-electron integrals computed using PRISM.
   1 Symmetry operations used in ECPInt.
 ECPInt:  NShTT=    9045 NPrTT=   28204 LenC2=    8193 LenP2D=   19174.
 LDataN:  DoStor=T MaxTD1= 6 Len=  172
 NBasis=   346 RedAO= T EigKep=  4.12D-04  NBF=   346
 NBsUse=   346 1.00D-06 EigRej= -1.00D+00 NBFU=   346
 Initial guess from the checkpoint file:  ""dmad.chk""
 B after Tr=     0.000000    0.000000    0.000000
         Rot=    1.000000   -0.000003   -0.000020    0.000001 Ang=   0.00 deg.
 Requested convergence on RMS density matrix=1.00D-08 within 128 cycles.
 Requested convergence on MAX density matrix=1.00D-06.
 Requested convergence on             energy=1.00D-06.
 No special actions if energy rises.
 Inv3:  Mode=1 IEnd=     7795632.
 Iteration    1 A*A^-1 deviation from unit magnitude is 4.33D-15 for    608.
 Iteration    1 A*A^-1 deviation from orthogonality  is 2.17D-15 for    361     85.
 Iteration    1 A^-1*A deviation from unit magnitude is 3.55D-15 for   1584.
 Iteration    1 A^-1*A deviation from orthogonality  is 8.51D-16 for   1594   1590.
 Error on total polarization charges =  0.01013
 SCF Done:  E(RwB97XD) =  -566.432884808     A.U. after    9 cycles
            NFock=  9  Conv=0.64D-08     -V/T= 2.0041
 SMD-CDS (non-electrostatic) energy       (kcal/mol) =      -0.14
 (included in total energy above)
   1 Symmetry operations used in ECPInt.
 ECPInt:  NShTT=    9045 NPrTT=   28204 LenC2=    8193 LenP2D=   19174.
 LDataN:  DoStor=T MaxTD1= 7 Len=  274
 D1PCM: PCM CHGder 1st derivatives, ID1Alg=3 FixD1E=F DoIter=F DoCFld=F I1PDM=0.
 Calling FoFJK, ICntrl=      2127 FMM=F ISym2X=0 I1Cent= 0 IOpClX= 0 NMat=1 NMatS=1 NMatT=0.
 ***** Axes restored to original set *****
 -------------------------------------------------------------------
 Center     Atomic                   Forces (Hartrees/Bohr)
 Number     Number              X              Y              Z
 -------------------------------------------------------------------
      1        7           0.000253608    0.000184085   -0.000263935
      2        7          -0.000248628    0.000183824    0.000251929
      3        6          -0.000053384    0.000027619   -0.000230888
      4        6           0.000044727    0.000025365    0.000269771
      5        8           0.000052360   -0.000032239   -0.000073669
      6        8          -0.000050972   -0.000034507    0.000059339
      7        8          -0.000111996   -0.000138964   -0.000086998
      8        8           0.000116139   -0.000138859    0.000074943
      9        6          -0.000003511   -0.000035587   -0.000002069
     10        1           0.000018511    0.000000875    0.000004053
     11        1           0.000012135    0.000003533    0.000000961
     12        1           0.000019559   -0.000006936   -0.000003194
     13        6           0.000000630   -0.000035709    0.000001949
     14        1          -0.000011425    0.000004083   -0.000001338
     15        1          -0.000019625   -0.000007429    0.000002905
     16        1          -0.000018127    0.000000846   -0.000003760
 -------------------------------------------------------------------
 Cartesian Forces:  Max     0.000269771 RMS     0.000107827

 GradGradGradGradGradGradGradGradGradGradGradGradGradGradGradGradGradGrad
 Berny optimization.
 Using GEDIIS/GDIIS optimizer.
 FormGI is forming the generalized inverse of G from B-inverse, IUseBI=4.
 Internal  Forces:  Max     0.000451621 RMS     0.000100831
 Search for a local minimum.
 Step number   2 out of a maximum of   62
 All quantities printed in internal units (Hartrees-Bohrs-Radians)
 Mixed Optimization -- En-DIIS/RFO-DIIS
 Swapping is turned off.
 Update second derivatives using D2CorX and points    1    2
 DE= -1.45D-06 DEPred=-2.22D-06 R= 6.55D-01
 TightC=F SS=  1.41D+00  RLast= 7.48D-03 DXNew= 5.0454D-01 2.2437D-02
 Trust test= 6.55D-01 RLast= 7.48D-03 DXMaxT set to 3.00D-01
 ITU=  1  0
     Eigenvalues ---    0.01030   0.01136   0.01211   0.01212   0.02106
     Eigenvalues ---    0.02318   0.02837   0.02846   0.04661   0.10192
     Eigenvalues ---    0.10204   0.10685   0.10690   0.15836   0.16000
     Eigenvalues ---    0.16000   0.16000   0.16000   0.16101   0.22755
     Eigenvalues ---    0.24964   0.24968   0.25000   0.25000   0.25000
     Eigenvalues ---    0.25000   0.29256   0.34879   0.34881   0.34911
     Eigenvalues ---    0.34913   0.35247   0.35268   0.38732   0.39310
     Eigenvalues ---    0.40098   0.40471   0.63776   0.65992   0.87035
     Eigenvalues ---    1.08097   1.08379
 En-DIIS/RFO-DIIS IScMMF=        0 using points:     2    1
 RFO step:  Lambda=-1.01312273D-06.
 DidBck=T Rises=F RFO-DIIS coefs:    0.76719    0.23281
 Iteration  1 RMS(Cart)=  0.00461442 RMS(Int)=  0.00000472
 Iteration  2 RMS(Cart)=  0.00001290 RMS(Int)=  0.00000137
 Iteration  3 RMS(Cart)=  0.00000000 RMS(Int)=  0.00000137
 Variable       Old X    -DE/DX   Delta X   Delta X   Delta X     New X
                                 (Linear)    (Quad)   (Total)
    R1        2.31568   0.00045  -0.00015   0.00095   0.00080   2.31648
    R2        2.72426   0.00003   0.00018  -0.00062  -0.00044   2.72382
    R3        2.72426   0.00004   0.00018  -0.00061  -0.00043   2.72382
    R4        2.25448  -0.00005   0.00003  -0.00014  -0.00011   2.25437
    R5        2.48083   0.00023  -0.00003   0.00038   0.00036   2.48119
    R6        2.25448  -0.00005   0.00003  -0.00013  -0.00011   2.25437
    R7        2.48083   0.00023  -0.00003   0.00038   0.00036   2.48119
    R8        2.71386   0.00005   0.00008  -0.00019  -0.00011   2.71375
    R9        2.71387   0.00005   0.00008  -0.00020  -0.00012   2.71375
   R10        2.05251   0.00000  -0.00002   0.00008   0.00006   2.05257
   R11        2.05870   0.00000  -0.00001   0.00003   0.00002   2.05872
   R12        2.05818   0.00000   0.00000   0.00003   0.00002   2.05820
   R13        2.05870   0.00000   0.00000   0.00002   0.00002   2.05872
   R14        2.05818   0.00000  -0.00001   0.00003   0.00002   2.05820
   R15        2.05251   0.00000  -0.00002   0.00009   0.00007   2.05257
    A1        1.97379   0.00007   0.00039  -0.00130  -0.00091   1.97288
    A2        1.97379   0.00007   0.00040  -0.00129  -0.00090   1.97289
    A3        2.12157  -0.00007  -0.00013   0.00039   0.00026   2.12183
    A4        1.91683   0.00012   0.00006   0.00026   0.00031   1.91714
    A5        2.24181  -0.00004   0.00009  -0.00032  -0.00024   2.24158
    A6        2.12156  -0.00007  -0.00013   0.00041   0.00028   2.12185
    A7        1.91682   0.00012   0.00006   0.00027   0.00033   1.91715
    A8        2.24181  -0.00004   0.00009  -0.00030  -0.00022   2.24159
    A9        2.02416   0.00009   0.00033  -0.00101  -0.00068   2.02348
   A10        2.02415   0.00009   0.00033  -0.00101  -0.00068   2.02348
   A11        1.84022   0.00002   0.00006  -0.00013  -0.00007   1.84015
   A12        1.92221   0.00001  -0.00001   0.00012   0.00011   1.92231
   A13        1.92515   0.00002  -0.00002   0.00018   0.00015   1.92530
   A14        1.92845  -0.00001  -0.00006   0.00018   0.00013   1.92858
   A15        1.92674  -0.00002  -0.00004   0.00004   0.00000   1.92674
   A16        1.91983  -0.00002   0.00007  -0.00038  -0.00030   1.91953
   A17        1.92220   0.00001  -0.00002   0.00013   0.00011   1.92231
   A18        1.92516   0.00002  -0.00002   0.00015   0.00013   1.92529
   A19        1.84022   0.00002   0.00007  -0.00014  -0.00008   1.84015
   A20        1.91983  -0.00002   0.00007  -0.00037  -0.00030   1.91953
   A21        1.92845  -0.00001  -0.00006   0.00020   0.00014   1.92858
   A22        1.92673  -0.00002  -0.00004   0.00005   0.00001   1.92674
    D1        3.05825   0.00029   0.00054   0.00400   0.00454   3.06279
    D2       -1.65310   0.00007   0.00080  -0.00055   0.00024  -1.65286
    D3        1.56469  -0.00007   0.00057  -0.00475  -0.00417   1.56052
    D4       -1.65327   0.00008   0.00082  -0.00018   0.00065  -1.65263
    D5        1.56476  -0.00008   0.00054  -0.00505  -0.00451   1.56025
    D6        3.05050   0.00009   0.00008   0.00283   0.00290   3.05340
    D7       -0.00817  -0.00006  -0.00015  -0.00178  -0.00193  -0.01009
    D8        3.05038   0.00010   0.00012   0.00320   0.00332   3.05370
    D9       -0.00803  -0.00007  -0.00018  -0.00214  -0.00233  -0.01035
   D10       -1.07709   0.00001  -0.00008   0.00056   0.00047  -1.07662
   D11        1.04528   0.00000  -0.00002   0.00028   0.00026   1.04554
   D12        3.12544   0.00000  -0.00004   0.00034   0.00030   3.12574
   D13        3.12577   0.00000  -0.00002   0.00019   0.00018   3.12594
   D14       -1.07675   0.00001  -0.00006   0.00040   0.00034  -1.07641
   D15        1.04560   0.00000   0.00001   0.00013   0.00013   1.04574
         Item               Value     Threshold  Converged?
 Maximum Force            0.000452     0.000450     NO 
 RMS     Force            0.000101     0.000300     YES
 Maximum Displacement     0.010742     0.001800     NO 
 RMS     Displacement     0.004619     0.001200     NO 
 Predicted change in Energy=-1.624648D-06
 GradGradGradGradGradGradGradGradGradGradGradGradGradGradGradGradGradGrad

                          Input orientation:                          
 ---------------------------------------------------------------------
 Center     Atomic      Atomic             Coordinates (Angstroms)
 Number     Number       Type             X           Y           Z
 ---------------------------------------------------------------------
      1          7           0        0.359304    0.312349   -0.496363
      2          7           0       -0.359374    0.312438    0.496694
      3          6           0        1.763724    0.364630   -0.176266
      4          6           0       -1.763800    0.364655    0.176606
      5          8           0       -2.358578    1.398200    0.142181
      6          8           0        2.358537    1.398167   -0.142257
      7          8           0       -2.234593   -0.852994    0.036516
      8          8           0        2.234583   -0.853004   -0.036283
      9          6           0        3.651241   -0.958285    0.174061
     10          1           0        3.849234   -2.020780    0.282119
     11          1           0        4.188778   -0.555321   -0.683571
     12          1           0        3.939865   -0.424512    1.078515
     13          6           0       -3.651191   -0.958315   -0.174211
     14          1           0       -4.188971   -0.555540    0.683355
     15          1           0       -3.939606   -0.424394   -1.078646
     16          1           0       -3.849093   -2.020803   -0.282517
 ---------------------------------------------------------------------
                    Distance matrix (angstroms):
                    1          2          3          4          5
     1  N    0.000000
     2  N    1.225831   0.000000
     3  C    1.441385   2.227812   0.000000
     4  C    2.227822   1.441386   3.545129   0.000000
     5  O    2.995612   2.302471   4.261813   1.192963   0.000000
     6  O    2.302461   2.995682   1.192962   4.261864   4.725684
     7  O    2.893144   2.255314   4.185024   1.312989   2.257080
     8  O    2.255304   2.893257   1.312988   4.185103   5.118291
     9  C    3.591772   4.219463   2.331428   5.574302   6.455383
    10  H    4.269559   4.816880   3.201507   6.099802   7.088437
    11  H    3.931001   4.778255   2.642831   6.084361   6.882295
    12  H    3.980405   4.400576   2.633023   5.828209   6.623396
    13  C    4.219293   3.591794   5.574181   2.331430   2.706310
    14  H    4.778260   3.931163   6.084426   2.642917   2.731356
    15  H    4.400280   3.980286   5.827934   2.632943   2.704056
    16  H    4.816630   4.269580   6.099614   3.201507   3.753875
                    6          7          8          9         10
     6  O    0.000000
     7  O    5.118255   0.000000
     8  O    2.257070   4.469769   0.000000
     9  C    2.706290   5.888383   1.436053   0.000000
    10  H    3.753860   6.199758   2.017963   1.086173   0.000000
    11  H    2.731102   6.470458   2.080018   1.089430   1.787572
    12  H    2.704263   6.276408   2.081914   1.089153   1.786206
    13  C    6.455297   1.436053   5.888332   7.310732   7.589035
    14  H    6.882476   2.080017   6.470581   7.867052   8.180505
    15  H    6.623078   2.081911   6.276212   7.712021   8.066360
    16  H    7.088279   2.017961   6.199637   7.588966   7.719006
                   11         12         13         14         15
    11  H    0.000000
    12  H    1.784381   0.000000
    13  C    7.866827   7.712224   0.000000
    14  H    8.488532   8.139490   1.089428   0.000000
    15  H    8.139033   8.169419   1.089154   1.784385   0.000000
    16  H    8.180210   8.066499   1.086175   1.787574   1.786206
                   16
    16  H    0.000000
 Stoichiometry    C4H6N2O4
 Framework group  C1[X(C4H6N2O4)]
 Deg. of freedom    42
 Full point group                 C1      NOp   1
 Largest Abelian subgroup         C1      NOp   1
 Largest concise Abelian subgroup C1      NOp   1
                         Standard orientation:                         
 ---------------------------------------------------------------------
 Center     Atomic      Atomic             Coordinates (Angstroms)
 Number     Number       Type             X           Y           Z
 ---------------------------------------------------------------------
      1          7           0        0.359667    0.312720   -0.496165
      2          7           0       -0.359718    0.312824    0.496381
      3          6           0        1.763859    0.365012   -0.175068
      4          6           0       -1.763915    0.365030    0.175291
      5          8           0       -2.358672    1.398573    0.140425
      6          8           0        2.358645    1.398551   -0.140654
      7          8           0       -2.234604   -0.852622    0.034887
      8          8           0        2.234623   -0.852618   -0.034729
      9          6           0        3.651131   -0.957891    0.176626
     10          1           0        3.849050   -2.020382    0.284844
     11          1           0        4.189277   -0.554940   -0.680629
     12          1           0        3.939108   -0.424100    1.081276
     13          6           0       -3.651052   -0.957952   -0.176847
     14          1           0       -4.189444   -0.555164    0.680328
     15          1           0       -3.938824   -0.424048   -1.081497
     16          1           0       -3.848872   -2.020442   -0.285275
 ---------------------------------------------------------------------
 Rotational constants (GHZ):      3.7370560      0.5981141      0.5290642
 Standard basis: def2TZVP (5D, 7F)
 There are   396 symmetry adapted cartesian basis functions of A   symmetry.
 There are   346 symmetry adapted basis functions of A   symmetry.
   346 basis functions,   558 primitive gaussians,   396 cartesian basis functions
    38 alpha electrons       38 beta electrons
       nuclear repulsion energy       523.3752532722 Hartrees.
 NAtoms=   16 NActive=   16 NUniq=   16 SFac= 1.00D+00 NAtFMM=   60 NAOKFM=F Big=F
 Integral buffers will be    131072 words long.
 Raffenetti 2 integral format.
 Two-electron integral symmetry is turned on.
 Nuclear repulsion after empirical dispersion term =      523.3700452820 Hartrees.
 ------------------------------------------------------------------------------
 Polarizable Continuum Model (PCM)
 =================================
 Model                : PCM (using non-symmetric T matrix).
 Atomic radii         : SMD-Coulomb.
 Polarization charges : Total charges.
 Charge compensation  : None.
 Solution method      : On-the-fly selection.
 Cavity type          : VdW (van der Waals Surface) (Alpha=1.000).
 Cavity algorithm     : GePol (No added spheres)
                        Default sphere list used, NSphG=   16.
                        Lebedev-Laikov grids with approx.  5.0 points / Ang**2.
                        Smoothing algorithm: Karplus/York (Gamma=1.0000).
                        Polarization charges: spherical gaussians, with
                                              point-specific exponents (IZeta= 3).
                        Self-potential: point-specific (ISelfS= 7).
                        Self-field    : sphere-specific E.n sum rule (ISelfD= 2).
 1st derivatives      : Analytical E(r).r(x)/FMM algorithm (CHGder, D1EAlg=3).
                        Cavity 1st derivative terms included.
 Solvent              : Toluene, Eps=   2.374100 Eps(inf)=   2.238315
 ------------------------------------------------------------------------------
 Spheres list:
 ISph  on   Nord     Re0    Alpha      Xe            Ye            Ze
    1   N      1    1.8900  1.000      0.359667      0.312720     -0.496165
    2   N      2    1.8900  1.000     -0.359718      0.312824      0.496381
    3   C      3    1.8500  1.000      1.763859      0.365012     -0.175068
    4   C      4    1.8500  1.000     -1.763915      0.365030      0.175291
    5   O      5    2.2940  1.000     -2.358672      1.398573      0.140425
    6   O      6    2.2940  1.000      2.358645      1.398551     -0.140654
    7   O      7    2.2940  1.000     -2.234604     -0.852622      0.034887
    8   O      8    2.2940  1.000      2.234623     -0.852618     -0.034729
    9   C      9    1.8500  1.000      3.651131     -0.957891      0.176626
   10   H     10    1.2000  1.000      3.849050     -2.020382      0.284844
   11   H     11    1.2000  1.000      4.189277     -0.554940     -0.680629
   12   H     12    1.2000  1.000      3.939108     -0.424100      1.081276
   13   C     13    1.8500  1.000     -3.651052     -0.957952     -0.176847
   14   H     14    1.2000  1.000     -4.189444     -0.555164      0.680328
   15   H     15    1.2000  1.000     -3.938824     -0.424048     -1.081497
   16   H     16    1.2000  1.000     -3.848872     -2.020442     -0.285275
 ------------------------------------------------------------------------------
 ------------------------------------------------------------------------------
 Atomic radii for non-electrostatic terms: SMD-CDS.
 ------------------------------------------------------------------------------
 Nuclear repulsion after PCM non-electrostatic terms =      523.3698178084 Hartrees.
 One-electron integrals computed using PRISM.
   1 Symmetry operations used in ECPInt.
 ECPInt:  NShTT=    9045 NPrTT=   28204 LenC2=    8193 LenP2D=   19178.
 LDataN:  DoStor=T MaxTD1= 6 Len=  172
 NBasis=   346 RedAO= T EigKep=  4.13D-04  NBF=   346
 NBsUse=   346 1.00D-06 EigRej= -1.00D+00 NBFU=   346
 Initial guess from the checkpoint file:  ""dmad.chk""
 B after Tr=     0.000000    0.000000    0.000000
         Rot=    1.000000    0.000011    0.000023   -0.000003 Ang=   0.00 deg.
 Requested convergence on RMS density matrix=1.00D-08 within 128 cycles.
 Requested convergence on MAX density matrix=1.00D-06.
 Requested convergence on             energy=1.00D-06.
 No special actions if energy rises.
 Inv3:  Mode=1 IEnd=     7747347.
 Iteration    1 A*A^-1 deviation from unit magnitude is 5.44D-15 for   1607.
 Iteration    1 A*A^-1 deviation from orthogonality  is 1.85D-15 for    839    546.
 Iteration    1 A^-1*A deviation from unit magnitude is 4.66D-15 for   1607.
 Iteration    1 A^-1*A deviation from orthogonality  is 1.33D-15 for   1595   1426.
 Error on total polarization charges =  0.01013
 SCF Done:  E(RwB97XD) =  -566.432883567     A.U. after    9 cycles
            NFock=  9  Conv=0.51D-08     -V/T= 2.0041
 SMD-CDS (non-electrostatic) energy       (kcal/mol) =      -0.14
 (included in total energy above)
   1 Symmetry operations used in ECPInt.
 ECPInt:  NShTT=    9045 NPrTT=   28204 LenC2=    8193 LenP2D=   19178.
 LDataN:  DoStor=T MaxTD1= 7 Len=  274
 D1PCM: PCM CHGder 1st derivatives, ID1Alg=3 FixD1E=F DoIter=F DoCFld=F I1PDM=0.
 Calling FoFJK, ICntrl=      2127 FMM=F ISym2X=0 I1Cent= 0 IOpClX= 0 NMat=1 NMatS=1 NMatT=0.
 ***** Axes restored to original set *****
 -------------------------------------------------------------------
 Center     Atomic                   Forces (Hartrees/Bohr)
 Number     Number              X              Y              Z
 -------------------------------------------------------------------
      1        7          -0.000131205   -0.000099790    0.000028006
      2        7           0.000122000   -0.000100796   -0.000000951
      3        6          -0.000066810    0.000112002    0.000422045
      4        6           0.000082584    0.000117174   -0.000504421
      5        8          -0.000063000    0.000044233    0.000216932
      6        8           0.000060300    0.000051062   -0.000185668
      7        8          -0.000039151    0.000048638    0.000161671
      8        8           0.000036468    0.000046318   -0.000137614
      9        6           0.000066557   -0.000100589   -0.000011634
     10        1           0.000034540    0.000026884   -0.000003688
     11        1           0.000004857   -0.000021397   -0.000006988
     12        1          -0.000007977   -0.000014272    0.000008252
     13        6          -0.000065805   -0.000102744    0.000009223
     14        1          -0.000005400   -0.000020528    0.000007845
     15        1           0.000007404   -0.000014558   -0.000007569
     16        1          -0.000035363    0.000028362    0.000004556
 -------------------------------------------------------------------
 Cartesian Forces:  Max     0.000504421 RMS     0.000121161

 GradGradGradGradGradGradGradGradGradGradGradGradGradGradGradGradGradGrad
 Berny optimization.
 Using GEDIIS/GDIIS optimizer.
 FormGI is forming the generalized inverse of G from B-inverse, IUseBI=4.
 Internal  Forces:  Max     0.000222478 RMS     0.000103068
 Search for a local minimum.
 Step number   3 out of a maximum of   62
 All quantities printed in internal units (Hartrees-Bohrs-Radians)
 Mixed Optimization -- En-DIIS/RFO-DIIS
 Swapping is turned off.
 Update second derivatives using D2CorX and points    1    2    3
 DE=  1.24D-06 DEPred=-1.62D-06 R=-7.64D-01
 Trust test=-7.64D-01 RLast= 9.63D-03 DXMaxT set to 1.50D-01
 ITU= -1  1  0
     Eigenvalues ---    0.00946   0.01136   0.01211   0.01212   0.02100
     Eigenvalues ---    0.02798   0.02846   0.03145   0.10072   0.10159
     Eigenvalues ---    0.10204   0.10670   0.10689   0.15532   0.16000
     Eigenvalues ---    0.16000   0.16000   0.16019   0.16184   0.20062
     Eigenvalues ---    0.24968   0.24975   0.25000   0.25000   0.25000
     Eigenvalues ---    0.25825   0.27942   0.34880   0.34881   0.34910
     Eigenvalues ---    0.34913   0.35257   0.35268   0.38416   0.39310
     Eigenvalues ---    0.40098   0.40702   0.63776   0.66341   0.84059
     Eigenvalues ---    1.08192   1.08379
 En-DIIS/RFO-DIIS IScMMF=        0 using points:     3    2    1
 RFO step:  Lambda=-1.39760482D-06.
 DidBck=T Rises=F RFO-DIIS coefs:    0.36615    0.55909    0.07476
 Iteration  1 RMS(Cart)=  0.00220107 RMS(Int)=  0.00000151
 Iteration  2 RMS(Cart)=  0.00000362 RMS(Int)=  0.00000030
 Iteration  3 RMS(Cart)=  0.00000000 RMS(Int)=  0.00000030
 Variable       Old X    -DE/DX   Delta X   Delta X   Delta X     New X
                                 (Linear)    (Quad)   (Total)
    R1        2.31648  -0.00012  -0.00056   0.00046  -0.00009   2.31639
    R2        2.72382   0.00015   0.00033  -0.00006   0.00027   2.72410
    R3        2.72382   0.00015   0.00033  -0.00006   0.00027   2.72410
    R4        2.25437   0.00007   0.00008  -0.00004   0.00003   2.25441
    R5        2.48119   0.00009  -0.00023   0.00031   0.00008   2.48126
    R6        2.25437   0.00006   0.00008  -0.00004   0.00003   2.25441
    R7        2.48119   0.00009  -0.00023   0.00031   0.00007   2.48126
    R8        2.71375   0.00011   0.00010   0.00006   0.00016   2.71391
    R9        2.71375   0.00010   0.00010   0.00006   0.00016   2.71391
   R10        2.05257  -0.00002  -0.00005   0.00001  -0.00003   2.05254
   R11        2.05872   0.00000  -0.00002   0.00001  -0.00001   2.05872
   R12        2.05820   0.00000  -0.00001   0.00001   0.00000   2.05820
   R13        2.05872   0.00000  -0.00001   0.00001  -0.00001   2.05872
   R14        2.05820   0.00000  -0.00002   0.00001   0.00000   2.05820
   R15        2.05257  -0.00002  -0.00005   0.00001  -0.00003   2.05254
    A1        1.97288   0.00010   0.00070  -0.00024   0.00047   1.97334
    A2        1.97289   0.00009   0.00069  -0.00025   0.00045   1.97334
    A3        2.12183  -0.00001  -0.00021  -0.00003  -0.00024   2.12159
    A4        1.91714  -0.00002  -0.00018   0.00016  -0.00002   1.91712
    A5        2.24158   0.00001   0.00018  -0.00022  -0.00004   2.24153
    A6        2.12185  -0.00002  -0.00022  -0.00004  -0.00026   2.12159
    A7        1.91715  -0.00002  -0.00019   0.00016  -0.00003   1.91712
    A8        2.24159   0.00001   0.00017  -0.00023  -0.00006   2.24153
    A9        2.02348   0.00022   0.00054   0.00005   0.00059   2.02407
   A10        2.02348   0.00022   0.00054   0.00005   0.00059   2.02407
   A11        1.84015   0.00005   0.00006   0.00011   0.00017   1.84032
   A12        1.92231   0.00001  -0.00007   0.00010   0.00003   1.92234
   A13        1.92530  -0.00002  -0.00010   0.00006  -0.00005   1.92525
   A14        1.92858  -0.00003  -0.00010  -0.00001  -0.00011   1.92847
   A15        1.92674  -0.00003  -0.00001  -0.00010  -0.00011   1.92663
   A16        1.91953   0.00001   0.00021  -0.00014   0.00007   1.91960
   A17        1.92231   0.00001  -0.00008   0.00010   0.00003   1.92234
   A18        1.92529  -0.00002  -0.00009   0.00005  -0.00004   1.92526
   A19        1.84015   0.00005   0.00007   0.00010   0.00017   1.84032
   A20        1.91953   0.00001   0.00021  -0.00014   0.00007   1.91960
   A21        1.92858  -0.00003  -0.00011  -0.00001  -0.00012   1.92847
   A22        1.92674  -0.00003  -0.00002  -0.00010  -0.00012   1.92663
    D1        3.06279  -0.00022  -0.00270   0.00211  -0.00060   3.06219
    D2       -1.65286  -0.00017   0.00010  -0.00180  -0.00170  -1.65456
    D3        1.56052   0.00015   0.00283  -0.00053   0.00230   1.56282
    D4       -1.65263  -0.00019  -0.00015  -0.00189  -0.00203  -1.65466
    D5        1.56025   0.00018   0.00303  -0.00040   0.00263   1.56288
    D6        3.05340  -0.00017  -0.00182  -0.00031  -0.00212   3.05128
    D7       -0.01009   0.00018   0.00117   0.00106   0.00223  -0.00786
    D8        3.05370  -0.00020  -0.00206  -0.00043  -0.00250   3.05120
    D9       -0.01035   0.00021   0.00142   0.00118   0.00259  -0.00776
   D10       -1.07662   0.00000  -0.00033   0.00035   0.00002  -1.07660
   D11        1.04554   0.00001  -0.00017   0.00027   0.00010   1.04564
   D12        3.12574   0.00000  -0.00020   0.00025   0.00004   3.12578
   D13        3.12594   0.00000  -0.00012   0.00014   0.00002   3.12597
   D14       -1.07641   0.00000  -0.00024   0.00024   0.00000  -1.07641
   D15        1.04574   0.00001  -0.00008   0.00017   0.00009   1.04582
         Item               Value     Threshold  Converged?
 Maximum Force            0.000222     0.000450     YES
 RMS     Force            0.000103     0.000300     YES
 Maximum Displacement     0.005696     0.001800     NO 
 RMS     Displacement     0.002199     0.001200     NO 
 Predicted change in Energy=-1.975799D-06
 GradGradGradGradGradGradGradGradGradGradGradGradGradGradGradGradGradGrad

                          Input orientation:                          
 ---------------------------------------------------------------------
 Center     Atomic      Atomic             Coordinates (Angstroms)
 Number     Number       Type             X           Y           Z
 ---------------------------------------------------------------------
      1          7           0        0.360296    0.312309   -0.495834
      2          7           0       -0.360278    0.312246    0.495787
      3          6           0        1.764372    0.364938   -0.173636
      4          6           0       -1.764353    0.364897    0.173591
      5          8           0       -2.359062    1.398552    0.140713
      6          8           0        2.359051    1.398602   -0.140531
[...]
      3          6           0        1.764395    0.364247   -0.174569
      4          6           0       -1.764401    0.364219    0.174635
      5          8           0       -2.358314    1.398365    0.142413
      6          8           0        2.358294    1.398398   -0.142281
      7          8           0       -2.236779   -0.852975    0.035298
      8          8           0        2.236792   -0.852950   -0.035327
      9          6           0        3.653728   -0.957802    0.174103
     10          1           0        3.852440   -2.020202    0.281505
     11          1           0        4.190613   -0.554210   -0.683635
     12          1           0        3.942620   -0.424451    1.078723
     13          6           0       -3.653710   -0.957831   -0.174170
     14          1           0       -4.190612   -0.554453    0.683659
     15          1           0       -3.942618   -0.424290   -1.078672
     16          1           0       -3.852383   -2.020214   -0.281813
 ---------------------------------------------------------------------
                    Distance matrix (angstroms):
                    1          2          3          4          5
     1  N    0.000000
     2  N    1.225778   0.000000
     3  C    1.441591   2.228467   0.000000
     4  C    2.228468   1.441591   3.546032   0.000000
     5  O    2.996845   2.302537   4.262230   1.192991   0.000000
     6  O    2.302537   2.996840   1.192991   4.262227   4.725192
     7  O    2.894700   2.255506   4.187489   1.313056   2.257160
     8  O    2.255505   2.894711   1.313055   4.187497   5.120058
     9  C    3.592354   4.221684   2.332158   5.577083   6.457334
    10  H    4.269912   4.819011   3.202114   6.102933   7.090797
    11  H    3.931341   4.779954   2.643718   6.086241   6.883556
    12  H    3.981677   4.403747   2.633904   5.831763   6.625790
    13  C    4.221669   3.592357   5.577073   2.332159   2.707385
    14  H    4.779988   3.931380   6.086269   2.643778   2.731989
    15  H    4.403719   3.981640   5.831740   2.633847   2.706130
    16  H    4.818960   4.269919   6.102897   3.202114   3.754849
                    6          7          8          9         10
     6  O    0.000000
     7  O    5.120050   0.000000
     8  O    2.257159   4.474128   0.000000
     9  C    2.707383   5.893074   1.436163   0.000000
    10  H    3.754849   6.204967   2.018212   1.086148   0.000000
    11  H    2.731874   6.474372   2.080136   1.089425   1.787454
    12  H    2.706237   6.281507   2.081963   1.089155   1.786087
    13  C    6.457323   1.436163   5.893071   7.315732   7.594639
    14  H    6.883602   2.080132   6.474377   7.871213   8.185403
    15  H    6.625746   2.081967   6.281514   7.717418   8.072171
    16  H    7.090760   2.018213   6.204942   7.594621   7.725387
                   11         12         13         14         15
    11  H    0.000000
    12  H    1.784445   0.000000
    13  C    7.871205   7.717412   0.000000
    14  H    8.492021   8.143858   1.089425   0.000000
    15  H    8.143855   8.175043   1.089155   1.784447   0.000000
    16  H    8.185378   8.072148   1.086148   1.787453   1.786085
                   16
    16  H    0.000000
 Stoichiometry    C4H6N2O4
 Framework group  C1[X(C4H6N2O4)]
 Deg. of freedom    42
 Full point group                 C1      NOp   1
 Largest Abelian subgroup         C1      NOp   1
 Largest concise Abelian subgroup C1      NOp   1
                         Standard orientation:                         
 ---------------------------------------------------------------------
 Center     Atomic      Atomic             Coordinates (Angstroms)
 Number     Number       Type             X           Y           Z
 ---------------------------------------------------------------------
      1          7           0        0.360382    0.310965   -0.495734
      2          7           0       -0.360385    0.310981    0.495743
      3          6           0        1.764492    0.364884   -0.173627
      4          6           0       -1.764496    0.364888    0.173636
      5          8           0       -2.358385    1.399035    0.141044
      6          8           0        2.358378    1.399034   -0.141056
      7          8           0       -2.236803   -0.852309    0.034091
      8          8           0        2.236806   -0.852309   -0.034075
      9          6           0        3.653626   -0.957159    0.176139
     10          1           0        3.852274   -2.019556    0.283695
     11          1           0        4.190985   -0.553606   -0.681321
     12          1           0        3.942023   -0.423772    1.080895
     13          6           0       -3.653618   -0.957167   -0.176152
     14          1           0       -4.190990   -0.553751    0.681364
     15          1           0       -3.942027   -0.423663   -1.080836
     16          1           0       -3.852237   -2.019554   -0.283860
 ---------------------------------------------------------------------
 Rotational constants (GHZ):      3.7393935      0.5974941      0.5285916

 **********************************************************************

            Population analysis using the SCF density.

 **********************************************************************

 Orbital symmetries:
       Occupied  (A) (A) (A) (A) (A) (A) (A) (A) (A) (A) (A) (A)
                 (A) (A) (A) (A) (A) (A) (A) (A) (A) (A) (A) (A)
                 (A) (A) (A) (A) (A) (A) (A) (A) (A) (A) (A) (A)
                 (A) (A)
       Virtual   (A) (A) (A) (A) (A) (A) (A) (A) (A) (A) (A) (A)
                 (A) (A) (A) (A) (A) (A) (A) (A) (A) (A) (A) (A)
                 (A) (A) (A) (A) (A) (A) (A) (A) (A) (A) (A) (A)
                 (A) (A) (A) (A) (A) (A) (A) (A) (A) (A) (A) (A)
                 (A) (A) (A) (A) (A) (A) (A) (A) (A) (A) (A) (A)
                 (A) (A) (A) (A) (A) (A) (A) (A) (A) (A) (A) (A)
                 (A) (A) (A) (A) (A) (A) (A) (A) (A) (A) (A) (A)
                 (A) (A) (A) (A) (A) (A) (A) (A) (A) (A) (A) (A)
                 (A) (A) (A) (A) (A) (A) (A) (A) (A) (A) (A) (A)
                 (A) (A) (A) (A) (A) (A) (A) (A) (A) (A) (A) (A)
                 (A) (A) (A) (A) (A) (A) (A) (A) (A) (A) (A) (A)
                 (A) (A) (A) (A) (A) (A) (A) (A) (A) (A) (A) (A)
                 (A) (A) (A) (A) (A) (A) (A) (A) (A) (A) (A) (A)
                 (A) (A) (A) (A) (A) (A) (A) (A) (A) (A) (A) (A)
                 (A) (A) (A) (A) (A) (A) (A) (A) (A) (A) (A) (A)
                 (A) (A) (A) (A) (A) (A) (A) (A) (A) (A) (A) (A)
                 (A) (A) (A) (A) (A) (A) (A) (A) (A) (A) (A) (A)
                 (A) (A) (A) (A) (A) (A) (A) (A) (A) (A) (A) (A)
                 (A) (A) (A) (A) (A) (A) (A) (A) (A) (A) (A) (A)
                 (A) (A) (A) (A) (A) (A) (A) (A) (A) (A) (A) (A)
                 (A) (A) (A) (A) (A) (A) (A) (A) (A) (A) (A) (A)
                 (A) (A) (A) (A) (A) (A) (A) (A) (A) (A) (A) (A)
                 (A) (A) (A) (A) (A) (A) (A) (A) (A) (A) (A) (A)
                 (A) (A) (A) (A) (A) (A) (A) (A) (A) (A) (A) (A)
                 (A) (A) (A) (A) (A) (A) (A) (A) (A) (A) (A) (A)
                 (A) (A) (A) (A) (A) (A) (A) (A)
 The electronic state is 1-A.
 Alpha  occ. eigenvalues --  -19.32508 -19.32508 -19.26064 -19.26064 -14.53348
 Alpha  occ. eigenvalues --  -14.53286 -10.45586 -10.45585 -10.34734 -10.34733
 Alpha  occ. eigenvalues --   -1.26123  -1.24796  -1.18020  -1.15602  -1.15172
 Alpha  occ. eigenvalues --   -0.91773  -0.85242  -0.81107  -0.71186  -0.67115
 Alpha  occ. eigenvalues --   -0.66162  -0.62783  -0.60199  -0.59642  -0.59020
 Alpha  occ. eigenvalues --   -0.56911  -0.53966  -0.53931  -0.51845  -0.49415
 Alpha  occ. eigenvalues --   -0.48775  -0.47036  -0.46858  -0.41594  -0.41532
 Alpha  occ. eigenvalues --   -0.41238  -0.41110  -0.34568
 Alpha virt. eigenvalues --   -0.01270   0.07032   0.07769   0.12808   0.12906
 Alpha virt. eigenvalues --    0.15224   0.15556   0.18457   0.18587   0.19982
 Alpha virt. eigenvalues --    0.20029   0.22473   0.23993   0.25603   0.26981
 Alpha virt. eigenvalues --    0.28004   0.28119   0.30574   0.30964   0.31887
 Alpha virt. eigenvalues --    0.32318   0.33306   0.35324   0.36298   0.38001
 Alpha virt. eigenvalues --    0.39497   0.40245   0.41320   0.41839   0.43962
 Alpha virt. eigenvalues --    0.45132   0.45927   0.46653   0.47855   0.48172
 Alpha virt. eigenvalues --    0.49193   0.51534   0.52231   0.52594   0.52876
 Alpha virt. eigenvalues --    0.55196   0.56165   0.57099   0.58600   0.58728
 Alpha virt. eigenvalues --    0.60941   0.61298   0.62735   0.64229   0.64506
 Alpha virt. eigenvalues --    0.64700   0.66044   0.69034   0.69607   0.71684
 Alpha virt. eigenvalues --    0.73476   0.75442   0.78093   0.80520   0.80775
 Alpha virt. eigenvalues --    0.80937   0.86525   0.87833   0.87928   0.89066
 Alpha virt. eigenvalues --    0.90069   0.92214   0.93249   0.97252   0.97816
 Alpha virt. eigenvalues --    0.99933   1.00273   1.02527   1.03238   1.05846
 Alpha virt. eigenvalues --    1.06740   1.11217   1.12475   1.14679   1.15816
 Alpha virt. eigenvalues --    1.19927   1.23303   1.28106   1.32127   1.32187
 Alpha virt. eigenvalues --    1.35810   1.40339   1.44405   1.48594   1.49662
 Alpha virt. eigenvalues --    1.51845   1.52008   1.54457   1.54629   1.54719
 Alpha virt. eigenvalues --    1.57741   1.57832   1.59440   1.59566   1.60850
 Alpha virt. eigenvalues --    1.61784   1.63941   1.65108   1.65304   1.65695
 Alpha virt. eigenvalues --    1.66218   1.68885   1.74542   1.79538   1.80086
 Alpha virt. eigenvalues --    1.81098   1.81263   1.83473   1.87036   1.90026
 Alpha virt. eigenvalues --    1.91890   1.93110   1.95228   1.97945   2.01912
 Alpha virt. eigenvalues --    2.01958   2.05961   2.06072   2.07164   2.09116
 Alpha virt. eigenvalues --    2.12864   2.13322   2.14962   2.17330   2.17419
 Alpha virt. eigenvalues --    2.18114   2.20001   2.20466   2.24863   2.28275
 Alpha virt. eigenvalues --    2.30649   2.32418   2.32421   2.33339   2.33573
 Alpha virt. eigenvalues --    2.39118   2.40275   2.41510   2.43400   2.44244
 Alpha virt. eigenvalues --    2.44913   2.48638   2.51882   2.58026   2.60836
 Alpha virt. eigenvalues --    2.61251   2.62297   2.63042   2.66205   2.68500
 Alpha virt. eigenvalues --    2.69576   2.76302   2.78242   2.78351   2.82666
 Alpha virt. eigenvalues --    2.85008   2.85215   2.86207   2.90489   2.94884
 Alpha virt. eigenvalues --    2.96369   2.99165   3.00014   3.01575   3.03318
 Alpha virt. eigenvalues --    3.04350   3.05240   3.11509   3.11852   3.13418
 Alpha virt. eigenvalues --    3.14694   3.16757   3.20276   3.21810   3.24105
 Alpha virt. eigenvalues --    3.26120   3.27706   3.28008   3.32638   3.33740
 Alpha virt. eigenvalues --    3.34740   3.35121   3.36133   3.36134   3.40971
 Alpha virt. eigenvalues --    3.42841   3.43160   3.43542   3.44934   3.46610
 Alpha virt. eigenvalues --    3.46860   3.49109   3.50639   3.55423   3.55518
 Alpha virt. eigenvalues --    3.60075   3.60215   3.65252   3.65919   3.66927
 Alpha virt. eigenvalues --    3.67469   3.68531   3.71513   3.76159   3.81813
 Alpha virt. eigenvalues --    3.85091   3.94168   3.94603   3.95994   4.00891
 Alpha virt. eigenvalues --    4.03567   4.10443   4.19314   4.24485   4.24933
 Alpha virt. eigenvalues --    4.27424   4.35345   4.35369   4.39062   4.43066
 Alpha virt. eigenvalues --    4.47441   4.49251   4.58376   4.58503   4.62787
 Alpha virt. eigenvalues --    4.66047   4.73007   4.76251   4.85788   4.87782
 Alpha virt. eigenvalues --    4.91008   4.92860   4.96326   4.98484   4.98769
 Alpha virt. eigenvalues --    5.01837   5.09594   5.11972   5.21492   5.23435
 Alpha virt. eigenvalues --    5.24844   5.26632   5.27613   5.37978   5.40911
 Alpha virt. eigenvalues --    5.46335   5.52891   5.54457   5.55814   5.61358
 Alpha virt. eigenvalues --    5.67306   5.71824   5.74964   5.76471   5.78093
 Alpha virt. eigenvalues --    5.90687   5.93426   5.98321   6.04396   6.10101
 Alpha virt. eigenvalues --    6.13454   6.19555   6.20368   6.24324   6.24484
 Alpha virt. eigenvalues --    6.25719   6.32182   6.37776   6.42593   6.43313
 Alpha virt. eigenvalues --    6.53617   6.55691   6.58556   6.60096   6.70375
 Alpha virt. eigenvalues --    6.70497   6.71975   6.72215   6.77940   6.81502
 Alpha virt. eigenvalues --    6.90213   6.95649   6.96363   6.97731   6.98644
 Alpha virt. eigenvalues --    7.07583   7.10546   7.21761   7.22516   7.38200
 Alpha virt. eigenvalues --    7.39484   7.46394   7.49184  22.41120  22.41129
 Alpha virt. eigenvalues --   23.40929  23.55465  32.22529  32.50638  43.92093
 Alpha virt. eigenvalues --   43.95356  44.15212  44.19128
          Condensed to atoms (all electrons):
               1          2          3          4          5          6
     1  N    6.599046   0.327145   0.343420  -0.028988  -0.004127  -0.068361
     2  N    0.327145   6.599047  -0.028988   0.343420  -0.068361  -0.004127
     3  C    0.343420  -0.028988   4.261530  -0.003726   0.000772   0.665305
     4  C   -0.028988   0.343420  -0.003726   4.261531   0.665305   0.000772
     5  O   -0.004127  -0.068361   0.000772   0.665305   7.805350   0.000043
     6  O   -0.068361  -0.004127   0.665305   0.000772   0.000043   7.805349
     7  O   -0.000424  -0.084380   0.001008   0.404168  -0.079721   0.000009
     8  O   -0.084380  -0.000424   0.404169   0.001008   0.000009  -0.079721
     9  C    0.003618   0.000954  -0.049191   0.000070   0.000004   0.001556
    10  H    0.000408   0.000012   0.005494   0.000005   0.000000   0.001350
    11  H   -0.000150  -0.000016  -0.007604   0.000002   0.000000   0.003891
    12  H    0.000022  -0.000229  -0.008155  -0.000027   0.000000   0.004341
    13  C    0.000954   0.003618   0.000070  -0.049190   0.001555   0.000004
    14  H   -0.000016  -0.000150   0.000002  -0.007602   0.003888   0.000000
    15  H   -0.000229   0.000023  -0.000027  -0.008157   0.004343   0.000000
    16  H    0.000012   0.000408   0.000005   0.005494   0.001350   0.000000
               7          8          9         10         11         12
     1  N   -0.000424  -0.084380   0.003618   0.000408  -0.000150   0.000022
     2  N   -0.084380  -0.000424   0.000954   0.000012  -0.000016  -0.000229
     3  C    0.001008   0.404169  -0.049191   0.005494  -0.007604  -0.008155
     4  C    0.404168   0.001008   0.000070   0.000005   0.000002  -0.000027
     5  O   -0.079721   0.000009   0.000004   0.000000   0.000000   0.000000
     6  O    0.000009  -0.079721   0.001556   0.001350   0.003891   0.004341
     7  O    7.889249  -0.000003   0.000001   0.000000   0.000000   0.000000
     8  O   -0.000003   7.889249   0.215520  -0.027287  -0.032977  -0.031784
     9  C    0.000001   0.215520   4.803482   0.395811   0.418456   0.416603
    10  H    0.000000  -0.027287   0.395811   0.507262  -0.019700  -0.019459
    11  H    0.000000  -0.032977   0.418456  -0.019700   0.518455  -0.033145
    12  H    0.000000  -0.031784   0.416603  -0.019459  -0.033145   0.518010
    13  C    0.215520   0.000001   0.000000   0.000000   0.000000   0.000000
    14  H   -0.032977   0.000000   0.000000   0.000000   0.000000   0.000000
    15  H   -0.031785   0.000000   0.000000   0.000000   0.000000   0.000000
    16  H   -0.027287   0.000000   0.000000   0.000000   0.000000   0.000000
              13         14         15         16
     1  N    0.000954  -0.000016  -0.000229   0.000012
     2  N    0.003618  -0.000150   0.000023   0.000408
     3  C    0.000070   0.000002  -0.000027   0.000005
     4  C   -0.049190  -0.007602  -0.008157   0.005494
     5  O    0.001555   0.003888   0.004343   0.001350
     6  O    0.000004   0.000000   0.000000   0.000000
     7  O    0.215520  -0.032977  -0.031785  -0.027287
     8  O    0.000001   0.000000   0.000000   0.000000
     9  C    0.000000   0.000000   0.000000   0.000000
    10  H    0.000000   0.000000   0.000000   0.000000
    11  H    0.000000   0.000000   0.000000   0.000000
    12  H    0.000000   0.000000   0.000000   0.000000
    13  C    4.803483   0.418457   0.416601   0.395811
    14  H    0.418457   0.518454  -0.033145  -0.019700
    15  H    0.416601  -0.033145   0.518011  -0.019458
    16  H    0.395811  -0.019700  -0.019458   0.507262
 Mulliken charges:
               1
     1  N   -0.087951
     2  N   -0.087952
     3  C    0.415914
     4  C    0.415914
     5  O   -0.330410
     6  O   -0.330410
     7  O   -0.253382
     8  O   -0.253381
     9  C   -0.206885
    10  H    0.156103
    11  H    0.152787
    12  H    0.153823
    13  C   -0.206885
    14  H    0.152788
    15  H    0.153823
    16  H    0.156103
 Sum of Mulliken charges =   0.00000
 Mulliken charges with hydrogens summed into heavy atoms:
               1
     1  N   -0.087951
     2  N   -0.087952
     3  C    0.415914
     4  C    0.415914
     5  O   -0.330410
     6  O   -0.330410
     7  O   -0.253382
     8  O   -0.253381
     9  C    0.255828
    13  C    0.255829
 Electronic spatial extent (au):  <R**2>=           2036.8184
 Charge=              0.0000 electrons
 Dipole moment (field-independent basis, Debye):
    X=              0.0000    Y=             -4.7456    Z=              0.0000  Tot=              4.7456
 Quadrupole moment (field-independent basis, Debye-Ang):
   XX=            -35.6254   YY=            -62.4557   ZZ=            -56.1800
   XY=              0.0001   XZ=              1.9114   YZ=              0.0001
 Traceless Quadrupole moment (field-independent basis, Debye-Ang):
   XX=             15.7949   YY=            -11.0353   ZZ=             -4.7596
   XY=              0.0001   XZ=              1.9114   YZ=              0.0001
 Octapole moment (field-independent basis, Debye-Ang**2):
  XXX=              0.0006  YYY=            -17.0067  ZZZ=              0.0003  XYY=              0.0000
  XXY=            -56.0048  XXZ=             -0.0002  XZZ=             -0.0001  YZZ=              0.2941
  YYZ=             -0.0004  XYZ=             -0.8960
 Hexadecapole moment (field-independent basis, Debye-Ang**3):
 XXXX=          -1698.1786 YYYY=           -335.4159 ZZZZ=            -87.9222 XXXY=              0.0006
 XXXZ=             20.6330 YYYX=             -0.0003 YYYZ=              0.0012 ZZZX=             -0.5900
 ZZZY=             -0.0004 XXYY=           -409.2506 XXZZ=           -342.8426 YYZZ=            -71.8475
 XXYZ=              0.0004 YYXZ=              6.9939 ZZXY=              0.0003
 N-N= 5.232589186123D+02 E-N=-2.375341679344D+03  KE= 5.641323087222D+02
 1\1\GINC-D10S4B1\FOpt\RwB97XD\def2TZVP\C4H6N2O4\PMMASS\23-Feb-2022\0\\
 #n wB97XD/Def2TZVP scrf(smd,solvent=toluene) opt\\dmad cycloaddition t
 oluene - opt\\0,1\N,0.3601082778,0.3103344081,-0.495905587\N,-0.360113
 6079,0.3103053624,0.4959675935\C,1.7643949855,0.3642468994,-0.17456870
 1\C,-1.7644012708,0.3642187335,0.174634784\O,-2.3583135953,1.398364605
 6,0.1424127802\O,2.358294019,1.398398048,-0.1422813358\O,-2.2367789579
 ,-0.8529745522,0.0352982648\O,2.2367915282,-0.8529497305,-0.0353273284
 \C,3.6537277325,-0.957801597,0.1741030271\H,3.8524396596,-2.0202020632
 ,0.2815052589\H,4.1906129554,-0.5542098938,-0.6836353255\H,3.942619801
 2,-0.4244513862,1.0787227012\C,-3.6537095816,-0.9578308019,-0.17416980
 92\H,-4.1906115612,-0.5544534641,0.6836585927\H,-3.9426178786,-0.42429
 01953,-1.0786719927\H,-3.8523825059,-2.0202143729,-0.2818129229\\Versi
 on=ES64L-G09RevD.01\State=1-A\HF=-566.4328855\RMSD=9.634e-09\RMSF=2.80
 5e-05\Dipole=0.0000132,-1.8670514,-0.0000819\Quadrupole=11.7446937,-8.
 2044868,-3.5402069,0.0000786,1.4126936,-0.0001335\PG=C01 [X(C4H6N2O4)]
 \\@


 I WISH TO HAVE NO CONNECTION WITH ANY SHIP THAT DOES NOT SAIL FAST,
 FOR I INTEND TO GO IN HARM'S WAY.
     -- JOHN PAUL JONES, USN 1747-1792
 Job cpu time:       0 days  1 hours  5 minutes 33.5 seconds.
 File lengths (MBytes):  RWF=    116 Int=      0 D2E=      0 Chk=     10 Scr=      1
 Normal termination of Gaussian 09 at Wed Feb 23 16:52:08 2022.
