 Entering Gaussian System, Link 0=g09
 Input=prod_cyclo.com
 Output=prod_cyclo.log
 Initial command:
 /apps/applications/gaussian/G09.D01/2/default/g09/l1.exe "/nobackup/pmmass/Temp/Gau-187020.inp" -scrdir="/nobackup/pmmass/Temp/"
 Entering Link 1 = /apps/applications/gaussian/G09.D01/2/default/g09/l1.exe PID=    187028.
  
 Copyright (c) 1988,1990,1992,1993,1995,1998,2003,2009,2013,
            Gaussian, Inc.  All Rights Reserved.
  
 This is part of the Gaussian(R) 09 program.  It is based on
 the Gaussian(R) 03 system (copyright 2003, Gaussian, Inc.),
 the Gaussian(R) 98 system (copyright 1998, Gaussian, Inc.),
 the Gaussian(R) 94 system (copyright 1995, Gaussian, Inc.),
 the Gaussian 92(TM) system (copyright 1992, Gaussian, Inc.),
 the Gaussian 90(TM) system (copyright 1990, Gaussian, Inc.),
 the Gaussian 88(TM) system (copyright 1988, Gaussian, Inc.),
 the Gaussian 86(TM) system (copyright 1986, Carnegie Mellon
 University), and the Gaussian 82(TM) system (copyright 1983,
 Carnegie Mellon University). Gaussian is a federally registered
 trademark of Gaussian, Inc.
  
 This software contains proprietary and confidential information,
 including trade secrets, belonging to Gaussian, Inc.
  
 This software is provided under written license and may be
 used, copied, transmitted, or stored only in accord with that
 written license.
  
 The following legend is applicable only to US Government
 contracts under FAR:
  
                    RESTRICTED RIGHTS LEGEND
  
 Use, reproduction and disclosure by the US Government is
 subject to restrictions as set forth in subparagraphs (a)
 and (c) of the Commercial Computer Software - Restricted
 Rights clause in FAR 52.227-19.
  
 Gaussian, Inc.
 340 Quinnipiac St., Bldg. 40, Wallingford CT 06492
  
  
 ---------------------------------------------------------------
 Warning -- This program may not be used in any manner that
 competes with the business of Gaussian, Inc. or will provide
 assistance to any competitor of Gaussian, Inc.  The licensee
 of this program is prohibited from giving any competitor of
 Gaussian, Inc. access to this program.  By using this program,
 the user acknowledges that Gaussian, Inc. is engaged in the
 business of creating and licensing software in the field of
 computational chemistry and represents and warrants to the
 licensee that it is not a competitor of Gaussian, Inc. and that
 it will not use this program in any manner prohibited above.
 ---------------------------------------------------------------
  

 Cite this work as:
 Gaussian 09, Revision D.01,
 M. J. Frisch, G. W. Trucks, H. B. Schlegel, G. E. Scuseria, 
 M. A. Robb, J. R. Cheeseman, G. Scalmani, V. Barone, B. Mennucci, 
 G. A. Petersson, H. Nakatsuji, M. Caricato, X. Li, H. P. Hratchian, 
 A. F. Izmaylov, J. Bloino, G. Zheng, J. L. Sonnenberg, M. Hada, 
 M. Ehara, K. Toyota, R. Fukuda, J. Hasegawa, M. Ishida, T. Nakajima, 
 Y. Honda, O. Kitao, H. Nakai, T. Vreven, J. A. Montgomery, Jr., 
 J. E. Peralta, F. Ogliaro, M. Bearpark, J. J. Heyd, E. Brothers, 
 K. N. Kudin, V. N. Staroverov, T. Keith, R. Kobayashi, J. Normand, 
 K. Raghavachari, A. Rendell, J. C. Burant, S. S. Iyengar, J. Tomasi, 
 M. Cossi, N. Rega, J. M. Millam, M. Klene, J. E. Knox, J. B. Cross, 
 V. Bakken, C. Adamo, J. Jaramillo, R. Gomperts, R. E. Stratmann, 
 O. Yazyev, A. J. Austin, R. Cammi, C. Pomelli, J. W. Ochterski, 
 R. L. Martin, K. Morokuma, V. G. Zakrzewski, G. A. Voth, 
 P. Salvador, J. J. Dannenberg, S. Dapprich, A. D. Daniels, 
 O. Farkas, J. B. Foresman, J. V. Ortiz, J. Cioslowski, 
 and D. J. Fox, Gaussian, Inc., Wallingford CT, 2013.
 
 ******************************************
 Gaussian 09:  ES64L-G09RevD.01 24-Apr-2013
                23-Feb-2022 
 ******************************************
 %nprocshared=8
 Will use up to    8 processors via shared memory.
 %mem=4GB
 %NoSave
 %chk="prod_cyclo.chk"
 ------------------------------------------------
 #n wB97XD/Def2TZVP scrf(smd,solvent=toluene) opt
 ------------------------------------------------
 1/14=-1,18=20,19=15,26=3,38=1/1,3;
 2/9=110,12=2,17=6,18=5,40=1/2;
 3/5=44,7=101,11=2,16=1,25=1,30=1,70=32201,71=1,72=13,74=-58/1,2,3;
 4//1;
 5/5=2,38=5,53=13/2;
 6/7=2,8=2,9=2,10=2,28=1/1;
 7//1,2,3,16;
 1/14=-1,18=20,19=15,26=3/3(2);
 2/9=110/2;
 99//99;
 2/9=110/2;
 3/5=44,7=101,11=2,16=1,25=1,30=1,70=32205,71=1,72=13,74=-58/1,2,3;
 4/5=5,16=3,69=1/1;
 5/5=2,38=5,53=13/2;
 7//1,2,3,16;
 1/14=-1,18=20,19=15,26=3/3(-5);
 2/9=110/2;
 6/7=2,8=2,9=2,10=2,19=2,28=1/1;
 99/9=1/99;
 --------------------------------------
 Cycloaddition product in toluene - opt
 --------------------------------------
 Symbolic Z-matrix:
 Charge =  0 Multiplicity = 3
 C                     0.33194   0.68648  -0.57613 
 C                     0.90821   1.85956   0.27399 
 C                    -1.36017   1.99218   0.59197 
 C                    -1.08956   1.20536  -0.6527 
 H                     0.80378   0.63576  -1.55355 
 H                    -1.86468   0.71994  -1.22041 
 C                    -0.10387   1.92837   1.44301 
 H                     0.04287   2.82588   2.04439 
 H                    -0.07701   1.05432   2.09659 
 C                     0.46604   3.01861  -0.56903 
 H                     0.93758   3.98819  -0.627 
 C                    -0.96285   2.72543  -0.69526 
 H                    -1.67189   3.32058  -1.24842 
 H                     1.95846   1.78508   0.53024 
 H                    -2.35354   2.06806   1.00605 
 N                    -0.34552  -1.23595   0.86079 
 N                     0.52671  -0.62832   0.08035 
 C                    -1.67812  -1.31048   0.49505 
 C                     1.83442  -1.15745   0.18339 
 O                     2.12068  -2.11836   0.83441 
 O                    -2.58214  -1.2071    1.28186 
 O                     2.67412  -0.45552  -0.57224 
 O                    -1.82403  -1.66491  -0.79075 
 C                    -3.16661  -1.86559  -1.22459 
 H                    -3.10268  -2.09488  -2.28572 
 H                    -3.62712  -2.69631  -0.68957 
 H                    -3.76423  -0.96607  -1.07024 
 C                     4.0275   -0.91314  -0.57549 
 H                     4.56443  -0.23202  -1.23051 
 H                     4.44709  -0.87682   0.42944 
 H                     4.08805  -1.93062  -0.96071 
 

 GradGradGradGradGradGradGradGradGradGradGradGradGradGradGradGradGradGrad
 Berny optimization.
 Initialization pass.
                           ----------------------------
                           !    Initial Parameters    !
                           ! (Angstroms and Degrees)  !
 --------------------------                            --------------------------
 ! Name  Definition              Value          Derivative Info.                !
 --------------------------------------------------------------------------------
 ! R1    R(1,2)                  1.5591         estimate D2E/DX2                !
 ! R2    R(1,4)                  1.5152         estimate D2E/DX2                !
 ! R3    R(1,5)                  1.0865         estimate D2E/DX2                !
 ! R4    R(1,17)                 1.4824         estimate D2E/DX2                !
 ! R5    R(2,7)                  1.5478         estimate D2E/DX2                !
 ! R6    R(2,10)                 1.4999         estimate D2E/DX2                !
 ! R7    R(2,14)                 1.0836         estimate D2E/DX2                !
 ! R8    R(3,4)                  1.4972         estimate D2E/DX2                !
 ! R9    R(3,7)                  1.5188         estimate D2E/DX2                !
 ! R10   R(3,12)                 1.5338         estimate D2E/DX2                !
 ! R11   R(3,15)                 1.0789         estimate D2E/DX2                !
 ! R12   R(4,6)                  1.0764         estimate D2E/DX2                !
 ! R13   R(4,12)                 1.5259         estimate D2E/DX2                !
 ! R14   R(7,8)                  1.0903         estimate D2E/DX2                !
 ! R15   R(7,9)                  1.0917         estimate D2E/DX2                !
 ! R16   R(10,11)                1.0797         estimate D2E/DX2                !
 ! R17   R(10,12)                1.4641         estimate D2E/DX2                !
 ! R18   R(12,13)                1.0784         estimate D2E/DX2                !
 ! R19   R(16,17)                1.3187         estimate D2E/DX2                !
 ! R20   R(16,18)                1.3839         estimate D2E/DX2                !
 ! R21   R(17,19)                1.4145         estimate D2E/DX2                !
 ! R22   R(18,21)                1.2029         estimate D2E/DX2                !
 ! R23   R(18,23)                1.3417         estimate D2E/DX2                !
 ! R24   R(19,20)                1.1955         estimate D2E/DX2                !
 ! R25   R(19,22)                1.33           estimate D2E/DX2                !
 ! R26   R(22,28)                1.4287         estimate D2E/DX2                !
 ! R27   R(23,24)                1.4251         estimate D2E/DX2                !
 ! R28   R(24,25)                1.0875         estimate D2E/DX2                !
 ! R29   R(24,26)                1.0901         estimate D2E/DX2                !
 ! R30   R(24,27)                1.0909         estimate D2E/DX2                !
 ! R31   R(28,29)                1.0869         estimate D2E/DX2                !
 ! R32   R(28,30)                1.0896         estimate D2E/DX2                !
 ! R33   R(28,31)                1.0896         estimate D2E/DX2                !
 ! A1    A(2,1,4)               96.6989         estimate D2E/DX2                !
 ! A2    A(2,1,5)              111.4143         estimate D2E/DX2                !
 ! A3    A(2,1,17)             112.166          estimate D2E/DX2                !
 ! A4    A(4,1,5)              112.2061         estimate D2E/DX2                !
 ! A5    A(4,1,17)             116.7034         estimate D2E/DX2                !
 ! A6    A(5,1,17)             107.4523         estimate D2E/DX2                !
 ! A7    A(1,2,7)              101.7467         estimate D2E/DX2                !
 ! A8    A(1,2,10)              99.5551         estimate D2E/DX2                !
 ! A9    A(1,2,14)             115.814          estimate D2E/DX2                !
 ! A10   A(7,2,10)             101.3845         estimate D2E/DX2                !
 ! A11   A(7,2,14)             117.271          estimate D2E/DX2                !
 ! A12   A(10,2,14)            118.1484         estimate D2E/DX2                !
 ! A13   A(4,3,7)              107.1129         estimate D2E/DX2                !
 ! A14   A(4,3,15)             121.4971         estimate D2E/DX2                !
 ! A15   A(7,3,12)             106.0266         estimate D2E/DX2                !
 ! A16   A(7,3,15)             123.3334         estimate D2E/DX2                !
 ! A17   A(12,3,15)            121.8027         estimate D2E/DX2                !
 ! A18   A(1,4,3)              107.9106         estimate D2E/DX2                !
 ! A19   A(1,4,6)              123.2146         estimate D2E/DX2                !
 ! A20   A(1,4,12)             105.3458         estimate D2E/DX2                !
 ! A21   A(3,4,6)              123.0441         estimate D2E/DX2                !
 ! A22   A(6,4,12)             119.6234         estimate D2E/DX2                !
 ! A23   A(2,7,3)               96.865          estimate D2E/DX2                !
 ! A24   A(2,7,8)              111.4194         estimate D2E/DX2                !
 ! A25   A(2,7,9)              113.6085         estimate D2E/DX2                !
 ! A26   A(3,7,8)              112.6949         estimate D2E/DX2                !
 ! A27   A(3,7,9)              112.9206         estimate D2E/DX2                !
 ! A28   A(8,7,9)              108.9979         estimate D2E/DX2                !
 ! A29   A(2,10,11)            126.5389         estimate D2E/DX2                !
 ! A30   A(2,10,12)            100.4531         estimate D2E/DX2                !
 ! A31   A(11,10,12)           126.9708         estimate D2E/DX2                !
 ! A32   A(3,12,10)            106.0328         estimate D2E/DX2                !
 ! A33   A(3,12,13)            121.6017         estimate D2E/DX2                !
 ! A34   A(4,12,10)            106.1475         estimate D2E/DX2                !
 ! A35   A(4,12,13)            120.6289         estimate D2E/DX2                !
 ! A36   A(10,12,13)           125.1272         estimate D2E/DX2                !
 ! A37   A(17,16,18)           120.3518         estimate D2E/DX2                !
 ! A38   A(1,17,16)            125.7209         estimate D2E/DX2                !
 ! A39   A(1,17,19)            119.0462         estimate D2E/DX2                !
 ! A40   A(16,17,19)           113.3293         estimate D2E/DX2                !
 ! A41   A(16,18,21)           123.1052         estimate D2E/DX2                !
 ! A42   A(16,18,23)           111.8524         estimate D2E/DX2                !
 ! A43   A(21,18,23)           124.5971         estimate D2E/DX2                !
 ! A44   A(17,19,20)           124.1766         estimate D2E/DX2                !
 ! A45   A(17,19,22)           110.1756         estimate D2E/DX2                !
 ! A46   A(20,19,22)           125.6235         estimate D2E/DX2                !
 ! A47   A(19,22,28)           115.4893         estimate D2E/DX2                !
 ! A48   A(18,23,24)           115.5553         estimate D2E/DX2                !
 ! A49   A(23,24,25)           105.7444         estimate D2E/DX2                !
 ! A50   A(23,24,26)           110.8463         estimate D2E/DX2                !
 ! A51   A(23,24,27)           110.9098         estimate D2E/DX2                !
 ! A52   A(25,24,26)           110.0625         estimate D2E/DX2                !
 ! A53   A(25,24,27)           110.1274         estimate D2E/DX2                !
 ! A54   A(26,24,27)           109.1159         estimate D2E/DX2                !
 ! A55   A(22,28,29)           105.5823         estimate D2E/DX2                !
 ! A56   A(22,28,30)           110.6107         estimate D2E/DX2                !
 ! A57   A(22,28,31)           110.6431         estimate D2E/DX2                !
 ! A58   A(29,28,30)           110.1638         estimate D2E/DX2                !
 ! A59   A(29,28,31)           110.1615         estimate D2E/DX2                !
 ! A60   A(30,28,31)           109.6199         estimate D2E/DX2                !
 ! D1    D(4,1,2,7)             50.823          estimate D2E/DX2                !
 ! D2    D(4,1,2,10)           -53.0313         estimate D2E/DX2                !
 ! D3    D(4,1,2,14)           179.173          estimate D2E/DX2                !
 ! D4    D(5,1,2,7)            167.8763         estimate D2E/DX2                !
 ! D5    D(5,1,2,10)            64.022          estimate D2E/DX2                !
 ! D6    D(5,1,2,14)           -63.7737         estimate D2E/DX2                !
 ! D7    D(17,1,2,7)           -71.6172         estimate D2E/DX2                !
 ! D8    D(17,1,2,10)         -175.4716         estimate D2E/DX2                !
 ! D9    D(17,1,2,14)           56.7327         estimate D2E/DX2                !
 ! D10   D(2,1,4,3)            -30.0797         estimate D2E/DX2                !
 ! D11   D(2,1,4,6)            176.2089         estimate D2E/DX2                !
 ! D12   D(2,1,4,12)            33.8035         estimate D2E/DX2                !
 ! D13   D(5,1,4,3)           -146.5041         estimate D2E/DX2                !
 ! D14   D(5,1,4,6)             59.7845         estimate D2E/DX2                !
 ! D15   D(5,1,4,12)           -82.6209         estimate D2E/DX2                !
 ! D16   D(17,1,4,3)            88.8883         estimate D2E/DX2                !
 ! D17   D(17,1,4,6)           -64.8231         estimate D2E/DX2                !
 ! D18   D(17,1,4,12)          152.7715         estimate D2E/DX2                !
 ! D19   D(2,1,17,16)           93.6739         estimate D2E/DX2                !
 ! D20   D(2,1,17,19)          -69.5286         estimate D2E/DX2                !
 ! D21   D(4,1,17,16)          -16.5647         estimate D2E/DX2                !
 ! D22   D(4,1,17,19)         -179.7672         estimate D2E/DX2                !
 ! D23   D(5,1,17,16)         -143.5505         estimate D2E/DX2                !
 ! D24   D(5,1,17,19)           53.247          estimate D2E/DX2                !
 ! D25   D(1,2,7,3)            -51.584          estimate D2E/DX2                !
 ! D26   D(1,2,7,8)           -169.273          estimate D2E/DX2                !
 ! D27   D(1,2,7,9)             67.1483         estimate D2E/DX2                !
 ! D28   D(10,2,7,3)            50.8209         estimate D2E/DX2                !
 ! D29   D(10,2,7,8)           -66.8681         estimate D2E/DX2                !
 ! D30   D(10,2,7,9)           169.5532         estimate D2E/DX2                !
 ! D31   D(14,2,7,3)          -178.9985         estimate D2E/DX2                !
 ! D32   D(14,2,7,8)            63.3126         estimate D2E/DX2                !
 ! D33   D(14,2,7,9)           -60.2661         estimate D2E/DX2                !
 ! D34   D(1,2,10,11)         -153.4826         estimate D2E/DX2                !
 ! D35   D(1,2,10,12)           52.6374         estimate D2E/DX2                !
 ! D36   D(7,2,10,11)          102.3658         estimate D2E/DX2                !
 ! D37   D(7,2,10,12)          -51.5142         estimate D2E/DX2                !
 ! D38   D(14,2,10,11)         -27.2638         estimate D2E/DX2                !
 ! D39   D(14,2,10,12)         178.8562         estimate D2E/DX2                !
 ! D40   D(7,3,4,1)             -1.0887         estimate D2E/DX2                !
 ! D41   D(7,3,4,6)            152.6776         estimate D2E/DX2                !
 ! D42   D(15,3,4,1)          -150.74           estimate D2E/DX2                !
 ! D43   D(15,3,4,6)             3.0262         estimate D2E/DX2                !
 ! D44   D(4,3,7,2)             32.0071         estimate D2E/DX2                !
 ! D45   D(4,3,7,8)            148.6897         estimate D2E/DX2                !
 ! D46   D(4,3,7,9)            -87.2588         estimate D2E/DX2                !
 ! D47   D(12,3,7,2)           -31.3406         estimate D2E/DX2                !
 ! D48   D(12,3,7,8)            85.342          estimate D2E/DX2                !
 ! D49   D(12,3,7,9)          -150.6066         estimate D2E/DX2                !
 ! D50   D(15,3,7,2)          -179.0339         estimate D2E/DX2                !
 ! D51   D(15,3,7,8)           -62.3512         estimate D2E/DX2                !
 ! D52   D(15,3,7,9)            61.7002         estimate D2E/DX2                !
 ! D53   D(7,3,12,10)            1.4835         estimate D2E/DX2                !
 ! D54   D(7,3,12,13)         -150.1245         estimate D2E/DX2                !
 ! D55   D(15,3,12,10)         149.7878         estimate D2E/DX2                !
 ! D56   D(15,3,12,13)          -1.8202         estimate D2E/DX2                !
 ! D57   D(1,4,12,10)           -3.0507         estimate D2E/DX2                !
 ! D58   D(1,4,12,13)          147.1274         estimate D2E/DX2                !
 ! D59   D(6,4,12,10)         -147.0962         estimate D2E/DX2                !
 ! D60   D(6,4,12,13)            3.0819         estimate D2E/DX2                !
 ! D61   D(2,10,12,3)           30.4379         estimate D2E/DX2                !
 ! D62   D(2,10,12,4)          -30.7913         estimate D2E/DX2                !
 ! D63   D(2,10,12,13)        -179.2432         estimate D2E/DX2                !
 ! D64   D(11,10,12,3)        -123.2834         estimate D2E/DX2                !
 ! D65   D(11,10,12,4)         175.4874         estimate D2E/DX2                !
 ! D66   D(11,10,12,13)         27.0355         estimate D2E/DX2                !
 ! D67   D(18,16,17,1)          45.5286         estimate D2E/DX2                !
 ! D68   D(18,16,17,19)       -150.4416         estimate D2E/DX2                !
 ! D69   D(17,16,18,21)       -141.865          estimate D2E/DX2                !
 ! D70   D(17,16,18,23)         45.4798         estimate D2E/DX2                !
 ! D71   D(1,17,19,20)         170.2423         estimate D2E/DX2                !
 ! D72   D(1,17,19,22)         -11.4663         estimate D2E/DX2                !
 ! D73   D(16,17,19,20)          5.0462         estimate D2E/DX2                !
 ! D74   D(16,17,19,22)       -176.6624         estimate D2E/DX2                !
 ! D75   D(16,18,23,24)        175.3836         estimate D2E/DX2                !
 ! D76   D(21,18,23,24)          2.8585         estimate D2E/DX2                !
 ! D77   D(17,19,22,28)       -178.6667         estimate D2E/DX2                !
 ! D78   D(20,19,22,28)         -0.4056         estimate D2E/DX2                !
 ! D79   D(19,22,28,29)       -179.7566         estimate D2E/DX2                !
 ! D80   D(19,22,28,30)        -60.5993         estimate D2E/DX2                !
 ! D81   D(19,22,28,31)         61.0716         estimate D2E/DX2                !
 ! D82   D(18,23,24,25)        177.2733         estimate D2E/DX2                !
 ! D83   D(18,23,24,26)        -63.4691         estimate D2E/DX2                !
 ! D84   D(18,23,24,27)         57.9039         estimate D2E/DX2                !
 --------------------------------------------------------------------------------
 Trust Radius=3.00D-01 FncErr=1.00D-07 GrdErr=1.00D-06
 Number of steps in this run=    186 maximum allowed number of steps=    186.
 GradGradGradGradGradGradGradGradGradGradGradGradGradGradGradGradGradGrad

                          Input orientation:                          
 ---------------------------------------------------------------------
 Center     Atomic      Atomic             Coordinates (Angstroms)
 Number     Number       Type             X           Y           Z
 ---------------------------------------------------------------------
      1          6           0        0.331940    0.686480   -0.576130
      2          6           0        0.908210    1.859560    0.273990
      3          6           0       -1.360170    1.992180    0.591970
      4          6           0       -1.089560    1.205360   -0.652700
      5          1           0        0.803780    0.635760   -1.553550
      6          1           0       -1.864680    0.719940   -1.220410
      7          6           0       -0.103870    1.928370    1.443010
      8          1           0        0.042870    2.825880    2.044390
      9          1           0       -0.077010    1.054320    2.096590
     10          6           0        0.466040    3.018610   -0.569030
     11          1           0        0.937580    3.988190   -0.627000
     12          6           0       -0.962850    2.725430   -0.695260
     13          1           0       -1.671890    3.320580   -1.248420
     14          1           0        1.958460    1.785080    0.530240
     15          1           0       -2.353540    2.068060    1.006050
     16          7           0       -0.345520   -1.235950    0.860790
     17          7           0        0.526710   -0.628320    0.080350
     18          6           0       -1.678120   -1.310480    0.495050
     19          6           0        1.834420   -1.157450    0.183390
     20          8           0        2.120680   -2.118360    0.834410
     21          8           0       -2.582140   -1.207100    1.281860
     22          8           0        2.674120   -0.455520   -0.572240
     23          8           0       -1.824030   -1.664910   -0.790750
     24          6           0       -3.166610   -1.865590   -1.224590
     25          1           0       -3.102680   -2.094880   -2.285720
     26          1           0       -3.627120   -2.696310   -0.689570
     27          1           0       -3.764230   -0.966070   -1.070240
     28          6           0        4.027500   -0.913140   -0.575490
     29          1           0        4.564430   -0.232020   -1.230510
     30          1           0        4.447090   -0.876820    0.429440
     31          1           0        4.088050   -1.930620   -0.960710
 ---------------------------------------------------------------------
                    Distance matrix (angstroms):
                    1          2          3          4          5
     1  C    0.000000
     2  C    1.559137   0.000000
     3  C    2.435682   2.294395   0.000000
     4  C    1.515177   2.297350   1.497170   0.000000
     5  H    1.086534   2.201930   3.335538   2.172720   0.000000
     6  H    2.289401   3.349759   2.271089   1.076447   2.690492
     7  C    2.410217   1.547788   1.518760   2.426176   3.387335
     8  H    3.395249   2.194745   2.184743   3.344066   4.280278
     9  H    2.728732   2.222823   2.188598   2.933712   3.778162
    10  C    2.335993   1.499865   2.395104   2.390558   2.600254
    11  H    3.357183   2.311647   3.278658   3.442978   3.480687
    12  C    2.418262   2.278166   1.533780   1.525936   2.867815
    13  H    3.377246   3.333051   2.291037   2.273356   3.664738
    14  H    2.253119   1.083622   3.325659   3.320519   2.645071
    15  H    3.409378   3.349388   1.078890   2.256845   4.309490
    16  N    2.493878   3.390922   3.394496   2.967194   3.263928
    17  N    1.482431   2.524398   3.269418   2.551876   2.084297
    18  C    3.029128   4.097209   3.319345   2.827222   3.760909
    19  C    2.496877   3.157281   4.504721   3.851179   2.700885
    20  O    3.613356   4.196189   5.391812   4.854302   3.875791
    21  O    3.940766   4.754235   3.493501   3.433698   4.785409
    22  O    2.605760   3.032184   4.860259   4.114643   2.377400
    23  O    3.197390   4.584833   3.937180   2.965966   3.574959
    24  C    4.378746   5.720720   4.630929   3.751257   4.704143
    25  H    4.738700   6.186837   5.293534   4.196545   4.822126
    26  H    5.208675   6.500278   5.363147   4.654417   5.610885
    27  H    4.444511   5.623418   4.158568   3.470347   4.864788
    28  C    4.026903   4.259044   6.231439   5.538800   3.707838
    29  H    4.380163   4.472826   6.585544   5.862383   3.872969
    30  H    4.515478   4.476116   6.479340   6.013401   4.415185
    31  H    4.594070   5.099150   6.890738   6.061096   4.210011
                    6          7          8          9         10
     6  H    0.000000
     7  C    3.413878   0.000000
     8  H    4.328123   1.090282   0.000000
     9  H    3.782864   1.091720   1.776379   0.000000
    10  C    3.337729   2.358331   2.654465   3.355424   0.000000
    11  H    4.345832   3.100390   3.047588   4.129761   1.079720
    12  C    2.260768   2.438309   2.920145   3.372202   1.464109
    13  H    2.607927   3.411852   3.745361   4.343808   2.263515
    14  H    4.337707   2.259842   2.654317   2.670318   2.226501
    15  H    2.648308   2.295967   2.719416   2.720209   3.366668
    16  N    3.234926   3.226499   4.248555   2.616226   4.561173
    17  N    3.037849   2.964985   4.002880   2.694620   3.704791
    18  C    2.664622   3.723848   4.740436   3.274258   4.946788
    19  C    4.379337   3.855632   4.747619   3.493684   4.458484
    20  O    5.306725   4.657794   5.497896   4.060645   5.576373
    21  O    3.238763   3.999870   4.872069   3.471812   5.529360
    22  O    4.733132   4.178683   4.953566   4.119586   4.116456
    23  O    2.423586   4.567307   5.629434   4.333939   5.218136
    24  C    2.894824   5.557931   6.557201   5.394603   6.122199
    25  H    3.254342   6.251626   7.270366   6.186823   6.467655
    26  H    3.880561   6.192645   7.172025   5.867980   7.030562
    27  H    2.544302   5.300231   6.210782   5.263685   5.833016
    28  C    6.148224   5.405251   6.059812   5.278060   5.304969
    29  H    6.499214   5.797242   6.365550   5.853822   5.272661
    30  H    6.716404   5.441291   5.976220   5.193859   5.658628
    31  H    6.521342   6.184001   6.929531   5.966965   6.145506
                   11         12         13         14         15
    11  H    0.000000
    12  C    2.282730   0.000000
    13  H    2.764272   1.078391   0.000000
    14  H    2.689813   3.304567   4.324446   0.000000
    15  H    4.145506   2.293602   2.667600   4.347392   0.000000
    16  N    5.581353   4.300572   5.193264   3.813687   3.869073
    17  N    4.688424   3.750733   4.710975   2.841973   4.052558
    18  C    6.014714   4.268140   4.948378   4.775819   3.483080
    19  C    5.285704   4.865542   5.864899   2.965497   5.349738
    20  O    6.389476   5.942251   6.950096   3.918632   6.129781
    21  O    6.559208   4.689978   5.266000   5.489547   3.294693
    22  O    4.771282   4.833335   5.796892   2.597676   5.842672
    23  O    6.293715   4.475023   5.008764   5.287218   4.176594
    24  C    7.174136   5.119982   5.397325   6.532470   4.594610
    25  H    7.488578   5.508523   5.696522   6.971288   5.359760
    26  H    8.094624   6.040996   6.351236   7.264262   5.215012
    27  H    6.844572   4.649249   4.773364   6.548247   3.937889
    28  C    5.794247   6.177146   7.131638   3.575466   7.218483
    29  H    5.597181   6.291568   7.177254   3.736310   7.625672
    30  H    6.091063   6.596105   7.607582   3.645429   7.433261
    31  H    6.713355   6.874653   7.799666   4.534811   7.832731
                   16         17         18         19         20
    16  N    0.000000
    17  N    1.318744   0.000000
    18  C    1.383887   2.344908   0.000000
    19  C    2.284113   1.414461   3.529658   0.000000
    20  O    2.619444   2.308585   3.898553   1.195458   0.000000
    21  O    2.276093   3.382833   1.202917   4.551385   4.811146
    22  O    3.432327   2.251023   4.562023   1.329954   2.247220
    23  O    2.257783   2.712805   1.341712   3.819780   4.290396
    24  C    3.564240   4.107836   2.341135   5.243488   5.679684
    25  H    4.270857   4.574009   3.221387   5.599128   6.084345
    26  H    3.912182   4.703580   2.668792   5.740955   5.974424
    27  H    3.935644   4.455345   2.630704   5.740479   6.291870
    28  C    4.614153   3.573063   5.818766   2.333492   2.660138
    29  H    5.430379   4.263636   6.565825   3.210683   3.714039
    30  H    4.825365   3.943729   6.140893   2.639193   2.667884
    31  H    4.843240   3.932294   5.979342   2.643029   2.669878
                   21         22         23         24         25
    21  O    0.000000
    22  O    5.624129   0.000000
    23  O    2.253893   4.663017   0.000000
    24  C    2.656597   6.043839   1.425135   0.000000
    25  H    3.713050   6.244592   2.013642   1.087501   0.000000
    26  H    2.682586   6.688836   2.079701   1.090143   1.784503
    27  H    2.643446   6.477732   2.081074   1.090922   1.785848
    28  C    6.871936   1.428658   5.903550   7.285857   7.427036
    29  H    7.637817   2.014086   6.561934   7.901744   7.960420
    30  H    7.088426   2.079490   6.437150   7.853783   8.115096
    31  H    7.074181   2.079910   5.920488   7.259749   7.313633
                   26         27         28         29         30
    26  H    0.000000
    27  H    1.776918   0.000000
    28  C    7.860402   7.807601   0.000000
    29  H    8.571280   8.362481   1.086862   0.000000
    30  H    8.351981   8.347621   1.089614   1.784648   0.000000
    31  H    7.757812   7.912058   1.089645   1.784649   1.780989
                   31
    31  H    0.000000
 Stoichiometry    C11H14N2O4(3)
 Framework group  C1[X(C11H14N2O4)]
 Deg. of freedom    87
 Full point group                 C1      NOp   1
 Largest Abelian subgroup         C1      NOp   1
 Largest concise Abelian subgroup C1      NOp   1
                         Standard orientation:                         
 ---------------------------------------------------------------------
 Center     Atomic      Atomic             Coordinates (Angstroms)
 Number     Number       Type             X           Y           Z
 ---------------------------------------------------------------------
      1          6           0        0.331940    0.686479   -0.576130
      2          6           0        0.908211    1.859559    0.273990
      3          6           0       -1.360168    1.992181    0.591970
      4          6           0       -1.089559    1.205361   -0.652700
      5          1           0        0.803780    0.635759   -1.553550
      6          1           0       -1.864680    0.719941   -1.220410
      7          6           0       -0.103869    1.928370    1.443010
      8          1           0        0.042872    2.825879    2.044390
      9          1           0       -0.077009    1.054320    2.096590
     10          6           0        0.466043    3.018609   -0.569030
     11          1           0        0.937583    3.988189   -0.627000
     12          6           0       -0.962848    2.725430   -0.695260
     13          1           0       -1.671887    3.320581   -1.248420
     14          1           0        1.958461    1.785078    0.530240
     15          1           0       -2.353538    2.068062    1.006050
     16          7           0       -0.345522   -1.235950    0.860790
     17          7           0        0.526709   -0.628321    0.080350
     18          6           0       -1.678122   -1.310479    0.495050
     19          6           0        1.834418   -1.157452    0.183390
     20          8           0        2.120677   -2.118363    0.834410
     21          8           0       -2.582142   -1.207098    1.281860
     22          8           0        2.674119   -0.455523   -0.572240
     23          8           0       -1.824032   -1.664909   -0.790750
     24          6           0       -3.166612   -1.865587   -1.224590
     25          1           0       -3.102683   -2.094877   -2.285720
     26          1           0       -3.627123   -2.696307   -0.689570
     27          1           0       -3.764231   -0.966067   -1.070240
     28          6           0        4.027499   -0.913144   -0.575490
     29          1           0        4.564429   -0.232025   -1.230510
     30          1           0        4.447089   -0.876825    0.429440
     31          1           0        4.088048   -1.930625   -0.960710
 ---------------------------------------------------------------------
 Rotational constants (GHZ):      0.6032718      0.4691988      0.3177889
 Standard basis: def2TZVP (5D, 7F)
 There are   696 symmetry adapted cartesian basis functions of A   symmetry.
 There are   611 symmetry adapted basis functions of A   symmetry.
   611 basis functions,   979 primitive gaussians,   696 cartesian basis functions
    64 alpha electrons       62 beta electrons
       nuclear repulsion energy      1318.0735590319 Hartrees.
 NAtoms=   31 NActive=   31 NUniq=   31 SFac= 1.00D+00 NAtFMM=   60 NAOKFM=F Big=F
 Integral buffers will be    131072 words long.
 Raffenetti 2 integral format.
 Two-electron integral symmetry is turned on.
 Nuclear repulsion after empirical dispersion term =     1318.0497886876 Hartrees.
 ------------------------------------------------------------------------------
 Polarizable Continuum Model (PCM)
 =================================
 Model                : PCM (using non-symmetric T matrix).
 Atomic radii         : SMD-Coulomb.
 Polarization charges : Total charges.
 Charge compensation  : None.
 Solution method      : On-the-fly selection.
 Cavity type          : VdW (van der Waals Surface) (Alpha=1.000).
 Cavity algorithm     : GePol (No added spheres)
                        Default sphere list used, NSphG=   31.
                        Lebedev-Laikov grids with approx.  5.0 points / Ang**2.
                        Smoothing algorithm: Karplus/York (Gamma=1.0000).
                        Polarization charges: spherical gaussians, with
                                              point-specific exponents (IZeta= 3).
                        Self-potential: point-specific (ISelfS= 7).
                        Self-field    : sphere-specific E.n sum rule (ISelfD= 2).
 1st derivatives      : Analytical E(r).r(x)/FMM algorithm (CHGder, D1EAlg=3).
                        Cavity 1st derivative terms included.
 Solvent              : Toluene, Eps=   2.374100 Eps(inf)=   2.238315
 ------------------------------------------------------------------------------
 ------------------------------------------------------------------------------
 Atomic radii for non-electrostatic terms: SMD-CDS.
 ------------------------------------------------------------------------------
 Nuclear repulsion after PCM non-electrostatic terms =     1318.0424328016 Hartrees.
 One-electron integrals computed using PRISM.
   1 Symmetry operations used in ECPInt.
 ECPInt:  NShTT=   29646 NPrTT=   90516 LenC2=   27412 LenP2D=   61473.
 LDataN:  DoStor=T MaxTD1= 6 Len=  172
 NBasis=   611 RedAO= T EigKep=  2.30D-05  NBF=   611
 NBsUse=   611 1.00D-06 EigRej= -1.00D+00 NBFU=   611
 ExpMin= 9.52D-02 ExpMax= 2.70D+04 ExpMxC= 9.22D+02 IAcc=2 IRadAn=         4 AccDes= 0.00D+00
 Harris functional with IExCor= 4639 and IRadAn=       4 diagonalized for initial guess.
 HarFok:  IExCor= 4639 AccDes= 0.00D+00 IRadAn=         4 IDoV= 1 UseB2=F ITyADJ=14
 ICtDFT=  3500011 ScaDFX=  1.000000  1.000000  1.000000  1.000000
 FoFCou: FMM=F IPFlag=           0 FMFlag=      100000 FMFlg1=           0
         NFxFlg=           0 DoJE=T BraDBF=F KetDBF=T FulRan=T
         wScrn=  0.000000 ICntrl=     500 IOpCl=  0 I1Cent=   200000004 NGrid=           0
         NMat0=    1 NMatS0=      1 NMatT0=    0 NMatD0=    1 NMtDS0=    0 NMtDT0=    0
 Petite list used in FoFCou.
 Initial guess <Sx>= 0.0000 <Sy>= 0.0000 <Sz>= 1.0000 <S**2>= 2.0000 S= 1.0000
 Requested convergence on RMS density matrix=1.00D-08 within 128 cycles.
 Requested convergence on MAX density matrix=1.00D-06.
 Requested convergence on             energy=1.00D-06.
 No special actions if energy rises.
 Inv3:  Mode=1 IEnd=    15363507.
 Iteration    1 A*A^-1 deviation from unit magnitude is 6.11D-15 for   2261.
 Iteration    1 A*A^-1 deviation from orthogonality  is 2.79D-15 for    939    478.
 Iteration    1 A^-1*A deviation from unit magnitude is 6.33D-15 for   2261.
 Iteration    1 A^-1*A deviation from orthogonality  is 2.26D-13 for   1698   1046.
 Error on total polarization charges =  0.02007
 SCF Done:  E(UwB97XD) =  -837.921203246     A.U. after   18 cycles
            NFock= 18  Conv=0.90D-08     -V/T= 2.0045
 <Sx>= 0.0000 <Sy>= 0.0000 <Sz>= 1.0000 <S**2>= 2.0099 S= 1.0033
 <L.S>= 0.000000000000E+00
 SMD-CDS (non-electrostatic) energy       (kcal/mol) =      -4.62
 (included in total energy above)
 Annihilation of the first spin contaminant:
 S**2 before annihilation     2.0099,   after     2.0001

 **********************************************************************

            Population analysis using the SCF density.

 **********************************************************************

 Orbital symmetries:
 Alpha Orbitals:
       Occupied  (A) (A) (A) (A) (A) (A) (A) (A) (A) (A) (A) (A)
                 (A) (A) (A) (A) (A) (A) (A) (A) (A) (A) (A) (A)
                 (A) (A) (A) (A) (A) (A) (A) (A) (A) (A) (A) (A)
                 (A) (A) (A) (A) (A) (A) (A) (A) (A) (A) (A) (A)
                 (A) (A) (A) (A) (A) (A) (A) (A) (A) (A) (A) (A)
                 (A) (A) (A) (A)
       Virtual   (A) (A) (A) (A) (A) (A) (A) (A) (A) (A) (A) (A)
                 (A) (A) (A) (A) (A) (A) (A) (A) (A) (A) (A) (A)
                 (A) (A) (A) (A) (A) (A) (A) (A) (A) (A) (A) (A)
                 (A) (A) (A) (A) (A) (A) (A) (A) (A) (A) (A) (A)
                 (A) (A) (A) (A) (A) (A) (A) (A) (A) (A) (A) (A)
                 (A) (A) (A) (A) (A) (A) (A) (A) (A) (A) (A) (A)
                 (A) (A) (A) (A) (A) (A) (A) (A) (A) (A) (A) (A)
                 (A) (A) (A) (A) (A) (A) (A) (A) (A) (A) (A) (A)
                 (A) (A) (A) (A) (A) (A) (A) (A) (A) (A) (A) (A)
                 (A) (A) (A) (A) (A) (A) (A) (A) (A) (A) (A) (A)
                 (A) (A) (A) (A) (A) (A) (A) (A) (A) (A) (A) (A)
                 (A) (A) (A) (A) (A) (A) (A) (A) (A) (A) (A) (A)
                 (A) (A) (A) (A) (A) (A) (A) (A) (A) (A) (A) (A)
                 (A) (A) (A) (A) (A) (A) (A) (A) (A) (A) (A) (A)
                 (A) (A) (A) (A) (A) (A) (A) (A) (A) (A) (A) (A)
                 (A) (A) (A) (A) (A) (A) (A) (A) (A) (A) (A) (A)
                 (A) (A) (A) (A) (A) (A) (A) (A) (A) (A) (A) (A)
                 (A) (A) (A) (A) (A) (A) (A) (A) (A) (A) (A) (A)
                 (A) (A) (A) (A) (A) (A) (A) (A) (A) (A) (A) (A)
                 (A) (A) (A) (A) (A) (A) (A) (A) (A) (A) (A) (A)
                 (A) (A) (A) (A) (A) (A) (A) (A) (A) (A) (A) (A)
                 (A) (A) (A) (A) (A) (A) (A) (A) (A) (A) (A) (A)
                 (A) (A) (A) (A) (A) (A) (A) (A) (A) (A) (A) (A)
                 (A) (A) (A) (A) (A) (A) (A) (A) (A) (A) (A) (A)
                 (A) (A) (A) (A) (A) (A) (A) (A) (A) (A) (A) (A)
                 (A) (A) (A) (A) (A) (A) (A) (A) (A) (A) (A) (A)
                 (A) (A) (A) (A) (A) (A) (A) (A) (A) (A) (A) (A)
                 (A) (A) (A) (A) (A) (A) (A) (A) (A) (A) (A) (A)
                 (A) (A) (A) (A) (A) (A) (A) (A) (A) (A) (A) (A)
                 (A) (A) (A) (A) (A) (A) (A) (A) (A) (A) (A) (A)
                 (A) (A) (A) (A) (A) (A) (A) (A) (A) (A) (A) (A)
                 (A) (A) (A) (A) (A) (A) (A) (A) (A) (A) (A) (A)
                 (A) (A) (A) (A) (A) (A) (A) (A) (A) (A) (A) (A)
                 (A) (A) (A) (A) (A) (A) (A) (A) (A) (A) (A) (A)
                 (A) (A) (A) (A) (A) (A) (A) (A) (A) (A) (A) (A)
                 (A) (A) (A) (A) (A) (A) (A) (A) (A) (A) (A) (A)
                 (A) (A) (A) (A) (A) (A) (A) (A) (A) (A) (A) (A)
                 (A) (A) (A) (A) (A) (A) (A) (A) (A) (A) (A) (A)
                 (A) (A) (A) (A) (A) (A) (A) (A) (A) (A) (A) (A)
                 (A) (A) (A) (A) (A) (A) (A) (A) (A) (A) (A) (A)
                 (A) (A) (A) (A) (A) (A) (A) (A) (A) (A) (A) (A)
                 (A) (A) (A) (A) (A) (A) (A) (A) (A) (A) (A) (A)
                 (A) (A) (A) (A) (A) (A) (A) (A) (A) (A) (A) (A)
                 (A) (A) (A) (A) (A) (A) (A) (A) (A) (A) (A) (A)
                 (A) (A) (A) (A) (A) (A) (A) (A) (A) (A) (A) (A)
                 (A) (A) (A) (A) (A) (A) (A)
 Beta  Orbitals:
       Occupied  (A) (A) (A) (A) (A) (A) (A) (A) (A) (A) (A) (A)
                 (A) (A) (A) (A) (A) (A) (A) (A) (A) (A) (A) (A)
                 (A) (A) (A) (A) (A) (A) (A) (A) (A) (A) (A) (A)
                 (A) (A) (A) (A) (A) (A) (A) (A) (A) (A) (A) (A)
                 (A) (A) (A) (A) (A) (A) (A) (A) (A) (A) (A) (A)
                 (A) (A)
       Virtual   (A) (A) (A) (A) (A) (A) (A) (A) (A) (A) (A) (A)
                 (A) (A) (A) (A) (A) (A) (A) (A) (A) (A) (A) (A)
                 (A) (A) (A) (A) (A) (A) (A) (A) (A) (A) (A) (A)
                 (A) (A) (A) (A) (A) (A) (A) (A) (A) (A) (A) (A)
                 (A) (A) (A) (A) (A) (A) (A) (A) (A) (A) (A) (A)
                 (A) (A) (A) (A) (A) (A) (A) (A) (A) (A) (A) (A)
                 (A) (A) (A) (A) (A) (A) (A) (A) (A) (A) (A) (A)
                 (A) (A) (A) (A) (A) (A) (A) (A) (A) (A) (A) (A)
                 (A) (A) (A) (A) (A) (A) (A) (A) (A) (A) (A) (A)
                 (A) (A) (A) (A) (A) (A) (A) (A) (A) (A) (A) (A)
                 (A) (A) (A) (A) (A) (A) (A) (A) (A) (A) (A) (A)
                 (A) (A) (A) (A) (A) (A) (A) (A) (A) (A) (A) (A)
                 (A) (A) (A) (A) (A) (A) (A) (A) (A) (A) (A) (A)
                 (A) (A) (A) (A) (A) (A) (A) (A) (A) (A) (A) (A)
                 (A) (A) (A) (A) (A) (A) (A) (A) (A) (A) (A) (A)
                 (A) (A) (A) (A) (A) (A) (A) (A) (A) (A) (A) (A)
                 (A) (A) (A) (A) (A) (A) (A) (A) (A) (A) (A) (A)
                 (A) (A) (A) (A) (A) (A) (A) (A) (A) (A) (A) (A)
                 (A) (A) (A) (A) (A) (A) (A) (A) (A) (A) (A) (A)
                 (A) (A) (A) (A) (A) (A) (A) (A) (A) (A) (A) (A)
                 (A) (A) (A) (A) (A) (A) (A) (A) (A) (A) (A) (A)
                 (A) (A) (A) (A) (A) (A) (A) (A) (A) (A) (A) (A)
                 (A) (A) (A) (A) (A) (A) (A) (A) (A) (A) (A) (A)
                 (A) (A) (A) (A) (A) (A) (A) (A) (A) (A) (A) (A)
                 (A) (A) (A) (A) (A) (A) (A) (A) (A) (A) (A) (A)
                 (A) (A) (A) (A) (A) (A) (A) (A) (A) (A) (A) (A)
                 (A) (A) (A) (A) (A) (A) (A) (A) (A) (A) (A) (A)
                 (A) (A) (A) (A) (A) (A) (A) (A) (A) (A) (A) (A)
                 (A) (A) (A) (A) (A) (A) (A) (A) (A) (A) (A) (A)
                 (A) (A) (A) (A) (A) (A) (A) (A) (A) (A) (A) (A)
                 (A) (A) (A) (A) (A) (A) (A) (A) (A) (A) (A) (A)
                 (A) (A) (A) (A) (A) (A) (A) (A) (A) (A) (A) (A)
                 (A) (A) (A) (A) (A) (A) (A) (A) (A) (A) (A) (A)
                 (A) (A) (A) (A) (A) (A) (A) (A) (A) (A) (A) (A)
                 (A) (A) (A) (A) (A) (A) (A) (A) (A) (A) (A) (A)
                 (A) (A) (A) (A) (A) (A) (A) (A) (A) (A) (A) (A)
                 (A) (A) (A) (A) (A) (A) (A) (A) (A) (A) (A) (A)
                 (A) (A) (A) (A) (A) (A) (A) (A) (A) (A) (A) (A)
                 (A) (A) (A) (A) (A) (A) (A) (A) (A) (A) (A) (A)
                 (A) (A) (A) (A) (A) (A) (A) (A) (A) (A) (A) (A)
                 (A) (A) (A) (A) (A) (A) (A) (A) (A) (A) (A) (A)
                 (A) (A) (A) (A) (A) (A) (A) (A) (A) (A) (A) (A)
                 (A) (A) (A) (A) (A) (A) (A) (A) (A) (A) (A) (A)
                 (A) (A) (A) (A) (A) (A) (A) (A) (A) (A) (A) (A)
                 (A) (A) (A) (A) (A) (A) (A) (A) (A) (A) (A) (A)
                 (A) (A) (A) (A) (A) (A) (A) (A) (A)
 The electronic state is 3-A.
 Alpha  occ. eigenvalues --  -19.31256 -19.29841 -19.24086 -19.22904 -14.53854
 Alpha  occ. eigenvalues --  -14.48206 -10.44823 -10.43312 -10.34369 -10.34152
 Alpha  occ. eigenvalues --  -10.33392 -10.30267 -10.30113 -10.29999 -10.29946
 Alpha  occ. eigenvalues --  -10.29522 -10.28533  -1.24377  -1.22372  -1.15366
 Alpha  occ. eigenvalues --   -1.13004  -1.12337  -1.04148  -0.94905  -0.86720
 Alpha  occ. eigenvalues --   -0.84305  -0.83783  -0.81723  -0.80117  -0.71102
 Alpha  occ. eigenvalues --   -0.69873  -0.66326  -0.65584  -0.64904  -0.64380
 Alpha  occ. eigenvalues --   -0.64201  -0.61077  -0.60241  -0.58016  -0.57623
 Alpha  occ. eigenvalues --   -0.57361  -0.55914  -0.53297  -0.52633  -0.52221
 Alpha  occ. eigenvalues --   -0.51761  -0.50077  -0.48837  -0.47202  -0.46874
 Alpha  occ. eigenvalues --   -0.46015  -0.45180  -0.45063  -0.43764  -0.43130
 Alpha  occ. eigenvalues --   -0.40533  -0.39939  -0.39387  -0.38548  -0.38047
 Alpha  occ. eigenvalues --   -0.37447  -0.36383  -0.30474  -0.26798
 Alpha virt. eigenvalues --    0.09391   0.10463   0.11119   0.12254   0.14198
 Alpha virt. eigenvalues --    0.14739   0.15763   0.16085   0.16337   0.16869
 Alpha virt. eigenvalues --    0.17219   0.18070   0.18632   0.19108   0.19575
 Alpha virt. eigenvalues --    0.20121   0.20316   0.20849   0.20878   0.21581
 Alpha virt. eigenvalues --    0.22697   0.23505   0.23974   0.24812   0.25779
 Alpha virt. eigenvalues --    0.26241   0.26537   0.27487   0.28704   0.28888
 Alpha virt. eigenvalues --    0.30249   0.30971   0.31109   0.31788   0.32568
 Alpha virt. eigenvalues --    0.32802   0.33659   0.34231   0.34940   0.35337
 Alpha virt. eigenvalues --    0.36284   0.37133   0.37810   0.38106   0.39274
 Alpha virt. eigenvalues --    0.39796   0.39833   0.40856   0.41776   0.42491
 Alpha virt. eigenvalues --    0.43788   0.44562   0.45252   0.45783   0.46460
 Alpha virt. eigenvalues --    0.46797   0.47210   0.47544   0.47984   0.48770
 Alpha virt. eigenvalues --    0.48944   0.49233   0.49833   0.50808   0.51347
 Alpha virt. eigenvalues --    0.51556   0.51816   0.52011   0.52691   0.52880
 Alpha virt. eigenvalues --    0.53689   0.54185   0.54729   0.54928   0.55661
 Alpha virt. eigenvalues --    0.56089   0.56372   0.56854   0.57591   0.58025
 Alpha virt. eigenvalues --    0.58701   0.59295   0.60365   0.60538   0.62671
 Alpha virt. eigenvalues --    0.62965   0.63333   0.63832   0.64666   0.65319
 Alpha virt. eigenvalues --    0.66014   0.66796   0.67679   0.68223   0.70437
 Alpha virt. eigenvalues --    0.70788   0.71931   0.72743   0.73854   0.74413
 Alpha virt. eigenvalues --    0.74637   0.77615   0.77804   0.79410   0.79505
 Alpha virt. eigenvalues --    0.80716   0.82710   0.84004   0.85840   0.86376
 Alpha virt. eigenvalues --    0.86675   0.87932   0.88545   0.90296   0.90929
 Alpha virt. eigenvalues --    0.91322   0.92160   0.93025   0.93480   0.93823
 Alpha virt. eigenvalues --    0.96092   0.96993   0.98059   0.98639   0.99788
 Alpha virt. eigenvalues --    1.00879   1.01842   1.02540   1.03770   1.04213
 Alpha virt. eigenvalues --    1.05473   1.06567   1.07313   1.08049   1.09575
 Alpha virt. eigenvalues --    1.09951   1.10407   1.11732   1.12761   1.14035
 Alpha virt. eigenvalues --    1.15299   1.16221   1.17049   1.18389   1.18888
 Alpha virt. eigenvalues --    1.20192   1.20600   1.22170   1.23158   1.25224
 Alpha virt. eigenvalues --    1.25431   1.26636   1.28030   1.29873   1.30482
 Alpha virt. eigenvalues --    1.31659   1.32056   1.32721   1.33364   1.33810
 Alpha virt. eigenvalues --    1.35928   1.36947   1.38033   1.39713   1.40506
 Alpha virt. eigenvalues --    1.41059   1.42130   1.42715   1.45147   1.45856
 Alpha virt. eigenvalues --    1.47435   1.48442   1.50481   1.50748   1.51871
 Alpha virt. eigenvalues --    1.53646   1.55804   1.56106   1.56455   1.57233
 Alpha virt. eigenvalues --    1.58078   1.59430   1.60120   1.60683   1.62080
 Alpha virt. eigenvalues --    1.62521   1.63545   1.64812   1.65196   1.65631
 Alpha virt. eigenvalues --    1.66047   1.67296   1.68446   1.69175   1.69997
 Alpha virt. eigenvalues --    1.71387   1.73088   1.74638   1.74764   1.76996
 Alpha virt. eigenvalues --    1.78569   1.79829   1.80413   1.81282   1.82410
 Alpha virt. eigenvalues --    1.83231   1.85573   1.85866   1.87805   1.88910
 Alpha virt. eigenvalues --    1.90073   1.93135   1.93920   1.95845   1.96475
 Alpha virt. eigenvalues --    1.98660   1.99910   2.01014   2.02638   2.03574
 Alpha virt. eigenvalues --    2.04197   2.04625   2.05704   2.06995   2.07103
 Alpha virt. eigenvalues --    2.07316   2.09594   2.09751   2.10831   2.12935
 Alpha virt. eigenvalues --    2.13418   2.13862   2.15309   2.15797   2.17078
 Alpha virt. eigenvalues --    2.17972   2.19234   2.20525   2.20873   2.21667
 Alpha virt. eigenvalues --    2.21982   2.23479   2.23691   2.24578   2.26973
 Alpha virt. eigenvalues --    2.28389   2.29679   2.30907   2.32811   2.33493
 Alpha virt. eigenvalues --    2.35249   2.35990   2.36552   2.37586   2.39576
 Alpha virt. eigenvalues --    2.40502   2.40944   2.41671   2.42092   2.43880
 Alpha virt. eigenvalues --    2.45449   2.46515   2.47317   2.47824   2.48666
 Alpha virt. eigenvalues --    2.49751   2.50917   2.51442   2.51752   2.53843
 Alpha virt. eigenvalues --    2.54355   2.55393   2.57977   2.58739   2.59822
 Alpha virt. eigenvalues --    2.60565   2.61738   2.62052   2.62702   2.62881
 Alpha virt. eigenvalues --    2.64043   2.65183   2.66643   2.67657   2.68524
 Alpha virt. eigenvalues --    2.69945   2.71660   2.73699   2.74018   2.75556
 Alpha virt. eigenvalues --    2.76032   2.78218   2.79066   2.79651   2.81425
 Alpha virt. eigenvalues --    2.81775   2.82700   2.83504   2.85124   2.86796
 Alpha virt. eigenvalues --    2.87478   2.89050   2.89187   2.90249   2.91081
 Alpha virt. eigenvalues --    2.91142   2.92119   2.92769   2.94812   2.95555
 Alpha virt. eigenvalues --    2.96313   2.97971   2.99048   2.99906   3.00913
 Alpha virt. eigenvalues --    3.01518   3.03445   3.05294   3.06184   3.07074
 Alpha virt. eigenvalues --    3.08251   3.09489   3.11265   3.11621   3.13122
 Alpha virt. eigenvalues --    3.14247   3.14970   3.15559   3.16673   3.17720
 Alpha virt. eigenvalues --    3.19494   3.19890   3.20853   3.21417   3.22843
 Alpha virt. eigenvalues --    3.23163   3.23967   3.25266   3.26939   3.27395
 Alpha virt. eigenvalues --    3.29079   3.29320   3.30347   3.30926   3.32465
 Alpha virt. eigenvalues --    3.32986   3.33691   3.34380   3.35395   3.36766
 Alpha virt. eigenvalues --    3.37562   3.37885   3.38672   3.38981   3.40613
 Alpha virt. eigenvalues --    3.40894   3.41695   3.42219   3.42709   3.44025
 Alpha virt. eigenvalues --    3.45449   3.46176   3.46938   3.47755   3.48070
 Alpha virt. eigenvalues --    3.48767   3.50688   3.51877   3.52440   3.53382
 Alpha virt. eigenvalues --    3.54091   3.55330   3.55997   3.57247   3.57599
 Alpha virt. eigenvalues --    3.59596   3.61803   3.62641   3.63687   3.64078
 Alpha virt. eigenvalues --    3.64970   3.65782   3.66514   3.67348   3.69627
 Alpha virt. eigenvalues --    3.70910   3.71422   3.72195   3.73486   3.76090
 Alpha virt. eigenvalues --    3.77994   3.79437   3.79916   3.81780   3.82536
 Alpha virt. eigenvalues --    3.84853   3.88193   3.89554   3.90787   3.92225
 Alpha virt. eigenvalues --    3.95063   3.96637   3.99293   4.00751   4.02605
 Alpha virt. eigenvalues --    4.05716   4.06810   4.09123   4.09965   4.10769
 Alpha virt. eigenvalues --    4.15703   4.16101   4.17879   4.19657   4.21951
 Alpha virt. eigenvalues --    4.23894   4.25186   4.25842   4.27601   4.28449
 Alpha virt. eigenvalues --    4.29380   4.30776   4.33209   4.33784   4.34643
 Alpha virt. eigenvalues --    4.36740   4.37408   4.37930   4.39775   4.40501
 Alpha virt. eigenvalues --    4.41302   4.44644   4.45595   4.46457   4.47246
 Alpha virt. eigenvalues --    4.48402   4.49795   4.52221   4.53577   4.54533
 Alpha virt. eigenvalues --    4.56565   4.59194   4.60947   4.62607   4.68120
 Alpha virt. eigenvalues --    4.69976   4.73996   4.74486   4.76469   4.78728
 Alpha virt. eigenvalues --    4.83698   4.85012   4.87283   4.88730   4.90383
 Alpha virt. eigenvalues --    4.94356   4.97214   4.98794   5.02424   5.05113
 Alpha virt. eigenvalues --    5.06567   5.07310   5.08718   5.10197   5.12299
 Alpha virt. eigenvalues --    5.12461   5.13614   5.16564   5.19852   5.20188
 Alpha virt. eigenvalues --    5.22396   5.23532   5.26171   5.28216   5.29531
 Alpha virt. eigenvalues --    5.33967   5.37943   5.40689   5.41455   5.43974
 Alpha virt. eigenvalues --    5.45768   5.50723   5.56472   5.60550   5.61743
 Alpha virt. eigenvalues --    5.62704   5.68090   5.77422   5.78639   5.79586
 Alpha virt. eigenvalues --    5.79853   5.80729   5.83723   5.93234   5.99065
 Alpha virt. eigenvalues --    6.09248   6.11849   6.12636   6.16433   6.25257
 Alpha virt. eigenvalues --    6.28736   6.32425   6.34047   6.40380   6.44778
 Alpha virt. eigenvalues --    6.46451   6.48935   6.54696   6.56265   6.62662
 Alpha virt. eigenvalues --    6.63655   6.75079   6.77185   6.80996   6.85367
 Alpha virt. eigenvalues --    6.86151   6.90281   6.97689   6.98645   7.04186
 Alpha virt. eigenvalues --    7.06831   7.12501   7.12928   7.16596   7.23342
 Alpha virt. eigenvalues --    7.24803   7.42108   7.46719   7.53175   7.56322
 Alpha virt. eigenvalues --   22.44446  22.47513  22.47712  22.64762  22.68923
 Alpha virt. eigenvalues --   22.77625  22.84091  22.87026  22.94684  23.58415
 Alpha virt. eigenvalues --   23.68894  32.47742  33.04488  44.01674  44.07603
 Alpha virt. eigenvalues --   44.25744  44.30335
  Beta  occ. eigenvalues --  -19.31213 -19.29770 -19.23977 -19.22803 -14.53341
  Beta  occ. eigenvalues --  -14.47037 -10.44835 -10.43330 -10.34322 -10.34154
  Beta  occ. eigenvalues --  -10.33385 -10.30180 -10.30139 -10.30081 -10.29782
  Beta  occ. eigenvalues --  -10.28451 -10.28411  -1.24055  -1.22048  -1.14595
  Beta  occ. eigenvalues --   -1.12318  -1.11769  -1.03465  -0.93086  -0.86151
  Beta  occ. eigenvalues --   -0.83938  -0.83402  -0.80189  -0.79369  -0.70446
  Beta  occ. eigenvalues --   -0.69214  -0.65904  -0.65167  -0.64515  -0.64052
  Beta  occ. eigenvalues --   -0.63185  -0.60171  -0.59506  -0.57535  -0.57240
  Beta  occ. eigenvalues --   -0.57022  -0.55325  -0.53080  -0.52282  -0.51337
  Beta  occ. eigenvalues --   -0.51037  -0.49234  -0.48140  -0.46673  -0.45859
  Beta  occ. eigenvalues --   -0.45630  -0.44957  -0.43957  -0.43044  -0.41117
  Beta  occ. eigenvalues --   -0.39827  -0.39294  -0.38928  -0.37756  -0.37299
  Beta  occ. eigenvalues --   -0.36716  -0.34993
  Beta virt. eigenvalues --   -0.03702   0.01230   0.10111   0.10844   0.11967
  Beta virt. eigenvalues --    0.12497   0.14329   0.14827   0.15870   0.16128
  Beta virt. eigenvalues --    0.16555   0.16932   0.17446   0.18254   0.18782
  Beta virt. eigenvalues --    0.19304   0.19704   0.20313   0.20447   0.20897
  Beta virt. eigenvalues --    0.21112   0.22027   0.22887   0.23627   0.24030
  Beta virt. eigenvalues --    0.25066   0.26097   0.26481   0.26773   0.27707
  Beta virt. eigenvalues --    0.29038   0.29206   0.30597   0.31201   0.31331
  Beta virt. eigenvalues --    0.32021   0.32727   0.33243   0.33959   0.34557
  Beta virt. eigenvalues --    0.35117   0.35573   0.36933   0.37583   0.38149
  Beta virt. eigenvalues --    0.38363   0.39501   0.39906   0.40060   0.41085
  Beta virt. eigenvalues --    0.42016   0.42786   0.43930   0.44845   0.45416
  Beta virt. eigenvalues --    0.46157   0.46647   0.47003   0.47321   0.48024
  Beta virt. eigenvalues --    0.48205   0.49004   0.49296   0.49542   0.49940
  Beta virt. eigenvalues --    0.50983   0.51465   0.51976   0.52075   0.52124
  Beta virt. eigenvalues --    0.52915   0.52991   0.53900   0.54260   0.54846
  Beta virt. eigenvalues --    0.55121   0.55812   0.56305   0.56625   0.57056
  Beta virt. eigenvalues --    0.57922   0.58194   0.58964   0.59567   0.60507
  Beta virt. eigenvalues --    0.60814   0.62798   0.63317   0.63453   0.64136
  Beta virt. eigenvalues --    0.64913   0.65573   0.66200   0.66992   0.68044
  Beta virt. eigenvalues --    0.68454   0.70576   0.71144   0.72235   0.72947
  Beta virt. eigenvalues --    0.74017   0.74550   0.74770   0.77802   0.78012
  Beta virt. eigenvalues --    0.79505   0.79863   0.80937   0.82952   0.84237
  Beta virt. eigenvalues --    0.85941   0.86601   0.86979   0.88090   0.89013
  Beta virt. eigenvalues --    0.90466   0.91062   0.91637   0.92337   0.93244
  Beta virt. eigenvalues --    0.93711   0.94203   0.96383   0.97149   0.98399
  Beta virt. eigenvalues --    0.98811   1.00103   1.01275   1.02006   1.02727
  Beta virt. eigenvalues --    1.04200   1.04394   1.05964   1.06852   1.07549
  Beta virt. eigenvalues --    1.08225   1.09967   1.10172   1.10685   1.11955
  Beta virt. eigenvalues --    1.12989   1.14418   1.15476   1.16439   1.17198
  Beta virt. eigenvalues --    1.19010   1.19490   1.20441   1.21425   1.22433
  Beta virt. eigenvalues --    1.23763   1.25408   1.25663   1.26827   1.28476
  Beta virt. eigenvalues --    1.30208   1.30748   1.32176   1.32375   1.32908
  Beta virt. eigenvalues --    1.33592   1.34131   1.36296   1.37205   1.38326
  Beta virt. eigenvalues --    1.40045   1.40794   1.41294   1.42427   1.43236
  Beta virt. eigenvalues --    1.45645   1.46130   1.47982   1.49024   1.50767
  Beta virt. eigenvalues --    1.51258   1.52268   1.53897   1.56006   1.56380
  Beta virt. eigenvalues --    1.56614   1.57323   1.58268   1.59631   1.60294
  Beta virt. eigenvalues --    1.61649   1.62271   1.62600   1.63891   1.65102
  Beta virt. eigenvalues --    1.65499   1.65894   1.66300   1.67461   1.68760
  Beta virt. eigenvalues --    1.69541   1.70564   1.71777   1.73553   1.74876
  Beta virt. eigenvalues --    1.75153   1.77282   1.79305   1.80253   1.80516
  Beta virt. eigenvalues --    1.81934   1.82943   1.83569   1.86023   1.86194
  Beta virt. eigenvalues --    1.88270   1.89346   1.90818   1.93720   1.94789
  Beta virt. eigenvalues --    1.96335   1.97202   1.98990   2.00078   2.01259
  Beta virt. eigenvalues --    2.02862   2.03789   2.04421   2.04858   2.06192
  Beta virt. eigenvalues --    2.07319   2.07357   2.07576   2.10003   2.10188
  Beta virt. eigenvalues --    2.11014   2.13134   2.13745   2.14175   2.15617
  Beta virt. eigenvalues --    2.16138   2.17229   2.18268   2.19696   2.20929
  Beta virt. eigenvalues --    2.21084   2.22112   2.22495   2.23701   2.24333
  Beta virt. eigenvalues --    2.25220   2.27534   2.28876   2.30558   2.31524
  Beta virt. eigenvalues --    2.33089   2.33660   2.35819   2.36271   2.36809
  Beta virt. eigenvalues --    2.37960   2.40152   2.40784   2.41490   2.41903
  Beta virt. eigenvalues --    2.42496   2.44244   2.45577   2.46926   2.47696
  Beta virt. eigenvalues --    2.48285   2.48930   2.49911   2.51216   2.51980
  Beta virt. eigenvalues --    2.52082   2.54047   2.54876   2.55796   2.58271
  Beta virt. eigenvalues --    2.59175   2.60119   2.60890   2.62130   2.62218
  Beta virt. eigenvalues --    2.62883   2.63191   2.64238   2.65399   2.67004
  Beta virt. eigenvalues --    2.68219   2.68920   2.70436   2.71971   2.74034
  Beta virt. eigenvalues --    2.74481   2.75921   2.76568   2.78787   2.79340
  Beta virt. eigenvalues --    2.80355   2.81792   2.82072   2.82997   2.83672
  Beta virt. eigenvalues --    2.85483   2.87036   2.88017   2.89284   2.89487
  Beta virt. eigenvalues --    2.90681   2.91636   2.91758   2.92543   2.93390
  Beta virt. eigenvalues --    2.95660   2.96159   2.96978   2.98962   2.99412
  Beta virt. eigenvalues --    3.00284   3.01560   3.02127   3.03928   3.05794
  Beta virt. eigenvalues --    3.06710   3.07519   3.08707   3.09783   3.11604
  Beta virt. eigenvalues --    3.11891   3.13641   3.14594   3.15250   3.15931
  Beta virt. eigenvalues --    3.17104   3.18117   3.19805   3.20215   3.21466
  Beta virt. eigenvalues --    3.22002   3.23135   3.23354   3.24368   3.25762
  Beta virt. eigenvalues --    3.27208   3.27843   3.29402   3.29717   3.31053
  Beta virt. eigenvalues --    3.31174   3.32694   3.33363   3.34490   3.34698
  Beta virt. eigenvalues --    3.35696   3.37362   3.38042   3.38435   3.39087
  Beta virt. eigenvalues --    3.39697   3.40842   3.41234   3.42147   3.42703
  Beta virt. eigenvalues --    3.43070   3.44428   3.45801   3.46533   3.47164
  Beta virt. eigenvalues --    3.48318   3.49050   3.49186   3.50986   3.52081
  Beta virt. eigenvalues --    3.53044   3.54043   3.54487   3.55496   3.56368
  Beta virt. eigenvalues --    3.57585   3.58181   3.60407   3.62171   3.62985
  Beta virt. eigenvalues --    3.63912   3.64675   3.65607   3.66375   3.66781
  Beta virt. eigenvalues --    3.67896   3.70181   3.71191   3.72140   3.72444
  Beta virt. eigenvalues --    3.73968   3.76908   3.78461   3.80212   3.80476
  Beta virt. eigenvalues --    3.82309   3.83524   3.85589   3.88674   3.90103
  Beta virt. eigenvalues --    3.91303   3.93067   3.95926   3.97207   3.99768
  Beta virt. eigenvalues --    4.01679   4.03409   4.06749   4.07397   4.09711
  Beta virt. eigenvalues --    4.10491   4.11831   4.16441   4.16969   4.18784
  Beta virt. eigenvalues --    4.20192   4.22633   4.24335   4.25616   4.26191
  Beta virt. eigenvalues --    4.27703   4.28683   4.30139   4.31350   4.33685
  Beta virt. eigenvalues --    4.34169   4.35181   4.37355   4.37856   4.38375
  Beta virt. eigenvalues --    4.40062   4.40908   4.41861   4.45190   4.46251
  Beta virt. eigenvalues --    4.46867   4.47723   4.49001   4.50252   4.52598
  Beta virt. eigenvalues --    4.53919   4.54977   4.57081   4.59722   4.61302
  Beta virt. eigenvalues --    4.63051   4.68819   4.70480   4.74720   4.75165
  Beta virt. eigenvalues --    4.77344   4.79189   4.84330   4.85591   4.87843
  Beta virt. eigenvalues --    4.90787   4.91867   4.95804   4.98249   5.00571
  Beta virt. eigenvalues --    5.03239   5.06282   5.07196   5.08855   5.10234
  Beta virt. eigenvalues --    5.11244   5.13237   5.13340   5.14560   5.17460
  Beta virt. eigenvalues --    5.21193   5.21560   5.23167   5.24239   5.26641
  Beta virt. eigenvalues --    5.29187   5.30377   5.34615   5.38538   5.41084
  Beta virt. eigenvalues --    5.42054   5.44839   5.46600   5.51229   5.56893
  Beta virt. eigenvalues --    5.60777   5.62340   5.63210   5.68608   5.78601
  Beta virt. eigenvalues --    5.79462   5.79810   5.80431   5.81200   5.84072
  Beta virt. eigenvalues --    5.93597   5.99375   6.09566   6.12145   6.13018
  Beta virt. eigenvalues --    6.16776   6.25563   6.29019   6.32811   6.34531
  Beta virt. eigenvalues --    6.40701   6.45148   6.46756   6.49273   6.54877
  Beta virt. eigenvalues --    6.56466   6.62975   6.63995   6.75258   6.77383
  Beta virt. eigenvalues --    6.81170   6.85555   6.86383   6.90523   6.97930
  Beta virt. eigenvalues --    6.99073   7.04409   7.07030   7.12797   7.13185
  Beta virt. eigenvalues --    7.17285   7.23523   7.24962   7.42314   7.46800
  Beta virt. eigenvalues --    7.53384   7.56424  22.45110  22.47717  22.48142
  Beta virt. eigenvalues --   22.64776  22.69008  22.77805  22.84501  22.87132
  Beta virt. eigenvalues --   22.94875  23.58412  23.68896  32.49215  33.05068
  Beta virt. eigenvalues --   44.01772  44.07697  44.25798  44.30390
          Condensed to atoms (all electrons):
               1          2          3          4          5          6
     1  C    4.995218   0.260949  -0.030161   0.175583   0.403875  -0.035043
     2  C    0.260949   5.193355  -0.073542  -0.039150  -0.038947   0.004979
     3  C   -0.030161  -0.073542   5.286391   0.191089   0.007627  -0.037976
     4  C    0.175583  -0.039150   0.191089   5.559608  -0.027676   0.447792
     5  H    0.403875  -0.038947   0.007627  -0.027676   0.548665  -0.003405
     6  H   -0.035043   0.004979  -0.037976   0.447792  -0.003405   0.511209
     7  C   -0.046990   0.324787   0.280037  -0.082080   0.006700   0.005111
     8  H    0.003688  -0.029689  -0.028239   0.014340  -0.000113  -0.000060
     9  H    0.004264  -0.028258  -0.037463  -0.011698  -0.000598  -0.000013
    10  C    0.003215   0.194047  -0.034828   0.035784   0.016887   0.000950
    11  H    0.003451  -0.046530   0.003057   0.014536  -0.000501   0.000015
    12  C   -0.018439  -0.013717   0.178592   0.023065  -0.009725  -0.024730
    13  H    0.003757   0.006505  -0.030834  -0.037277   0.000149  -0.004397
    14  H   -0.025735   0.421882   0.007037  -0.000242  -0.000599  -0.000062
    15  H    0.001546   0.004551   0.442782  -0.022596  -0.000179  -0.004473
    16  N   -0.003772  -0.015639   0.000983   0.011236   0.005623  -0.001596
    17  N    0.285733  -0.038183   0.000846  -0.036852  -0.029432   0.000692
    18  C    0.003675   0.002533   0.003694  -0.007935  -0.001542   0.002377
    19  C   -0.043086  -0.003177   0.000492   0.007129  -0.007486  -0.000154
    20  O    0.001448  -0.000564   0.000010   0.000034  -0.000005  -0.000006
    21  O    0.000678   0.000493   0.002526  -0.013559  -0.000061  -0.001670
    22  O    0.001879  -0.007423  -0.001046   0.003144   0.008011   0.000019
    23  O    0.002031   0.002048  -0.005504   0.003282  -0.000297   0.002372
    24  C    0.001197  -0.000041   0.000089  -0.002378   0.000062  -0.002699
    25  H   -0.000358  -0.000003  -0.000061   0.000850  -0.000003  -0.000750
    26  H   -0.000156   0.000011  -0.000023   0.000340   0.000002   0.000685
    27  H    0.001403  -0.000081   0.000779  -0.001765   0.000007  -0.002931
    28  C   -0.001814   0.000740   0.000024  -0.000013   0.000473  -0.000001
    29  H   -0.000944   0.000282   0.000010  -0.000062   0.000017   0.000000
    30  H    0.000374   0.000170  -0.000012   0.000070   0.000123   0.000000
    31  H   -0.000115  -0.000059  -0.000002   0.000001  -0.000086   0.000000
               7          8          9         10         11         12
     1  C   -0.046990   0.003688   0.004264   0.003215   0.003451  -0.018439
     2  C    0.324787  -0.029689  -0.028258   0.194047  -0.046530  -0.013717
     3  C    0.280037  -0.028239  -0.037463  -0.034828   0.003057   0.178592
     4  C   -0.082080   0.014340  -0.011698   0.035784   0.014536   0.023065
     5  H    0.006700  -0.000113  -0.000598   0.016887  -0.000501  -0.009725
     6  H    0.005111  -0.000060  -0.000013   0.000950   0.000015  -0.024730
     7  C    4.929583   0.406373   0.423877  -0.078610  -0.003951   0.031156
     8  H    0.406373   0.545959  -0.019375   0.010123   0.000784  -0.017324
     9  H    0.423877  -0.019375   0.514766   0.003498  -0.000101   0.011581
    10  C   -0.078610   0.010123   0.003498   5.576447   0.451888   0.195150
    11  H   -0.003951   0.000784  -0.000101   0.451888   0.498140  -0.063208
    12  C    0.031156  -0.017324   0.011581   0.195150  -0.063208   5.310260
    13  H    0.002695   0.000017   0.000003  -0.039427  -0.003596   0.458084
    14  H   -0.030385  -0.002520   0.000510  -0.029875  -0.002845   0.008800
    15  H   -0.027990  -0.000808  -0.002075   0.006955   0.000149  -0.039524
    16  N    0.011019   0.000515   0.001512   0.001899   0.000017  -0.007457
    17  N    0.017609  -0.000427  -0.006654   0.002927  -0.000271   0.008887
    18  C   -0.002074   0.000140   0.001838  -0.001543  -0.000007   0.000895
    19  C    0.001416  -0.000143   0.000489   0.000394  -0.000043  -0.000583
    20  O   -0.000039   0.000003   0.000036  -0.000059   0.000000   0.000030
    21  O   -0.001856  -0.000017   0.002107  -0.000185   0.000000   0.000643
    22  O    0.000713  -0.000041   0.000103   0.000140  -0.000031   0.000533
    23  O    0.000347   0.000001   0.000194  -0.000250   0.000001   0.003762
    24  C   -0.000007  -0.000001  -0.000024  -0.000019   0.000000  -0.000101
    25  H    0.000004   0.000000   0.000000   0.000002   0.000000  -0.000022
    26  H    0.000003   0.000000  -0.000003   0.000001   0.000000   0.000027
    27  H   -0.000034   0.000000  -0.000006   0.000020   0.000000  -0.000723
    28  C    0.000068   0.000003  -0.000021   0.000036   0.000006  -0.000024
    29  H   -0.000035   0.000000   0.000001   0.000076   0.000001  -0.000010
    30  H    0.000067   0.000001  -0.000005  -0.000015   0.000002   0.000004
    31  H    0.000004   0.000000   0.000001  -0.000003  -0.000001   0.000001
              13         14         15         16         17         18
     1  C    0.003757  -0.025735   0.001546  -0.003772   0.285733   0.003675
     2  C    0.006505   0.421882   0.004551  -0.015639  -0.038183   0.002533
     3  C   -0.030834   0.007037   0.442782   0.000983   0.000846   0.003694
     4  C   -0.037277  -0.000242  -0.022596   0.011236  -0.036852  -0.007935
     5  H    0.000149  -0.000599  -0.000179   0.005623  -0.029432  -0.001542
     6  H   -0.004397  -0.000062  -0.004473  -0.001596   0.000692   0.002377
     7  C    0.002695  -0.030385  -0.027990   0.011019   0.017609  -0.002074
     8  H    0.000017  -0.002520  -0.000808   0.000515  -0.000427   0.000140
     9  H    0.000003   0.000510  -0.002075   0.001512  -0.006654   0.001838
    10  C   -0.039427  -0.029875   0.006955   0.001899   0.002927  -0.001543
    11  H   -0.003596  -0.002845   0.000149   0.000017  -0.000271  -0.000007
    12  C    0.458084   0.008800  -0.039524  -0.007457   0.008887   0.000895
    13  H    0.510924  -0.000044  -0.004079  -0.000062  -0.000058   0.000023
    14  H   -0.000044   0.513106  -0.000069   0.001148  -0.001847   0.000080
    15  H   -0.004079  -0.000069   0.507171   0.000357   0.000272   0.000817
    16  N   -0.000062   0.001148   0.000357   6.972839   0.126247   0.380540
    17  N   -0.000058  -0.001847   0.000272   0.126247   6.449772  -0.015892
    18  C    0.000023   0.000080   0.000817   0.380540  -0.015892   4.262469
    19  C    0.000006  -0.000054   0.000027  -0.052587   0.358766  -0.002952
    20  O    0.000000  -0.000214   0.000001  -0.009354  -0.083581   0.002799
    21  O    0.000012  -0.000002   0.001970  -0.099407   0.006634   0.687350
    22  O    0.000002   0.010238  -0.000003   0.003011  -0.102913   0.000213
    23  O    0.000008   0.000014  -0.000411  -0.101790  -0.001787   0.347572
    24  C    0.000013   0.000000   0.000040   0.005614   0.000326  -0.045465
    25  H   -0.000001   0.000000   0.000004   0.000701  -0.000098   0.002966
    26  H   -0.000001   0.000000  -0.000018   0.000328  -0.000032  -0.012922
    27  H    0.000015   0.000000   0.000264  -0.000459  -0.000121   0.004133
    28  C    0.000000  -0.001073   0.000000  -0.000466   0.005999  -0.000064
    29  H    0.000000  -0.000196   0.000000   0.000015   0.000870  -0.000001
    30  H    0.000000  -0.000703   0.000000  -0.000078  -0.000711  -0.000018
    31  H    0.000000   0.000259   0.000000  -0.000036   0.000115   0.000010
              19         20         21         22         23         24
     1  C   -0.043086   0.001448   0.000678   0.001879   0.002031   0.001197
     2  C   -0.003177  -0.000564   0.000493  -0.007423   0.002048  -0.000041
     3  C    0.000492   0.000010   0.002526  -0.001046  -0.005504   0.000089
     4  C    0.007129   0.000034  -0.013559   0.003144   0.003282  -0.002378
     5  H   -0.007486  -0.000005  -0.000061   0.008011  -0.000297   0.000062
     6  H   -0.000154  -0.000006  -0.001670   0.000019   0.002372  -0.002699
     7  C    0.001416  -0.000039  -0.001856   0.000713   0.000347  -0.000007
     8  H   -0.000143   0.000003  -0.000017  -0.000041   0.000001  -0.000001
     9  H    0.000489   0.000036   0.002107   0.000103   0.000194  -0.000024
    10  C    0.000394  -0.000059  -0.000185   0.000140  -0.000250  -0.000019
    11  H   -0.000043   0.000000   0.000000  -0.000031   0.000001   0.000000
    12  C   -0.000583   0.000030   0.000643   0.000533   0.003762  -0.000101
    13  H    0.000006   0.000000   0.000012   0.000002   0.000008   0.000013
    14  H   -0.000054  -0.000214  -0.000002   0.010238   0.000014   0.000000
    15  H    0.000027   0.000001   0.001970  -0.000003  -0.000411   0.000040
    16  N   -0.052587  -0.009354  -0.099407   0.003011  -0.101790   0.005614
    17  N    0.358766  -0.083581   0.006634  -0.102913  -0.001787   0.000326
    18  C   -0.002952   0.002799   0.687350   0.000213   0.347572  -0.045465
    19  C    4.348119   0.665290  -0.000902   0.341567   0.002344  -0.000042
    20  O    0.665290   7.836584   0.000012  -0.079656  -0.000202   0.000004
    21  O   -0.000902   0.000012   7.864335   0.000004  -0.088269   0.001145
    22  O    0.341567  -0.079656   0.000004   7.991158  -0.000019   0.000000
    23  O    0.002344  -0.000202  -0.088269  -0.000019   8.006719   0.215254
    24  C   -0.000042   0.000004   0.001145   0.000000   0.215254   4.802518
    25  H    0.000043   0.000001   0.001916  -0.000001  -0.029473   0.399063
    26  H    0.000000   0.000000   0.004249   0.000000  -0.028601   0.421896
    27  H    0.000023   0.000000   0.004071   0.000000  -0.042237   0.414035
    28  C   -0.039233   0.005087  -0.000001   0.219011   0.000005   0.000000
    29  H    0.006766   0.001894   0.000000  -0.032431   0.000000   0.000000
    30  H   -0.007920   0.003806   0.000000  -0.033770   0.000000   0.000000
    31  H   -0.009425   0.003294   0.000000  -0.029603  -0.000001   0.000000
              25         26         27         28         29         30
     1  C   -0.000358  -0.000156   0.001403  -0.001814  -0.000944   0.000374
     2  C   -0.000003   0.000011  -0.000081   0.000740   0.000282   0.000170
     3  C   -0.000061  -0.000023   0.000779   0.000024   0.000010  -0.000012
     4  C    0.000850   0.000340  -0.001765  -0.000013  -0.000062   0.000070
     5  H   -0.000003   0.000002   0.000007   0.000473   0.000017   0.000123
     6  H   -0.000750   0.000685  -0.002931  -0.000001   0.000000   0.000000
     7  C    0.000004   0.000003  -0.000034   0.000068  -0.000035   0.000067
     8  H    0.000000   0.000000   0.000000   0.000003   0.000000   0.000001
     9  H    0.000000  -0.000003  -0.000006  -0.000021   0.000001  -0.000005
    10  C    0.000002   0.000001   0.000020   0.000036   0.000076  -0.000015
    11  H    0.000000   0.000000   0.000000   0.000006   0.000001   0.000002
    12  C   -0.000022   0.000027  -0.000723  -0.000024  -0.000010   0.000004
    13  H   -0.000001  -0.000001   0.000015   0.000000   0.000000   0.000000
    14  H    0.000000   0.000000   0.000000  -0.001073  -0.000196  -0.000703
    15  H    0.000004  -0.000018   0.000264   0.000000   0.000000   0.000000
    16  N    0.000701   0.000328  -0.000459  -0.000466   0.000015  -0.000078
    17  N   -0.000098  -0.000032  -0.000121   0.005999   0.000870  -0.000711
    18  C    0.002966  -0.012922   0.004133  -0.000064  -0.000001  -0.000018
    19  C    0.000043   0.000000   0.000023  -0.039233   0.006766  -0.007920
    20  O    0.000001   0.000000   0.000000   0.005087   0.001894   0.003806
    21  O    0.001916   0.004249   0.004071  -0.000001   0.000000   0.000000
    22  O   -0.000001   0.000000   0.000000   0.219011  -0.032431  -0.033770
    23  O   -0.029473  -0.028601  -0.042237   0.000005   0.000000   0.000000
    24  C    0.399063   0.421896   0.414035   0.000000   0.000000   0.000000
    25  H    0.522952  -0.018805  -0.025546   0.000000   0.000000   0.000000
    26  H   -0.018805   0.513769  -0.033184   0.000000   0.000000   0.000000
    27  H   -0.025546  -0.033184   0.545460   0.000000   0.000000   0.000000
    28  C    0.000000   0.000000   0.000000   4.791960   0.398693   0.420347
    29  H    0.000000   0.000000   0.000000   0.398693   0.520995  -0.022545
    30  H    0.000000   0.000000   0.000000   0.420347  -0.022545   0.524502
    31  H    0.000000   0.000000   0.000000   0.416969  -0.021286  -0.032224
              31
     1  C   -0.000115
     2  C   -0.000059
     3  C   -0.000002
     4  C    0.000001
     5  H   -0.000086
     6  H    0.000000
     7  C    0.000004
     8  H    0.000000
     9  H    0.000001
    10  C   -0.000003
    11  H   -0.000001
    12  C    0.000001
    13  H    0.000000
    14  H    0.000259
    15  H    0.000000
    16  N   -0.000036
    17  N    0.000115
    18  C    0.000010
    19  C   -0.009425
    20  O    0.003294
    21  O    0.000000
    22  O   -0.029603
    23  O   -0.000001
    24  C    0.000000
    25  H    0.000000
    26  H    0.000000
    27  H    0.000000
    28  C    0.416969
    29  H   -0.021286
    30  H   -0.032224
    31  H    0.522192
          Atomic-Atomic Spin Densities.
               1          2          3          4          5          6
     1  C    0.039671  -0.017482   0.003028   0.001634   0.005370  -0.000758
     2  C   -0.017482  -0.019808   0.006242   0.002698  -0.002661   0.000206
     3  C    0.003028   0.006242   0.115882  -0.054554   0.000514  -0.000375
     4  C    0.001634   0.002698  -0.054554   0.184163  -0.013404  -0.001022
     5  H    0.005370  -0.002661   0.000514  -0.013404   0.012824  -0.000038
     6  H   -0.000758   0.000206  -0.000375  -0.001022  -0.000038   0.001408
     7  C    0.000376   0.019776   0.011551  -0.033864   0.001664   0.000515
     8  H    0.000001  -0.000404  -0.000494   0.003220  -0.000153   0.000017
     9  H    0.000019  -0.001635   0.003241   0.001712  -0.000074   0.000020
    10  C    0.001056  -0.049256  -0.051314   0.020647   0.004360   0.000484
    11  H   -0.000293  -0.003050  -0.002720   0.007495  -0.000754   0.000030
    12  C    0.004773   0.013371   0.070761  -0.079212   0.007785  -0.001479
    13  H    0.000310   0.000102  -0.000527  -0.001918   0.000150  -0.000216
    14  H    0.000185   0.002493   0.000245  -0.000328  -0.000389   0.000005
    15  H   -0.001329  -0.000494  -0.004990   0.007296  -0.000092  -0.000353
    16  N    0.006396   0.006746  -0.004650  -0.001159  -0.000897   0.000381
    17  N   -0.005812  -0.006050   0.003755  -0.007289  -0.003030   0.000364
    18  C   -0.002609  -0.000333  -0.000905   0.003889   0.000495   0.000316
    19  C   -0.005125   0.003375  -0.000432  -0.000363  -0.002036   0.000120
    20  O   -0.000010   0.000026  -0.000004   0.000037  -0.000008  -0.000001
    21  O   -0.000389  -0.000119   0.000898   0.000378   0.000029  -0.000195
    22  O    0.000172  -0.000067   0.000004   0.000042   0.001196  -0.000008
    23  O   -0.000101   0.000049   0.000150  -0.000665  -0.000127  -0.000554
[...]
     9  H    0.141790   0.000790
    10  C   -0.314843   0.933436
    11  H    0.149018  -0.023992
    12  C   -0.036494  -0.053903
    13  H    0.137462   0.000160
    14  H    0.133371  -0.000551
    15  H    0.135299   0.000874
    16  N   -0.230986   0.613274
    17  N    0.053291   0.218016
    18  C    0.386523   0.002199
    19  C    0.435108   0.012183
    20  O   -0.346496   0.047858
    21  O   -0.371875   0.039099
    22  O   -0.292784   0.015359
    23  O   -0.287012   0.018947
    24  C   -0.211221   0.003556
    25  H    0.146617   0.001443
    26  H    0.152519   0.000511
    27  H    0.137404   0.000196
    28  C   -0.216837  -0.001138
    29  H    0.147829   0.000030
    30  H    0.148572   0.000715
    31  H    0.149767   0.000834
 Sum of Mulliken charges =   0.00000   2.00000
 Mulliken charges and spin densities with hydrogens summed into heavy atoms:
               1          2
     1  C    0.171998   0.039462
     2  C    0.051556  -0.046546
     3  C    0.008868   0.095796
     4  C   -0.058818   0.038483
     7  C    0.090833   0.044024
    10  C   -0.165825   0.909443
    12  C    0.100968  -0.053743
    16  N   -0.230986   0.613274
    17  N    0.053291   0.218016
    18  C    0.386523   0.002199
    19  C    0.435108   0.012183
    20  O   -0.346496   0.047858
    21  O   -0.371875   0.039099
    22  O   -0.292784   0.015359
    23  O   -0.287012   0.018947
    24  C    0.225319   0.005705
    28  C    0.229331   0.000442
 Electronic spatial extent (au):  <R**2>=           3692.4554
 Charge=              0.0000 electrons
 Dipole moment (field-independent basis, Debye):
    X=              1.6216    Y=              3.8468    Z=             -4.5328  Tot=              6.1622
 Quadrupole moment (field-independent basis, Debye-Ang):
   XX=            -82.8101   YY=           -100.3505   ZZ=           -101.6391
   XY=              1.9935   XZ=              5.7949   YZ=              9.9257
 Traceless Quadrupole moment (field-independent basis, Debye-Ang):
   XX=             12.1232   YY=             -5.4173   ZZ=             -6.7058
   XY=              1.9935   XZ=              5.7949   YZ=              9.9257
 Octapole moment (field-independent basis, Debye-Ang**2):
  XXX=             56.7774  YYY=              0.7916  ZZZ=             -9.6317  XYY=            -18.4785
  XXY=            -12.9672  XXZ=            -43.5906  XZZ=              3.9397  YZZ=             -2.0671
  YYZ=            -16.0830  XYZ=             -0.5591
 Hexadecapole moment (field-independent basis, Debye-Ang**3):
 XXXX=          -2053.5839 YYYY=          -1805.5341 ZZZZ=           -527.6992 XXXY=            -13.9624
 XXXZ=             33.7610 YYYX=             64.7464 YYYZ=             25.8142 ZZZX=             20.6585
 ZZZY=             31.5421 XXYY=           -672.7009 XXZZ=           -483.5074 YYZZ=           -401.6074
 XXYZ=             65.9003 YYXZ=              3.7820 ZZXY=             -0.4190
 N-N= 1.318262516674D+03 E-N=-4.594875750422D+03  KE= 8.341569016323D+02
                          Isotropic Fermi Contact Couplings
        Atom                 a.u.       MegaHertz       Gauss      10(-4) cm-1
     1  C(13)              0.02020      11.35623       4.05218       3.78803
     2  C(13)             -0.00659      -3.70316      -1.32138      -1.23524
     3  C(13)              0.04284      24.08102       8.59271       8.03256
     4  C(13)              0.02107      11.84135       4.22529       3.94985
     5  H(1)               0.00183       4.09503       1.46121       1.36595
     6  H(1)              -0.00014      -0.30231      -0.10787      -0.10084
     7  C(13)              0.03601      20.24058       7.22234       6.75153
     8  H(1)               0.00006       0.13416       0.04787       0.04475
     9  H(1)               0.00069       1.54695       0.55199       0.51601
    10  C(13)              0.10658      59.90846      21.37683      19.98331
    11  H(1)              -0.00960     -21.44923      -7.65362      -7.15469
    12  C(13)             -0.02758     -15.50120      -5.53121      -5.17064
    13  H(1)               0.00057       1.27614       0.45536       0.42567
    14  H(1)               0.00036       0.80598       0.28759       0.26885
    15  H(1)               0.00003       0.07646       0.02728       0.02550
    16  N(14)              0.13449      21.72762       7.75296       7.24756
    17  N(14)              0.02091       3.37728       1.20510       1.12654
    18  C(13)              0.00132       0.74103       0.26442       0.24718
    19  C(13)             -0.01025      -5.75980      -2.05524      -1.92126
    20  O(17)              0.00478      -1.44769      -0.51657      -0.48290
    21  O(17)              0.00739      -2.24002      -0.79929      -0.74719
    22  O(17)              0.00052      -0.15735      -0.05615      -0.05249
    23  O(17)              0.02798      -8.48064      -3.02610      -2.82884
    24  C(13)              0.00280       1.57225       0.56102       0.52445
    25  H(1)               0.00057       1.27293       0.45421       0.42460
    26  H(1)               0.00050       1.12198       0.40035       0.37425
    27  H(1)               0.00014       0.30511       0.10887       0.10177
    28  C(13)             -0.00065      -0.36717      -0.13101      -0.12247
    29  H(1)               0.00000       0.00944       0.00337       0.00315
    30  H(1)               0.00051       1.13815       0.40612       0.37965
    31  H(1)               0.00058       1.28885       0.45989       0.42991
 --------------------------------------------------------
       Center         ----  Spin Dipole Couplings  ----
                      3XX-RR        3YY-RR        3ZZ-RR
 --------------------------------------------------------
     1   Atom       -0.007700      0.035658     -0.027958
     2   Atom       -0.019654      0.029298     -0.009644
     3   Atom       -0.052489      0.077263     -0.024775
     4   Atom       -0.032532      0.062473     -0.029941
     5   Atom       -0.014485      0.012414      0.002071
     6   Atom        0.001794      0.001259     -0.003053
     7   Atom        0.011890     -0.015483      0.003593
     8   Atom       -0.009793     -0.001364      0.011157
     9   Atom       -0.010346      0.009817      0.000529
    10   Atom       -0.369915     -0.344766      0.714681
    11   Atom       -0.036010      0.049378     -0.013368
    12   Atom        0.027097     -0.008040     -0.019057
    13   Atom        0.010333     -0.004738     -0.005595
    14   Atom        0.001780      0.001956     -0.003736
    15   Atom        0.009968     -0.002517     -0.007451
    16   Atom       -0.757408      0.325218      0.432190
    17   Atom       -0.355647     -0.097630      0.453277
    18   Atom        0.055065     -0.039120     -0.015945
    19   Atom        0.015467     -0.012103     -0.003364
    20   Atom       -0.092909     -0.001057      0.093966
    21   Atom       -0.048407      0.144516     -0.096109
    22   Atom       -0.020218      0.004368      0.015850
    23   Atom       -0.031009     -0.008558      0.039567
    24   Atom        0.006358     -0.005357     -0.001001
    25   Atom        0.000584     -0.001392      0.000808
    26   Atom        0.002623     -0.000563     -0.002060
    27   Atom        0.003275     -0.001750     -0.001525
    28   Atom        0.003844     -0.001437     -0.002407
    29   Atom        0.003101     -0.001274     -0.001827
    30   Atom        0.003753     -0.001490     -0.002263
    31   Atom        0.002529     -0.000714     -0.001815
 --------------------------------------------------------
                        XY            XZ            YZ
 --------------------------------------------------------
     1   Atom        0.025358      0.008385      0.000504
     2   Atom        0.006777      0.007752      0.004605
     3   Atom        0.033949     -0.024582     -0.086080
     4   Atom        0.023388     -0.002857     -0.043838
     5   Atom       -0.000293     -0.005067     -0.002440
     6   Atom        0.003853      0.008369     -0.001351
     7   Atom        0.009978     -0.039933     -0.013634
     8   Atom        0.000529     -0.003082      0.003716
     9   Atom        0.001072     -0.001014      0.001206
    10   Atom       -0.175840     -0.445455      0.467757
    11   Atom        0.047953     -0.025850      0.008043
    12   Atom       -0.000622      0.000392     -0.008333
    13   Atom       -0.003489      0.004676     -0.002286
    14   Atom       -0.004309      0.009055     -0.005713
    15   Atom       -0.002755     -0.008334     -0.003719
    16   Atom       -0.123582     -0.109885      1.148491
    17   Atom        0.063443      0.102779      0.462881
    18   Atom       -0.026548      0.014978     -0.002719
    19   Atom       -0.000176      0.014936      0.003217
    20   Atom        0.016280      0.031579      0.137546
    21   Atom        0.109613     -0.014850     -0.006999
    22   Atom        0.022692      0.026445      0.053183
    23   Atom       -0.027971      0.050754     -0.070629
    24   Atom        0.001599      0.008987      0.000356
    25   Atom        0.001441      0.002607      0.001549
    26   Atom        0.003626      0.001527      0.000882
    27   Atom        0.000566      0.002734      0.000341
    28   Atom       -0.000875     -0.000616      0.000079
    29   Atom       -0.000789     -0.001511     -0.000102
    30   Atom       -0.000876      0.000406     -0.000503
    31   Atom       -0.002129     -0.001774      0.000363
 --------------------------------------------------------


 ---------------------------------------------------------------------------------
              Anisotropic Spin Dipole Couplings in Principal Axis System
 ---------------------------------------------------------------------------------

       Atom             a.u.   MegaHertz   Gauss  10(-4) cm-1        Axes

              Baa    -0.0324    -4.344    -1.550    -1.449 -0.4674  0.1678  0.8680
     1 C(13)  Bbb    -0.0152    -2.037    -0.727    -0.679  0.7762 -0.3921  0.4937
              Bcc     0.0476     6.381     2.277     2.128  0.4232  0.9045  0.0530
 
              Baa    -0.0242    -3.241    -1.157    -1.081  0.8892 -0.0738 -0.4516
     2 C(13)  Bbb    -0.0069    -0.920    -0.328    -0.307  0.4315 -0.1931  0.8812
              Bcc     0.0310     4.161     1.485     1.388  0.1523  0.9784  0.1399
 
              Baa    -0.0753   -10.102    -3.605    -3.370  0.3051  0.4156  0.8569
     3 C(13)  Bbb    -0.0603    -8.087    -2.886    -2.698  0.9274 -0.3341 -0.1681
              Bcc     0.1355    18.189     6.490     6.067  0.2164  0.8459 -0.4874
 
              Baa    -0.0501    -6.722    -2.398    -2.242 -0.4041  0.4036  0.8209
     4 C(13)  Bbb    -0.0343    -4.605    -1.643    -1.536  0.8944 -0.0137  0.4470
              Bcc     0.0844    11.327     4.042     3.778  0.1916  0.9148 -0.3555
 
              Baa    -0.0159    -8.507    -3.036    -2.838  0.9609  0.0336  0.2748
     5 H(1)   Bbb     0.0030     1.577     0.563     0.526 -0.2750  0.2322  0.9330
              Bcc     0.0130     6.930     2.473     2.311  0.0325  0.9721 -0.2324
 
              Baa    -0.0104    -5.527    -1.972    -1.844 -0.6034  0.2866  0.7442
     6 H(1)   Bbb     0.0015     0.818     0.292     0.273 -0.0810  0.9063 -0.4147
              Bcc     0.0088     4.709     1.680     1.571  0.7933  0.3105  0.5236
 
              Baa    -0.0332    -4.459    -1.591    -1.487  0.6151  0.2328  0.7533
     7 C(13)  Bbb    -0.0187    -2.512    -0.896    -0.838 -0.3328  0.9428 -0.0196
              Bcc     0.0520     6.972     2.488     2.326  0.7147  0.2387 -0.6574
 
              Baa    -0.0104    -5.532    -1.974    -1.845  0.9790 -0.1241  0.1616
     8 H(1)   Bbb    -0.0022    -1.157    -0.413    -0.386  0.1598  0.9598 -0.2307
              Bcc     0.0125     6.689     2.387     2.231 -0.1265  0.2517  0.9595
 
              Baa    -0.0105    -5.607    -2.001    -1.870  0.9935 -0.0582  0.0976
     9 H(1)   Bbb     0.0005     0.264     0.094     0.088 -0.1038 -0.1158  0.9878
              Bcc     0.0100     5.343     1.907     1.782  0.0462  0.9916  0.1211
 
              Baa    -0.5344   -71.712   -25.589   -23.921  0.8439  0.5263  0.1039
    10 C(13)  Bbb    -0.5184   -69.566   -24.823   -23.205 -0.4313  0.7808 -0.4520
              Bcc     1.0528   141.278    50.411    47.125 -0.3190  0.3367  0.8859
 
              Baa    -0.0702   -37.477   -13.373   -12.501  0.8287 -0.3610  0.4277
    11 H(1)   Bbb    -0.0008    -0.417    -0.149    -0.139 -0.3736  0.2123  0.9030
              Bcc     0.0710    37.894    13.522    12.640  0.4168  0.9081 -0.0411
 
              Baa    -0.0235    -3.159    -1.127    -1.054 -0.0010  0.4735  0.8808
    12 C(13)  Bbb    -0.0036    -0.480    -0.171    -0.160  0.0239  0.8805 -0.4734
              Bcc     0.0271     3.639     1.298     1.214  0.9997 -0.0206  0.0122
 
              Baa    -0.0077    -4.086    -1.458    -1.363 -0.1190  0.5200  0.8458
    13 H(1)   Bbb    -0.0049    -2.594    -0.926    -0.865  0.3308  0.8240 -0.4601
              Bcc     0.0125     6.681     2.384     2.228  0.9362 -0.2250  0.2701
 
              Baa    -0.0108    -5.784    -2.064    -1.929 -0.5282  0.1915  0.8273
    14 H(1)   Bbb    -0.0020    -1.085    -0.387    -0.362  0.5481  0.8210  0.1599
              Bcc     0.0129     6.868     2.451     2.291  0.6486 -0.5379  0.5386
 
              Baa    -0.0128    -6.810    -2.430    -2.272  0.3578  0.4021  0.8428
    15 H(1)   Bbb    -0.0006    -0.342    -0.122    -0.114 -0.0788  0.9123 -0.4019
              Bcc     0.0134     7.152     2.552     2.386  0.9305 -0.0774 -0.3580
 
              Baa    -0.7837   -30.224   -10.785   -10.082  0.6814  0.5618 -0.4691
    16 N(14)  Bbb    -0.7566   -29.181   -10.412    -9.734  0.7284 -0.4579  0.5097
              Bcc     1.5403    59.405    21.197    19.815 -0.0716  0.6890  0.7212
 
              Baa    -0.3709   -14.306    -5.105    -4.772  0.9137 -0.3922  0.1063
    17 N(14)  Bbb    -0.3590   -13.845    -4.940    -4.618  0.3910  0.7775 -0.4926
              Bcc     0.7299    28.150    10.045     9.390  0.1105  0.4916  0.8638
 
              Baa    -0.0461    -6.191    -2.209    -2.065  0.2593  0.9649 -0.0417
    18 C(13)  Bbb    -0.0187    -2.516    -0.898    -0.839 -0.1678  0.0876  0.9819
              Bcc     0.0649     8.707     3.107     2.904  0.9511 -0.2476  0.1846
 
              Baa    -0.0148    -1.985    -0.708    -0.662  0.3015  0.7394 -0.6021
    19 C(13)  Bbb    -0.0090    -1.203    -0.429    -0.401 -0.3826  0.6722  0.6339
              Bcc     0.0238     3.189     1.138     1.064  0.8733  0.0393  0.4855
 
              Baa    -0.1032     7.471     2.666     2.492  0.6343  0.5827 -0.5080
    20 O(17)  Bbb    -0.0930     6.730     2.401     2.245  0.7636 -0.5749  0.2940
              Bcc     0.1963   -14.201    -5.067    -4.737  0.1208  0.5744  0.8096
 
              Baa    -0.1080     7.812     2.788     2.606  0.6755 -0.2743  0.6844
    21 O(17)  Bbb    -0.0866     6.269     2.237     2.091 -0.6108  0.3117  0.7278
              Bcc     0.1946   -14.081    -5.025    -4.697  0.4130  0.9097 -0.0430
 
              Baa    -0.0434     3.143     1.121     1.048  0.0657  0.7280 -0.6824
    22 O(17)  Bbb    -0.0328     2.370     0.846     0.791  0.9382 -0.2780 -0.2062
              Bcc     0.0762    -5.513    -1.967    -1.839  0.3399  0.6267  0.7013
 
              Baa    -0.0634     4.587     1.637     1.530 -0.5222  0.5610  0.6423
    23 O(17)  Bbb    -0.0498     3.600     1.285     1.201  0.7677  0.6372  0.0676
              Bcc     0.1131    -8.187    -2.921    -2.731  0.3713 -0.5284  0.7635
 
              Baa    -0.0072    -0.971    -0.346    -0.324 -0.5484  0.3204  0.7724
    24 C(13)  Bbb    -0.0053    -0.709    -0.253    -0.237  0.1115  0.9434 -0.3122
              Bcc     0.0125     1.680     0.600     0.560  0.8288  0.0851  0.5531
 
              Baa    -0.0022    -1.178    -0.420    -0.393 -0.1770  0.9293 -0.3243
    25 H(1)   Bbb    -0.0019    -1.020    -0.364    -0.340  0.7438 -0.0895 -0.6623
              Bcc     0.0041     2.197     0.784     0.733  0.6445  0.3585  0.6754
 
              Baa    -0.0029    -1.574    -0.562    -0.525 -0.5715  0.7985  0.1891
    26 H(1)   Bbb    -0.0025    -1.311    -0.468    -0.437 -0.0831 -0.2856  0.9547
              Bcc     0.0054     2.884     1.029     0.962  0.8164  0.5299  0.2296
 
              Baa    -0.0028    -1.478    -0.527    -0.493 -0.4046 -0.0805  0.9110
    27 H(1)   Bbb    -0.0018    -0.967    -0.345    -0.322 -0.1270  0.9914  0.0312
              Bcc     0.0046     2.444     0.872     0.815  0.9056  0.1031  0.4113
 
              Baa    -0.0025    -0.331    -0.118    -0.110  0.0981  0.0072  0.9952
    28 C(13)  Bbb    -0.0016    -0.212    -0.076    -0.071  0.1568  0.9874 -0.0226
              Bcc     0.0040     0.543     0.194     0.181  0.9827 -0.1583 -0.0957
 
              Baa    -0.0024    -1.255    -0.448    -0.419  0.2948  0.3015  0.9068
    29 H(1)   Bbb    -0.0013    -0.685    -0.245    -0.229  0.0553  0.9420 -0.3312
              Bcc     0.0036     1.940     0.692     0.647  0.9539 -0.1478 -0.2610
 
              Baa    -0.0025    -1.340    -0.478    -0.447  0.0041  0.4447  0.8957
    30 H(1)   Bbb    -0.0014    -0.759    -0.271    -0.253  0.1834  0.8802 -0.4378
              Bcc     0.0039     2.098     0.749     0.700  0.9830 -0.1660  0.0780
 
              Baa    -0.0026    -1.375    -0.491    -0.459  0.4286  0.3257  0.8427
    31 H(1)   Bbb    -0.0015    -0.815    -0.291    -0.272  0.2487  0.8542 -0.4567
              Bcc     0.0041     2.190     0.781     0.731  0.8686 -0.4053 -0.2851
 

 ---------------------------------------------------------------------------------

 1\1\GINC-D10S4B1\FOpt\UwB97XD\def2TZVP\C11H14N2O4(3)\PMMASS\23-Feb-202
 2\0\\#n wB97XD/Def2TZVP scrf(smd,solvent=toluene) opt\\Cycloaddition p
 roduct in toluene - opt\\0,3\C,0.3412814823,0.6864140865,-0.5785659393
 \C,0.9035241341,1.8568132828,0.2843826748\C,-1.369308327,1.9833293214,
 0.5727661424\C,-1.0806211339,1.2017483183,-0.6710753729\H,0.824853543,
 0.6428480601,-1.5505101762\H,-1.8465242106,0.7158032019,-1.2506788097\
 C,-0.124130044,1.9186394531,1.4400452927\H,0.0127668248,2.8138739455,2
 .0471052543\H,-0.1043820589,1.0419634308,2.0903739088\C,0.4699504122,3
 .0184217639,-0.5598313317\H,0.9392403492,3.9897671546,-0.6056790435\C,
 -0.9566657575,2.7223502415,-0.7061085846\H,-1.659588518,3.3181894909,-
 1.2662919803\H,1.9505963924,1.7827195504,0.5537113094\H,-2.3681180359,
 2.0551780353,0.974297059\N,-0.3362045816,-1.2385156434,0.8553625417\N,
 0.5339202402,-0.6314507536,0.0716007186\C,-1.6722522131,-1.3041829471,
 0.5003193722\C,1.8412762635,-1.1620883348,0.171608938\O,2.1252380465,-
 2.1315572571,0.8104858676\O,-2.5688489654,-1.1931476374,1.2942553883\O
 ,2.6839339095,-0.4492882472,-0.5707264382\O,-1.8310618775,-1.660919100
 9,-0.7832406971\C,-3.1788448377,-1.8561315773,-1.202950181\H,-3.126765
 1117,-2.0871655458,-2.2644113039\H,-3.63715227,-2.6842236569,-0.661938
 4605\H,-3.7710902565,-0.9540250948,-1.0432180323\C,4.0365143229,-0.908
 4834402,-0.5763985243\H,4.5772748176,-0.2155756609,-1.2157781563\H,4.4
 513098765,-0.8925050737,0.431031554\H,4.0977375843,-1.9185393658,-0.98
 073299\\Version=ES64L-G09RevD.01\State=3-A\HF=-837.9211978\S2=2.009867
 \S2-1=0.\S2A=2.000061\RMSD=8.945e-09\RMSF=6.326e-06\Dipole=0.6426242,1
 .5048926,-1.7888846\Quadrupole=9.0559842,-4.0094935,-5.0464907,1.43012
 46,4.3124163,7.3454453\PG=C01 [X(C11H14N2O4)]\\@


 POCKETA-POCKETA
 BARON VON RICHTOFEN
 SLAUGHTERED THE ALLIES WITH
 HARDLY A CARE.
 KILLED EIGHTY-ONE WITH HIS
 BLOOD-COLORED TRIPLANE, THEN
 UN-AEROBATICALLY
 PLUNGED FROM THE AIR.
   -- TONY HOFFMAN
 Job cpu time:       0 days 14 hours 49 minutes 35.9 seconds.
 File lengths (MBytes):  RWF=    484 Int=      0 D2E=      0 Chk=     35 Scr=      1
 Normal termination of Gaussian 09 at Wed Feb 23 18:35:29 2022.
