 Entering Gaussian System, Link 0=g09
 Input=prod_cyclo_freq.com
 Output=prod_cyclo_freq.log
 Initial command:
 /apps/applications/gaussian/G09.D01/2/default/g09/l1.exe "/nobackup/pmmass/Temp/Gau-129887.inp" -scrdir="/nobackup/pmmass/Temp/"
 Entering Link 1 = /apps/applications/gaussian/G09.D01/2/default/g09/l1.exe PID=    129895.
  
 Copyright (c) 1988,1990,1992,1993,1995,1998,2003,2009,2013,
            Gaussian, Inc.  All Rights Reserved.
  
 This is part of the Gaussian(R) 09 program.  It is based on
 the Gaussian(R) 03 system (copyright 2003, Gaussian, Inc.),
 the Gaussian(R) 98 system (copyright 1998, Gaussian, Inc.),
 the Gaussian(R) 94 system (copyright 1995, Gaussian, Inc.),
 the Gaussian 92(TM) system (copyright 1992, Gaussian, Inc.),
 the Gaussian 90(TM) system (copyright 1990, Gaussian, Inc.),
 the Gaussian 88(TM) system (copyright 1988, Gaussian, Inc.),
 the Gaussian 86(TM) system (copyright 1986, Carnegie Mellon
 University), and the Gaussian 82(TM) system (copyright 1983,
 Carnegie Mellon University). Gaussian is a federally registered
 trademark of Gaussian, Inc.
  
 This software contains proprietary and confidential information,
 including trade secrets, belonging to Gaussian, Inc.
  
 This software is provided under written license and may be
 used, copied, transmitted, or stored only in accord with that
 written license.
  
 The following legend is applicable only to US Government
 contracts under FAR:
  
                    RESTRICTED RIGHTS LEGEND
  
 Use, reproduction and disclosure by the US Government is
 subject to restrictions as set forth in subparagraphs (a)
 and (c) of the Commercial Computer Software - Restricted
 Rights clause in FAR 52.227-19.
  
 Gaussian, Inc.
 340 Quinnipiac St., Bldg. 40, Wallingford CT 06492
  
  
 ---------------------------------------------------------------
 Warning -- This program may not be used in any manner that
 competes with the business of Gaussian, Inc. or will provide
 assistance to any competitor of Gaussian, Inc.  The licensee
 of this program is prohibited from giving any competitor of
 Gaussian, Inc. access to this program.  By using this program,
 the user acknowledges that Gaussian, Inc. is engaged in the
 business of creating and licensing software in the field of
 computational chemistry and represents and warrants to the
 licensee that it is not a competitor of Gaussian, Inc. and that
 it will not use this program in any manner prohibited above.
 ---------------------------------------------------------------
  

 Cite this work as:
 Gaussian 09, Revision D.01,
 M. J. Frisch, G. W. Trucks, H. B. Schlegel, G. E. Scuseria, 
 M. A. Robb, J. R. Cheeseman, G. Scalmani, V. Barone, B. Mennucci, 
 G. A. Petersson, H. Nakatsuji, M. Caricato, X. Li, H. P. Hratchian, 
 A. F. Izmaylov, J. Bloino, G. Zheng, J. L. Sonnenberg, M. Hada, 
 M. Ehara, K. Toyota, R. Fukuda, J. Hasegawa, M. Ishida, T. Nakajima, 
 Y. Honda, O. Kitao, H. Nakai, T. Vreven, J. A. Montgomery, Jr., 
 J. E. Peralta, F. Ogliaro, M. Bearpark, J. J. Heyd, E. Brothers, 
 K. N. Kudin, V. N. Staroverov, T. Keith, R. Kobayashi, J. Normand, 
 K. Raghavachari, A. Rendell, J. C. Burant, S. S. Iyengar, J. Tomasi, 
 M. Cossi, N. Rega, J. M. Millam, M. Klene, J. E. Knox, J. B. Cross, 
 V. Bakken, C. Adamo, J. Jaramillo, R. Gomperts, R. E. Stratmann, 
 O. Yazyev, A. J. Austin, R. Cammi, C. Pomelli, J. W. Ochterski, 
 R. L. Martin, K. Morokuma, V. G. Zakrzewski, G. A. Voth, 
 P. Salvador, J. J. Dannenberg, S. Dapprich, A. D. Daniels, 
 O. Farkas, J. B. Foresman, J. V. Ortiz, J. Cioslowski, 
 and D. J. Fox, Gaussian, Inc., Wallingford CT, 2013.
 
 ******************************************
 Gaussian 09:  ES64L-G09RevD.01 24-Apr-2013
                24-Feb-2022 
 ******************************************
 %nprocshared=8
 Will use up to    8 processors via shared memory.
 %mem=4GB
 %NoSave
 %chk="prod_cyclo_freq.chk"
 -------------------------------------------------
 #n wB97XD/Def2TZVP scrf(smd,solvent=toluene) freq
 -------------------------------------------------
 1/10=4,30=1,38=1/1,3;
 2/12=2,17=6,18=5,40=1/2;
 3/5=44,7=101,11=2,16=1,25=1,30=1,70=32201,71=2,72=13,74=-58,140=1/1,2,3;
 4//1;
 5/5=2,38=5,53=13,98=1/2;
 8/6=4,10=90,11=11/1;
 11/6=1,8=1,9=11,15=111,16=1/1,2,10;
 10/6=1/2;
 6/7=2,8=2,9=2,10=2,18=1,28=1/1;
 7/8=1,10=1,25=1/1,2,3,16;
 1/10=4,30=1/3;
 99//99;
 ----------------------------------
 clasisen product in toluene - freq
 ----------------------------------
 Symbolic Z-matrix:
 Charge =  0 Multiplicity = 3
 C                     0.33641   0.69017  -0.57429 
 C                     0.88875   1.86196   0.29313 
 C                    -1.38564   1.97325   0.57546 
 C                    -1.08849   1.19664  -0.66951 
 H                     0.82296   0.65212  -1.54498 
 H                    -1.84965   0.70727  -1.25247 
 C                    -0.14249   1.91433   1.44606 
 H                    -0.01302   2.8089    2.05573 
 H                    -0.11896   1.03618   2.09426 
 C                     0.45012   3.02289  -0.5494 
 H                     0.91332   3.99733  -0.59152 
 C                    -0.97416   2.71809  -0.70042 
 H                    -1.67931   3.31083  -1.26109 
 H                     1.93552   1.79388   0.56522 
 H                    -2.386     2.03771   0.97436 
 N                    -0.33276  -1.24263   0.85294 
 N                     0.53565  -0.62807   0.07313 
 C                    -1.66736  -1.31594   0.49398 
 C                     1.84609  -1.1506    0.17549 
 O                     2.13446  -2.11983   0.81275 
 O                    -2.56686  -1.21262   1.28567 
 O                     2.68624  -0.43058  -0.56271 
 O                    -1.82031  -1.67047  -0.7909 
 C                    -3.16564  -1.87323  -1.21487 
 H                    -3.10913  -2.10127  -2.27676 
 H                    -3.62015  -2.70558  -0.67721 
 H                    -3.76408  -0.97532  -1.05456 
 C                     4.04174  -0.88111  -0.56573 
 H                     4.57984  -0.18317  -1.20186 
 H                     4.45361  -0.86501   0.4429 
 H                     4.11054  -1.88974  -0.9724 
 

 GradGradGradGradGradGradGradGradGradGradGradGradGradGradGradGradGradGrad
 Berny optimization.
 Initialization pass.
 Trust Radius=3.00D-01 FncErr=1.00D-07 GrdErr=1.00D-07
 Number of steps in this run=      2 maximum allowed number of steps=      2.
 GradGradGradGradGradGradGradGradGradGradGradGradGradGradGradGradGradGrad

                          Input orientation:                          
 ---------------------------------------------------------------------
 Center     Atomic      Atomic             Coordinates (Angstroms)
 Number     Number       Type             X           Y           Z
 ---------------------------------------------------------------------
      1          6           0        0.336410    0.690170   -0.574290
      2          6           0        0.888750    1.861960    0.293130
      3          6           0       -1.385640    1.973250    0.575460
      4          6           0       -1.088490    1.196640   -0.669510
      5          1           0        0.822960    0.652120   -1.544980
      6          1           0       -1.849650    0.707270   -1.252470
      7          6           0       -0.142490    1.914330    1.446060
      8          1           0       -0.013020    2.808900    2.055730
      9          1           0       -0.118960    1.036180    2.094260
     10          6           0        0.450120    3.022890   -0.549400
     11          1           0        0.913320    3.997330   -0.591520
     12          6           0       -0.974160    2.718090   -0.700420
     13          1           0       -1.679310    3.310830   -1.261090
     14          1           0        1.935520    1.793880    0.565220
     15          1           0       -2.386000    2.037710    0.974360
     16          7           0       -0.332760   -1.242630    0.852940
     17          7           0        0.535650   -0.628070    0.073130
     18          6           0       -1.667360   -1.315940    0.493980
     19          6           0        1.846090   -1.150600    0.175490
     20          8           0        2.134460   -2.119830    0.812750
     21          8           0       -2.566860   -1.212620    1.285670
     22          8           0        2.686240   -0.430580   -0.562710
     23          8           0       -1.820310   -1.670470   -0.790900
     24          6           0       -3.165640   -1.873230   -1.214870
     25          1           0       -3.109130   -2.101270   -2.276760
     26          1           0       -3.620150   -2.705580   -0.677210
     27          1           0       -3.764080   -0.975320   -1.054560
     28          6           0        4.041740   -0.881110   -0.565730
     29          1           0        4.579840   -0.183170   -1.201860
     30          1           0        4.453610   -0.865010    0.442900
     31          1           0        4.110540   -1.889740   -0.972400
 ---------------------------------------------------------------------
                    Distance matrix (angstroms):
                    1          2          3          4          5
     1  C    0.000000
     2  C    1.559035   0.000000
     3  C    2.435914   2.294547   0.000000
     4  C    1.515229   2.297565   1.497121   0.000000
     5  H    1.086470   2.201520   3.334601   2.171771   0.000000
     6  H    2.288903   3.349780   2.271418   1.076425   2.689135
     7  C    2.410338   1.547723   1.518828   2.426032   3.386973
     8  H    3.395309   2.194685   2.184856   3.344092   4.279682
     9  H    2.729147   2.222940   2.188454   2.933285   3.778728
    10  C    2.335622   1.500004   2.395218   2.391012   2.598219
    11  H    3.357146   2.311496   3.277798   3.443427   3.479609
    12  C    2.417842   2.278274   1.533614   1.526053   2.865511
    13  H    3.376785   3.333130   2.290912   2.273507   3.662061
    14  H    2.252512   1.083695   3.326016   3.320526   2.644683
    15  H    3.409648   3.349470   1.078887   2.256821   4.308638
    16  N    2.494091   3.382891   3.395208   2.973049   3.267382
    17  N    1.482095   2.524545   3.272699   2.553216   2.083198
    18  C    3.029979   4.083269   3.302238   2.828756   3.772574
    19  C    2.495944   3.163204   4.512482   3.851665   2.693810
    20  O    3.612889   4.204337   5.403769   4.856282   3.868156
    21  O    3.938152   4.730689   3.471231   3.436981   4.793820
    22  O    2.603443   3.036309   4.863542   4.111914   2.368313
    23  O    3.204837   4.581723   3.915683   2.961523   3.598602
    24  C    4.386994   5.715224   4.600988   3.746475   4.732367
    25  H    4.749978   6.188261   5.263771   4.188371   4.855717
    26  H    5.214986   6.491083   5.334198   4.651525   5.636346
    27  H    4.451801   5.613845   4.124077   3.467630   4.891831
    28  C    4.024732   4.266547   6.237479   5.535980   3.697333
    29  H    4.377587   4.476795   6.587561   5.858092   3.863883
    30  H    4.517145   4.490771   6.493853   6.016870   4.408511
    31  H    4.588952   5.104581   6.893951   6.053709   4.194888
                    6          7          8          9         10
     6  H    0.000000
     7  C    3.413715   0.000000
     8  H    4.328307   1.090282   0.000000
     9  H    3.782072   1.091725   1.776301   0.000000
    10  C    3.338465   2.358379   2.654617   3.355564   0.000000
    11  H    4.346879   3.099251   3.046047   4.128853   1.079751
    12  C    2.261557   2.438254   2.920342   3.372006   1.464337
    13  H    2.609141   3.411845   3.745631   4.343627   2.263600
    14  H    4.337307   2.260202   2.654938   2.670760   2.226939
    15  H    2.648870   2.295879   2.719399   2.719689   3.366898
    16  N    3.245892   3.217824   4.238376   2.603759   4.557863
    17  N    3.038092   2.967930   4.005559   2.698742   3.704641
    18  C    2.678936   3.696800   4.710648   3.238967   4.939414
    19  C    4.375985   3.868151   4.761222   3.510713   4.460069
    20  O    5.303844   4.675471   5.518066   4.084185   5.580325
    21  O    3.262288   3.959938   4.825735   3.420984   5.514453
    22  O    4.727025   4.187538   4.963513   4.132798   4.114227
    23  O    2.422304   4.546412   5.606635   4.306355   5.219272
    24  C    2.896933   5.528616   6.523663   5.356983   6.122790
    25  H    3.243972   6.227791   7.243351   6.155528   6.473720
    26  H    3.887562   6.160029   7.133711   5.825817   7.028428
    27  H    2.556427   5.264892   6.169658   5.219971   5.830982
    28  C    6.140280   5.419369   6.076949   5.297450   5.304830
    29  H    6.491054   5.806151   6.376421   5.867703   5.268692
    30  H    6.713973   5.463991   6.004133   5.220145   5.668188
    31  H    6.507439   6.197432   6.946261   5.987828   6.140972
                   11         12         13         14         15
    11  H    0.000000
    12  C    2.282738   0.000000
    13  H    2.764297   1.078391   0.000000
    14  H    2.690378   3.304882   4.324759   0.000000
    15  H    4.144587   2.293708   2.667861   4.347687   0.000000
    16  N    5.576411   4.302514   5.197722   3.801088   3.871843
    17  N    4.688147   3.751625   4.711807   2.840357   4.056432
    18  C    6.005752   4.263862   4.948476   4.759916   3.463261
    19  C    5.287679   4.867010   5.864858   2.971506   5.358554
    20  O    6.393966   5.946316   6.952533   3.926573   6.143762
    21  O    6.540571   4.683132   5.266434   5.461640   3.270209
    22  O    4.769744   4.830281   5.791710   2.604617   5.846594
    23  O    6.295748   4.470304   5.005428   5.286496   4.145690
    24  C    7.175650   5.113459   5.393124   6.529797   4.549288
    25  H    7.497537   5.501743   5.689182   6.978362   5.312613
    26  H    8.092509   6.034733   6.348619   7.256324   5.172002
    27  H    6.842494   4.642235   4.770744   6.540458   3.885096
    28  C    5.795417   6.175082   7.126451   3.587587   7.225457
    29  H    5.593967   6.286149   7.168577   3.744827   7.628314
    30  H    6.102952   6.603520   7.612748   3.664074   7.449060
    31  H    6.710058   6.867332   7.787916   4.545772   7.837077
                   16         17         18         19         20
    16  N    0.000000
    17  N    1.319062   0.000000
    18  C    1.383974   2.345961   0.000000
    19  C    2.283593   1.414485   3.531728   0.000000
    20  O    2.618830   2.308372   3.898934   1.195267   0.000000
    21  O    2.275820   3.381940   1.202725   4.550876   4.811350
    22  O    3.431887   2.251296   4.566650   1.330120   2.247202
    23  O    2.257889   2.717295   1.341641   3.827096   4.291133
    24  C    3.563524   4.112045   2.339996   5.250974   5.680063
    25  H    4.270892   4.580035   3.220628   5.609947   6.086103
    26  H    3.910053   4.706350   2.667616   5.746724   5.973158
    27  H    3.934967   4.458693   2.628732   5.746108   6.292021
    28  C    4.612979   3.572791   5.822876   2.333005   2.659389
    29  H    5.429392   4.263685   6.571647   3.210359   3.713380
    30  H    4.818721   3.942497   6.137770   2.636708   2.662671
    31  H    4.847013   3.932529   5.988626   2.644185   2.672937
                   21         22         23         24         25
    21  O    0.000000
    22  O    5.623447   0.000000
    23  O    2.253687   4.679572   0.000000
    24  C    2.654740   6.062265   1.425053   0.000000
    25  H    3.711423   6.270206   2.013560   1.087569   0.000000
    26  H    2.681650   6.705169   2.079375   1.090167   1.784627
    27  H    2.639379   6.491940   2.081104   1.090904   1.786196
    28  C    6.871039   1.428414   5.919242   7.304246   7.453278
    29  H    7.636943   2.013814   6.583530   7.927732   7.997173
    30  H    7.079413   2.079321   6.444618   7.862422   8.131416
    31  H    7.081316   2.079814   5.937677   7.280238   7.339600
                   26         27         28         29         30
    26  H    0.000000
    27  H    1.776769   0.000000
    28  C    7.876908   7.821679   0.000000
    29  H    8.595211   8.382732   1.086892   0.000000
    30  H    8.356312   8.353741   1.089601   1.784958   0.000000
    31  H    7.779222   7.927960   1.089701   1.784734   1.780686
                   31
    31  H    0.000000
 Stoichiometry    C11H14N2O4(3)
 Framework group  C1[X(C11H14N2O4)]
 Deg. of freedom    87
 Full point group                 C1      NOp   1
 Largest Abelian subgroup         C1      NOp   1
 Largest concise Abelian subgroup C1      NOp   1
                         Standard orientation:                         
 ---------------------------------------------------------------------
 Center     Atomic      Atomic             Coordinates (Angstroms)
 Number     Number       Type             X           Y           Z
 ---------------------------------------------------------------------
      1          6           0        0.336410    0.690171   -0.574290
      2          6           0        0.888749    1.861961    0.293130
      3          6           0       -1.385641    1.973250    0.575460
      4          6           0       -1.088490    1.196640   -0.669510
      5          1           0        0.822960    0.652121   -1.544980
      6          1           0       -1.849650    0.707270   -1.252470
      7          6           0       -0.142491    1.914330    1.446060
      8          1           0       -0.013021    2.808901    2.055730
      9          1           0       -0.118960    1.036180    2.094260
     10          6           0        0.450119    3.022891   -0.549400
     11          1           0        0.913318    3.997331   -0.591520
     12          6           0       -0.974161    2.718090   -0.700420
     13          1           0       -1.679311    3.310830   -1.261090
     14          1           0        1.935519    1.793882    0.565220
     15          1           0       -2.386001    2.037709    0.974360
     16          7           0       -0.332759   -1.242630    0.852940
     17          7           0        0.535651   -0.628069    0.073130
     18          6           0       -1.667359   -1.315940    0.493980
     19          6           0        1.846091   -1.150598    0.175490
     20          8           0        2.134462   -2.119828    0.812750
     21          8           0       -2.566859   -1.212621    1.285670
     22          8           0        2.686241   -0.430578   -0.562710
     23          8           0       -1.820309   -1.670470   -0.790900
     24          6           0       -3.165638   -1.873231   -1.214870
     25          1           0       -3.109128   -2.101271   -2.276760
     26          1           0       -3.620148   -2.705582   -0.677210
     27          1           0       -3.764079   -0.975322   -1.054560
     28          6           0        4.041741   -0.881107   -0.565730
     29          1           0        4.579841   -0.183167   -1.201860
     30          1           0        4.453611   -0.865007    0.442900
     31          1           0        4.110542   -1.889737   -0.972400
 ---------------------------------------------------------------------
 Rotational constants (GHZ):      0.6056288      0.4684642      0.3176042
 Standard basis: def2TZVP (5D, 7F)
 There are   696 symmetry adapted cartesian basis functions of A   symmetry.
 There are   611 symmetry adapted basis functions of A   symmetry.
   611 basis functions,   979 primitive gaussians,   696 cartesian basis functions
    64 alpha electrons       62 beta electrons
       nuclear repulsion energy      1318.2939328848 Hartrees.
 NAtoms=   31 NActive=   31 NUniq=   31 SFac= 1.00D+00 NAtFMM=   60 NAOKFM=F Big=F
 Integral buffers will be    131072 words long.
 Raffenetti 2 integral format.
 Two-electron integral symmetry is turned on.
 Nuclear repulsion after empirical dispersion term =     1318.2701378360 Hartrees.
 Force inversion solution in PCM.
 ------------------------------------------------------------------------------
 Polarizable Continuum Model (PCM)
 =================================
 Model                : PCM (using non-symmetric T matrix).
 Atomic radii         : SMD-Coulomb.
 Polarization charges : Total charges.
 Charge compensation  : None.
 Solution method      : Matrix inversion.
 Cavity type          : VdW (van der Waals Surface) (Alpha=1.000).
 Cavity algorithm     : GePol (No added spheres)
                        Default sphere list used, NSphG=   31.
                        Lebedev-Laikov grids with approx.  5.0 points / Ang**2.
                        Smoothing algorithm: Karplus/York (Gamma=1.0000).
                        Polarization charges: spherical gaussians, with
                                              point-specific exponents (IZeta= 3).
                        Self-potential: point-specific (ISelfS= 7).
                        Self-field    : sphere-specific E.n sum rule (ISelfD= 2).
 1st derivatives      : Analytical E(r).r(x)/FMM algorithm (CHGder, D1EAlg=3).
                        Cavity 1st derivative terms included.
 2nd derivatives      : Analytical E(r).r(xy)/FMM algorithm (CHGder, D2EAlg=3).
                        Cavity 2nd derivative terms included.
 Solvent              : Toluene, Eps=   2.374100 Eps(inf)=   2.238315
 ------------------------------------------------------------------------------
 ------------------------------------------------------------------------------
 Atomic radii for non-electrostatic terms: SMD-CDS.
 ------------------------------------------------------------------------------
 Nuclear repulsion after PCM non-electrostatic terms =     1318.2627855087 Hartrees.
 One-electron integrals computed using PRISM.
   1 Symmetry operations used in ECPInt.
 ECPInt:  NShTT=   29646 NPrTT=   90516 LenC2=   27417 LenP2D=   61483.
 LDataN:  DoStor=T MaxTD1= 6 Len=  172
 NBasis=   611 RedAO= T EigKep=  2.30D-05  NBF=   611
 NBsUse=   611 1.00D-06 EigRej= -1.00D+00 NBFU=   611
 ExpMin= 9.52D-02 ExpMax= 2.70D+04 ExpMxC= 9.22D+02 IAcc=2 IRadAn=         4 AccDes= 0.00D+00
 Harris functional with IExCor= 4639 and IRadAn=       4 diagonalized for initial guess.
 HarFok:  IExCor= 4639 AccDes= 0.00D+00 IRadAn=         4 IDoV= 1 UseB2=F ITyADJ=14
 ICtDFT=  3500011 ScaDFX=  1.000000  1.000000  1.000000  1.000000
 FoFCou: FMM=F IPFlag=           0 FMFlag=      100000 FMFlg1=           0
         NFxFlg=           0 DoJE=T BraDBF=F KetDBF=T FulRan=T
         wScrn=  0.000000 ICntrl=     500 IOpCl=  0 I1Cent=   200000004 NGrid=           0
         NMat0=    1 NMatS0=      1 NMatT0=    0 NMatD0=    1 NMtDS0=    0 NMtDT0=    0
 Petite list used in FoFCou.
 Initial guess <Sx>= 0.0000 <Sy>= 0.0000 <Sz>= 1.0000 <S**2>= 2.0000 S= 1.0000
 Requested convergence on RMS density matrix=1.00D-08 within 128 cycles.
 Requested convergence on MAX density matrix=1.00D-06.
 Requested convergence on             energy=1.00D-06.
 No special actions if energy rises.
 Inv3:  Mode=1 IEnd=    15377088.
 Iteration    1 A*A^-1 deviation from unit magnitude is 6.22D-15 for    543.
 Iteration    1 A*A^-1 deviation from orthogonality  is 2.29D-15 for   2162    381.
 Iteration    1 A^-1*A deviation from unit magnitude is 6.11D-15 for    266.
 Iteration    1 A^-1*A deviation from orthogonality  is 2.52D-14 for   1163   1094.
 Error on total polarization charges =  0.02007
 SCF Done:  E(UwB97XD) =  -837.921197796     A.U. after   18 cycles
            NFock= 18  Conv=0.90D-08     -V/T= 2.0045
 <Sx>= 0.0000 <Sy>= 0.0000 <Sz>= 1.0000 <S**2>= 2.0099 S= 1.0033
 <L.S>= 0.000000000000E+00
 SMD-CDS (non-electrostatic) energy       (kcal/mol) =      -4.61
 (included in total energy above)
 Annihilation of the first spin contaminant:
 S**2 before annihilation     2.0099,   after     2.0001
 DoSCS=F DFT=T ScalE2(SS,OS)=  1.000000  1.000000
 Range of M.O.s used for correlation:     1   611
 NBasis=   611 NAE=    64 NBE=    62 NFC=     0 NFV=     0
 NROrb=    611 NOA=    64 NOB=    62 NVA=   547 NVB=   549

 **** Warning!!: The largest alpha MO coefficient is  0.29399759D+02


 **** Warning!!: The largest beta MO coefficient is  0.30469220D+02

   1 Symmetry operations used in ECPInt.
 ECPInt:  NShTT=   29646 NPrTT=   90516 LenC2=   27417 LenP2D=   61483.
 LDataN:  DoStor=T MaxTD1= 7 Len=  274
 Number of processors reduced to   4 by ecpmxn.
 Symmetrizing basis deriv contribution to polar:
 IMax=3 JMax=2 DiffMx= 0.00D+00
 G2DrvN: will do    32 centers at a time, making    1 passes.
 Calling FoFCou, ICntrl=  3107 FMM=F I1Cent=   0 AccDes= 0.00D+00.
 NEqPCM:  Using equilibrium solvation (IEInf=0, Eps=   2.3741, EpsInf=   2.2383)
 G2PCM: DoFxE=T DoFxN=T DoGrad=T DoDP/DQ/DG/TGxP=FFFF NFrqRd=   0 IEInf=0 SqF1=F DoCFld=F IF1Alg=4.
 End of G2Drv F.D. properties file   721 does not exist.
 End of G2Drv F.D. properties file   722 does not exist.
 End of G2Drv F.D. properties file   788 does not exist.
          IDoAtm=1111111111111111111111111111111
 NEqPCM:  Using equilibrium solvation (IEInf=0, Eps=   2.3741, EpsInf=   2.2383)
          Differentiating once with respect to electric field.
                with respect to dipole field.
          Differentiating once with respect to nuclear coordinates.
          There are    96 degrees of freedom in the 1st order CPHF.  IDoFFX=6 NUNeed=     3.
     93 vectors produced by pass  0 Test12= 7.19D-14 1.04D-09 XBig12= 1.28D+02 2.52D+00.
 AX will form    93 AO Fock derivatives at one time.
     93 vectors produced by pass  1 Test12= 7.19D-14 1.04D-09 XBig12= 1.37D+01 5.21D-01.
     93 vectors produced by pass  2 Test12= 7.19D-14 1.04D-09 XBig12= 9.03D-01 2.74D-01.
     93 vectors produced by pass  3 Test12= 7.19D-14 1.04D-09 XBig12= 2.59D-02 2.20D-02.
     93 vectors produced by pass  4 Test12= 7.19D-14 1.04D-09 XBig12= 4.79D-04 2.28D-03.
     93 vectors produced by pass  5 Test12= 7.19D-14 1.04D-09 XBig12= 7.80D-06 2.94D-04.
     93 vectors produced by pass  6 Test12= 7.19D-14 1.04D-09 XBig12= 8.68D-08 2.18D-05.
     72 vectors produced by pass  7 Test12= 7.19D-14 1.04D-09 XBig12= 9.76D-10 2.27D-06.
     25 vectors produced by pass  8 Test12= 7.19D-14 1.04D-09 XBig12= 9.92D-12 1.69D-07.
      3 vectors produced by pass  9 Test12= 7.19D-14 1.04D-09 XBig12= 1.07D-13 2.18D-08.
      2 vectors produced by pass 10 Test12= 7.19D-14 1.04D-09 XBig12= 2.06D-15 2.00D-09.
 InvSVY:  IOpt=1 It=  1 EMax= 9.24D-15
 Solved reduced A of dimension   753 with    96 vectors.
 Isotropic polarizability for W=    0.000000      167.80 Bohr**3.
 End of Minotr F.D. properties file   721 does not exist.
 End of Minotr F.D. properties file   722 does not exist.
 End of Minotr F.D. properties file   788 does not exist.

 **********************************************************************

            Population analysis using the SCF density.

 **********************************************************************

 Orbital symmetries:
 Alpha Orbitals:
       Occupied  (A) (A) (A) (A) (A) (A) (A) (A) (A) (A) (A) (A)
                 (A) (A) (A) (A) (A) (A) (A) (A) (A) (A) (A) (A)
                 (A) (A) (A) (A) (A) (A) (A) (A) (A) (A) (A) (A)
                 (A) (A) (A) (A) (A) (A) (A) (A) (A) (A) (A) (A)
                 (A) (A) (A) (A) (A) (A) (A) (A) (A) (A) (A) (A)
                 (A) (A) (A) (A)
       Virtual   (A) (A) (A) (A) (A) (A) (A) (A) (A) (A) (A) (A)
                 (A) (A) (A) (A) (A) (A) (A) (A) (A) (A) (A) (A)
                 (A) (A) (A) (A) (A) (A) (A) (A) (A) (A) (A) (A)
                 (A) (A) (A) (A) (A) (A) (A) (A) (A) (A) (A) (A)
                 (A) (A) (A) (A) (A) (A) (A) (A) (A) (A) (A) (A)
                 (A) (A) (A) (A) (A) (A) (A) (A) (A) (A) (A) (A)
                 (A) (A) (A) (A) (A) (A) (A) (A) (A) (A) (A) (A)
                 (A) (A) (A) (A) (A) (A) (A) (A) (A) (A) (A) (A)
                 (A) (A) (A) (A) (A) (A) (A) (A) (A) (A) (A) (A)
                 (A) (A) (A) (A) (A) (A) (A) (A) (A) (A) (A) (A)
                 (A) (A) (A) (A) (A) (A) (A) (A) (A) (A) (A) (A)
                 (A) (A) (A) (A) (A) (A) (A) (A) (A) (A) (A) (A)
                 (A) (A) (A) (A) (A) (A) (A) (A) (A) (A) (A) (A)
                 (A) (A) (A) (A) (A) (A) (A) (A) (A) (A) (A) (A)
                 (A) (A) (A) (A) (A) (A) (A) (A) (A) (A) (A) (A)
                 (A) (A) (A) (A) (A) (A) (A) (A) (A) (A) (A) (A)
                 (A) (A) (A) (A) (A) (A) (A) (A) (A) (A) (A) (A)
                 (A) (A) (A) (A) (A) (A) (A) (A) (A) (A) (A) (A)
                 (A) (A) (A) (A) (A) (A) (A) (A) (A) (A) (A) (A)
                 (A) (A) (A) (A) (A) (A) (A) (A) (A) (A) (A) (A)
                 (A) (A) (A) (A) (A) (A) (A) (A) (A) (A) (A) (A)
                 (A) (A) (A) (A) (A) (A) (A) (A) (A) (A) (A) (A)
                 (A) (A) (A) (A) (A) (A) (A) (A) (A) (A) (A) (A)
                 (A) (A) (A) (A) (A) (A) (A) (A) (A) (A) (A) (A)
                 (A) (A) (A) (A) (A) (A) (A) (A) (A) (A) (A) (A)
                 (A) (A) (A) (A) (A) (A) (A) (A) (A) (A) (A) (A)
                 (A) (A) (A) (A) (A) (A) (A) (A) (A) (A) (A) (A)
                 (A) (A) (A) (A) (A) (A) (A) (A) (A) (A) (A) (A)
                 (A) (A) (A) (A) (A) (A) (A) (A) (A) (A) (A) (A)
                 (A) (A) (A) (A) (A) (A) (A) (A) (A) (A) (A) (A)
                 (A) (A) (A) (A) (A) (A) (A) (A) (A) (A) (A) (A)
                 (A) (A) (A) (A) (A) (A) (A) (A) (A) (A) (A) (A)
                 (A) (A) (A) (A) (A) (A) (A) (A) (A) (A) (A) (A)
                 (A) (A) (A) (A) (A) (A) (A) (A) (A) (A) (A) (A)
                 (A) (A) (A) (A) (A) (A) (A) (A) (A) (A) (A) (A)
                 (A) (A) (A) (A) (A) (A) (A) (A) (A) (A) (A) (A)
                 (A) (A) (A) (A) (A) (A) (A) (A) (A) (A) (A) (A)
                 (A) (A) (A) (A) (A) (A) (A) (A) (A) (A) (A) (A)
                 (A) (A) (A) (A) (A) (A) (A) (A) (A) (A) (A) (A)
                 (A) (A) (A) (A) (A) (A) (A) (A) (A) (A) (A) (A)
                 (A) (A) (A) (A) (A) (A) (A) (A) (A) (A) (A) (A)
                 (A) (A) (A) (A) (A) (A) (A) (A) (A) (A) (A) (A)
                 (A) (A) (A) (A) (A) (A) (A) (A) (A) (A) (A) (A)
                 (A) (A) (A) (A) (A) (A) (A) (A) (A) (A) (A) (A)
                 (A) (A) (A) (A) (A) (A) (A) (A) (A) (A) (A) (A)
                 (A) (A) (A) (A) (A) (A) (A)
 Beta  Orbitals:
       Occupied  (A) (A) (A) (A) (A) (A) (A) (A) (A) (A) (A) (A)
                 (A) (A) (A) (A) (A) (A) (A) (A) (A) (A) (A) (A)
                 (A) (A) (A) (A) (A) (A) (A) (A) (A) (A) (A) (A)
                 (A) (A) (A) (A) (A) (A) (A) (A) (A) (A) (A) (A)
                 (A) (A) (A) (A) (A) (A) (A) (A) (A) (A) (A) (A)
                 (A) (A)
       Virtual   (A) (A) (A) (A) (A) (A) (A) (A) (A) (A) (A) (A)
                 (A) (A) (A) (A) (A) (A) (A) (A) (A) (A) (A) (A)
                 (A) (A) (A) (A) (A) (A) (A) (A) (A) (A) (A) (A)
                 (A) (A) (A) (A) (A) (A) (A) (A) (A) (A) (A) (A)
                 (A) (A) (A) (A) (A) (A) (A) (A) (A) (A) (A) (A)
                 (A) (A) (A) (A) (A) (A) (A) (A) (A) (A) (A) (A)
                 (A) (A) (A) (A) (A) (A) (A) (A) (A) (A) (A) (A)
                 (A) (A) (A) (A) (A) (A) (A) (A) (A) (A) (A) (A)
                 (A) (A) (A) (A) (A) (A) (A) (A) (A) (A) (A) (A)
                 (A) (A) (A) (A) (A) (A) (A) (A) (A) (A) (A) (A)
                 (A) (A) (A) (A) (A) (A) (A) (A) (A) (A) (A) (A)
                 (A) (A) (A) (A) (A) (A) (A) (A) (A) (A) (A) (A)
                 (A) (A) (A) (A) (A) (A) (A) (A) (A) (A) (A) (A)
                 (A) (A) (A) (A) (A) (A) (A) (A) (A) (A) (A) (A)
                 (A) (A) (A) (A) (A) (A) (A) (A) (A) (A) (A) (A)
                 (A) (A) (A) (A) (A) (A) (A) (A) (A) (A) (A) (A)
                 (A) (A) (A) (A) (A) (A) (A) (A) (A) (A) (A) (A)
                 (A) (A) (A) (A) (A) (A) (A) (A) (A) (A) (A) (A)
                 (A) (A) (A) (A) (A) (A) (A) (A) (A) (A) (A) (A)
                 (A) (A) (A) (A) (A) (A) (A) (A) (A) (A) (A) (A)
                 (A) (A) (A) (A) (A) (A) (A) (A) (A) (A) (A) (A)
                 (A) (A) (A) (A) (A) (A) (A) (A) (A) (A) (A) (A)
                 (A) (A) (A) (A) (A) (A) (A) (A) (A) (A) (A) (A)
                 (A) (A) (A) (A) (A) (A) (A) (A) (A) (A) (A) (A)
                 (A) (A) (A) (A) (A) (A) (A) (A) (A) (A) (A) (A)
                 (A) (A) (A) (A) (A) (A) (A) (A) (A) (A) (A) (A)
                 (A) (A) (A) (A) (A) (A) (A) (A) (A) (A) (A) (A)
                 (A) (A) (A) (A) (A) (A) (A) (A) (A) (A) (A) (A)
                 (A) (A) (A) (A) (A) (A) (A) (A) (A) (A) (A) (A)
                 (A) (A) (A) (A) (A) (A) (A) (A) (A) (A) (A) (A)
                 (A) (A) (A) (A) (A) (A) (A) (A) (A) (A) (A) (A)
                 (A) (A) (A) (A) (A) (A) (A) (A) (A) (A) (A) (A)
                 (A) (A) (A) (A) (A) (A) (A) (A) (A) (A) (A) (A)
                 (A) (A) (A) (A) (A) (A) (A) (A) (A) (A) (A) (A)
                 (A) (A) (A) (A) (A) (A) (A) (A) (A) (A) (A) (A)
                 (A) (A) (A) (A) (A) (A) (A) (A) (A) (A) (A) (A)
                 (A) (A) (A) (A) (A) (A) (A) (A) (A) (A) (A) (A)
                 (A) (A) (A) (A) (A) (A) (A) (A) (A) (A) (A) (A)
                 (A) (A) (A) (A) (A) (A) (A) (A) (A) (A) (A) (A)
                 (A) (A) (A) (A) (A) (A) (A) (A) (A) (A) (A) (A)
                 (A) (A) (A) (A) (A) (A) (A) (A) (A) (A) (A) (A)
                 (A) (A) (A) (A) (A) (A) (A) (A) (A) (A) (A) (A)
                 (A) (A) (A) (A) (A) (A) (A) (A) (A) (A) (A) (A)
                 (A) (A) (A) (A) (A) (A) (A) (A) (A) (A) (A) (A)
                 (A) (A) (A) (A) (A) (A) (A) (A) (A) (A) (A) (A)
                 (A) (A) (A) (A) (A) (A) (A) (A) (A)
 The electronic state is 3-A.
 Alpha  occ. eigenvalues --  -19.31251 -19.29841 -19.24084 -19.22913 -14.53852
 Alpha  occ. eigenvalues --  -14.48209 -10.44814 -10.43314 -10.34356 -10.34143
 Alpha  occ. eigenvalues --  -10.33385 -10.30259 -10.30103 -10.29995 -10.29942
 Alpha  occ. eigenvalues --  -10.29520 -10.28525  -1.24376  -1.22379  -1.15364
 Alpha  occ. eigenvalues --   -1.13010  -1.12347  -1.04140  -0.94910  -0.86717
 Alpha  occ. eigenvalues --   -0.84292  -0.83779  -0.81716  -0.80108  -0.71097
 Alpha  occ. eigenvalues --   -0.69867  -0.66321  -0.65586  -0.64914  -0.64380
 Alpha  occ. eigenvalues --   -0.64192  -0.61042  -0.60246  -0.58022  -0.57613
 Alpha  occ. eigenvalues --   -0.57362  -0.55913  -0.53291  -0.52638  -0.52225
 Alpha  occ. eigenvalues --   -0.51757  -0.50089  -0.48823  -0.47205  -0.46864
 Alpha  occ. eigenvalues --   -0.45994  -0.45181  -0.45062  -0.43762  -0.43115
 Alpha  occ. eigenvalues --   -0.40531  -0.39959  -0.39391  -0.38552  -0.38039
 Alpha  occ. eigenvalues --   -0.37436  -0.36395  -0.30460  -0.26795
 Alpha virt. eigenvalues --    0.09398   0.10451   0.11124   0.12247   0.14196
 Alpha virt. eigenvalues --    0.14757   0.15772   0.16089   0.16342   0.16857
 Alpha virt. eigenvalues --    0.17212   0.18076   0.18631   0.19098   0.19584
 Alpha virt. eigenvalues --    0.20128   0.20337   0.20853   0.20903   0.21585
 Alpha virt. eigenvalues --    0.22679   0.23532   0.23969   0.24787   0.25786
 Alpha virt. eigenvalues --    0.26240   0.26558   0.27499   0.28745   0.28910
 Alpha virt. eigenvalues --    0.30260   0.30992   0.31098   0.31820   0.32576
 Alpha virt. eigenvalues --    0.32795   0.33688   0.34270   0.34887   0.35408
 Alpha virt. eigenvalues --    0.36264   0.37065   0.37834   0.38101   0.39313
 Alpha virt. eigenvalues --    0.39820   0.39876   0.40819   0.41769   0.42472
 Alpha virt. eigenvalues --    0.43805   0.44577   0.45241   0.45772   0.46463
 Alpha virt. eigenvalues --    0.46815   0.47251   0.47554   0.48004   0.48741
 Alpha virt. eigenvalues --    0.48971   0.49208   0.49842   0.50813   0.51351
 Alpha virt. eigenvalues --    0.51575   0.51804   0.52032   0.52692   0.52895
 Alpha virt. eigenvalues --    0.53681   0.54196   0.54796   0.54963   0.55707
 Alpha virt. eigenvalues --    0.56143   0.56376   0.56788   0.57570   0.58012
 Alpha virt. eigenvalues --    0.58695   0.59202   0.60315   0.60536   0.62672
 Alpha virt. eigenvalues --    0.63001   0.63314   0.63863   0.64781   0.65368
 Alpha virt. eigenvalues --    0.65997   0.66839   0.67637   0.68272   0.70657
 Alpha virt. eigenvalues --    0.70703   0.71954   0.72651   0.73876   0.74419
 Alpha virt. eigenvalues --    0.74584   0.77523   0.77929   0.79426   0.79612
 Alpha virt. eigenvalues --    0.80733   0.82713   0.84043   0.85802   0.86427
 Alpha virt. eigenvalues --    0.86723   0.87945   0.88559   0.90342   0.90862
 Alpha virt. eigenvalues --    0.91321   0.92142   0.93032   0.93580   0.93856
 Alpha virt. eigenvalues --    0.96159   0.97058   0.98076   0.98661   0.99803
 Alpha virt. eigenvalues --    1.00960   1.01823   1.02467   1.03645   1.04166
 Alpha virt. eigenvalues --    1.05589   1.06678   1.07160   1.07985   1.09621
 Alpha virt. eigenvalues --    1.10035   1.10353   1.11734   1.12702   1.13993
 Alpha virt. eigenvalues --    1.15336   1.16335   1.17035   1.18360   1.18837
 Alpha virt. eigenvalues --    1.20153   1.20527   1.22155   1.23104   1.25254
 Alpha virt. eigenvalues --    1.25494   1.26708   1.28086   1.29835   1.30554
 Alpha virt. eigenvalues --    1.31661   1.32123   1.32704   1.33337   1.33813
 Alpha virt. eigenvalues --    1.35958   1.37061   1.37993   1.39784   1.40453
 Alpha virt. eigenvalues --    1.41148   1.42163   1.42854   1.45100   1.45847
 Alpha virt. eigenvalues --    1.47527   1.48465   1.50486   1.50710   1.51874
 Alpha virt. eigenvalues --    1.53611   1.55773   1.56108   1.56450   1.57263
 Alpha virt. eigenvalues --    1.58162   1.59469   1.60141   1.60680   1.62133
 Alpha virt. eigenvalues --    1.62467   1.63591   1.64766   1.65171   1.65597
 Alpha virt. eigenvalues --    1.66151   1.67250   1.68599   1.69127   1.69979
 Alpha virt. eigenvalues --    1.71376   1.73000   1.74546   1.74918   1.76939
 Alpha virt. eigenvalues --    1.78520   1.79775   1.80385   1.81327   1.82533
 Alpha virt. eigenvalues --    1.83271   1.85461   1.85931   1.87884   1.88867
 Alpha virt. eigenvalues --    1.90040   1.93084   1.93981   1.95851   1.96465
 Alpha virt. eigenvalues --    1.98826   1.99817   2.01066   2.02652   2.03629
 Alpha virt. eigenvalues --    2.04174   2.04641   2.05694   2.06934   2.07154
 Alpha virt. eigenvalues --    2.07396   2.09616   2.09888   2.10940   2.12988
 Alpha virt. eigenvalues --    2.13565   2.13877   2.15344   2.15823   2.17130
 Alpha virt. eigenvalues --    2.17821   2.19342   2.20506   2.20918   2.21715
 Alpha virt. eigenvalues --    2.22020   2.23576   2.23749   2.24604   2.27075
 Alpha virt. eigenvalues --    2.28283   2.29747   2.30822   2.32754   2.33505
 Alpha virt. eigenvalues --    2.35289   2.35960   2.36576   2.37583   2.39669
 Alpha virt. eigenvalues --    2.40540   2.41015   2.41702   2.41989   2.43970
 Alpha virt. eigenvalues --    2.45489   2.46632   2.47321   2.47895   2.48651
 Alpha virt. eigenvalues --    2.49749   2.50911   2.51447   2.51768   2.53895
 Alpha virt. eigenvalues --    2.54325   2.55303   2.58025   2.58787   2.59845
 Alpha virt. eigenvalues --    2.60533   2.61741   2.62031   2.62701   2.62886
 Alpha virt. eigenvalues --    2.64016   2.65193   2.66643   2.67651   2.68529
 Alpha virt. eigenvalues --    2.70011   2.71630   2.73691   2.74012   2.75644
 Alpha virt. eigenvalues --    2.76016   2.78230   2.79042   2.79637   2.81436
 Alpha virt. eigenvalues --    2.81865   2.82749   2.83633   2.85100   2.86771
 Alpha virt. eigenvalues --    2.87495   2.89047   2.89297   2.90271   2.91012
 Alpha virt. eigenvalues --    2.91170   2.92154   2.92738   2.94830   2.95449
 Alpha virt. eigenvalues --    2.96312   2.97941   2.99036   2.99867   3.00908
 Alpha virt. eigenvalues --    3.01481   3.03426   3.05249   3.06176   3.07160
 Alpha virt. eigenvalues --    3.08192   3.09515   3.11254   3.11724   3.13024
 Alpha virt. eigenvalues --    3.14357   3.14999   3.15645   3.16734   3.17702
 Alpha virt. eigenvalues --    3.19545   3.19860   3.20833   3.21468   3.22797
 Alpha virt. eigenvalues --    3.23088   3.24005   3.25279   3.26990   3.27439
 Alpha virt. eigenvalues --    3.29031   3.29316   3.30340   3.31076   3.32520
 Alpha virt. eigenvalues --    3.33160   3.33699   3.34283   3.35449   3.36682
 Alpha virt. eigenvalues --    3.37568   3.37891   3.38649   3.39021   3.40614
 Alpha virt. eigenvalues --    3.40964   3.41698   3.42193   3.42847   3.44151
 Alpha virt. eigenvalues --    3.45464   3.46146   3.46884   3.47755   3.48133
 Alpha virt. eigenvalues --    3.48752   3.50647   3.51795   3.52404   3.53402
 Alpha virt. eigenvalues --    3.54071   3.55206   3.56001   3.57264   3.57680
 Alpha virt. eigenvalues --    3.59586   3.61857   3.62743   3.63709   3.64120
 Alpha virt. eigenvalues --    3.65081   3.65799   3.66566   3.67299   3.69726
 Alpha virt. eigenvalues --    3.70885   3.71426   3.72229   3.73481   3.76187
 Alpha virt. eigenvalues --    3.78098   3.79476   3.79769   3.81900   3.82422
 Alpha virt. eigenvalues --    3.84862   3.88352   3.89576   3.90713   3.92223
 Alpha virt. eigenvalues --    3.95210   3.96691   3.99279   4.00635   4.02645
 Alpha virt. eigenvalues --    4.05718   4.06881   4.09050   4.10077   4.10715
 Alpha virt. eigenvalues --    4.15820   4.16146   4.17819   4.19743   4.21923
 Alpha virt. eigenvalues --    4.23848   4.25202   4.25916   4.27616   4.28418
 Alpha virt. eigenvalues --    4.29345   4.30794   4.33149   4.33872   4.34689
 Alpha virt. eigenvalues --    4.36723   4.37330   4.37938   4.39772   4.40489
 Alpha virt. eigenvalues --    4.41186   4.44657   4.45581   4.46515   4.47314
 Alpha virt. eigenvalues --    4.48346   4.49785   4.52184   4.53672   4.54580
 Alpha virt. eigenvalues --    4.56646   4.59179   4.60982   4.62666   4.68110
 Alpha virt. eigenvalues --    4.70016   4.74135   4.74529   4.76216   4.78826
 Alpha virt. eigenvalues --    4.83567   4.85154   4.87242   4.88828   4.90210
 Alpha virt. eigenvalues --    4.94331   4.97418   4.98658   5.02365   5.05180
 Alpha virt. eigenvalues --    5.06618   5.07242   5.08771   5.10129   5.12402
 Alpha virt. eigenvalues --    5.12466   5.13586   5.16555   5.19913   5.20119
 Alpha virt. eigenvalues --    5.22270   5.23420   5.26137   5.28132   5.29561
 Alpha virt. eigenvalues --    5.33930   5.37987   5.40750   5.41490   5.43929
 Alpha virt. eigenvalues --    5.45871   5.50747   5.56585   5.60556   5.61794
 Alpha virt. eigenvalues --    5.62671   5.68133   5.77440   5.78632   5.79554
 Alpha virt. eigenvalues --    5.79862   5.80673   5.83751   5.93231   5.99095
 Alpha virt. eigenvalues --    6.09188   6.12028   6.12558   6.16392   6.25358
 Alpha virt. eigenvalues --    6.28723   6.32362   6.34059   6.40430   6.44783
 Alpha virt. eigenvalues --    6.46475   6.48935   6.54733   6.56307   6.62671
 Alpha virt. eigenvalues --    6.63689   6.75061   6.77204   6.81036   6.85442
 Alpha virt. eigenvalues --    6.86122   6.90322   6.97698   6.98749   7.04108
 Alpha virt. eigenvalues --    7.06906   7.12585   7.12944   7.16542   7.23361
 Alpha virt. eigenvalues --    7.24805   7.42057   7.46717   7.53236   7.56309
 Alpha virt. eigenvalues --   22.44446  22.47544  22.47814  22.64809  22.69030
 Alpha virt. eigenvalues --   22.77580  22.84175  22.87389  22.94776  23.58398
 Alpha virt. eigenvalues --   23.68887  32.47820  33.04422  44.01729  44.07722
 Alpha virt. eigenvalues --   44.25825  44.30208
  Beta  occ. eigenvalues --  -19.31209 -19.29770 -19.23975 -19.22813 -14.53341
  Beta  occ. eigenvalues --  -14.47037 -10.44825 -10.43333 -10.34309 -10.34145
  Beta  occ. eigenvalues --  -10.33377 -10.30173 -10.30128 -10.30077 -10.29778
  Beta  occ. eigenvalues --  -10.28442 -10.28410  -1.24055  -1.22056  -1.14597
  Beta  occ. eigenvalues --   -1.12331  -1.11768  -1.03458  -0.93089  -0.86148
  Beta  occ. eigenvalues --   -0.83927  -0.83397  -0.80180  -0.79362  -0.70443
  Beta  occ. eigenvalues --   -0.69209  -0.65899  -0.65163  -0.64529  -0.64039
  Beta  occ. eigenvalues --   -0.63189  -0.60138  -0.59514  -0.57540  -0.57236
  Beta  occ. eigenvalues --   -0.57021  -0.55319  -0.53074  -0.52284  -0.51331
  Beta  occ. eigenvalues --   -0.51039  -0.49246  -0.48130  -0.46670  -0.45845
  Beta  occ. eigenvalues --   -0.45618  -0.44963  -0.43964  -0.43040  -0.41090
  Beta  occ. eigenvalues --   -0.39814  -0.39310  -0.38937  -0.37769  -0.37288
  Beta  occ. eigenvalues --   -0.36708  -0.35008
  Beta virt. eigenvalues --   -0.03677   0.01233   0.10104   0.10853   0.11960
  Beta virt. eigenvalues --    0.12493   0.14327   0.14844   0.15880   0.16132
  Beta virt. eigenvalues --    0.16556   0.16913   0.17452   0.18259   0.18780
  Beta virt. eigenvalues --    0.19290   0.19722   0.20324   0.20460   0.20930
  Beta virt. eigenvalues --    0.21107   0.22017   0.22879   0.23660   0.24028
  Beta virt. eigenvalues --    0.25033   0.26098   0.26472   0.26811   0.27721
  Beta virt. eigenvalues --    0.29062   0.29260   0.30594   0.31192   0.31363
  Beta virt. eigenvalues --    0.32051   0.32719   0.33238   0.34010   0.34574
  Beta virt. eigenvalues --    0.35068   0.35647   0.36913   0.37560   0.38140
  Beta virt. eigenvalues --    0.38361   0.39512   0.39931   0.40107   0.41049
  Beta virt. eigenvalues --    0.42009   0.42771   0.43945   0.44864   0.45413
  Beta virt. eigenvalues --    0.46156   0.46618   0.47054   0.47350   0.48049
  Beta virt. eigenvalues --    0.48215   0.48960   0.49301   0.49551   0.49944
  Beta virt. eigenvalues --    0.50987   0.51461   0.51993   0.52103   0.52123
  Beta virt. eigenvalues --    0.52904   0.53003   0.53906   0.54269   0.54911
  Beta virt. eigenvalues --    0.55165   0.55848   0.56400   0.56571   0.57013
  Beta virt. eigenvalues --    0.57885   0.58191   0.58962   0.59471   0.60477
  Beta virt. eigenvalues --    0.60801   0.62782   0.63349   0.63456   0.64142
  Beta virt. eigenvalues --    0.65035   0.65619   0.66198   0.67025   0.68000
  Beta virt. eigenvalues --    0.68497   0.70795   0.71080   0.72259   0.72852
  Beta virt. eigenvalues --    0.74048   0.74576   0.74693   0.77711   0.78132
  Beta virt. eigenvalues --    0.79527   0.79968   0.80955   0.82965   0.84277
  Beta virt. eigenvalues --    0.85909   0.86656   0.87003   0.88099   0.89022
  Beta virt. eigenvalues --    0.90511   0.91004   0.91657   0.92319   0.93316
  Beta virt. eigenvalues --    0.93774   0.94179   0.96441   0.97201   0.98455
  Beta virt. eigenvalues --    0.98836   1.00111   1.01345   1.01990   1.02653
  Beta virt. eigenvalues --    1.04080   1.04364   1.06085   1.06932   1.07398
  Beta virt. eigenvalues --    1.08168   1.10003   1.10255   1.10674   1.11934
  Beta virt. eigenvalues --    1.12941   1.14367   1.15516   1.16536   1.17160
  Beta virt. eigenvalues --    1.18979   1.19491   1.20395   1.21328   1.22420
  Beta virt. eigenvalues --    1.23699   1.25435   1.25740   1.26901   1.28531
  Beta virt. eigenvalues --    1.30174   1.30813   1.32187   1.32441   1.32894
  Beta virt. eigenvalues --    1.33564   1.34136   1.36336   1.37338   1.38260
  Beta virt. eigenvalues --    1.40115   1.40763   1.41383   1.42455   1.43364
  Beta virt. eigenvalues --    1.45607   1.46106   1.48063   1.49065   1.50843
  Beta virt. eigenvalues --    1.51160   1.52257   1.53869   1.55985   1.56360
  Beta virt. eigenvalues --    1.56627   1.57364   1.58356   1.59648   1.60322
  Beta virt. eigenvalues --    1.61609   1.62351   1.62552   1.63940   1.65028
  Beta virt. eigenvalues --    1.65506   1.65848   1.66404   1.67412   1.68918
  Beta virt. eigenvalues --    1.69493   1.70538   1.71763   1.73443   1.74800
  Beta virt. eigenvalues --    1.75311   1.77227   1.79199   1.80220   1.80489
  Beta virt. eigenvalues --    1.82025   1.83025   1.83624   1.85907   1.86277
  Beta virt. eigenvalues --    1.88396   1.89290   1.90791   1.93673   1.94822
  Beta virt. eigenvalues --    1.96329   1.97212   1.99139   1.99980   2.01307
  Beta virt. eigenvalues --    2.02875   2.03825   2.04419   2.04865   2.06182
  Beta virt. eigenvalues --    2.07245   2.07431   2.07645   2.10022   2.10333
  Beta virt. eigenvalues --    2.11124   2.13183   2.13900   2.14184   2.15650
  Beta virt. eigenvalues --    2.16167   2.17284   2.18121   2.19772   2.20924
  Beta virt. eigenvalues --    2.21134   2.22167   2.22538   2.23808   2.24385
  Beta virt. eigenvalues --    2.25211   2.27678   2.28754   2.30628   2.31455
  Beta virt. eigenvalues --    2.33038   2.33666   2.35848   2.36262   2.36816
  Beta virt. eigenvalues --    2.37970   2.40214   2.40852   2.41522   2.41934
  Beta virt. eigenvalues --    2.42414   2.44336   2.45626   2.47033   2.47703
  Beta virt. eigenvalues --    2.48359   2.48930   2.49918   2.51255   2.51977
  Beta virt. eigenvalues --    2.52042   2.54073   2.54880   2.55706   2.58318
  Beta virt. eigenvalues --    2.59210   2.60147   2.60871   2.62101   2.62217
  Beta virt. eigenvalues --    2.62880   2.63199   2.64214   2.65399   2.66997
  Beta virt. eigenvalues --    2.68212   2.68938   2.70494   2.71940   2.74026
  Beta virt. eigenvalues --    2.74477   2.76012   2.76548   2.78799   2.79319
  Beta virt. eigenvalues --    2.80333   2.81834   2.82131   2.83055   2.83798
  Beta virt. eigenvalues --    2.85464   2.87007   2.88035   2.89303   2.89579
  Beta virt. eigenvalues --    2.90679   2.91588   2.91809   2.92568   2.93345
  Beta virt. eigenvalues --    2.95693   2.96022   2.96964   2.98953   2.99390
  Beta virt. eigenvalues --    3.00224   3.01544   3.02139   3.03906   3.05760
  Beta virt. eigenvalues --    3.06673   3.07613   3.08645   3.09805   3.11586
  Beta virt. eigenvalues --    3.12009   3.13542   3.14705   3.15277   3.16021
  Beta virt. eigenvalues --    3.17191   3.18089   3.19854   3.20184   3.21471
  Beta virt. eigenvalues --    3.22043   3.23074   3.23267   3.24412   3.25786
  Beta virt. eigenvalues --    3.27259   3.27871   3.29369   3.29676   3.31098
  Beta virt. eigenvalues --    3.31312   3.32749   3.33523   3.34508   3.34607
  Beta virt. eigenvalues --    3.35749   3.37264   3.37988   3.38480   3.39090
  Beta virt. eigenvalues --    3.39745   3.40841   3.41308   3.42154   3.42666
  Beta virt. eigenvalues --    3.43232   3.44511   3.45830   3.46511   3.47129
  Beta virt. eigenvalues --    3.48338   3.49065   3.49164   3.50946   3.51993
  Beta virt. eigenvalues --    3.53029   3.54067   3.54463   3.55373   3.56358
  Beta virt. eigenvalues --    3.57618   3.58234   3.60399   3.62237   3.63081
  Beta virt. eigenvalues --    3.63932   3.64727   3.65711   3.66405   3.66809
  Beta virt. eigenvalues --    3.67855   3.70272   3.71182   3.72154   3.72474
  Beta virt. eigenvalues --    3.73953   3.76995   3.78585   3.80214   3.80340
  Beta virt. eigenvalues --    3.82415   3.83431   3.85588   3.88821   3.90119
  Beta virt. eigenvalues --    3.91231   3.93093   3.96080   3.97270   3.99763
  Beta virt. eigenvalues --    4.01578   4.03457   4.06759   4.07441   4.09657
  Beta virt. eigenvalues --    4.10594   4.11754   4.16506   4.17047   4.18742
  Beta virt. eigenvalues --    4.20286   4.22602   4.24286   4.25651   4.26245
  Beta virt. eigenvalues --    4.27726   4.28640   4.30103   4.31365   4.33613
  Beta virt. eigenvalues --    4.34272   4.35221   4.37330   4.37840   4.38331
  Beta virt. eigenvalues --    4.40059   4.40889   4.41749   4.45211   4.46268
  Beta virt. eigenvalues --    4.46919   4.47770   4.48951   4.50230   4.52556
  Beta virt. eigenvalues --    4.54004   4.55030   4.57170   4.59707   4.61333
  Beta virt. eigenvalues --    4.63111   4.68818   4.70515   4.74812   4.75298
  Beta virt. eigenvalues --    4.77056   4.79293   4.84210   4.85712   4.87791
  Beta virt. eigenvalues --    4.90769   4.91846   4.95761   4.98455   5.00457
  Beta virt. eigenvalues --    5.03192   5.06322   5.07244   5.08840   5.10263
  Beta virt. eigenvalues --    5.11144   5.13185   5.13462   5.14533   5.17464
  Beta virt. eigenvalues --    5.21260   5.21490   5.23076   5.24124   5.26601
  Beta virt. eigenvalues --    5.29142   5.30373   5.34571   5.38582   5.41161
  Beta virt. eigenvalues --    5.42073   5.44783   5.46702   5.51260   5.57003
  Beta virt. eigenvalues --    5.60783   5.62399   5.63170   5.68646   5.78632
  Beta virt. eigenvalues --    5.79418   5.79806   5.80440   5.81145   5.84089
  Beta virt. eigenvalues --    5.93589   5.99404   6.09507   6.12303   6.12964
  Beta virt. eigenvalues --    6.16733   6.25671   6.29003   6.32758   6.34528
  Beta virt. eigenvalues --    6.40750   6.45153   6.46776   6.49271   6.54914
  Beta virt. eigenvalues --    6.56510   6.62983   6.64026   6.75240   6.77403
  Beta virt. eigenvalues --    6.81210   6.85631   6.86353   6.90561   6.97936
  Beta virt. eigenvalues --    6.99179   7.04332   7.07108   7.12844   7.13228
  Beta virt. eigenvalues --    7.17240   7.23542   7.24965   7.42263   7.46798
  Beta virt. eigenvalues --    7.53446   7.56408  22.45125  22.47817  22.48161
  Beta virt. eigenvalues --   22.64823  22.69114  22.77758  22.84589  22.87495
  Beta virt. eigenvalues --   22.94966  23.58394  23.68889  32.49297  33.05000
  Beta virt. eigenvalues --   44.01828  44.07816  44.25879  44.30263
          Condensed to atoms (all electrons):
               1          2          3          4          5          6
     1  C    4.996747   0.261586  -0.028452   0.176017   0.402957  -0.034872
     2  C    0.261586   5.193318  -0.075678  -0.041786  -0.038723   0.004892
     3  C   -0.028452  -0.075678   5.290321   0.189507   0.007741  -0.037459
     4  C    0.176017  -0.041786   0.189507   5.562726  -0.027140   0.447984
     5  H    0.402957  -0.038723   0.007741  -0.027140   0.548578  -0.003332
     6  H   -0.034872   0.004892  -0.037459   0.447984  -0.003332   0.509450
     7  C   -0.047368   0.325459   0.280224  -0.081428   0.006677   0.005047
     8  H    0.003553  -0.029657  -0.028456   0.014505  -0.000114  -0.000058
     9  H    0.004470  -0.028011  -0.037861  -0.011938  -0.000598  -0.000026
    10  C    0.003344   0.192930  -0.033742   0.036713   0.016979   0.001079
    11  H    0.003446  -0.046523   0.002939   0.014550  -0.000508   0.000021
    12  C   -0.019384  -0.010014   0.175584   0.021718  -0.010155  -0.024896
    13  H    0.003708   0.006515  -0.030820  -0.037144   0.000146  -0.004365
    14  H   -0.025661   0.421633   0.007013  -0.000302  -0.000562  -0.000065
    15  H    0.001467   0.004464   0.442720  -0.022635  -0.000177  -0.004421
    16  N   -0.003026  -0.015862   0.000703   0.009999   0.005660  -0.001399
    17  N    0.286014  -0.037648   0.000672  -0.037237  -0.029068   0.000688
    18  C    0.004140   0.002722   0.004665  -0.008231  -0.001537   0.002041
    19  C   -0.042637  -0.003489   0.000451   0.007066  -0.007654  -0.000122
    20  O    0.001458  -0.000566   0.000012   0.000030   0.000003  -0.000006
    21  O    0.000628   0.000575   0.002585  -0.013781  -0.000061  -0.001483
    22  O    0.001458  -0.007389  -0.001069   0.003189   0.008161   0.000019
    23  O    0.001230   0.002048  -0.005932   0.003844  -0.000336   0.002522
    24  C    0.001280  -0.000044   0.000010  -0.001850   0.000059  -0.003114
    25  H   -0.000354  -0.000003  -0.000057   0.000819  -0.000002  -0.000728
    26  H   -0.000167   0.000011  -0.000026   0.000320   0.000001   0.000717
    27  H    0.001423  -0.000081   0.000820  -0.001587   0.000007  -0.003211
    28  C   -0.001826   0.000745   0.000025  -0.000017   0.000470  -0.000001
    29  H   -0.000954   0.000280   0.000009  -0.000063   0.000012   0.000000
    30  H    0.000365   0.000169  -0.000011   0.000072   0.000127   0.000000
    31  H   -0.000114  -0.000060  -0.000002   0.000000  -0.000092   0.000000
               7          8          9         10         11         12
     1  C   -0.047368   0.003553   0.004470   0.003344   0.003446  -0.019384
     2  C    0.325459  -0.029657  -0.028011   0.192930  -0.046523  -0.010014
     3  C    0.280224  -0.028456  -0.037861  -0.033742   0.002939   0.175584
     4  C   -0.081428   0.014505  -0.011938   0.036713   0.014550   0.021718
     5  H    0.006677  -0.000114  -0.000598   0.016979  -0.000508  -0.010155
     6  H    0.005047  -0.000058  -0.000026   0.001079   0.000021  -0.024896
     7  C    4.929380   0.406445   0.423733  -0.077975  -0.003843   0.030177
     8  H    0.406445   0.546021  -0.019268   0.010151   0.000793  -0.017341
     9  H    0.423733  -0.019268   0.514353   0.003339  -0.000105   0.011861
    10  C   -0.077975   0.010151   0.003339   5.576870   0.451629   0.192365
    11  H   -0.003843   0.000793  -0.000105   0.451629   0.498278  -0.063092
    12  C    0.030177  -0.017341   0.011861   0.192365  -0.063092   5.316306
    13  H    0.002630   0.000015   0.000005  -0.039279  -0.003582   0.458025
    14  H   -0.030220  -0.002523   0.000535  -0.029843  -0.002840   0.008787
    15  H   -0.027762  -0.000815  -0.002115   0.006978   0.000149  -0.039652
    16  N    0.011700   0.000529   0.001582   0.001901   0.000017  -0.007508
    17  N    0.016670  -0.000431  -0.006714   0.002842  -0.000274   0.009115
    18  C   -0.002420   0.000144   0.001842  -0.001562  -0.000007   0.000859
    19  C    0.001578  -0.000136   0.000429   0.000433  -0.000043  -0.000598
    20  O   -0.000013   0.000003   0.000016  -0.000056   0.000000   0.000030
    21  O   -0.002245  -0.000021   0.002417  -0.000192   0.000000   0.000697
    22  O    0.000752  -0.000041   0.000106   0.000111  -0.000031   0.000549
    23  O    0.000389   0.000002   0.000216  -0.000275   0.000001   0.003910
    24  C    0.000005  -0.000001  -0.000026  -0.000019   0.000000  -0.000095
    25  H    0.000003   0.000000   0.000000   0.000002   0.000000  -0.000027
    26  H    0.000004   0.000000  -0.000003   0.000001   0.000000   0.000028
    27  H   -0.000038   0.000000  -0.000007   0.000022   0.000000  -0.000723
    28  C    0.000061   0.000003  -0.000020   0.000037   0.000006  -0.000024
    29  H   -0.000035   0.000000   0.000001   0.000078   0.000001  -0.000010
    30  H    0.000065   0.000001  -0.000005  -0.000014   0.000002   0.000003
    31  H    0.000004   0.000000   0.000001  -0.000004  -0.000001   0.000001
              13         14         15         16         17         18
     1  C    0.003708  -0.025661   0.001467  -0.003026   0.286014   0.004140
     2  C    0.006515   0.421633   0.004464  -0.015862  -0.037648   0.002722
     3  C   -0.030820   0.007013   0.442720   0.000703   0.000672   0.004665
     4  C   -0.037144  -0.000302  -0.022635   0.009999  -0.037237  -0.008231
     5  H    0.000146  -0.000562  -0.000177   0.005660  -0.029068  -0.001537
     6  H   -0.004365  -0.000065  -0.004421  -0.001399   0.000688   0.002041
     7  C    0.002630  -0.030220  -0.027762   0.011700   0.016670  -0.002420
     8  H    0.000015  -0.002523  -0.000815   0.000529  -0.000431   0.000144
     9  H    0.000005   0.000535  -0.002115   0.001582  -0.006714   0.001842
    10  C   -0.039279  -0.029843   0.006978   0.001901   0.002842  -0.001562
    11  H   -0.003582  -0.002840   0.000149   0.000017  -0.000274  -0.000007
    12  C    0.458025   0.008787  -0.039652  -0.007508   0.009115   0.000859
    13  H    0.510858  -0.000046  -0.004086  -0.000061  -0.000057   0.000020
    14  H   -0.000046   0.513046  -0.000070   0.001210  -0.001838   0.000089
    15  H   -0.004086  -0.000070   0.507209   0.000367   0.000280   0.000856
    16  N   -0.000061   0.001210   0.000367   6.973388   0.126021   0.380242
    17  N   -0.000057  -0.001838   0.000280   0.126021   6.449278  -0.016101
    18  C    0.000020   0.000089   0.000856   0.380242  -0.016101   4.262404
    19  C    0.000005  -0.000109   0.000029  -0.052514   0.359376  -0.002958
    20  O    0.000000  -0.000215   0.000001  -0.009451  -0.083552   0.002861
    21  O    0.000011  -0.000002   0.002044  -0.099515   0.006621   0.686869
    22  O    0.000002   0.010257  -0.000003   0.003045  -0.102934   0.000223
    23  O    0.000010   0.000013  -0.000449  -0.101640  -0.001357   0.348089
    24  C    0.000013   0.000000   0.000039   0.005599   0.000312  -0.045678
    25  H   -0.000001   0.000000   0.000005   0.000698  -0.000096   0.003002
    26  H   -0.000001   0.000000  -0.000020   0.000327  -0.000026  -0.012722
    27  H    0.000015   0.000000   0.000295  -0.000465  -0.000130   0.003697
    28  C    0.000000  -0.001038   0.000000  -0.000464   0.006006  -0.000063
    29  H    0.000000  -0.000190   0.000000   0.000015   0.000871  -0.000001
    30  H    0.000000  -0.000682   0.000000  -0.000080  -0.000706  -0.000018
    31  H    0.000000   0.000253   0.000000  -0.000034   0.000112   0.000010
              19         20         21         22         23         24
     1  C   -0.042637   0.001458   0.000628   0.001458   0.001230   0.001280
     2  C   -0.003489  -0.000566   0.000575  -0.007389   0.002048  -0.000044
     3  C    0.000451   0.000012   0.002585  -0.001069  -0.005932   0.000010
     4  C    0.007066   0.000030  -0.013781   0.003189   0.003844  -0.001850
     5  H   -0.007654   0.000003  -0.000061   0.008161  -0.000336   0.000059
     6  H   -0.000122  -0.000006  -0.001483   0.000019   0.002522  -0.003114
     7  C    0.001578  -0.000013  -0.002245   0.000752   0.000389   0.000005
     8  H   -0.000136   0.000003  -0.000021  -0.000041   0.000002  -0.000001
     9  H    0.000429   0.000016   0.002417   0.000106   0.000216  -0.000026
    10  C    0.000433  -0.000056  -0.000192   0.000111  -0.000275  -0.000019
    11  H   -0.000043   0.000000   0.000000  -0.000031   0.000001   0.000000
    12  C   -0.000598   0.000030   0.000697   0.000549   0.003910  -0.000095
    13  H    0.000005   0.000000   0.000011   0.000002   0.000010   0.000013
    14  H   -0.000109  -0.000215  -0.000002   0.010257   0.000013   0.000000
    15  H    0.000029   0.000001   0.002044  -0.000003  -0.000449   0.000039
    16  N   -0.052514  -0.009451  -0.099515   0.003045  -0.101640   0.005599
    17  N    0.359376  -0.083552   0.006621  -0.102934  -0.001357   0.000312
    18  C   -0.002958   0.002861   0.686869   0.000223   0.348089  -0.045678
    19  C    4.347858   0.665239  -0.000904   0.341240   0.002273  -0.000045
    20  O    0.665239   7.836446   0.000012  -0.079652  -0.000204   0.000003
    21  O   -0.000904   0.000012   7.864538   0.000004  -0.088233   0.001143
    22  O    0.341240  -0.079652   0.000004   7.991538  -0.000018   0.000000
    23  O    0.002273  -0.000204  -0.088233  -0.000018   8.006368   0.214647
    24  C   -0.000045   0.000003   0.001143   0.000000   0.214647   4.803768
    25  H    0.000042   0.000001   0.001930  -0.000001  -0.029422   0.398982
    26  H    0.000000   0.000000   0.004163   0.000000  -0.028600   0.421608
    27  H    0.000021   0.000000   0.004081   0.000000  -0.042090   0.414626
    28  C   -0.039311   0.005082  -0.000001   0.219175   0.000005   0.000000
    29  H    0.006804   0.001897   0.000000  -0.032498   0.000000   0.000000
    30  H   -0.008058   0.003884   0.000000  -0.033706   0.000000   0.000000
    31  H   -0.009374   0.003232   0.000000  -0.029707  -0.000001   0.000000
              25         26         27         28         29         30
     1  C   -0.000354  -0.000167   0.001423  -0.001826  -0.000954   0.000365
     2  C   -0.000003   0.000011  -0.000081   0.000745   0.000280   0.000169
     3  C   -0.000057  -0.000026   0.000820   0.000025   0.000009  -0.000011
     4  C    0.000819   0.000320  -0.001587  -0.000017  -0.000063   0.000072
     5  H   -0.000002   0.000001   0.000007   0.000470   0.000012   0.000127
     6  H   -0.000728   0.000717  -0.003211  -0.000001   0.000000   0.000000
     7  C    0.000003   0.000004  -0.000038   0.000061  -0.000035   0.000065
     8  H    0.000000   0.000000   0.000000   0.000003   0.000000   0.000001
     9  H    0.000000  -0.000003  -0.000007  -0.000020   0.000001  -0.000005
    10  C    0.000002   0.000001   0.000022   0.000037   0.000078  -0.000014
    11  H    0.000000   0.000000   0.000000   0.000006   0.000001   0.000002
    12  C   -0.000027   0.000028  -0.000723  -0.000024  -0.000010   0.000003
    13  H   -0.000001  -0.000001   0.000015   0.000000   0.000000   0.000000
    14  H    0.000000   0.000000   0.000000  -0.001038  -0.000190  -0.000682
    15  H    0.000005  -0.000020   0.000295   0.000000   0.000000   0.000000
    16  N    0.000698   0.000327  -0.000465  -0.000464   0.000015  -0.000080
    17  N   -0.000096  -0.000026  -0.000130   0.006006   0.000871  -0.000706
    18  C    0.003002  -0.012722   0.003697  -0.000063  -0.000001  -0.000018
    19  C    0.000042   0.000000   0.000021  -0.039311   0.006804  -0.008058
    20  O    0.000001   0.000000   0.000000   0.005082   0.001897   0.003884
    21  O    0.001930   0.004163   0.004081  -0.000001   0.000000   0.000000
    22  O   -0.000001   0.000000   0.000000   0.219175  -0.032498  -0.033706
    23  O   -0.029422  -0.028600  -0.042090   0.000005   0.000000   0.000000
    24  C    0.398982   0.421608   0.414626   0.000000   0.000000   0.000000
    25  H    0.522875  -0.018663  -0.025623   0.000000   0.000000   0.000000
    26  H   -0.018663   0.513543  -0.033016   0.000000   0.000000   0.000000
    27  H   -0.025623  -0.033016   0.544563   0.000000   0.000000   0.000000
    28  C    0.000000   0.000000   0.000000   4.791893   0.398707   0.420309
    29  H    0.000000   0.000000   0.000000   0.398707   0.521073  -0.022497
    30  H    0.000000   0.000000   0.000000   0.420309  -0.022497   0.524509
    31  H    0.000000   0.000000   0.000000   0.417077  -0.021330  -0.032304
              31
     1  C   -0.000114
     2  C   -0.000060
     3  C   -0.000002
     4  C    0.000000
     5  H   -0.000092
     6  H    0.000000
     7  C    0.000004
     8  H    0.000000
     9  H    0.000001
    10  C   -0.000004
    11  H   -0.000001
    12  C    0.000001
    13  H    0.000000
    14  H    0.000253
    15  H    0.000000
    16  N   -0.000034
    17  N    0.000112
    18  C    0.000010
    19  C   -0.009374
    20  O    0.003232
    21  O    0.000000
    22  O   -0.029707
    23  O   -0.000001
    24  C    0.000000
    25  H    0.000000
    26  H    0.000000
    27  H    0.000000
    28  C    0.417077
    29  H   -0.021330
    30  H   -0.032304
    31  H    0.522568
          Atomic-Atomic Spin Densities.
               1          2          3          4          5          6
     1  C    0.039240  -0.017216   0.003121   0.001701   0.005100  -0.000728
     2  C   -0.017216  -0.019261   0.006139   0.002227  -0.002576   0.000214
     3  C    0.003121   0.006139   0.115768  -0.054773   0.000539  -0.000401
     4  C    0.001701   0.002227  -0.054773   0.184166  -0.013232  -0.000932
     5  H    0.005100  -0.002576   0.000539  -0.013232   0.012421  -0.000033
     6  H   -0.000728   0.000214  -0.000401  -0.000932  -0.000033   0.001288
     7  C    0.000417   0.020091   0.011545  -0.033560   0.001616   0.000512
     8  H   -0.000034  -0.000430  -0.000580   0.003259  -0.000154   0.000019
     9  H    0.000062  -0.001723   0.003261   0.001634  -0.000068   0.000018
    10  C    0.000900  -0.049549  -0.051612   0.020774   0.004421   0.000469
    11  H   -0.000325  -0.003038  -0.002761   0.007520  -0.000756   0.000031
    12  C    0.004965   0.013321   0.071247  -0.079268   0.007748  -0.001481
    13  H    0.000307   0.000101  -0.000544  -0.001844   0.000146  -0.000208
    14  H    0.000232   0.002539   0.000229  -0.000336  -0.000393   0.000006
    15  H   -0.001320  -0.000516  -0.004962   0.007255  -0.000091  -0.000344
    16  N    0.006240   0.006976  -0.004888  -0.001206  -0.000892   0.000359
    17  N   -0.005771  -0.006249   0.003854  -0.007071  -0.002839   0.000368
    18  C   -0.002591  -0.000353  -0.000821   0.003769   0.000479   0.000284
    19  C   -0.005059   0.003397  -0.000441  -0.000423  -0.002007   0.000118
    20  O   -0.000010   0.000027  -0.000004   0.000034  -0.000005  -0.000001
    21  O   -0.000381  -0.000129   0.000940   0.000333   0.000029  -0.000180
    22  O    0.000160  -0.000072   0.000003   0.000050   0.001181  -0.000008
    23  O   -0.000129   0.000051   0.000161  -0.000667  -0.000124  -0.000538
    24  C    0.000056  -0.000009  -0.000038   0.000145   0.000024  -0.000047
    25  H   -0.000010   0.000004  -0.000013  -0.000020  -0.000008   0.000054
    26  H    0.000015  -0.000001   0.000011  -0.000027   0.000001  -0.000025
    27  H   -0.000017   0.000006  -0.000054   0.000021  -0.000002   0.000155
    28  C    0.000096   0.000043   0.000000  -0.000003  -0.000024   0.000000
    29  H   -0.000072  -0.000012   0.000000  -0.000006   0.000028   0.000000
    30  H    0.000017  -0.000002   0.000001  -0.000005   0.000009   0.000000
    31  H   -0.000031   0.000003   0.000000   0.000002  -0.000012   0.000000
               7          8          9         10         11         12
     1  C    0.000417  -0.000034   0.000062   0.000900  -0.000325   0.004965
     2  C    0.020091  -0.000430  -0.001723  -0.049549  -0.003038   0.013321
     3  C    0.011545  -0.000580   0.003261  -0.051612  -0.002761   0.071247
     4  C   -0.033560   0.003259   0.001634   0.020774   0.007520  -0.079268
     5  H    0.001616  -0.000154  -0.000068   0.004421  -0.000756   0.007748
     6  H    0.000512   0.000019   0.000018   0.000469   0.000031  -0.001481
     7  C    0.089626  -0.009500  -0.002264  -0.067296  -0.004315   0.036466
     8  H   -0.009500   0.005578   0.000633   0.009130   0.000931  -0.004747
     9  H   -0.002264   0.000633  -0.000414   0.002652   0.000079  -0.002500
    10  C   -0.067296   0.009130   0.002652   1.131990   0.000579  -0.067883
    11  H   -0.004315   0.000931   0.000079   0.000579  -0.009510  -0.012063
    12  C    0.036466  -0.004747  -0.002500  -0.067883  -0.012063  -0.016755
    13  H    0.000047  -0.000036  -0.000021  -0.001842  -0.000322   0.002455
    14  H   -0.001816   0.000079   0.000000  -0.003331  -0.000035  -0.000057
    15  H   -0.001939   0.000744   0.000216   0.004417   0.000123  -0.007767
    16  N   -0.001915   0.000536   0.000393  -0.000825   0.000019  -0.001304
    17  N   -0.000296  -0.000836  -0.000494   0.000784  -0.000133   0.003666
    18  C    0.000555   0.000011  -0.000541   0.000041  -0.000004  -0.000242
    19  C    0.000672  -0.000018  -0.000011  -0.000418  -0.000017   0.000220
    20  O   -0.000028   0.000006   0.000073  -0.000003   0.000000  -0.000008
    21  O   -0.000033  -0.000031  -0.000214  -0.000001   0.000000   0.000163
    22  O    0.000114   0.000015   0.000011   0.000046   0.000005  -0.000040
    23  O   -0.000055   0.000001   0.000009  -0.000008   0.000000  -0.000064
    24  C    0.000013   0.000000  -0.000001  -0.000002   0.000000   0.000017
    25  H    0.000001   0.000000   0.000000   0.000000   0.000000  -0.000008
    26  H   -0.000001   0.000000   0.000000   0.000000   0.000000   0.000002
    27  H    0.000005   0.000000   0.000000  -0.000001   0.000000   0.000004
    28  C   -0.000003  -0.000001  -0.000003  -0.000028   0.000000   0.000002
    29  H    0.000006   0.000000   0.000000   0.000024  -0.000002   0.000003
    30  H   -0.000006   0.000000   0.000000   0.000004   0.000000   0.000001
    31  H    0.000002   0.000000   0.000000   0.000000   0.000000   0.000000
              13         14         15         16         17         18
     1  C    0.000307   0.000232  -0.001320   0.006240  -0.005771  -0.002591
     2  C    0.000101   0.002539  -0.000516   0.006976  -0.006249  -0.000353
     3  C   -0.000544   0.000229  -0.004962  -0.004888   0.003854  -0.000821
     4  C   -0.001844  -0.000336   0.007255  -0.001206  -0.007071   0.003769
     5  H    0.000146  -0.000393  -0.000091  -0.000892  -0.002839   0.000479
     6  H   -0.000208   0.000006  -0.000344   0.000359   0.000368   0.000284
     7  C    0.000047  -0.001816  -0.001939  -0.001915  -0.000296   0.000555
     8  H   -0.000036   0.000079   0.000744   0.000536  -0.000836   0.000011
     9  H   -0.000021   0.000000   0.000216   0.000393  -0.000494  -0.000541
    10  C   -0.001842  -0.003331   0.004417  -0.000825   0.000784   0.000041
    11  H   -0.000322  -0.000035   0.000123   0.000019  -0.000133  -0.000004
    12  C    0.002455  -0.000057  -0.007767  -0.001304   0.003666  -0.000242
    13  H    0.001993   0.000004  -0.000075  -0.000009   0.000015  -0.000007
    14  H    0.000004   0.003033  -0.000001   0.000479  -0.001874  -0.000005
    15  H   -0.000075  -0.000001   0.005126   0.000167  -0.000020  -0.000016
    16  N   -0.000009   0.000479   0.000167   0.768306  -0.156741   0.021035
    17  N    0.000015  -0.001874  -0.000020  -0.156741   0.373043  -0.003595
    18  C   -0.000007  -0.000005  -0.000016   0.021035  -0.003595  -0.005055
    19  C   -0.000002   0.000295  -0.000010  -0.006772   0.027989  -0.000356
    20  O    0.000000   0.000079   0.000000   0.005429  -0.006360   0.000141
    21  O    0.000002  -0.000004  -0.000124  -0.010397   0.001408  -0.003630
    22  O    0.000000   0.000381   0.000000   0.000468  -0.005653  -0.000004
    23  O    0.000003   0.000002   0.000020  -0.012746   0.005074  -0.007214
    24  C   -0.000001   0.000000  -0.000001   0.000692  -0.000519   0.000514
    25  H    0.000000   0.000000   0.000000  -0.000141   0.000099  -0.000094
    26  H    0.000000   0.000000   0.000000   0.000116  -0.000029   0.000126
    27  H   -0.000001   0.000000  -0.000009  -0.000054   0.000043  -0.000230
    28  C    0.000000  -0.000047   0.000000  -0.000040   0.000053   0.000000
    29  H    0.000000  -0.000001   0.000000   0.000000   0.000016   0.000000
    30  H    0.000000  -0.000011   0.000000  -0.000009   0.000070   0.000001
    31  H    0.000000   0.000003   0.000000  -0.000001   0.000017  -0.000001
              19         20         21         22         23         24
     1  C   -0.005059  -0.000010  -0.000381   0.000160  -0.000129   0.000056
     2  C    0.003397   0.000027  -0.000129  -0.000072   0.000051  -0.000009
     3  C   -0.000441  -0.000004   0.000940   0.000003   0.000161  -0.000038
     4  C   -0.000423   0.000034   0.000333   0.000050  -0.000667   0.000145
     5  H   -0.002007  -0.000005   0.000029   0.001181  -0.000124   0.000024
     6  H    0.000118  -0.000001  -0.000180  -0.000008  -0.000538  -0.000047
     7  C    0.000672  -0.000028  -0.000033   0.000114  -0.000055   0.000013
     8  H   -0.000018   0.000006  -0.000031   0.000015   0.000001   0.000000
     9  H   -0.000011   0.000073  -0.000214   0.000011   0.000009  -0.000001
    10  C   -0.000418  -0.000003  -0.000001   0.000046  -0.000008  -0.000002
    11  H   -0.000017   0.000000   0.000000   0.000005   0.000000   0.000000
    12  C    0.000220  -0.000008   0.000163  -0.000040  -0.000064   0.000017
    13  H   -0.000002   0.000000   0.000002   0.000000   0.000003  -0.000001
    14  H    0.000295   0.000079  -0.000004   0.000381   0.000002   0.000000
    15  H   -0.000010   0.000000  -0.000124   0.000000   0.000020  -0.000001
    16  N   -0.006772   0.005429  -0.010397   0.000468  -0.012746   0.000692
    17  N    0.027989  -0.006360   0.001408  -0.005653   0.005074  -0.000519
    18  C   -0.000356   0.000141  -0.003630  -0.000004  -0.007214   0.000514
    19  C    0.009476  -0.010347  -0.000079  -0.005266   0.000558  -0.000009
    20  O   -0.010347   0.057665  -0.000005   0.001951  -0.000055   0.000003
    21  O   -0.000079  -0.000005   0.051659   0.000000   0.000136   0.000091
    22  O   -0.005266   0.001951   0.000000   0.023496  -0.000012   0.000000
    23  O    0.000558  -0.000055   0.000136  -0.000012   0.035589  -0.000682
    24  C   -0.000009   0.000003   0.000091   0.000000  -0.000682   0.002485
    25  H    0.000009   0.000000  -0.000008   0.000000  -0.000205   0.000053
    26  H   -0.000005   0.000000  -0.000393   0.000000  -0.000350   0.000616
    27  H    0.000003   0.000000  -0.000050   0.000000   0.000192   0.000154
    28  C    0.000578  -0.000290   0.000000  -0.001152   0.000001   0.000000
    29  H    0.000016  -0.000010   0.000000   0.000026   0.000000   0.000000
    30  H   -0.000037  -0.000196   0.000000  -0.000041   0.000000   0.000000
    31  H    0.000129  -0.000230   0.000000  -0.000300   0.000000   0.000000
              25         26         27         28         29         30
     1  C   -0.000010   0.000015  -0.000017   0.000096  -0.000072   0.000017
     2  C    0.000004  -0.000001   0.000006   0.000043  -0.000012  -0.000002
     3  C   -0.000013   0.000011  -0.000054   0.000000   0.000000   0.000001
     4  C   -0.000020  -0.000027   0.000021  -0.000003  -0.000006  -0.000005
     5  H   -0.000008   0.000001  -0.000002  -0.000024   0.000028   0.000009
     6  H    0.000054  -0.000025   0.000155   0.000000   0.000000   0.000000
     7  C    0.000001  -0.000001   0.000005  -0.000003   0.000006  -0.000006
     8  H    0.000000   0.000000   0.000000  -0.000001   0.000000   0.000000
     9  H    0.000000   0.000000   0.000000  -0.000003   0.000000   0.000000
    10  C    0.000000   0.000000  -0.000001  -0.000028   0.000024   0.000004
    11  H    0.000000   0.000000   0.000000   0.000000  -0.000002   0.000000
    12  C   -0.000008   0.000002   0.000004   0.000002   0.000003   0.000001
    13  H    0.000000   0.000000  -0.000001   0.000000   0.000000   0.000000
    14  H    0.000000   0.000000   0.000000  -0.000047  -0.000001  -0.000011
    15  H    0.000000   0.000000  -0.000009   0.000000   0.000000   0.000000
    16  N   -0.000141   0.000116  -0.000054  -0.000040   0.000000  -0.000009
    17  N    0.000099  -0.000029   0.000043   0.000053   0.000016   0.000070
    18  C   -0.000094   0.000126  -0.000230   0.000000   0.000000   0.000001
    19  C    0.000009  -0.000005   0.000003   0.000578   0.000016  -0.000037
    20  O    0.000000   0.000000   0.000000  -0.000290  -0.000010  -0.000196
    21  O   -0.000008  -0.000393  -0.000050   0.000000   0.000000   0.000000
    22  O    0.000000   0.000000   0.000000  -0.001152   0.000026  -0.000041
    23  O   -0.000205  -0.000350   0.000192   0.000001   0.000000   0.000000
    24  C    0.000053   0.000616   0.000154   0.000000   0.000000   0.000000
    25  H    0.001911  -0.000459   0.000279   0.000000   0.000000   0.000000
    26  H   -0.000459   0.000890   0.000024   0.000000   0.000000   0.000000
    27  H    0.000279   0.000024  -0.000273   0.000000   0.000000   0.000000
    28  C    0.000000   0.000000   0.000000  -0.001128   0.000002   0.000386
    29  H    0.000000   0.000000   0.000000   0.000002   0.000001   0.000031
    30  H    0.000000   0.000000   0.000000   0.000386   0.000031   0.000497
    31  H    0.000000   0.000000   0.000000   0.000418  -0.000021   0.000005
              31
     1  C   -0.000031
     2  C    0.000003
     3  C    0.000000
     4  C    0.000002
     5  H   -0.000012
     6  H    0.000000
     7  C    0.000002
     8  H    0.000000
     9  H    0.000000
    10  C    0.000000
    11  H    0.000000
    12  C    0.000000
    13  H    0.000000
    14  H    0.000003
    15  H    0.000000
    16  N   -0.000001
    17  N    0.000017
    18  C   -0.000001
    19  C    0.000129
    20  O   -0.000230
    21  O    0.000000
    22  O   -0.000300
    23  O    0.000000
    24  C    0.000000
    25  H    0.000000
    26  H    0.000000
    27  H    0.000000
    28  C    0.000418
    29  H   -0.000021
    30  H    0.000005
    31  H    0.000850
 Mulliken charges and spin densities:
               1          2
     1  C    0.049524   0.028935
     2  C   -0.081812  -0.045996
     3  C   -0.126433   0.094926
     4  C   -0.203918   0.039518
     5  H    0.122478   0.010527
     6  H    0.145099  -0.001034
     7  C   -0.167657   0.038658
     8  H    0.116698   0.004575
     9  H    0.141791   0.000790
    10  C   -0.314844   0.933434
    11  H    0.149018  -0.023993
    12  C   -0.036496  -0.053905
    13  H    0.137464   0.000160
    14  H    0.133370  -0.000551
    15  H    0.135300   0.000874
    16  N   -0.230987   0.613273
    17  N    0.053291   0.218017
    18  C    0.386522   0.002197
    19  C    0.435105   0.012184
    20  O   -0.346493   0.047855
    21  O   -0.371876   0.039103
    22  O   -0.292784   0.015359
    23  O   -0.287011   0.018947
    24  C   -0.211221   0.003555
    25  H    0.146617   0.001443
    26  H    0.152520   0.000511
    27  H    0.137404   0.000196
    28  C   -0.216836  -0.001138
    29  H    0.147830   0.000031
[...]
 5,0.00000779,0.00000620,0.00001885,-0.00001911,-0.00002553,-0.00000556
 ,0.00000109,-0.00001462,0.00000182,-0.00002878,-0.00003302,0.00002465,
 0.00000314,-0.00001939,-0.00000343,-0.00000202,0.00000424,-0.00000040,
 -0.00000401,0.00001402,0.00000110,-0.00044159,-0.00000685,-0.00069412,
 -0.00035823,-0.00001857,0.00012460,0.00000314,0.00073861,0.00217814,0.
 00059041,-0.00021086,-0.00000505,-0.00016549,0.00014662,-0.00004121,-0
 .00076983,-0.00028214,-0.00018285,-0.00024596,-0.00004949,0.00010863,-
 0.00469802,-0.00326099,-0.01040525,0.02043224,-0.05592979,-0.31624628,
 -0.01703131,0.06282579,0.33921688,0.00007536,0.00036364,-0.00002125,0.
 00005834,-0.00000609,0.00005357,0.00003123,0.00008043,0.00003127,0.000
 01570,-0.00025863,0.00004107,0.00001594,-0.00003771,0.00001128,-0.0002
 2468,-0.00001492,-0.00009756,-0.00000137,0.00001243,-0.00002370,0.0000
 0619,-0.00001620,-0.00000234,0.00000660,0.00000664,0.00002401,-0.00000
 204,-0.00003420,-0.00000183,-0.00000386,-0.00001341,0.00000132,-0.0000
 4330,-0.00004663,0.00003203,-0.00000161,-0.00003406,-0.00000549,0.0000
 0070,0.00000320,-0.00000130,-0.00000659,-0.00001272,-0.00002947,-0.000
 99127,0.00067833,-0.00082585,0.00009040,0.00001245,-0.00028606,-0.0000
 6510,0.00077560,0.00832431,0.00064240,-0.00021543,0.00001961,-0.000215
 74,0.00017392,-0.00003720,0.00164229,-0.00020301,-0.00215144,-0.000269
 89,-0.00004349,0.00009804,-0.03034552,-0.02973163,0.00680631,-0.085894
 32,-0.07454867,0.05005222,0.00082024,-0.00101574,0.00171836,0.10562208
 ,0.00005460,-0.00008014,-0.00004328,-0.00004415,0.00002738,-0.00001765
 ,-0.00002594,0.00004942,0.00000047,0.00003682,0.00013786,0.00007124,0.
 00000734,0.00000721,-0.00000169,0.00018435,0.00019704,-0.00006305,0.00
 000514,-0.00003188,0.00000607,-0.00001340,-0.00000646,-0.00001169,-0.0
 0000670,0.00000791,-0.00000467,0.00002565,-0.00000108,-0.00000129,-0.0
 0001161,-0.00000586,-0.00000476,-0.00004394,-0.00000354,0.00000829,0.0
 0000198,0.00001012,0.00000151,-0.00001005,-0.00001173,-0.00000978,0.00
 000017,0.00000810,0.00001824,-0.00019082,-0.00027462,-0.00023080,0.000
 08681,-0.00000103,-0.00014423,-0.00165021,0.00105621,0.00395296,0.0001
 0257,-0.00000260,0.00003864,-0.00003980,0.00003060,-0.00002348,0.00220
 140,0.00045470,-0.00041469,-0.00003959,0.00000584,0.00000352,-0.006464
 70,0.00085181,-0.00409414,-0.08050870,-0.21242458,0.10621175,0.0043548
 1,0.00745535,-0.00419415,0.09162324,0.22129362,0.00004025,0.00006369,0
 .00002040,-0.00000400,0.00001026,0.00000741,0.00002580,0.00001380,0.00
 000138,-0.00007611,-0.00002618,0.00001985,-0.00000510,-0.00002255,0.00
 000299,0.00006047,-0.00002311,-0.00006919,-0.00000166,0.00000917,0.000
 00065,0.00000537,0.00000107,0.00000367,-0.00000857,0.,0.00000246,-0.00
 000491,-0.00000286,-0.00000251,0.00000154,0.00000073,0.00000176,0.0000
 1725,-0.00000849,0.00001324,0.00000324,-0.00001178,-0.00000893,0.00000
 364,-0.00000114,0.00000037,0.00000481,-0.00001012,-0.00000003,-0.00023
 992,0.00086514,-0.00065166,0.00027369,0.00004379,-0.00000715,-0.002099
 93,-0.00151402,0.00307900,0.00002415,0.00003403,-0.00007071,-0.0000172
 5,-0.00002254,0.00002514,0.00052158,-0.00004836,-0.00071469,-0.0000037
 2,-0.00002249,0.00001864,-0.00820826,-0.01330550,0.00682268,0.05611502
 ,0.11086603,-0.12261148,0.01082878,0.02410350,-0.01236312,-0.05546124,
 -0.11544885,0.12316683,-0.00011660,0.00048140,-0.00009409,0.00014412,-
 0.00005632,0.00013850,0.00006016,-0.00003335,-0.00000436,-0.00011396,-
 0.00013910,-0.00012998,0.00003108,-0.00005258,0.00002370,-0.00035235,-
 0.00041271,0.00007418,-0.00001849,0.00005894,-0.00003124,0.00003192,-0
 .00001343,0.00001350,0.00000764,-0.00000240,0.00003606,-0.00006915,-0.
 00000464,-0.00003743,0.00002894,-0.00001138,0.00002177,0.00012630,-0.0
 0002513,0.00003245,0.00000368,-0.00003476,-0.00000941,0.00001845,0.000
 02186,0.00001268,0.00000419,-0.00003856,-0.00004101,-0.00077164,-0.000
 83532,-0.00074958,-0.00050617,0.00004388,-0.00000836,0.00012340,0.0033
 9055,0.00852989,0.00086414,-0.00022659,0.00003748,-0.00019647,0.000153
 35,-0.00007799,0.00211326,-0.00049136,-0.00182038,-0.00031639,-0.00010
 180,0.00013896,-0.03472729,0.02274938,-0.00555492,-0.11885530,0.112910
 65,0.02022589,0.00091058,0.00126409,0.00099057,0.00897287,-0.00965615,
 -0.00179137,0.14253548,-0.00005002,-0.00002463,-0.00000633,-0.00000074
 ,0.00001494,0.00000427,-0.00000199,-0.00006828,-0.00001226,-0.00023232
 ,0.00021629,-0.00022971,0.00001922,-0.00001258,0.00000999,0.00012481,-
 0.00001060,0.00006394,-0.00000620,0.00001716,-0.00000092,0.00000876,0.
 00000311,0.00000463,0.00000570,-0.00000275,0.00000362,-0.00002180,0.00
 003182,0.00000199,0.00001667,0.00000023,0.00000334,0.00012232,0.000012
 90,0.00001944,0.00000011,-0.00000216,-0.00000226,0.00000149,-0.0000027
 2,0.00000160,0.00000522,0.00000989,-0.00000404,-0.00030672,-0.00036429
 ,0.00027360,-0.00020113,-0.00008800,0.00003642,0.00108356,0.00056413,-
 0.00230382,0.00004012,-0.00008635,0.00001935,-0.00000066,0.00004391,-0
 .00000948,-0.00149019,-0.00000243,0.00023720,0.00000144,0.00001230,-0.
 00000378,-0.00332927,0.01169072,0.00294115,0.11942510,-0.24324255,-0.0
 3496698,0.00119107,-0.00324362,0.00027366,0.01252591,-0.01874490,-0.00
 554677,-0.12891962,0.25328140,0.00000455,-0.00003629,-0.00004491,-0.00
 001733,0.00001443,0.00000304,-0.00006497,-0.00000702,-0.00002998,0.000
 07408,0.00012617,0.00006020,0.00002246,-0.00000903,0.00000316,0.000102
 14,-0.00002265,0.00021182,0.00000592,-0.00001465,-0.00002347,-0.000006
 16,-0.00000410,-0.00000660,-0.00001093,0.00000655,-0.00000359,0.000022
 44,0.00001322,-0.00002907,-0.00000288,-0.00000206,0.00000536,0.0000230
 4,0.00000683,0.00000223,0.00000065,0.00002234,0.00000885,-0.00000347,-
 0.00000784,-0.00001089,0.00000657,-0.00004396,-0.00002135,-0.00025468,
 -0.00063613,-0.00025146,-0.00011438,0.00000700,0.00004160,-0.00244556,
 0.00210304,0.00339256,0.00018237,-0.00006594,0.00004788,-0.00003723,0.
 00006404,-0.00003633,0.00122201,0.00008490,-0.00063777,-0.00004592,-0.
 00000102,0.00000984,-0.01061122,0.00935792,-0.00059766,0.02438369,-0.0
 3870560,-0.05753086,0.01573963,-0.02583481,-0.00159838,-0.00826534,0.0
 1439856,0.00331371,-0.01992332,0.03919244,0.05372634,-0.00030678,0.001
 31955,-0.00077805,-0.00010390,-0.00013887,0.00018765,0.00028789,0.0001
 9450,-0.00005736,-0.00012439,-0.00033867,-0.00043870,-0.00036112,0.000
 14826,-0.00058488,0.00015370,-0.00002666,-0.00007262,0.00007593,-0.000
 09139,0.00007935,0.00009551,-0.00018085,-0.00008850,-0.00001917,0.0000
 3203,0.00015436,0.00004279,0.00011764,-0.00017951,0.00007113,-0.000195
 74,0.00001490,0.00010366,-0.00017405,0.00032590,0.00008026,-0.00009436
 ,-0.00001489,0.00038044,0.00056263,0.00040374,0.00006973,-0.00006528,-
 0.00002298,0.00272147,-0.00065268,0.00055589,0.00667684,-0.00120194,0.
 00055327,-0.00411685,-0.00033681,-0.00118251,-0.06055744,-0.01395132,0
 .02474462,0.00308429,0.01329518,-0.01155957,0.00197369,0.00022209,-0.0
 0047197,-0.18785665,0.03780190,0.00279866,0.00135614,0.00044847,0.0013
 0544,-0.00071681,-0.00018935,-0.00027965,0.00006186,0.00001077,0.00008
 763,0.00010394,0.00002728,-0.00000286,0.00011109,-0.00000933,0.0000219
 5,0.47201084,0.00004231,-0.00070352,0.00068583,0.00012464,0.00009296,0
 .00002027,0.00001344,-0.00003702,-0.00000675,0.00007011,0.00022262,-0.
 00010147,0.00039442,-0.00017117,-0.00016584,-0.00000803,-0.00001101,0.
 00000951,-0.00002975,-0.00003015,-0.00003913,-0.00000016,0.00003395,0.
 00000353,0.00000303,-0.00001356,-0.00003624,0.00001701,0.00001442,0.00
 003598,0.00000015,0.00000962,-0.00001661,-0.00008691,0.00003390,-0.000
 03524,-0.00001521,0.00002587,0.00000570,0.00013598,-0.00019876,-0.0001
 3767,-0.00001447,-0.00001407,-0.00000586,-0.00237123,0.00061863,0.0006
 6218,-0.00267851,-0.00112100,0.00431766,0.00123534,0.00008961,0.000419
 31,-0.02001151,0.01198772,-0.00513941,-0.00305287,-0.00473872,0.001157
 34,-0.00062576,-0.00007535,0.00012907,0.06055788,-0.09618550,0.0085521
 3,-0.00042478,-0.00017896,-0.00042418,0.00018828,0.00005047,0.00005915
 ,-0.00002972,0.00000124,-0.00002978,-0.00003428,-0.00000641,0.00000390
 ,-0.00002830,-0.00000452,-0.00000966,0.05373465,0.59984837,-0.00038117
 ,0.00030856,-0.00046407,0.00005690,-0.00010429,-0.00011411,-0.00010987
 ,-0.00001376,-0.00000380,-0.00007283,-0.00001883,0.00032768,-0.0000696
 1,-0.00016110,0.00047582,-0.00003263,0.00001373,-0.00000498,-0.0000146
 2,0.00000547,0.00000213,-0.00000373,-0.00000172,0.00001205,0.00003458,
 0.00001380,-0.00001197,-0.00000700,-0.00004034,-0.00003971,-0.00002185
 ,0.00004253,0.00002536,0.00001222,0.00001428,-0.00007046,-0.00001373,0
 .00001465,0.00000075,0.00005648,-0.00016216,0.00005115,-0.00000597,0.0
 0004427,0.00000920,0.00098358,0.00052771,0.00113070,0.00107695,0.00427
 287,0.00002093,0.00041389,-0.00008546,-0.00024845,0.02921207,-0.007078
 92,-0.00379784,0.00050338,-0.00283284,-0.00227001,0.00013592,-0.000002
 96,-0.00004516,-0.01411229,0.01449154,-0.07050440,-0.00011582,-0.00005
 246,-0.00010161,0.00003285,0.00002307,0.00001844,-0.00000878,0.0000001
 3,-0.00000840,-0.00000518,-0.00000262,0.,-0.00000517,-0.00000150,-0.00
 000482,-0.00672627,-0.01431140,0.61273969,0.00004601,-0.00037260,0.000
 29874,-0.00003075,0.00002075,-0.00006445,0.00002321,-0.00004238,-0.000
 02218,0.00003720,0.00007467,-0.00000784,-0.00000143,-0.00000664,-0.000
 02028,-0.00000841,-0.00000410,0.00001353,0.00000981,-0.00000747,0.0000
 2662,-0.00000652,0.00001654,0.00000006,0.00000360,0.00000094,-0.000028
 85,0.00001021,0.00000463,-0.00001160,-0.00001363,0.00003220,0.00000686
 ,-0.00001678,0.00004258,-0.00004402,-0.00000144,0.00001617,0.00000647,
 -0.00001552,-0.00003513,0.00002482,0.00000111,0.00000282,-0.00000096,-
 0.00092891,0.00018000,-0.00014548,-0.00092292,-0.00104263,0.00109199,0
 .00055959,0.00006456,0.00028487,-0.00355672,0.00544403,-0.00313781,0.0
 0144713,-0.00097274,0.00049288,-0.00032695,-0.00003291,0.00005912,-0.0
 3271743,-0.02103952,0.02336919,-0.00018627,-0.00005755,-0.00020441,0.0
 0008763,0.00001870,0.00003128,-0.00001167,-0.00000399,-0.00001253,-0.0
 0001362,-0.00000104,-0.00000126,-0.00001652,-0.00000012,-0.00000119,-0
 .10535820,-0.08203501,0.07211969,0.13124757,-0.00005601,0.00003453,-0.
 00001924,0.00002562,0.00000081,0.00000882,-0.00001866,0.00000121,0.000
 00695,-0.00000324,-0.00000036,0.00000907,-0.00001263,0.00001997,0.0000
 3889,-0.00000778,-0.00000115,0.00000347,-0.00000901,-0.00000164,-0.000
 01552,0.00000078,0.00000299,0.00000034,0.00000125,-0.00000067,-0.00000
 159,-0.00000393,-0.00000206,0.00000722,0.00000536,-0.00000372,-0.00000
 029,-0.00000356,0.00000082,-0.00000220,-0.00000572,0.00000180,-0.00000
 030,-0.00001786,0.00000024,-0.00002838,-0.00000452,0.00000043,-0.00000
 064,0.00014397,0.00005243,0.00002936,0.00018530,0.00054651,-0.00038559
 ,0.00012318,0.00001315,-0.00001910,0.00318305,-0.00225389,0.00093741,-
 0.00157146,0.00120563,-0.00011192,-0.00001232,-0.00000431,0.00000273,0
 .01203849,0.00978785,-0.00953016,-0.00003845,-0.00001243,-0.00004064,0
 .00001996,0.00000417,0.00001192,-0.00000198,-0.00000155,-0.00000278,-0
 .00000198,-0.00000101,-0.00000086,-0.00000287,0.00000110,-0.00000042,-
 0.09427205,-0.17482176,0.11126442,0.09183217,0.17857588,0.00000028,0.0
 0009611,-0.00002601,0.00007002,-0.00000451,0.00004678,-0.00000626,0.00
 001789,0.00001057,-0.00001936,-0.00004026,-0.00003331,-0.00000040,0.00
 000393,-0.00002674,-0.00000212,0.00000014,-0.00000258,-0.00001273,0.00
 000642,-0.00003079,0.00000727,-0.00000951,-0.00000532,-0.00000539,-0.0
 0000033,0.00001060,-0.00000012,-0.00000684,0.00000181,0.00001088,-0.00
 001823,0.00000233,-0.00000195,-0.00001054,0.00002158,-0.00000472,-0.00
 000616,-0.00000074,0.00002664,0.00002080,-0.00003779,-0.00000352,-0.00
 000535,-0.00000516,0.00010265,-0.00005948,0.00009405,0.00017226,0.0000
 0161,0.00017767,-0.00018837,-0.00003825,-0.00006235,-0.00146062,0.0004
 1043,0.00015591,0.00095119,-0.00028111,0.00049264,0.00009819,0.0000081
 5,-0.00002620,-0.00065474,-0.00146534,0.00172691,0.00005288,0.00001377
 ,0.00005053,-0.00003033,-0.00000383,-0.00001032,0.00000131,0.00000050,
 0.00000304,0.00000393,0.00000075,0.,0.00000544,-0.00000105,0.00000036,
 0.08092662,0.10829443,-0.15137161,-0.08699548,-0.11791736,0.15377312,0
 .00009285,-0.00026732,-0.00003590,-0.00007163,-0.00004978,-0.00008484,
 -0.00006126,-0.00004179,0.00000173,0.00000803,0.00003723,0.00014680,0.
 00006104,-0.00006710,0.00019492,-0.00001833,0.00000536,0.00001009,0.00
 000573,0.00002836,0.00001442,-0.00001604,0.00002419,0.00001456,-0.0000
 1479,-0.00001267,-0.00001597,0.00002052,0.00001650,0.00001921,-0.00000
 839,0.00002467,-0.00000131,0.00001539,-0.00000040,-0.00004257,-0.00000
 307,0.00001642,0.00000574,-0.00001501,-0.00001456,-0.00005047,-0.00000
 122,0.00002036,0.00001221,-0.00032288,0.00022069,0.00012937,-0.0008952
 0,0.00046932,0.00077520,0.00057582,-0.00000898,0.00012327,0.00368200,0
 .00554921,-0.00756219,0.00038504,-0.00253153,0.00179236,-0.00023844,-0
 .00002346,0.00005829,-0.03221057,0.00192793,-0.02838172,-0.00018110,-0
 .00005408,-0.00015716,0.00008433,0.00002784,0.00002815,-0.00000945,-0.
 00000106,-0.00001092,-0.00001245,-0.00000331,0.00000040,-0.00001439,-0
 .00000005,-0.00000383,-0.08054747,-0.00328351,-0.08175531,0.00812254,0
 .00153568,0.01421015,0.09900818,0.00002083,0.00014714,0.00000268,0.000
 11603,0.00002640,0.00006203,0.00001590,0.00002493,0.00000606,-0.000025
 43,-0.00006129,-0.00005986,-0.00002494,0.00000609,-0.00007084,0.000004
 33,0.00000015,-0.00000704,-0.00001121,-0.00000018,-0.00002973,0.000011
 91,-0.00001545,-0.00000801,0.00000674,0.00000805,0.00000898,-0.0000193
 2,-0.00002813,-0.00000432,0.00000730,-0.00001452,0.00000472,-0.0000080
 2,-0.00000157,0.00002141,-0.00000469,-0.00001156,-0.00000510,0.0000058
 8,-0.00000310,0.00001661,-0.00000399,-0.00000985,-0.00000940,0.0001714
 9,-0.00009934,-0.00001701,0.00036208,-0.00031562,0.00005441,-0.0002822
 8,-0.00001555,-0.00007924,-0.00239907,0.00080016,0.00010323,0.00072472
 ,-0.00005462,-0.00005007,0.00012101,0.00000399,-0.00002412,0.01017850,
 -0.00005103,0.01130786,0.00008497,0.00002787,0.00009227,-0.00003984,-0
 .00000641,-0.00001710,0.00000558,0.00000096,0.00000589,0.00000601,0.00
 000090,0.00000057,0.00000704,-0.00000023,0.00000141,-0.00396184,-0.050
 26948,-0.00939426,0.00785504,0.00206573,0.01941837,-0.00237071,0.04672
 616,0.00004002,-0.00003215,-0.00008520,-0.00001657,0.00000531,-0.00000
 763,-0.00001379,0.00000057,0.00000344,0.00000805,0.00000897,0.00003013
 ,0.00001735,-0.00001263,0.00003855,-0.00000031,0.00000184,-0.00000065,
 0.00000293,0.00000754,0.00000143,-0.00000631,0.00000734,0.00000786,-0.
 00000089,-0.00000377,0.00000088,0.00000142,-0.00000415,0.00001499,-0.0
 0000277,0.00000524,-0.00000563,0.00000145,-0.00000722,-0.00000189,0.00
 000036,0.00000007,-0.00000145,-0.00004646,-0.00000483,-0.00002003,-0.0
 0000097,0.00000236,0.00000398,-0.00006977,-0.00006369,0.00003299,0.000
 07561,-0.00046983,-0.00036300,0.00000779,-0.00000917,-0.00003427,0.001
 19365,0.00179787,0.00023107,0.00105682,-0.00052469,0.00039497,-0.00003
 383,0.00000411,0.00002668,-0.00168052,0.00208450,0.00858037,-0.0000135
 6,0.00000490,0.00002090,0.00001548,-0.00000021,0.00000170,0.00000227,0
 .00000032,0.00000083,-0.00000159,-0.00000159,0.00000100,-0.00000077,0.
 00000181,0.00000018,-0.09213639,-0.00788601,-0.29397212,-0.00563795,-0
 .00239957,-0.01386095,0.09996201,0.00632787,0.30830177,0.00018869,-0.0
 0023864,0.00007628,0.00000884,0.00003810,-0.00003850,-0.00004970,-0.00
 002784,0.00001104,0.00001876,0.00000599,0.00007607,-0.00001269,0.00005
 927,0.00011765,-0.00002842,0.00000724,0.00001404,-0.00000681,0.0000183
 5,-0.00001180,-0.00001830,0.00002649,0.00001318,-0.00000113,-0.0000026
 9,-0.00002097,-0.00001697,-0.00001933,0.00003482,-0.00001427,0.0000324
 4,-0.00000238,-0.00000258,0.00002814,-0.00004959,-0.00001077,0.0000105
 0,0.00000199,-0.00012931,-0.00006109,-0.00005568,-0.00000899,0.0000115
 9,0.00000399,-0.00027111,0.00002401,-0.00038416,-0.00128521,-0.0004977
 7,-0.00045179,0.00053689,0.00008859,0.00032455,0.00451581,0.00710246,-
 0.00344014,0.00003559,-0.00210257,0.00149024,-0.00028947,-0.00004248,0
 .00003354,-0.01964088,0.03589537,0.01684225,-0.00015846,-0.00007007,-0
 .00020948,0.00007959,0.00002654,0.00003571,-0.00001069,-0.00000070,-0.
 00001326,-0.00001290,-0.00000207,0.00000017,-0.00001259,-0.00000132,-0
 .00000307,-0.04939242,-0.00178723,-0.00117667,0.00253810,-0.01305077,-
 0.00725362,0.00258022,-0.01055400,-0.00272277,0.06087119,-0.00004274,0
 .00003428,-0.00007515,-0.00006088,-0.00000048,0.00000977,0.00003917,0.
 00000530,-0.00001437,-0.00000241,0.00000393,-0.00002412,-0.00003698,-0
 .00000669,-0.00007142,0.00002415,-0.00000633,-0.00000565,0.00001709,-0
 .00000738,0.00003486,0.00000472,-0.00000913,-0.00000623,-0.00000517,0.
 00000023,0.00000607,0.00000696,0.00001717,-0.00002341,0.00000025,-0.00
 000737,0.00000163,0.00001200,-0.00001270,0.00002156,0.00001289,-0.0000
 0645,-0.00000116,0.00003276,0.00005876,0.00006148,0.00001055,-0.000005
 22,0.00000090,0.00026463,0.00001443,0.00008732,0.00016401,-0.00014837,
 -0.00039398,-0.00024217,-0.00004700,-0.00014323,-0.00245688,-0.0014970
 3,0.00288680,-0.00082465,0.00121059,-0.00061242,0.00011823,0.00002209,
 -0.00000914,0.01098965,-0.00527333,-0.00205410,0.00007378,0.00004324,0
 .00010594,-0.00004173,-0.00001544,-0.00002422,0.00000623,0.00000055,0.
 00000791,0.00000697,0.00000178,-0.00000005,0.00000523,0.00000071,0.000
 00231,0.00796624,-0.28444842,-0.09677238,0.00004801,-0.01521071,-0.008
 42516,-0.00117343,0.00111938,0.00115889,-0.01491651,0.30416960,-0.0000
 7121,-0.00002576,0.00002876,-0.00004050,0.00001555,-0.00001762,0.00000
 298,-0.00001004,-0.00000530,0.00000891,0.00003233,-0.00000984,-0.00000
 836,0.00003452,0.00000180,-0.00000213,-0.00000232,0.00000487,0.0000008
 7,-0.00000503,0.00000722,-0.00000145,0.00000385,-0.00000006,-0.0000058
 1,-0.00000434,-0.00000086,0.00000717,0.00001239,-0.00000072,0.,0.00000
 083,-0.00000164,-0.00000117,0.00000374,-0.00000396,0.00000153,0.000004
 41,0.00000337,-0.00000818,0.00001649,-0.00001938,0.00000232,0.00000017
 ,0.00000188,-0.00002831,0.00004984,-0.00000558,-0.00003914,0.00024700,
 -0.00020428,0.00006633,0.00000793,0.00001819,0.00057269,-0.00303563,0.
 00190447,-0.00101760,0.00094972,-0.00039736,-0.00001839,0.00000488,-0.
 00000056,0.00228697,0.00295022,0.00172979,-0.00001739,-0.00000469,-0.0
 0003346,0.00000618,-0.00000289,0.00000794,-0.00000269,-0.00000171,-0.0
 0000179,-0.00000050,0.00000041,-0.00000171,-0.00000173,0.00000044,0.00
 000001,0.00243672,-0.09601075,-0.09178037,-0.00148984,0.01815598,0.008
 93195,0.00060332,-0.02765829,-0.00934091,-0.00324163,0.10427075,0.0891
 8513\\0.00000046,0.00000047,0.00001522,-0.00000899,0.00000376,-0.00000
 749,-0.00000540,0.00000709,0.00000347,0.00000310,-0.00001108,-0.000003
 53,0.00000558,0.00000389,-0.00000362,0.00000179,-0.00000002,-0.0000019
 8,-0.00000059,-0.00001885,-0.00000477,-0.00001048,0.00000197,0.0000029
 9,-0.00000490,-0.00000165,-0.00000155,-0.00000654,-0.00000275,0.000008
 00,-0.00000338,0.00000684,-0.00000145,-0.00000371,-0.00000120,-0.00000
 083,-0.00000016,-0.00000132,-0.00000286,-0.00000437,0.00000537,0.00000
 430,0.00000038,-0.00000318,-0.00000220,-0.00000111,-0.00000953,0.00001
 028,0.00000208,0.00001534,-0.00000870,-0.00000502,0.00001143,0.0000043
 4,-0.00000537,-0.00001835,0.00000815,0.00000372,0.00000495,0.00000468,
 0.00000617,-0.00000651,-0.00001216,0.00001093,0.00001455,-0.00000255,-
 0.00000605,-0.00001036,-0.00000872,0.00001053,-0.00000509,0.00000410,0
 .00000538,-0.00000550,-0.00000955,0.00000755,-0.00000566,-0.00000995,0
 .00000378,-0.00000171,-0.00000721,-0.00000195,0.00000631,0.00000097,0.
 00000075,0.00000409,0.00000853,0.00000233,0.00001004,0.00000868,0.0000
 0347,0.00000667,0.00000540\\\@


 Cherishing children is the mark of a civilized society.
 -- Joan Ganz Cooney
 Job cpu time:       1 days  2 hours  5 minutes 17.1 seconds.
 File lengths (MBytes):  RWF=   1977 Int=      0 D2E=      0 Chk=     36 Scr=      1
 Normal termination of Gaussian 09 at Fri Feb 25 02:28:17 2022.
