 Entering Gaussian System, Link 0=g09
 Input=quadri.com
 Output=quadri.log
 Initial command:
 /apps/applications/gaussian/G09.D01/2/default/g09/l1.exe "/nobackup/pmmass/Temp/Gau-136206.inp" -scrdir="/nobackup/pmmass/Temp/"
 Entering Link 1 = /apps/applications/gaussian/G09.D01/2/default/g09/l1.exe PID=    136207.
  
 Copyright (c) 1988,1990,1992,1993,1995,1998,2003,2009,2013,
            Gaussian, Inc.  All Rights Reserved.
  
 This is part of the Gaussian(R) 09 program.  It is based on
 the Gaussian(R) 03 system (copyright 2003, Gaussian, Inc.),
 the Gaussian(R) 98 system (copyright 1998, Gaussian, Inc.),
 the Gaussian(R) 94 system (copyright 1995, Gaussian, Inc.),
 the Gaussian 92(TM) system (copyright 1992, Gaussian, Inc.),
 the Gaussian 90(TM) system (copyright 1990, Gaussian, Inc.),
 the Gaussian 88(TM) system (copyright 1988, Gaussian, Inc.),
 the Gaussian 86(TM) system (copyright 1986, Carnegie Mellon
 University), and the Gaussian 82(TM) system (copyright 1983,
 Carnegie Mellon University). Gaussian is a federally registered
 trademark of Gaussian, Inc.
  
 This software contains proprietary and confidential information,
 including trade secrets, belonging to Gaussian, Inc.
  
 This software is provided under written license and may be
 used, copied, transmitted, or stored only in accord with that
 written license.
  
 The following legend is applicable only to US Government
 contracts under FAR:
  
                    RESTRICTED RIGHTS LEGEND
  
 Use, reproduction and disclosure by the US Government is
 subject to restrictions as set forth in subparagraphs (a)
 and (c) of the Commercial Computer Software - Restricted
 Rights clause in FAR 52.227-19.
  
 Gaussian, Inc.
 340 Quinnipiac St., Bldg. 40, Wallingford CT 06492
  
  
 ---------------------------------------------------------------
 Warning -- This program may not be used in any manner that
 competes with the business of Gaussian, Inc. or will provide
 assistance to any competitor of Gaussian, Inc.  The licensee
 of this program is prohibited from giving any competitor of
 Gaussian, Inc. access to this program.  By using this program,
 the user acknowledges that Gaussian, Inc. is engaged in the
 business of creating and licensing software in the field of
 computational chemistry and represents and warrants to the
 licensee that it is not a competitor of Gaussian, Inc. and that
 it will not use this program in any manner prohibited above.
 ---------------------------------------------------------------
  

 Cite this work as:
 Gaussian 09, Revision D.01,
 M. J. Frisch, G. W. Trucks, H. B. Schlegel, G. E. Scuseria, 
 M. A. Robb, J. R. Cheeseman, G. Scalmani, V. Barone, B. Mennucci, 
 G. A. Petersson, H. Nakatsuji, M. Caricato, X. Li, H. P. Hratchian, 
 A. F. Izmaylov, J. Bloino, G. Zheng, J. L. Sonnenberg, M. Hada, 
 M. Ehara, K. Toyota, R. Fukuda, J. Hasegawa, M. Ishida, T. Nakajima, 
 Y. Honda, O. Kitao, H. Nakai, T. Vreven, J. A. Montgomery, Jr., 
 J. E. Peralta, F. Ogliaro, M. Bearpark, J. J. Heyd, E. Brothers, 
 K. N. Kudin, V. N. Staroverov, T. Keith, R. Kobayashi, J. Normand, 
 K. Raghavachari, A. Rendell, J. C. Burant, S. S. Iyengar, J. Tomasi, 
 M. Cossi, N. Rega, J. M. Millam, M. Klene, J. E. Knox, J. B. Cross, 
 V. Bakken, C. Adamo, J. Jaramillo, R. Gomperts, R. E. Stratmann, 
 O. Yazyev, A. J. Austin, R. Cammi, C. Pomelli, J. W. Ochterski, 
 R. L. Martin, K. Morokuma, V. G. Zakrzewski, G. A. Voth, 
 P. Salvador, J. J. Dannenberg, S. Dapprich, A. D. Daniels, 
 O. Farkas, J. B. Foresman, J. V. Ortiz, J. Cioslowski, 
 and D. J. Fox, Gaussian, Inc., Wallingford CT, 2013.
 
 ******************************************
 Gaussian 09:  ES64L-G09RevD.01 24-Apr-2013
                23-Feb-2022 
 ******************************************
 %nprocshared=8
 Will use up to    8 processors via shared memory.
 %mem=4GB
 %NoSave
 %chk="quadri.chk"
 ------------------------------------------------
 #n wB97XD/Def2TZVP scrf(smd,solvent=toluene) opt
 ------------------------------------------------
 1/14=-1,18=20,19=15,26=3,38=1/1,3;
 2/9=110,12=2,17=6,18=5,40=1/2;
 3/5=44,7=101,11=2,16=1,25=1,30=1,70=32201,71=1,72=13,74=-58/1,2,3;
 4//1;
 5/5=2,38=5,53=13/2;
 6/7=2,8=2,9=2,10=2,28=1/1;
 7//1,2,3,16;
 1/14=-1,18=20,19=15,26=3/3(2);
 2/9=110/2;
 99//99;
 2/9=110/2;
 3/5=44,7=101,11=2,16=1,25=1,30=1,70=32205,71=1,72=13,74=-58/1,2,3;
 4/5=5,16=3,69=1/1;
 5/5=2,38=5,53=13/2;
 7//1,2,3,16;
 1/14=-1,18=20,19=15,26=3/3(-5);
 2/9=110/2;
 6/7=2,8=2,9=2,10=2,19=2,28=1/1;
 99/9=1/99;
 -----------------------------------------
 Quadricyclane cycloaddition toluene - opt
 -----------------------------------------
 Symbolic Z-matrix:
 Charge =  0 Multiplicity = 1
 C                     0.77053  -0.70448   0.75444 
 C                     1.14488   0.54728   0. 
 C                    -1.1449    0.54725   0. 
 C                    -0.77052  -0.7045    0.75444 
 H                     1.42116  -1.22559   1.43957 
 H                    -1.42113  -1.22563   1.43956 
 C                    -0.00002   1.52941   0. 
 H                    -0.00003   2.16444  -0.88901 
 H                    -0.00003   2.16444   0.88901 
 C                     0.77053  -0.70448  -0.75444 
 H                     1.42116  -1.22559  -1.43956 
 C                    -0.77051  -0.7045   -0.75444 
 H                    -1.42112  -1.22563  -1.43956 
 H                     2.17697   0.86885   0. 
 H                    -2.17699   0.86879   0. 
 

 GradGradGradGradGradGradGradGradGradGradGradGradGradGradGradGradGradGrad
 Berny optimization.
 Initialization pass.
                           ----------------------------
                           !    Initial Parameters    !
                           ! (Angstroms and Degrees)  !
 --------------------------                            --------------------------
 ! Name  Definition              Value          Derivative Info.                !
 --------------------------------------------------------------------------------
 ! R1    R(1,2)                  1.5087         estimate D2E/DX2                !
 ! R2    R(1,4)                  1.5411         estimate D2E/DX2                !
 ! R3    R(1,5)                  1.079          estimate D2E/DX2                !
 ! R4    R(1,10)                 1.5089         estimate D2E/DX2                !
 ! R5    R(2,7)                  1.5084         estimate D2E/DX2                !
 ! R6    R(2,10)                 1.5087         estimate D2E/DX2                !
 ! R7    R(2,14)                 1.081          estimate D2E/DX2                !
 ! R8    R(3,4)                  1.5087         estimate D2E/DX2                !
 ! R9    R(3,7)                  1.5084         estimate D2E/DX2                !
 ! R10   R(3,12)                 1.5087         estimate D2E/DX2                !
 ! R11   R(3,15)                 1.081          estimate D2E/DX2                !
 ! R12   R(4,6)                  1.079          estimate D2E/DX2                !
 ! R13   R(4,12)                 1.5089         estimate D2E/DX2                !
 ! R14   R(7,8)                  1.0925         estimate D2E/DX2                !
 ! R15   R(7,9)                  1.0925         estimate D2E/DX2                !
 ! R16   R(10,11)                1.079          estimate D2E/DX2                !
 ! R17   R(10,12)                1.541          estimate D2E/DX2                !
 ! R18   R(12,13)                1.079          estimate D2E/DX2                !
 ! A1    A(2,1,4)              104.3672         estimate D2E/DX2                !
 ! A2    A(2,1,5)              124.6522         estimate D2E/DX2                !
 ! A3    A(4,1,5)              127.0835         estimate D2E/DX2                !
 ! A4    A(4,1,10)              90.0            estimate D2E/DX2                !
 ! A5    A(5,1,10)             129.4168         estimate D2E/DX2                !
 ! A6    A(1,2,7)              110.6021         estimate D2E/DX2                !
 ! A7    A(1,2,14)             118.9272         estimate D2E/DX2                !
 ! A8    A(7,2,10)             110.6021         estimate D2E/DX2                !
 ! A9    A(7,2,14)             122.0705         estimate D2E/DX2                !
 ! A10   A(10,2,14)            118.9272         estimate D2E/DX2                !
 ! A11   A(4,3,7)              110.6021         estimate D2E/DX2                !
 ! A12   A(4,3,15)             118.9271         estimate D2E/DX2                !
 ! A13   A(7,3,12)             110.6017         estimate D2E/DX2                !
 ! A14   A(7,3,15)             122.0706         estimate D2E/DX2                !
 ! A15   A(12,3,15)            118.9274         estimate D2E/DX2                !
 ! A16   A(1,4,3)              104.3671         estimate D2E/DX2                !
 ! A17   A(1,4,6)              127.0834         estimate D2E/DX2                !
 ! A18   A(1,4,12)              89.9996         estimate D2E/DX2                !
 ! A19   A(3,4,6)              124.6526         estimate D2E/DX2                !
 ! A20   A(6,4,12)             129.4168         estimate D2E/DX2                !
 ! A21   A(2,7,3)               98.7506         estimate D2E/DX2                !
 ! A22   A(2,7,8)              112.2381         estimate D2E/DX2                !
 ! A23   A(2,7,9)              112.2381         estimate D2E/DX2                !
 ! A24   A(3,7,8)              112.2378         estimate D2E/DX2                !
 ! A25   A(3,7,9)              112.2378         estimate D2E/DX2                !
 ! A26   A(8,7,9)              108.9227         estimate D2E/DX2                !
 ! A27   A(1,10,11)            129.4164         estimate D2E/DX2                !
 ! A28   A(1,10,12)             90.0            estimate D2E/DX2                !
 ! A29   A(2,10,11)            124.6521         estimate D2E/DX2                !
 ! A30   A(2,10,12)            104.3672         estimate D2E/DX2                !
 ! A31   A(11,10,12)           127.0837         estimate D2E/DX2                !
 ! A32   A(3,12,10)            104.3675         estimate D2E/DX2                !
 ! A33   A(3,12,13)            124.6522         estimate D2E/DX2                !
 ! A34   A(4,12,10)             90.0004         estimate D2E/DX2                !
 ! A35   A(4,12,13)            129.4162         estimate D2E/DX2                !
 ! A36   A(10,12,13)           127.0834         estimate D2E/DX2                !
 ! D1    D(4,1,2,7)             21.0425         estimate D2E/DX2                !
 ! D2    D(4,1,2,14)           169.8961         estimate D2E/DX2                !
 ! D3    D(5,1,2,7)           -137.9784         estimate D2E/DX2                !
 ! D4    D(5,1,2,14)            10.8752         estimate D2E/DX2                !
 ! D5    D(2,1,4,3)              0.0            estimate D2E/DX2                !
 ! D6    D(2,1,4,6)           -158.3353         estimate D2E/DX2                !
 ! D7    D(2,1,4,12)            58.9224         estimate D2E/DX2                !
 ! D8    D(5,1,4,3)            158.3347         estimate D2E/DX2                !
 ! D9    D(5,1,4,6)             -0.0006         estimate D2E/DX2                !
 ! D10   D(5,1,4,12)          -142.7429         estimate D2E/DX2                !
 ! D11   D(10,1,4,3)           -58.9224         estimate D2E/DX2                !
 ! D12   D(10,1,4,6)           142.7424         estimate D2E/DX2                !
 ! D13   D(10,1,4,12)            0.0            estimate D2E/DX2                !
 ! D14   D(4,1,10,11)         -141.3069         estimate D2E/DX2                !
 ! D15   D(4,1,10,12)            0.0            estimate D2E/DX2                !
 ! D16   D(5,1,10,11)            0.0            estimate D2E/DX2                !
 ! D17   D(5,1,10,12)          141.3069         estimate D2E/DX2                !
 ! D18   D(1,2,7,3)            -32.291          estimate D2E/DX2                !
 ! D19   D(1,2,7,8)           -150.7555         estimate D2E/DX2                !
 ! D20   D(1,2,7,9)             86.1735         estimate D2E/DX2                !
 ! D21   D(10,2,7,3)            32.291          estimate D2E/DX2                !
 ! D22   D(10,2,7,8)           -86.1735         estimate D2E/DX2                !
 ! D23   D(10,2,7,9)           150.7555         estimate D2E/DX2                !
 ! D24   D(14,2,7,3)           180.0            estimate D2E/DX2                !
 ! D25   D(14,2,7,8)            61.5355         estimate D2E/DX2                !
 ! D26   D(14,2,7,9)           -61.5355         estimate D2E/DX2                !
 ! D27   D(7,2,10,11)          137.9789         estimate D2E/DX2                !
 ! D28   D(7,2,10,12)          -21.0425         estimate D2E/DX2                !
 ! D29   D(14,2,10,11)         -10.8747         estimate D2E/DX2                !
 ! D30   D(14,2,10,12)        -169.8961         estimate D2E/DX2                !
 ! D31   D(7,3,4,1)            -21.0425         estimate D2E/DX2                !
 ! D32   D(7,3,4,6)            137.9789         estimate D2E/DX2                !
 ! D33   D(15,3,4,1)          -169.8961         estimate D2E/DX2                !
 ! D34   D(15,3,4,6)           -10.8748         estimate D2E/DX2                !
 ! D35   D(4,3,7,2)             32.291          estimate D2E/DX2                !
 ! D36   D(4,3,7,8)            150.7557         estimate D2E/DX2                !
 ! D37   D(4,3,7,9)            -86.1736         estimate D2E/DX2                !
 ! D38   D(12,3,7,2)           -32.2909         estimate D2E/DX2                !
 ! D39   D(12,3,7,8)            86.1738         estimate D2E/DX2                !
 ! D40   D(12,3,7,9)          -150.7556         estimate D2E/DX2                !
 ! D41   D(15,3,7,2)           180.0            estimate D2E/DX2                !
 ! D42   D(15,3,7,8)           -61.5353         estimate D2E/DX2                !
 ! D43   D(15,3,7,9)            61.5353         estimate D2E/DX2                !
 ! D44   D(7,3,12,10)           21.0424         estimate D2E/DX2                !
 ! D45   D(7,3,12,13)         -137.979          estimate D2E/DX2                !
 ! D46   D(15,3,12,10)         169.8961         estimate D2E/DX2                !
 ! D47   D(15,3,12,13)          10.8746         estimate D2E/DX2                !
 ! D48   D(1,4,12,10)            0.0            estimate D2E/DX2                !
 ! D49   D(1,4,12,13)          141.3067         estimate D2E/DX2                !
 ! D50   D(6,4,12,10)         -141.3063         estimate D2E/DX2                !
 ! D51   D(6,4,12,13)            0.0004         estimate D2E/DX2                !
 ! D52   D(1,10,12,3)           58.9224         estimate D2E/DX2                !
 ! D53   D(1,10,12,4)            0.0            estimate D2E/DX2                !
 ! D54   D(1,10,12,13)        -142.7424         estimate D2E/DX2                !
 ! D55   D(2,10,12,3)            0.0            estimate D2E/DX2                !
 ! D56   D(2,10,12,4)          -58.9224         estimate D2E/DX2                !
 ! D57   D(2,10,12,13)         158.3353         estimate D2E/DX2                !
 ! D58   D(11,10,12,3)        -158.3351         estimate D2E/DX2                !
 ! D59   D(11,10,12,4)         142.7425         estimate D2E/DX2                !
 ! D60   D(11,10,12,13)          0.0002         estimate D2E/DX2                !
 --------------------------------------------------------------------------------
 Trust Radius=3.00D-01 FncErr=1.00D-07 GrdErr=1.00D-06
 Number of steps in this run=    100 maximum allowed number of steps=    100.
 GradGradGradGradGradGradGradGradGradGradGradGradGradGradGradGradGradGrad

                          Input orientation:                          
 ---------------------------------------------------------------------
 Center     Atomic      Atomic             Coordinates (Angstroms)
 Number     Number       Type             X           Y           Z
 ---------------------------------------------------------------------
      1          6           0        0.770530   -0.704480    0.754440
      2          6           0        1.144880    0.547280    0.000000
      3          6           0       -1.144900    0.547250    0.000000
      4          6           0       -0.770520   -0.704500    0.754440
      5          1           0        1.421160   -1.225590    1.439570
      6          1           0       -1.421130   -1.225630    1.439560
      7          6           0       -0.000020    1.529410    0.000000
      8          1           0       -0.000030    2.164440   -0.889010
      9          1           0       -0.000030    2.164440    0.889010
     10          6           0        0.770530   -0.704480   -0.754440
     11          1           0        1.421160   -1.225590   -1.439560
     12          6           0       -0.770510   -0.704500   -0.754440
     13          1           0       -1.421120   -1.225630   -1.439560
     14          1           0        2.176970    0.868850    0.000000
     15          1           0       -2.176990    0.868790    0.000000
 ---------------------------------------------------------------------
                    Distance matrix (angstroms):
                    1          2          3          4          5
     1  C    0.000000
     2  C    1.508715   0.000000
     3  C    2.409332   2.289780   0.000000
     4  C    1.541050   2.409334   1.508714   0.000000
     5  H    1.079017   2.300383   3.435111   2.354655   0.000000
     6  H    2.354647   3.435106   2.300378   1.079008   2.842290
     7  C    2.480563   1.508435   1.508439   2.480565   3.417914
     8  H    3.394907   2.171719   2.171720   3.394908   4.351364
     9  H    2.973647   2.171719   2.171720   2.973648   3.716881
    10  C    1.508880   1.508715   2.409332   2.156746   2.347031
    11  H    2.347022   2.300376   3.435107   3.144620   2.879130
    12  C    2.156739   2.409326   1.508717   1.508880   3.144620
    13  H    3.144609   3.435098   2.300377   2.347018   4.045732
    14  H    2.241120   1.081026   3.337401   3.425246   2.651469
    15  H    3.425235   3.337393   1.081017   2.241111   4.405164
                    6          7          8          9         10
     6  H    0.000000
     7  C    3.417913   0.000000
     8  H    4.351360   1.092521   0.000000
     9  H    3.716881   1.092521   1.778020   0.000000
    10  C    3.144616   2.480563   2.973647   3.394907   0.000000
    11  H    4.045732   3.417910   3.716879   4.351359   1.079011
    12  C    2.347023   2.480562   2.973645   3.394906   1.541040
    13  H    2.879120   3.417909   3.716877   4.351357   2.354637
    14  H    4.405168   2.275000   2.684813   2.684813   2.241120
    15  H    2.651462   2.274998   2.684810   2.684810   3.425235
                   11         12         13         14         15
    11  H    0.000000
    12  C    2.354643   0.000000
    13  H    2.842280   1.079008   0.000000
    14  H    2.651464   3.425237   4.405160   0.000000
    15  H    4.405161   2.241117   2.651465   4.353960   0.000000
 Stoichiometry    C7H8
 Framework group  C1[X(C7H8)]
 Deg. of freedom    39
 Full point group                 C1      NOp   1
 Largest Abelian subgroup         C1      NOp   1
 Largest concise Abelian subgroup C1      NOp   1
                         Standard orientation:                         
 ---------------------------------------------------------------------
 Center     Atomic      Atomic             Coordinates (Angstroms)
 Number     Number       Type             X           Y           Z
 ---------------------------------------------------------------------
      1          6           0        0.770515   -0.704497    0.754440
      2          6           0        1.144894    0.547254    0.000000
      3          6           0       -1.144886    0.547278    0.000000
      4          6           0       -0.770535   -0.704481    0.754440
      5          1           0        1.421132   -1.225623    1.439570
      6          1           0       -1.421158   -1.225595    1.439560
      7          6           0        0.000018    1.529411    0.000000
      8          1           0        0.000023    2.164441   -0.889010
      9          1           0        0.000023    2.164441    0.889010
     10          6           0        0.770515   -0.704497   -0.754440
     11          1           0        1.421132   -1.225623   -1.439560
     12          6           0       -0.770525   -0.704481   -0.754440
     13          1           0       -1.421148   -1.225595   -1.439560
     14          1           0        2.176992    0.868799    0.000000
     15          1           0       -2.176968    0.868842    0.000000
 ---------------------------------------------------------------------
 Rotational constants (GHZ):      4.4584473      4.3977074      3.2873154
 Standard basis: def2TZVP (5D, 7F)
 There are   300 symmetry adapted cartesian basis functions of A   symmetry.
 There are   265 symmetry adapted basis functions of A   symmetry.
   265 basis functions,   421 primitive gaussians,   300 cartesian basis functions
    25 alpha electrons       25 beta electrons
       nuclear repulsion energy       297.7806793218 Hartrees.
 NAtoms=   15 NActive=   15 NUniq=   15 SFac= 1.00D+00 NAtFMM=   60 NAOKFM=F Big=F
 Integral buffers will be    131072 words long.
 Raffenetti 2 integral format.
 Two-electron integral symmetry is turned on.
 Nuclear repulsion after empirical dispersion term =      297.7732652116 Hartrees.
 ------------------------------------------------------------------------------
 Polarizable Continuum Model (PCM)
 =================================
 Model                : PCM (using non-symmetric T matrix).
 Atomic radii         : SMD-Coulomb.
 Polarization charges : Total charges.
 Charge compensation  : None.
 Solution method      : On-the-fly selection.
 Cavity type          : VdW (van der Waals Surface) (Alpha=1.000).
 Cavity algorithm     : GePol (No added spheres)
                        Default sphere list used, NSphG=   15.
                        Lebedev-Laikov grids with approx.  5.0 points / Ang**2.
                        Smoothing algorithm: Karplus/York (Gamma=1.0000).
                        Polarization charges: spherical gaussians, with
                                              point-specific exponents (IZeta= 3).
                        Self-potential: point-specific (ISelfS= 7).
                        Self-field    : sphere-specific E.n sum rule (ISelfD= 2).
 1st derivatives      : Analytical E(r).r(x)/FMM algorithm (CHGder, D1EAlg=3).
                        Cavity 1st derivative terms included.
 Solvent              : Toluene, Eps=   2.374100 Eps(inf)=   2.238315
 ------------------------------------------------------------------------------
 Spheres list:
 ISph  on   Nord     Re0    Alpha      Xe            Ye            Ze
    1   C      1    1.8500  1.000      0.770515     -0.704497      0.754440
    2   C      2    1.8500  1.000      1.144894      0.547254      0.000000
    3   C      3    1.8500  1.000     -1.144886      0.547278      0.000000
    4   C      4    1.8500  1.000     -0.770535     -0.704481      0.754440
    5   H      5    1.2000  1.000      1.421132     -1.225623      1.439570
    6   H      6    1.2000  1.000     -1.421158     -1.225595      1.439560
    7   C      7    1.8500  1.000      0.000018      1.529411      0.000000
    8   H      8    1.2000  1.000      0.000023      2.164441     -0.889010
    9   H      9    1.2000  1.000      0.000023      2.164441      0.889010
   10   C     10    1.8500  1.000      0.770515     -0.704497     -0.754440
   11   H     11    1.2000  1.000      1.421132     -1.225623     -1.439560
   12   C     12    1.8500  1.000     -0.770525     -0.704481     -0.754440
   13   H     13    1.2000  1.000     -1.421148     -1.225595     -1.439560
   14   H     14    1.2000  1.000      2.176992      0.868799      0.000000
   15   H     15    1.2000  1.000     -2.176968      0.868842      0.000000
 ------------------------------------------------------------------------------
 ------------------------------------------------------------------------------
 Atomic radii for non-electrostatic terms: SMD-CDS.
 ------------------------------------------------------------------------------
 Nuclear repulsion after PCM non-electrostatic terms =      297.7637957553 Hartrees.
 One-electron integrals computed using PRISM.
   1 Symmetry operations used in ECPInt.
 ECPInt:  NShTT=    5995 NPrTT=   17944 LenC2=    5975 LenP2D=   15208.
 LDataN:  DoStor=T MaxTD1= 6 Len=  172
 NBasis=   265 RedAO= T EigKep=  3.80D-05  NBF=   265
 NBsUse=   265 1.00D-06 EigRej= -1.00D+00 NBFU=   265
 ExpMin= 9.52D-02 ExpMax= 1.36D+04 ExpMxC= 4.63D+02 IAcc=2 IRadAn=         4 AccDes= 0.00D+00
 Harris functional with IExCor= 4639 and IRadAn=       4 diagonalized for initial guess.
 HarFok:  IExCor= 4639 AccDes= 0.00D+00 IRadAn=         4 IDoV= 1 UseB2=F ITyADJ=14
 ICtDFT=  3500011 ScaDFX=  1.000000  1.000000  1.000000  1.000000
 FoFCou: FMM=F IPFlag=           0 FMFlag=      100000 FMFlg1=           0
         NFxFlg=           0 DoJE=T BraDBF=F KetDBF=T FulRan=T
         wScrn=  0.000000 ICntrl=     500 IOpCl=  0 I1Cent=   200000004 NGrid=           0
         NMat0=    1 NMatS0=      1 NMatT0=    0 NMatD0=    1 NMtDS0=    0 NMtDT0=    0
 Petite list used in FoFCou.
 Requested convergence on RMS density matrix=1.00D-08 within 128 cycles.
 Requested convergence on MAX density matrix=1.00D-06.
 Requested convergence on             energy=1.00D-06.
 No special actions if energy rises.
 Inv3:  Mode=1 IEnd=     3623403.
 Iteration    1 A*A^-1 deviation from unit magnitude is 4.55D-15 for   1077.
 Iteration    1 A*A^-1 deviation from orthogonality  is 1.79D-15 for    985    775.
 Iteration    1 A^-1*A deviation from unit magnitude is 5.11D-15 for   1077.
 Iteration    1 A^-1*A deviation from orthogonality  is 1.57D-15 for   1086     91.
 DSYEVD-2 returned Info=       53199 IAlg= 4 N=   265 NDim=   265 NE2=     2024882 trying  DSYEV.
 DSYEVD-2 returned Info=       53199 IAlg= 4 N=   265 NDim=   265 NE2=     2024882 trying  DSYEV.
 DSYEVD-2 returned Info=       53199 IAlg= 4 N=   265 NDim=   265 NE2=     2024882 trying  DSYEV.
 Error on total polarization charges =  0.02373
 SCF Done:  E(RwB97XD) =  -271.471300460     A.U. after   11 cycles
            NFock= 11  Conv=0.68D-08     -V/T= 2.0053
 SMD-CDS (non-electrostatic) energy       (kcal/mol) =      -5.94
 (included in total energy above)

 **********************************************************************

            Population analysis using the SCF density.

 **********************************************************************

 Orbital symmetries:
       Occupied  (A) (A) (A) (A) (A) (A) (A) (A) (A) (A) (A) (A)
                 (A) (A) (A) (A) (A) (A) (A) (A) (A) (A) (A) (A)
                 (A)
       Virtual   (A) (A) (A) (A) (A) (A) (A) (A) (A) (A) (A) (A)
                 (A) (A) (A) (A) (A) (A) (A) (A) (A) (A) (A) (A)
                 (A) (A) (A) (A) (A) (A) (A) (A) (A) (A) (A) (A)
                 (A) (A) (A) (A) (A) (A) (A) (A) (A) (A) (A) (A)
                 (A) (A) (A) (A) (A) (A) (A) (A) (A) (A) (A) (A)
                 (A) (A) (A) (A) (A) (A) (A) (A) (A) (A) (A) (A)
                 (A) (A) (A) (A) (A) (A) (A) (A) (A) (A) (A) (A)
                 (A) (A) (A) (A) (A) (A) (A) (A) (A) (A) (A) (A)
                 (A) (A) (A) (A) (A) (A) (A) (A) (A) (A) (A) (A)
                 (A) (A) (A) (A) (A) (A) (A) (A) (A) (A) (A) (A)
                 (A) (A) (A) (A) (A) (A) (A) (A) (A) (A) (A) (A)
                 (A) (A) (A) (A) (A) (A) (A) (A) (A) (A) (A) (A)
                 (A) (A) (A) (A) (A) (A) (A) (A) (A) (A) (A) (A)
                 (A) (A) (A) (A) (A) (A) (A) (A) (A) (A) (A) (A)
                 (A) (A) (A) (A) (A) (A) (A) (A) (A) (A) (A) (A)
                 (A) (A) (A) (A) (A) (A) (A) (A) (A) (A) (A) (A)
                 (A) (A) (A) (A) (A) (A) (A) (A) (A) (A) (A) (A)
                 (A) (A) (A) (A) (A) (A) (A) (A) (A) (A) (A) (A)
                 (A) (A) (A) (A) (A) (A) (A) (A) (A) (A) (A) (A)
                 (A) (A) (A) (A) (A) (A) (A) (A) (A) (A) (A) (A)
 The electronic state is 1-A.
 Alpha  occ. eigenvalues --  -10.28337 -10.28332 -10.28301 -10.28294 -10.28290
 Alpha  occ. eigenvalues --  -10.28275 -10.27267  -1.04644  -0.88018  -0.82935
 Alpha  occ. eigenvalues --   -0.72957  -0.65761  -0.64132  -0.62644  -0.60636
 Alpha  occ. eigenvalues --   -0.52183  -0.51767  -0.51460  -0.47520  -0.42963
 Alpha  occ. eigenvalues --   -0.42106  -0.39194  -0.35821  -0.34744  -0.29975
 Alpha virt. eigenvalues --    0.12919   0.14215   0.15597   0.16155   0.17934
 Alpha virt. eigenvalues --    0.18029   0.18503   0.18523   0.20178   0.20873
 Alpha virt. eigenvalues --    0.21734   0.23782   0.24722   0.25606   0.25775
 Alpha virt. eigenvalues --    0.27861   0.28383   0.31268   0.32156   0.32656
 Alpha virt. eigenvalues --    0.33567   0.36682   0.37722   0.42665   0.43103
 Alpha virt. eigenvalues --    0.43226   0.43347   0.46941   0.47211   0.47865
 Alpha virt. eigenvalues --    0.48550   0.48915   0.49086   0.50748   0.51081
 Alpha virt. eigenvalues --    0.51529   0.51792   0.52942   0.52957   0.54362
 Alpha virt. eigenvalues --    0.54734   0.55570   0.56673   0.57069   0.60923
 Alpha virt. eigenvalues --    0.61289   0.62292   0.66397   0.69125   0.70832
 Alpha virt. eigenvalues --    0.75078   0.77676   0.82071   0.84554   0.87761
 Alpha virt. eigenvalues --    0.91486   0.91683   0.93982   1.01065   1.01731
 Alpha virt. eigenvalues --    1.03000   1.03992   1.05499   1.05705   1.07487
 Alpha virt. eigenvalues --    1.07561   1.11138   1.14485   1.15825   1.18188
 Alpha virt. eigenvalues --    1.18568   1.22854   1.24461   1.25084   1.26566
 Alpha virt. eigenvalues --    1.26937   1.27004   1.27960   1.30897   1.32974
 Alpha virt. eigenvalues --    1.33709   1.36158   1.36429   1.37784   1.40762
 Alpha virt. eigenvalues --    1.41742   1.47269   1.49101   1.53585   1.55512
 Alpha virt. eigenvalues --    1.61593   1.65605   1.68981   1.70330   1.71164
 Alpha virt. eigenvalues --    1.71515   1.74053   1.78670   1.80383   1.81740
 Alpha virt. eigenvalues --    1.82458   1.83153   1.84547   1.92738   1.99165
 Alpha virt. eigenvalues --    2.05530   2.06863   2.08554   2.08965   2.09839
 Alpha virt. eigenvalues --    2.14275   2.16362   2.17706   2.19409   2.27150
 Alpha virt. eigenvalues --    2.28483   2.29600   2.34543   2.36328   2.41036
 Alpha virt. eigenvalues --    2.42132   2.43460   2.45826   2.47134   2.50610
 Alpha virt. eigenvalues --    2.50964   2.51645   2.52431   2.54200   2.56177
 Alpha virt. eigenvalues --    2.61105   2.62166   2.63729   2.64685   2.69004
 Alpha virt. eigenvalues --    2.71002   2.73977   2.75031   2.75907   2.77764
 Alpha virt. eigenvalues --    2.78466   2.82843   2.83552   2.84627   2.84693
 Alpha virt. eigenvalues --    2.86602   2.87483   2.90801   2.93239   2.95210
 Alpha virt. eigenvalues --    2.97869   2.99645   3.06275   3.07438   3.10246
 Alpha virt. eigenvalues --    3.11184   3.12370   3.15215   3.16137   3.17031
 Alpha virt. eigenvalues --    3.17118   3.17668   3.17721   3.19120   3.24349
 Alpha virt. eigenvalues --    3.25455   3.28052   3.28222   3.32473   3.32610
 Alpha virt. eigenvalues --    3.34348   3.44377   3.47304   3.47475   3.50582
 Alpha virt. eigenvalues --    3.54819   3.54896   3.57708   3.58597   3.59944
 Alpha virt. eigenvalues --    3.63790   3.64671   3.74088   3.76510   3.78019
 Alpha virt. eigenvalues --    3.78116   3.84925   3.91051   3.92495   3.93866
 Alpha virt. eigenvalues --    3.96970   4.00675   4.01471   4.03906   4.06065
 Alpha virt. eigenvalues --    4.09480   4.10007   4.11685   4.12593   4.19601
 Alpha virt. eigenvalues --    4.19666   4.20733   4.22550   4.25313   4.27815
 Alpha virt. eigenvalues --    4.28418   4.29495   4.29656   4.33488   4.41159
 Alpha virt. eigenvalues --    4.41419   4.43977   4.44173   4.48317   4.58606
 Alpha virt. eigenvalues --    4.59278   4.62840   4.70228   4.75016   4.75482
 Alpha virt. eigenvalues --    4.78705   4.93700   4.95462   4.95663   5.01664
 Alpha virt. eigenvalues --    5.03682   5.04188   5.07778   5.14017   5.15502
 Alpha virt. eigenvalues --    5.19954   5.19981   5.42993  22.41506  22.55881
 Alpha virt. eigenvalues --   22.61249  22.64309  22.74671  22.78364  22.87594
          Condensed to atoms (all electrons):
               1          2          3          4          5          6
     1  C    5.198971   0.227677   0.002024   0.253528   0.462624  -0.058749
     2  C    0.227677   5.160492  -0.131241   0.002023  -0.034893   0.006498
     3  C    0.002024  -0.131241   5.160493   0.227674   0.006498  -0.034893
     4  C    0.253528   0.002023   0.227674   5.198969  -0.058749   0.462627
     5  H    0.462624  -0.034893   0.006498  -0.058749   0.545066  -0.005084
     6  H   -0.058749   0.006498  -0.034893   0.462627  -0.005084   0.545064
     7  C   -0.053302   0.373431   0.373429  -0.053299   0.001061   0.001061
     8  H    0.009325  -0.028329  -0.028328   0.009325  -0.000107  -0.000107
     9  H   -0.005898  -0.028329  -0.028328  -0.005898   0.000325   0.000325
    10  C    0.205940   0.227675   0.002025  -0.058269  -0.045239   0.015417
    11  H   -0.045239  -0.034894   0.006498   0.015417  -0.003730  -0.000118
    12  C   -0.058270   0.002024   0.227676   0.205939   0.015417  -0.045239
    13  H    0.015417   0.006498  -0.034893  -0.045240  -0.000118  -0.003730
    14  H   -0.035794   0.434553   0.006085   0.005573  -0.005915   0.000102
    15  H    0.005573   0.006084   0.434555  -0.035794   0.000102  -0.005915
               7          8          9         10         11         12
     1  C   -0.053302   0.009325  -0.005898   0.205940  -0.045239  -0.058270
     2  C    0.373431  -0.028329  -0.028329   0.227675  -0.034894   0.002024
     3  C    0.373429  -0.028328  -0.028328   0.002025   0.006498   0.227676
     4  C   -0.053299   0.009325  -0.005898  -0.058269   0.015417   0.205939
     5  H    0.001061  -0.000107   0.000325  -0.045239  -0.003730   0.015417
     6  H    0.001061  -0.000107   0.000325   0.015417  -0.000118  -0.045239
     7  C    4.753706   0.404589   0.404589  -0.053300   0.001061  -0.053300
     8  H    0.404589   0.583063  -0.030216  -0.005898   0.000325  -0.005898
     9  H    0.404589  -0.030216   0.583063   0.009325  -0.000107   0.009325
    10  C   -0.053300  -0.005898   0.009325   5.198970   0.462627   0.253525
    11  H    0.001061   0.000325  -0.000107   0.462627   0.545065  -0.058750
    12  C   -0.053300  -0.005898   0.009325   0.253525  -0.058750   5.198971
    13  H    0.001061   0.000325  -0.000107  -0.058751  -0.005084   0.462628
    14  H   -0.026233  -0.001327  -0.001327  -0.035793  -0.005915   0.005573
    15  H   -0.026233  -0.001327  -0.001327   0.005573   0.000102  -0.035794
              13         14         15
     1  C    0.015417  -0.035794   0.005573
     2  C    0.006498   0.434553   0.006084
     3  C   -0.034893   0.006085   0.434555
     4  C   -0.045240   0.005573  -0.035794
     5  H   -0.000118  -0.005915   0.000102
     6  H   -0.003730   0.000102  -0.005915
     7  C    0.001061  -0.026233  -0.026233
     8  H    0.000325  -0.001327  -0.001327
     9  H   -0.000107  -0.001327  -0.001327
    10  C   -0.058751  -0.035793   0.005573
    11  H   -0.005084  -0.005915   0.000102
    12  C    0.462628   0.005573  -0.035794
    13  H    0.545066   0.000102  -0.005915
    14  H    0.000102   0.539458  -0.000158
    15  H   -0.005915  -0.000158   0.539456
 Mulliken charges:
               1
     1  C   -0.123829
     2  C   -0.189272
     3  C   -0.189273
     4  C   -0.123826
     5  H    0.122743
     6  H    0.122743
     7  C   -0.048319
     8  H    0.094586
     9  H    0.094586
    10  C   -0.123826
    11  H    0.122742
    12  C   -0.123829
    13  H    0.122741
    14  H    0.121017
    15  H    0.121017
 Sum of Mulliken charges =   0.00000
 Mulliken charges with hydrogens summed into heavy atoms:
               1
     1  C   -0.001086
     2  C   -0.068255
     3  C   -0.068256
     4  C   -0.001084
     7  C    0.140853
    10  C   -0.001084
    12  C   -0.001087
 Electronic spatial extent (au):  <R**2>=            510.4978
 Charge=              0.0000 electrons
 Dipole moment (field-independent basis, Debye):
    X=              0.0000    Y=              0.0007    Z=              0.0000  Tot=              0.0007
 Quadrupole moment (field-independent basis, Debye-Ang):
   XX=            -38.9341   YY=            -41.6165   ZZ=            -41.7420
   XY=              0.0000   XZ=              0.0000   YZ=              0.0000
 Traceless Quadrupole moment (field-independent basis, Debye-Ang):
   XX=              1.8301   YY=             -0.8523   ZZ=             -0.9778
   XY=              0.0000   XZ=              0.0000   YZ=              0.0000
 Octapole moment (field-independent basis, Debye-Ang**2):
  XXX=             -0.0001  YYY=              3.1443  ZZZ=              0.0000  XYY=              0.0000
  XXY=             -0.9355  XXZ=              0.0000  XZZ=              0.0000  YZZ=             -3.6536
  YYZ=              0.0000  XYZ=              0.0000
 Hexadecapole moment (field-independent basis, Debye-Ang**3):
 XXXX=           -254.4330 YYYY=           -278.9004 ZZZZ=           -157.9295 XXXY=             -0.0001
 XXXZ=             -0.0001 YYYX=             -0.0002 YYYZ=              0.0001 ZZZX=              0.0000
 ZZZY=              0.0000 XXYY=            -87.3676 XXZZ=            -69.6028 YYZZ=            -64.0571
 XXYZ=              0.0000 YYXZ=              0.0000 ZZXY=              0.0000
 N-N= 2.977637957553D+02 E-N=-1.224922000832D+03  KE= 2.700319606645D+02
   1 Symmetry operations used in ECPInt.
 ECPInt:  NShTT=    5995 NPrTT=   17944 LenC2=    5975 LenP2D=   15208.
 LDataN:  DoStor=T MaxTD1= 7 Len=  274
 D1PCM: PCM CHGder 1st derivatives, ID1Alg=3 FixD1E=F DoIter=F DoCFld=F I1PDM=0.
 Calling FoFJK, ICntrl=      2127 FMM=F ISym2X=0 I1Cent= 0 IOpClX= 0 NMat=1 NMatS=1 NMatT=0.
 ***** Axes restored to original set *****
 -------------------------------------------------------------------
 Center     Atomic                   Forces (Hartrees/Bohr)
 Number     Number              X              Y              Z
 -------------------------------------------------------------------
      1        6           0.000124977    0.000038687   -0.000240721
      2        6           0.000022250   -0.000021181    0.000000352
      3        6          -0.000014775   -0.000022500   -0.000000313
      4        6          -0.000119133    0.000041221   -0.000245482
      5        1           0.000026488   -0.000004951    0.000025488
      6        1          -0.000030263   -0.000007659    0.000029307
      7        6          -0.000001913   -0.000290132    0.000000244
      8        1           0.000000082    0.000066611   -0.000002481
      9        1           0.000000194    0.000066640    0.000002479
     10        6           0.000125587    0.000040264    0.000245010
     11        1           0.000028792   -0.000006926   -0.000028683
     12        6          -0.000126347    0.000040678    0.000244898
     13        1          -0.000030197   -0.000007518   -0.000029727
     14        1           0.000081226    0.000032376    0.000000056
     15        1          -0.000086966    0.000034391   -0.000000428
 -------------------------------------------------------------------
 Cartesian Forces:  Max     0.000290132 RMS     0.000097082

 GradGradGradGradGradGradGradGradGradGradGradGradGradGradGradGradGradGrad
 Berny optimization.
 FormGI is forming the generalized inverse of G from B-inverse, IUseBI=4.
 Internal  Forces:  Max     0.000171812 RMS     0.000039037
 Search for a local minimum.
 Step number   1 out of a maximum of  100
 All quantities printed in internal units (Hartrees-Bohrs-Radians)
 Mixed Optimization -- En-DIIS/RFO-DIIS
 Second derivative matrix not updated -- first step.
 ITU=  0
     Eigenvalues ---    0.01156   0.01233   0.01508   0.01742   0.01809
     Eigenvalues ---    0.01928   0.02061   0.02146   0.04702   0.05918
     Eigenvalues ---    0.06325   0.06557   0.06854   0.07194   0.07903
     Eigenvalues ---    0.08564   0.10402   0.10934   0.10950   0.15499
     Eigenvalues ---    0.15945   0.19007   0.19611   0.22240   0.22698
     Eigenvalues ---    0.26399   0.27241   0.28474   0.30060   0.30087
     Eigenvalues ---    0.31476   0.34523   0.34523   0.35871   0.35872
     Eigenvalues ---    0.36113   0.36114   0.36114   0.36114
 RFO step:  Lambda=-7.89683132D-07 EMin= 1.15627234D-02
 Linear search not attempted -- first point.
 Iteration  1 RMS(Cart)=  0.00017005 RMS(Int)=  0.00000003
 Iteration  2 RMS(Cart)=  0.00000002 RMS(Int)=  0.00000002
 Variable       Old X    -DE/DX   Delta X   Delta X   Delta X     New X
                                 (Linear)    (Quad)   (Total)
    R1        2.85106  -0.00006   0.00000  -0.00010  -0.00010   2.85096
    R2        2.91216   0.00017   0.00000   0.00064   0.00064   2.91280
    R3        2.03905   0.00003   0.00000   0.00010   0.00010   2.03914
    R4        2.85137  -0.00014   0.00000  -0.00062  -0.00062   2.85075
    R5        2.85053   0.00000   0.00000  -0.00006  -0.00006   2.85047
    R6        2.85106  -0.00006   0.00000  -0.00009  -0.00009   2.85096
    R7        2.04284   0.00009   0.00000   0.00024   0.00024   2.04309
    R8        2.85106  -0.00006   0.00000  -0.00009  -0.00009   2.85096
    R9        2.85054   0.00000   0.00000  -0.00006  -0.00006   2.85047
   R10        2.85106  -0.00006   0.00000  -0.00010  -0.00010   2.85096
   R11        2.04283   0.00009   0.00000   0.00026   0.00026   2.04309
   R12        2.03903   0.00004   0.00000   0.00011   0.00011   2.03914
   R13        2.85137  -0.00014   0.00000  -0.00062  -0.00062   2.85075
   R14        2.06457   0.00004   0.00000   0.00012   0.00012   2.06468
   R15        2.06457   0.00004   0.00000   0.00012   0.00012   2.06468
   R16        2.03904   0.00004   0.00000   0.00011   0.00011   2.03914
   R17        2.91214   0.00017   0.00000   0.00065   0.00065   2.91279
   R18        2.03903   0.00004   0.00000   0.00011   0.00011   2.03914
    A1        1.82155   0.00000   0.00000   0.00005   0.00005   1.82160
    A2        2.17559  -0.00001   0.00000  -0.00014  -0.00014   2.17545
    A3        2.21802   0.00000   0.00000   0.00001   0.00001   2.21804
    A4        1.57080   0.00000   0.00000   0.00000   0.00000   1.57080
    A5        2.25875   0.00000   0.00000   0.00009   0.00009   2.25884
    A6        1.93037  -0.00003   0.00000  -0.00022  -0.00022   1.93015
    A7        2.07567   0.00002   0.00000   0.00015   0.00015   2.07582
    A8        1.93037  -0.00003   0.00000  -0.00023  -0.00023   1.93015
    A9        2.13053   0.00002   0.00000   0.00015   0.00015   2.13068
   A10        2.07567   0.00002   0.00000   0.00015   0.00015   2.07582
   A11        1.93037  -0.00003   0.00000  -0.00023  -0.00023   1.93014
   A12        2.07567   0.00002   0.00000   0.00015   0.00015   2.07582
   A13        1.93036  -0.00003   0.00000  -0.00022  -0.00022   1.93014
   A14        2.13053   0.00002   0.00000   0.00015   0.00015   2.13068
   A15        2.07568   0.00002   0.00000   0.00015   0.00015   2.07582
   A16        1.82155   0.00000   0.00000   0.00005   0.00005   1.82160
   A17        2.21802   0.00000   0.00000   0.00001   0.00001   2.21804
   A18        1.57079   0.00000   0.00000   0.00000   0.00000   1.57079
   A19        2.17560  -0.00001   0.00000  -0.00015  -0.00015   2.17545
   A20        2.25875   0.00000   0.00000   0.00008   0.00008   2.25883
   A21        1.72352   0.00008   0.00000   0.00051   0.00051   1.72404
   A22        1.95892  -0.00001   0.00000   0.00004   0.00004   1.95896
   A23        1.95892  -0.00001   0.00000   0.00004   0.00004   1.95896
   A24        1.95892  -0.00001   0.00000   0.00004   0.00004   1.95896
   A25        1.95892  -0.00001   0.00000   0.00004   0.00004   1.95896
   A26        1.90106  -0.00001   0.00000  -0.00056  -0.00056   1.90050
   A27        2.25874   0.00000   0.00000   0.00009   0.00009   2.25883
   A28        1.57080   0.00000   0.00000   0.00000   0.00000   1.57080
   A29        2.17559  -0.00001   0.00000  -0.00014  -0.00014   2.17545
   A30        1.82155   0.00000   0.00000   0.00005   0.00005   1.82160
   A31        2.21803   0.00000   0.00000   0.00001   0.00001   2.21804
   A32        1.82156   0.00000   0.00000   0.00004   0.00004   1.82160
   A33        2.17559  -0.00001   0.00000  -0.00015  -0.00015   2.17545
   A34        1.57080   0.00000   0.00000   0.00000   0.00000   1.57080
   A35        2.25874   0.00000   0.00000   0.00009   0.00009   2.25883
   A36        2.21802   0.00000   0.00000   0.00001   0.00001   2.21804
    D1        0.36726  -0.00003   0.00000  -0.00021  -0.00021   0.36705
    D2        2.96525  -0.00001   0.00000  -0.00004  -0.00004   2.96520
    D3       -2.40818  -0.00002   0.00000  -0.00001  -0.00001  -2.40819
    D4        0.18981   0.00001   0.00000   0.00016   0.00016   0.18997
    D5        0.00000   0.00000   0.00000   0.00000   0.00000   0.00000
    D6       -2.76347   0.00002   0.00000   0.00026   0.00026  -2.76321
    D7        1.02839   0.00002   0.00000   0.00010   0.00010   1.02849
    D8        2.76346  -0.00002   0.00000  -0.00025  -0.00025   2.76321
    D9       -0.00001   0.00000   0.00000   0.00001   0.00001   0.00000
   D10       -2.49133   0.00000   0.00000  -0.00015  -0.00015  -2.49148
   D11       -1.02839  -0.00002   0.00000  -0.00010  -0.00010  -1.02849
   D12        2.49132   0.00000   0.00000   0.00015   0.00015   2.49148
   D13        0.00000   0.00000   0.00000   0.00000   0.00000   0.00000
   D14       -2.46627   0.00000   0.00000  -0.00011  -0.00011  -2.46638
   D15        0.00000   0.00000   0.00000   0.00000   0.00000   0.00000
   D16        0.00000   0.00000   0.00000   0.00000   0.00000   0.00000
   D17        2.46627   0.00000   0.00000   0.00011   0.00011   2.46638
   D18       -0.56358   0.00002   0.00000   0.00017   0.00017  -0.56341
   D19       -2.63118   0.00000   0.00000  -0.00017  -0.00017  -2.63135
   D20        1.50401   0.00005   0.00000   0.00051   0.00051   1.50452
   D21        0.56358  -0.00003   0.00000  -0.00017  -0.00017   0.56341
   D22       -1.50401  -0.00005   0.00000  -0.00051  -0.00051  -1.50452
   D23        2.63118   0.00000   0.00000   0.00017   0.00017   2.63135
   D24        3.14159   0.00000   0.00000   0.00000   0.00000   3.14159
   D25        1.07400  -0.00002   0.00000  -0.00034  -0.00034   1.07366
   D26       -1.07400   0.00002   0.00000   0.00034   0.00034  -1.07365
   D27        2.40819   0.00002   0.00000   0.00001   0.00001   2.40819
   D28       -0.36726   0.00003   0.00000   0.00021   0.00021  -0.36705
   D29       -0.18980  -0.00001   0.00000  -0.00017  -0.00017  -0.18996
   D30       -2.96525   0.00001   0.00000   0.00004   0.00004  -2.96520
   D31       -0.36726   0.00003   0.00000   0.00021   0.00021  -0.36705
   D32        2.40819   0.00002   0.00000   0.00001   0.00001   2.40819
   D33       -2.96525   0.00001   0.00000   0.00004   0.00004  -2.96521
   D34       -0.18980  -0.00001   0.00000  -0.00017  -0.00017  -0.18997
   D35        0.56358  -0.00003   0.00000  -0.00017  -0.00017   0.56341
   D36        2.63118   0.00000   0.00000   0.00017   0.00017   2.63135
   D37       -1.50401  -0.00005   0.00000  -0.00051  -0.00051  -1.50452
   D38       -0.56358   0.00002   0.00000   0.00017   0.00017  -0.56341
   D39        1.50402   0.00005   0.00000   0.00051   0.00051   1.50453
   D40       -2.63118   0.00000   0.00000  -0.00017  -0.00017  -2.63135
   D41        3.14159   0.00000   0.00000   0.00000   0.00000  -3.14159
   D42       -1.07399   0.00002   0.00000   0.00034   0.00034  -1.07365
   D43        1.07399  -0.00002   0.00000  -0.00034  -0.00034   1.07366
   D44        0.36726  -0.00003   0.00000  -0.00021  -0.00021   0.36705
   D45       -2.40819  -0.00002   0.00000  -0.00001  -0.00001  -2.40819
   D46        2.96525  -0.00001   0.00000  -0.00005  -0.00005   2.96520
   D47        0.18980   0.00001   0.00000   0.00016   0.00016   0.18996
   D48        0.00000   0.00000   0.00000   0.00000   0.00000   0.00000
   D49        2.46627   0.00000   0.00000   0.00011   0.00011   2.46638
   D50       -2.46626   0.00000   0.00000  -0.00011  -0.00011  -2.46637
   D51        0.00001   0.00000   0.00000   0.00000   0.00000   0.00001
   D52        1.02839   0.00002   0.00000   0.00010   0.00010   1.02849
   D53        0.00000   0.00000   0.00000   0.00000   0.00000   0.00000
   D54       -2.49132   0.00000   0.00000  -0.00016  -0.00016  -2.49148
   D55        0.00000   0.00000   0.00000   0.00000   0.00000   0.00000
   D56       -1.02839  -0.00002   0.00000  -0.00010  -0.00010  -1.02849
   D57        2.76347  -0.00002   0.00000  -0.00026  -0.00026   2.76321
   D58       -2.76347   0.00002   0.00000   0.00026   0.00026  -2.76321
   D59        2.49133   0.00000   0.00000   0.00015   0.00015   2.49148
   D60        0.00000   0.00000   0.00000   0.00000   0.00000   0.00000
         Item               Value     Threshold  Converged?
 Maximum Force            0.000172     0.000450     YES
 RMS     Force            0.000039     0.000300     YES
 Maximum Displacement     0.000611     0.001800     YES
 RMS     Displacement     0.000170     0.001200     YES
 Predicted change in Energy=-3.948402D-07
 Optimization completed.
    -- Stationary point found.
                           ----------------------------
                           !   Optimized Parameters   !
                           ! (Angstroms and Degrees)  !
 --------------------------                            --------------------------
 ! Name  Definition              Value          Derivative Info.                !
 --------------------------------------------------------------------------------
 ! R1    R(1,2)                  1.5087         -DE/DX =   -0.0001              !
 ! R2    R(1,4)                  1.5411         -DE/DX =    0.0002              !
 ! R3    R(1,5)                  1.079          -DE/DX =    0.0                 !
 ! R4    R(1,10)                 1.5089         -DE/DX =   -0.0001              !
 ! R5    R(2,7)                  1.5084         -DE/DX =    0.0                 !
 ! R6    R(2,10)                 1.5087         -DE/DX =   -0.0001              !
 ! R7    R(2,14)                 1.081          -DE/DX =    0.0001              !
 ! R8    R(3,4)                  1.5087         -DE/DX =   -0.0001              !
 ! R9    R(3,7)                  1.5084         -DE/DX =    0.0                 !
 ! R10   R(3,12)                 1.5087         -DE/DX =   -0.0001              !
 ! R11   R(3,15)                 1.081          -DE/DX =    0.0001              !
 ! R12   R(4,6)                  1.079          -DE/DX =    0.0                 !
 ! R13   R(4,12)                 1.5089         -DE/DX =   -0.0001              !
 ! R14   R(7,8)                  1.0925         -DE/DX =    0.0                 !
 ! R15   R(7,9)                  1.0925         -DE/DX =    0.0                 !
 ! R16   R(10,11)                1.079          -DE/DX =    0.0                 !
 ! R17   R(10,12)                1.541          -DE/DX =    0.0002              !
 ! R18   R(12,13)                1.079          -DE/DX =    0.0                 !
 ! A1    A(2,1,4)              104.3672         -DE/DX =    0.0                 !
 ! A2    A(2,1,5)              124.6522         -DE/DX =    0.0                 !
 ! A3    A(4,1,5)              127.0835         -DE/DX =    0.0                 !
 ! A4    A(4,1,10)              90.0            -DE/DX =    0.0                 !
 ! A5    A(5,1,10)             129.4168         -DE/DX =    0.0                 !
 ! A6    A(1,2,7)              110.6021         -DE/DX =    0.0                 !
 ! A7    A(1,2,14)             118.9272         -DE/DX =    0.0                 !
 ! A8    A(7,2,10)             110.6021         -DE/DX =    0.0                 !
 ! A9    A(7,2,14)             122.0705         -DE/DX =    0.0                 !
 ! A10   A(10,2,14)            118.9272         -DE/DX =    0.0                 !
 ! A11   A(4,3,7)              110.6021         -DE/DX =    0.0                 !
 ! A12   A(4,3,15)             118.9271         -DE/DX =    0.0                 !
 ! A13   A(7,3,12)             110.6017         -DE/DX =    0.0                 !
 ! A14   A(7,3,15)             122.0706         -DE/DX =    0.0                 !
 ! A15   A(12,3,15)            118.9274         -DE/DX =    0.0                 !
 ! A16   A(1,4,3)              104.3671         -DE/DX =    0.0                 !
 ! A17   A(1,4,6)              127.0834         -DE/DX =    0.0                 !
 ! A18   A(1,4,12)              89.9996         -DE/DX =    0.0                 !
 ! A19   A(3,4,6)              124.6526         -DE/DX =    0.0                 !
 ! A20   A(6,4,12)             129.4168         -DE/DX =    0.0                 !
 ! A21   A(2,7,3)               98.7506         -DE/DX =    0.0001              !
 ! A22   A(2,7,8)              112.2381         -DE/DX =    0.0                 !
 ! A23   A(2,7,9)              112.2381         -DE/DX =    0.0                 !
 ! A24   A(3,7,8)              112.2378         -DE/DX =    0.0                 !
 ! A25   A(3,7,9)              112.2378         -DE/DX =    0.0                 !
 ! A26   A(8,7,9)              108.9227         -DE/DX =    0.0                 !
 ! A27   A(1,10,11)            129.4164         -DE/DX =    0.0                 !
 ! A28   A(1,10,12)             90.0            -DE/DX =    0.0                 !
 ! A29   A(2,10,11)            124.6521         -DE/DX =    0.0                 !
 ! A30   A(2,10,12)            104.3672         -DE/DX =    0.0                 !
 ! A31   A(11,10,12)           127.0837         -DE/DX =    0.0                 !
 ! A32   A(3,12,10)            104.3675         -DE/DX =    0.0                 !
 ! A33   A(3,12,13)            124.6522         -DE/DX =    0.0                 !
 ! A34   A(4,12,10)             90.0004         -DE/DX =    0.0                 !
 ! A35   A(4,12,13)            129.4162         -DE/DX =    0.0                 !
 ! A36   A(10,12,13)           127.0834         -DE/DX =    0.0                 !
 ! D1    D(4,1,2,7)             21.0425         -DE/DX =    0.0                 !
 ! D2    D(4,1,2,14)           169.8961         -DE/DX =    0.0                 !
 ! D3    D(5,1,2,7)           -137.9784         -DE/DX =    0.0                 !
 ! D4    D(5,1,2,14)            10.8752         -DE/DX =    0.0                 !
 ! D5    D(2,1,4,3)              0.0            -DE/DX =    0.0                 !
 ! D6    D(2,1,4,6)           -158.3353         -DE/DX =    0.0                 !
 ! D7    D(2,1,4,12)            58.9224         -DE/DX =    0.0                 !
 ! D8    D(5,1,4,3)            158.3347         -DE/DX =    0.0                 !
 ! D9    D(5,1,4,6)             -0.0006         -DE/DX =    0.0                 !
 ! D10   D(5,1,4,12)          -142.7429         -DE/DX =    0.0                 !
 ! D11   D(10,1,4,3)           -58.9224         -DE/DX =    0.0                 !
 ! D12   D(10,1,4,6)           142.7424         -DE/DX =    0.0                 !
 ! D13   D(10,1,4,12)            0.0            -DE/DX =    0.0                 !
 ! D14   D(4,1,10,11)         -141.3069         -DE/DX =    0.0                 !
 ! D15   D(4,1,10,12)            0.0            -DE/DX =    0.0                 !
 ! D16   D(5,1,10,11)            0.0            -DE/DX =    0.0                 !
 ! D17   D(5,1,10,12)          141.3069         -DE/DX =    0.0                 !
 ! D18   D(1,2,7,3)            -32.291          -DE/DX =    0.0                 !
 ! D19   D(1,2,7,8)           -150.7555         -DE/DX =    0.0                 !
 ! D20   D(1,2,7,9)             86.1735         -DE/DX =    0.0                 !
 ! D21   D(10,2,7,3)            32.291          -DE/DX =    0.0                 !
 ! D22   D(10,2,7,8)           -86.1735         -DE/DX =    0.0                 !
 ! D23   D(10,2,7,9)           150.7555         -DE/DX =    0.0                 !
 ! D24   D(14,2,7,3)           180.0            -DE/DX =    0.0                 !
 ! D25   D(14,2,7,8)            61.5355         -DE/DX =    0.0                 !
 ! D26   D(14,2,7,9)           -61.5355         -DE/DX =    0.0                 !
 ! D27   D(7,2,10,11)          137.9789         -DE/DX =    0.0                 !
 ! D28   D(7,2,10,12)          -21.0425         -DE/DX =    0.0                 !
 ! D29   D(14,2,10,11)         -10.8747         -DE/DX =    0.0                 !
 ! D30   D(14,2,10,12)        -169.8961         -DE/DX =    0.0                 !
 ! D31   D(7,3,4,1)            -21.0425         -DE/DX =    0.0                 !
 ! D32   D(7,3,4,6)            137.9789         -DE/DX =    0.0                 !
 ! D33   D(15,3,4,1)          -169.8961         -DE/DX =    0.0                 !
 ! D34   D(15,3,4,6)           -10.8748         -DE/DX =    0.0                 !
 ! D35   D(4,3,7,2)             32.291          -DE/DX =    0.0                 !
 ! D36   D(4,3,7,8)            150.7557         -DE/DX =    0.0                 !
 ! D37   D(4,3,7,9)            -86.1736         -DE/DX =    0.0                 !
 ! D38   D(12,3,7,2)           -32.2909         -DE/DX =    0.0                 !
 ! D39   D(12,3,7,8)            86.1738         -DE/DX =    0.0                 !
 ! D40   D(12,3,7,9)          -150.7556         -DE/DX =    0.0                 !
 ! D41   D(15,3,7,2)          -180.0            -DE/DX =    0.0                 !
 ! D42   D(15,3,7,8)           -61.5353         -DE/DX =    0.0                 !
 ! D43   D(15,3,7,9)            61.5353         -DE/DX =    0.0                 !
 ! D44   D(7,3,12,10)           21.0424         -DE/DX =    0.0                 !
 ! D45   D(7,3,12,13)         -137.979          -DE/DX =    0.0                 !
 ! D46   D(15,3,12,10)         169.8961         -DE/DX =    0.0                 !
 ! D47   D(15,3,12,13)          10.8746         -DE/DX =    0.0                 !
 ! D48   D(1,4,12,10)            0.0            -DE/DX =    0.0                 !
 ! D49   D(1,4,12,13)          141.3067         -DE/DX =    0.0                 !
 ! D50   D(6,4,12,10)         -141.3063         -DE/DX =    0.0                 !
 ! D51   D(6,4,12,13)            0.0004         -DE/DX =    0.0                 !
 ! D52   D(1,10,12,3)           58.9224         -DE/DX =    0.0                 !
 ! D53   D(1,10,12,4)            0.0            -DE/DX =    0.0                 !
 ! D54   D(1,10,12,13)        -142.7424         -DE/DX =    0.0                 !
 ! D55   D(2,10,12,3)            0.0            -DE/DX =    0.0                 !
 ! D56   D(2,10,12,4)          -58.9224         -DE/DX =    0.0                 !
 ! D57   D(2,10,12,13)         158.3353         -DE/DX =    0.0                 !
 ! D58   D(11,10,12,3)        -158.3351         -DE/DX =    0.0                 !
 ! D59   D(11,10,12,4)         142.7425         -DE/DX =    0.0                 !
 ! D60   D(11,10,12,13)          0.0002         -DE/DX =    0.0                 !
 --------------------------------------------------------------------------------
 GradGradGradGradGradGradGradGradGradGradGradGradGradGradGradGradGradGrad

                          Input orientation:                          
 ---------------------------------------------------------------------
 Center     Atomic      Atomic             Coordinates (Angstroms)
 Number     Number       Type             X           Y           Z
 ---------------------------------------------------------------------
      1          6           0        0.770530   -0.704480    0.754440
      2          6           0        1.144880    0.547280    0.000000
      3          6           0       -1.144900    0.547250    0.000000
      4          6           0       -0.770520   -0.704500    0.754440
      5          1           0        1.421160   -1.225590    1.439570
      6          1           0       -1.421130   -1.225630    1.439560
      7          6           0       -0.000020    1.529410    0.000000
      8          1           0       -0.000030    2.164440   -0.889010
      9          1           0       -0.000030    2.164440    0.889010
     10          6           0        0.770530   -0.704480   -0.754440
     11          1           0        1.421160   -1.225590   -1.439560
     12          6           0       -0.770510   -0.704500   -0.754440
     13          1           0       -1.421120   -1.225630   -1.439560
     14          1           0        2.176970    0.868850    0.000000
     15          1           0       -2.176990    0.868790    0.000000
 ---------------------------------------------------------------------
                    Distance matrix (angstroms):
                    1          2          3          4          5
     1  C    0.000000
     2  C    1.508715   0.000000
     3  C    2.409332   2.289780   0.000000
     4  C    1.541050   2.409334   1.508714   0.000000
     5  H    1.079017   2.300383   3.435111   2.354655   0.000000
     6  H    2.354647   3.435106   2.300378   1.079008   2.842290
     7  C    2.480563   1.508435   1.508439   2.480565   3.417914
     8  H    3.394907   2.171719   2.171720   3.394908   4.351364
     9  H    2.973647   2.171719   2.171720   2.973648   3.716881
    10  C    1.508880   1.508715   2.409332   2.156746   2.347031
    11  H    2.347022   2.300376   3.435107   3.144620   2.879130
    12  C    2.156739   2.409326   1.508717   1.508880   3.144620
    13  H    3.144609   3.435098   2.300377   2.347018   4.045732
    14  H    2.241120   1.081026   3.337401   3.425246   2.651469
    15  H    3.425235   3.337393   1.081017   2.241111   4.405164
                    6          7          8          9         10
     6  H    0.000000
     7  C    3.417913   0.000000
     8  H    4.351360   1.092521   0.000000
     9  H    3.716881   1.092521   1.778020   0.000000
    10  C    3.144616   2.480563   2.973647   3.394907   0.000000
    11  H    4.045732   3.417910   3.716879   4.351359   1.079011
    12  C    2.347023   2.480562   2.973645   3.394906   1.541040
    13  H    2.879120   3.417909   3.716877   4.351357   2.354637
    14  H    4.405168   2.275000   2.684813   2.684813   2.241120
    15  H    2.651462   2.274998   2.684810   2.684810   3.425235
                   11         12         13         14         15
    11  H    0.000000
    12  C    2.354643   0.000000
    13  H    2.842280   1.079008   0.000000
    14  H    2.651464   3.425237   4.405160   0.000000
    15  H    4.405161   2.241117   2.651465   4.353960   0.000000
 Stoichiometry    C7H8
 Framework group  C1[X(C7H8)]
 Deg. of freedom    39
 Full point group                 C1      NOp   1
 Largest Abelian subgroup         C1      NOp   1
 Largest concise Abelian subgroup C1      NOp   1
                         Standard orientation:                         
 ---------------------------------------------------------------------
 Center     Atomic      Atomic             Coordinates (Angstroms)
 Number     Number       Type             X           Y           Z
 ---------------------------------------------------------------------
      1          6           0        0.770515   -0.704497    0.754440
      2          6           0        1.144894    0.547254    0.000000
      3          6           0       -1.144886    0.547278    0.000000
      4          6           0       -0.770535   -0.704481    0.754440
      5          1           0        1.421132   -1.225623    1.439570
      6          1           0       -1.421158   -1.225595    1.439560
      7          6           0        0.000018    1.529411    0.000000
      8          1           0        0.000023    2.164441   -0.889010
      9          1           0        0.000023    2.164441    0.889010
     10          6           0        0.770515   -0.704497   -0.754440
     11          1           0        1.421132   -1.225623   -1.439560
     12          6           0       -0.770525   -0.704481   -0.754440
     13          1           0       -1.421148   -1.225595   -1.439560
     14          1           0        2.176992    0.868799    0.000000
     15          1           0       -2.176968    0.868842    0.000000
 ---------------------------------------------------------------------
 Rotational constants (GHZ):      4.4584473      4.3977074      3.2873154
 1\1\GINC-D10S4B3\FOpt\RwB97XD\def2TZVP\C7H8\PMMASS\23-Feb-2022\0\\#n w
 B97XD/Def2TZVP scrf(smd,solvent=toluene) opt\\Quadricyclane cycloaddit
 ion toluene - opt\\0,1\C,0.77053,-0.70448,0.75444\C,1.14488,0.54728,0.
 \C,-1.1449,0.54725,0.\C,-0.77052,-0.7045,0.75444\H,1.42116,-1.22559,1.
 43957\H,-1.42113,-1.22563,1.43956\C,-0.00002,1.52941,0.\H,-0.00003,2.1
 6444,-0.88901\H,-0.00003,2.16444,0.88901\C,0.77053,-0.70448,-0.75444\H
 ,1.42116,-1.22559,-1.43956\C,-0.77051,-0.7045,-0.75444\H,-1.42112,-1.2
 2563,-1.43956\H,2.17697,0.86885,0.\H,-2.17699,0.86879,0.\\Version=ES64
 L-G09RevD.01\State=1-A\HF=-271.4713005\RMSD=6.800e-09\RMSF=9.708e-05\D
 ipole=-0.0000029,0.0002924,0.0000007\Quadrupole=1.3606198,-0.6336719,-
 0.7269478,0.0000283,-0.000022,0.\PG=C01 [X(C7H8)]\\@


 THEREFORE SHALL EVIL COME UPON THEE...
 THOU SHALT NOT KNOW FROM WHENCE IT RISETH...
 AND MISCHIEF SHALL FALL UPON THEE...
 THOU SHALT NOT BE ABLE TO PUT IT OFF...
 AND DESOLATION SHALL COME UPON THEE SUDDENLY...
 WHICH THOU SHALT NOT KNOW...

                                         ISAIAH 47.11
 Job cpu time:       0 days  0 hours 10 minutes 56.5 seconds.
 File lengths (MBytes):  RWF=     59 Int=      0 D2E=      0 Chk=      6 Scr=      1
 Normal termination of Gaussian 09 at Wed Feb 23 16:45:16 2022.
