 Entering Gaussian System, Link 0=g09
 Input=ts_cyclo_freq.com
 Output=ts_cyclo_freq.log
 Initial command:
 /apps/applications/gaussian/G09.D01/2/default/g09/l1.exe "/nobackup/pmmass/Temp/Gau-90959.inp" -scrdir="/nobackup/pmmass/Temp/"
 Entering Link 1 = /apps/applications/gaussian/G09.D01/2/default/g09/l1.exe PID=     90960.
  
 Copyright (c) 1988,1990,1992,1993,1995,1998,2003,2009,2013,
            Gaussian, Inc.  All Rights Reserved.
  
 This is part of the Gaussian(R) 09 program.  It is based on
 the Gaussian(R) 03 system (copyright 2003, Gaussian, Inc.),
 the Gaussian(R) 98 system (copyright 1998, Gaussian, Inc.),
 the Gaussian(R) 94 system (copyright 1995, Gaussian, Inc.),
 the Gaussian 92(TM) system (copyright 1992, Gaussian, Inc.),
 the Gaussian 90(TM) system (copyright 1990, Gaussian, Inc.),
 the Gaussian 88(TM) system (copyright 1988, Gaussian, Inc.),
 the Gaussian 86(TM) system (copyright 1986, Carnegie Mellon
 University), and the Gaussian 82(TM) system (copyright 1983,
 Carnegie Mellon University). Gaussian is a federally registered
 trademark of Gaussian, Inc.
  
 This software contains proprietary and confidential information,
 including trade secrets, belonging to Gaussian, Inc.
  
 This software is provided under written license and may be
 used, copied, transmitted, or stored only in accord with that
 written license.
  
 The following legend is applicable only to US Government
 contracts under FAR:
  
                    RESTRICTED RIGHTS LEGEND
  
 Use, reproduction and disclosure by the US Government is
 subject to restrictions as set forth in subparagraphs (a)
 and (c) of the Commercial Computer Software - Restricted
 Rights clause in FAR 52.227-19.
  
 Gaussian, Inc.
 340 Quinnipiac St., Bldg. 40, Wallingford CT 06492
  
  
 ---------------------------------------------------------------
 Warning -- This program may not be used in any manner that
 competes with the business of Gaussian, Inc. or will provide
 assistance to any competitor of Gaussian, Inc.  The licensee
 of this program is prohibited from giving any competitor of
 Gaussian, Inc. access to this program.  By using this program,
 the user acknowledges that Gaussian, Inc. is engaged in the
 business of creating and licensing software in the field of
 computational chemistry and represents and warrants to the
 licensee that it is not a competitor of Gaussian, Inc. and that
 it will not use this program in any manner prohibited above.
 ---------------------------------------------------------------
  

 Cite this work as:
 Gaussian 09, Revision D.01,
 M. J. Frisch, G. W. Trucks, H. B. Schlegel, G. E. Scuseria, 
 M. A. Robb, J. R. Cheeseman, G. Scalmani, V. Barone, B. Mennucci, 
 G. A. Petersson, H. Nakatsuji, M. Caricato, X. Li, H. P. Hratchian, 
 A. F. Izmaylov, J. Bloino, G. Zheng, J. L. Sonnenberg, M. Hada, 
 M. Ehara, K. Toyota, R. Fukuda, J. Hasegawa, M. Ishida, T. Nakajima, 
 Y. Honda, O. Kitao, H. Nakai, T. Vreven, J. A. Montgomery, Jr., 
 J. E. Peralta, F. Ogliaro, M. Bearpark, J. J. Heyd, E. Brothers, 
 K. N. Kudin, V. N. Staroverov, T. Keith, R. Kobayashi, J. Normand, 
 K. Raghavachari, A. Rendell, J. C. Burant, S. S. Iyengar, J. Tomasi, 
 M. Cossi, N. Rega, J. M. Millam, M. Klene, J. E. Knox, J. B. Cross, 
 V. Bakken, C. Adamo, J. Jaramillo, R. Gomperts, R. E. Stratmann, 
 O. Yazyev, A. J. Austin, R. Cammi, C. Pomelli, J. W. Ochterski, 
 R. L. Martin, K. Morokuma, V. G. Zakrzewski, G. A. Voth, 
 P. Salvador, J. J. Dannenberg, S. Dapprich, A. D. Daniels, 
 O. Farkas, J. B. Foresman, J. V. Ortiz, J. Cioslowski, 
 and D. J. Fox, Gaussian, Inc., Wallingford CT, 2013.
 
 ******************************************
 Gaussian 09:  ES64L-G09RevD.01 24-Apr-2013
                24-Feb-2022 
 ******************************************
 %nprocshared=8
 Will use up to    8 processors via shared memory.
 %mem=4GB
 %NoSave
 %chk="ts_cylco_freq.chk"
 -------------------------------------------------
 #n wB97XD/Def2TZVP scrf(smd,solvent=toluene) freq
 -------------------------------------------------
 1/10=4,30=1,38=1/1,3;
 2/12=2,17=6,18=5,40=1/2;
 3/5=44,7=101,11=2,16=1,25=1,30=1,70=32201,71=2,72=13,74=-58,140=1/1,2,3;
 4//1;
 5/5=2,38=5,53=13,98=1/2;
 8/6=4,10=90,11=11/1;
 11/6=1,8=1,9=11,15=111,16=1/1,2,10;
 10/6=1/2;
 6/7=2,8=2,9=2,10=2,18=1,28=1/1;
 7/8=1,10=1,25=1/1,2,3,16;
 1/10=4,30=1/3;
 99//99;
 -----------------------
 ts_cyclo toluene - freq
 -----------------------
 Symbolic Z-matrix:
 Charge =  0 Multiplicity = 1
 C                     0.52148   0.7921   -0.84122 
 C                     1.68221   1.38927   0.00599 
 C                    -0.21998   2.36174   0.83545 
 C                    -0.65347   1.65327  -0.41362 
 H                     0.65759   0.4597   -1.85709 
 H                    -1.67527   1.48037  -0.70637 
 C                     1.057     1.73349   1.34765 
 H                     1.68113   2.43495   1.9025 
 H                     0.85931   0.85241   1.9558 
 C                     1.33048   2.42555  -0.93502 
 H                     1.82522   2.615    -1.87486 
 C                     0.05124   3.01802  -0.4842 
 H                    -0.39288   3.92338  -0.86181 
 H                     2.63348   0.88248  -0.07498 
 H                    -0.97598   2.75895   1.49398 
 N                    -0.77769  -0.78178   0.8686 
 N                     0.03588  -0.95153  -0.12183 
 C                    -2.12259  -0.77122   0.50441 
 C                     1.29764  -1.47241   0.2752 
 O                     1.59266  -1.88999   1.3592 
 O                    -2.99364  -0.55172   1.31234 
 O                     2.094    -1.53769  -0.7971 
 O                    -2.37947  -1.06148  -0.78446 
 C                    -3.75435  -1.10128  -1.13838 
 H                    -3.78131  -1.3434   -2.19927 
 H                    -4.2842   -1.86669  -0.56991 
 H                    -4.23653  -0.13737  -0.96561 
 C                     3.36305  -2.14598  -0.5822 
 H                     3.91967  -1.63316   0.20334 
 H                     3.24559  -3.1949   -0.30821 
 H                     3.89215  -2.06683  -1.52917 
 

 GradGradGradGradGradGradGradGradGradGradGradGradGradGradGradGradGradGrad
 Berny optimization.
 Initialization pass.
 Trust Radius=3.00D-01 FncErr=1.00D-07 GrdErr=1.00D-07
 Number of steps in this run=      2 maximum allowed number of steps=      2.
 GradGradGradGradGradGradGradGradGradGradGradGradGradGradGradGradGradGrad

                          Input orientation:                          
 ---------------------------------------------------------------------
 Center     Atomic      Atomic             Coordinates (Angstroms)
 Number     Number       Type             X           Y           Z
 ---------------------------------------------------------------------
      1          6           0        0.521480    0.792100   -0.841220
      2          6           0        1.682210    1.389270    0.005990
      3          6           0       -0.219980    2.361740    0.835450
      4          6           0       -0.653470    1.653270   -0.413620
      5          1           0        0.657590    0.459700   -1.857090
      6          1           0       -1.675270    1.480370   -0.706370
      7          6           0        1.057000    1.733490    1.347650
      8          1           0        1.681130    2.434950    1.902500
      9          1           0        0.859310    0.852410    1.955800
     10          6           0        1.330480    2.425550   -0.935020
     11          1           0        1.825220    2.615000   -1.874860
     12          6           0        0.051240    3.018020   -0.484200
     13          1           0       -0.392880    3.923380   -0.861810
     14          1           0        2.633480    0.882480   -0.074980
     15          1           0       -0.975980    2.758950    1.493980
     16          7           0       -0.777690   -0.781780    0.868600
     17          7           0        0.035880   -0.951530   -0.121830
     18          6           0       -2.122590   -0.771220    0.504410
     19          6           0        1.297640   -1.472410    0.275200
     20          8           0        1.592660   -1.889990    1.359200
     21          8           0       -2.993640   -0.551720    1.312340
     22          8           0        2.094000   -1.537690   -0.797100
     23          8           0       -2.379470   -1.061480   -0.784460
     24          6           0       -3.754350   -1.101280   -1.138380
     25          1           0       -3.781310   -1.343400   -2.199270
     26          1           0       -4.284200   -1.866690   -0.569910
     27          1           0       -4.236530   -0.137370   -0.965610
     28          6           0        3.363050   -2.145980   -0.582200
     29          1           0        3.919670   -1.633160    0.203340
     30          1           0        3.245590   -3.194900   -0.308210
     31          1           0        3.892150   -2.066830   -1.529170
 ---------------------------------------------------------------------
                    Distance matrix (angstroms):
                    1          2          3          4          5
     1  C    0.000000
     2  C    1.556172   0.000000
     3  C    2.413453   2.291730   0.000000
     4  C    1.518210   2.387712   1.500006   0.000000
     5  H    1.077501   2.320563   3.411401   2.286284   0.000000
     6  H    2.305995   3.433428   2.296060   1.076881   2.794308
     7  C    2.442161   1.519680   1.512523   2.456464   3.471661
     8  H    3.401727   2.165686   2.181324   3.380206   4.368497
     9  H    2.817993   2.183379   2.167517   2.923017   3.838365
    10  C    1.825223   1.443291   2.354265   2.191879   2.273227
    11  H    2.468018   2.249547   3.404815   3.033818   2.451325
    12  C    2.302891   2.356518   1.498579   1.537576   2.966056
    13  H    3.262115   3.388331   2.312857   2.328558   3.753818
    14  H    2.248519   1.080882   3.340558   3.393057   2.694216
    15  H    3.400595   3.340077   1.078413   2.228335   4.380042
    16  N    2.662410   3.392442   3.192782   2.754812   3.321248
    17  N    1.947710   2.864627   3.458267   2.710227   2.321470
    18  C    3.353475   4.403708   3.680347   2.979806   3.849837
    19  C    2.641368   2.899928   4.161461   3.748490   2.947774
    20  O    3.630824   3.548625   4.651579   4.554413   4.091445
    21  O    4.335867   5.228534   4.050785   3.649290   4.939609
    22  O    2.811172   3.062943   4.819261   4.228224   2.678884
    23  O    3.443035   4.809182   4.359580   3.238281   3.562058
    24  C    4.685714   6.088399   5.327315   4.210496   4.734809
    25  H    4.991860   6.494668   5.968305   4.685292   4.803342
    26  H    5.498848   6.821362   6.030965   5.059323   5.611614
    27  H    4.849541   6.189194   5.061822   4.043440   5.010353
    28  C    4.095598   3.958432   5.930209   5.531289   3.966664
    29  H    4.303567   3.765668   5.787529   5.665234   4.389374
    30  H    4.858091   4.853606   6.647886   6.222422   4.738446
    31  H    4.473050   4.380089   6.489474   5.978817   4.117434
                    6          7          8          9         10
     6  H    0.000000
     7  C    3.427589   0.000000
     8  H    4.356931   1.090616   0.000000
     9  H    3.729018   1.088683   1.784002   0.000000
    10  C    3.159142   2.400900   2.859119   3.324697   0.000000
    11  H    3.860853   3.428089   3.784393   4.325929   1.078869
    12  C    2.322620   2.453007   2.948364   3.361018   1.480106
    13  H    2.763509   3.432125   3.762758   4.351754   2.284475
    14  H    4.395617   2.287659   2.688412   2.696785   2.195118
    15  H    2.639188   2.281664   2.707785   2.686347   3.366148
    16  N    2.898880   3.149946   4.178767   2.555846   4.240801
    17  N    3.030488   3.226669   4.274694   2.872069   3.707012
    18  C    2.595331   4.134540   5.167443   3.692484   4.920873
    19  C    4.303555   3.389078   4.250016   2.901954   4.081642
    20  O    5.128867   3.662878   4.359829   2.900774   4.894494
    21  O    3.153201   4.650926   5.578706   4.151005   5.710760
    22  O    4.829525   4.046720   4.820806   3.849090   4.038472
    23  O    2.638749   4.916002   5.994435   4.654213   5.093700
    24  C    3.342772   6.112721   7.162145   5.888694   6.191557
    25  H    3.825942   6.742191   7.806324   6.604661   6.475624
    26  H    4.245933   6.720621   7.759000   6.342587   7.076812
    27  H    3.040451   6.072294   7.061274   5.956667   6.128711
    28  C    6.208905   4.908409   5.476085   4.658380   5.015447
    29  H    6.467225   4.564938   4.944464   4.314508   4.947009
    30  H    6.799378   5.640995   6.247398   5.215438   5.970762
    31  H    6.652503   5.545863   6.077087   5.464897   5.205444
                   11         12         13         14         15
    11  H    0.000000
    12  C    2.289840   0.000000
    13  H    2.767327   1.076805   0.000000
    14  H    2.625734   3.375790   4.361769   0.000000
    15  H    4.383666   2.243991   2.691774   4.360158   0.000000
    16  N    5.083289   4.117727   5.028014   3.911034   3.600998
    17  N    4.358324   3.986085   4.949359   3.180144   4.171614
    18  C    5.719494   4.478976   5.186301   5.068591   3.841362
    19  C    4.648443   4.721670   5.767599   2.729945   4.955722
    20  O    5.550510   5.464674   6.532268   3.290406   5.313071
    21  O    6.588457   5.024131   5.614036   5.970433   3.881299
    22  O    4.298679   5.002526   6.001004   2.582580   5.756296
    23  O    5.690773   4.758238   5.366689   5.423284   4.664414
    24  C    6.744238   5.646158   6.051709   6.772776   5.435994
    25  H    6.870761   6.054080   6.403845   7.114540   6.191869
    26  H    7.688527   6.531752   6.982298   7.460375   6.049835
    27  H    6.719158   5.345392   5.592326   7.002168   5.006939
    28  C    5.167477   6.135518   7.142991   3.156123   6.869938
    29  H    5.172282   6.088591   7.113914   2.839048   6.702520
    30  H    6.182781   6.988220   8.013417   4.129661   7.517837
    31  H    5.129448   6.457573   7.395233   3.520987   7.491747
                   16         17         18         19         20
    16  N    0.000000
    17  N    1.292928   0.000000
    18  C    1.393378   2.254702   0.000000
    19  C    2.266294   1.421614   3.498882   0.000000
    20  O    2.662213   2.344722   3.973084   1.198527   0.000000
    21  O    2.271622   3.375601   1.208164   4.509813   4.777793
    22  O    3.404785   2.243977   4.478955   1.337265   2.241671
    23  O    2.318736   2.507007   1.345892   3.848751   4.589066
    24  C    3.604241   3.927040   2.338876   5.259140   5.954031
    25  H    4.330009   4.363514   3.223139   5.651140   6.468464
    26  H    3.942328   4.438624   2.650807   5.659205   6.185426
    27  H    3.967766   4.430385   2.651691   5.826575   6.515817
    28  C    4.594735   3.564928   5.758727   2.335541   2.639857
    29  H    4.820022   3.956536   6.110850   2.627936   2.610929
    30  H    4.836818   3.920419   5.945749   2.664929   2.686117
    31  H    5.404448   4.253859   6.480058   3.215675   3.696161
                   21         22         23         24         25
    21  O    0.000000
    22  O    5.595172   0.000000
    23  O    2.243575   4.498763   0.000000
    24  C    2.624257   5.874532   1.420260   0.000000
    25  H    3.684913   6.043434   2.011547   1.088502   0.000000
    26  H    2.633924   6.390719   2.079036   1.090757   1.783689
    27  H    2.627835   6.485746   2.082178   1.091545   1.784279
    28  C    6.821910   1.423617   5.847528   7.215131   7.368916
    29  H    7.084719   2.084002   6.401698   7.808565   8.072273
    30  H    6.967107   2.076420   6.034865   7.353338   7.508760
    31  H    7.601568   2.012277   6.395197   7.717122   7.736561
                   26         27         28         29         30
    26  H    0.000000
    27  H    1.774654   0.000000
    28  C    7.652358   7.869888   0.000000
    29  H    8.243539   8.374212   1.090818   0.000000
    30  H    7.650514   8.109426   1.090459   1.776260   0.000000
    31  H    8.234861   8.373521   1.087641   1.786174   1.783627
                   31
    31  H    0.000000
 Stoichiometry    C11H14N2O4
 Framework group  C1[X(C11H14N2O4)]
 Deg. of freedom    87
 Full point group                 C1      NOp   1
 Largest Abelian subgroup         C1      NOp   1
 Largest concise Abelian subgroup C1      NOp   1
                         Standard orientation:                         
 ---------------------------------------------------------------------
 Center     Atomic      Atomic             Coordinates (Angstroms)
 Number     Number       Type             X           Y           Z
 ---------------------------------------------------------------------
      1          6           0        0.521480    0.792100   -0.841219
      2          6           0        1.682209    1.389271    0.005991
      3          6           0       -0.219981    2.361740    0.835451
      4          6           0       -0.653471    1.653270   -0.413619
      5          1           0        0.657590    0.459701   -1.857089
      6          1           0       -1.675271    1.480369   -0.706369
      7          6           0        1.056999    1.733491    1.347651
      8          1           0        1.681129    2.434951    1.902501
      9          1           0        0.859310    0.852411    1.955801
     10          6           0        1.330479    2.425551   -0.935019
     11          1           0        1.825219    2.615001   -1.874859
     12          6           0        0.051238    3.018020   -0.484199
     13          1           0       -0.392882    3.923380   -0.861809
     14          1           0        2.633480    0.882482   -0.074979
     15          1           0       -0.975981    2.758950    1.493981
     16          7           0       -0.777689   -0.781780    0.868601
     17          7           0        0.035881   -0.951530   -0.121829
     18          6           0       -2.122589   -0.771221    0.504411
     19          6           0        1.297641   -1.472409    0.275201
     20          8           0        1.592662   -1.889989    1.359201
     21          8           0       -2.993639   -0.551722    1.312341
     22          8           0        2.094001   -1.537688   -0.797099
     23          8           0       -2.379469   -1.061481   -0.784459
     24          6           0       -3.754349   -1.101282   -1.138379
     25          1           0       -3.781309   -1.343402   -2.199269
     26          1           0       -4.284198   -1.866693   -0.569909
     27          1           0       -4.236530   -0.137373   -0.965609
     28          6           0        3.363052   -2.145978   -0.582199
     29          1           0        3.919671   -1.633157    0.203341
     30          1           0        3.245592   -3.194898   -0.308209
     31          1           0        3.892152   -2.066827   -1.529169
 ---------------------------------------------------------------------
 Rotational constants (GHZ):      0.5996818      0.4542821      0.3215567
 Standard basis: def2TZVP (5D, 7F)
 There are   696 symmetry adapted cartesian basis functions of A   symmetry.
 There are   611 symmetry adapted basis functions of A   symmetry.
   611 basis functions,   979 primitive gaussians,   696 cartesian basis functions
    63 alpha electrons       63 beta electrons
       nuclear repulsion energy      1312.2685604143 Hartrees.
 NAtoms=   31 NActive=   31 NUniq=   31 SFac= 1.00D+00 NAtFMM=   60 NAOKFM=F Big=F
 Integral buffers will be    131072 words long.
 Raffenetti 2 integral format.
 Two-electron integral symmetry is turned on.
 Nuclear repulsion after empirical dispersion term =     1312.2447405991 Hartrees.
 Force inversion solution in PCM.
 ------------------------------------------------------------------------------
 Polarizable Continuum Model (PCM)
 =================================
 Model                : PCM (using non-symmetric T matrix).
 Atomic radii         : SMD-Coulomb.
 Polarization charges : Total charges.
 Charge compensation  : None.
 Solution method      : Matrix inversion.
 Cavity type          : VdW (van der Waals Surface) (Alpha=1.000).
 Cavity algorithm     : GePol (No added spheres)
                        Default sphere list used, NSphG=   31.
                        Lebedev-Laikov grids with approx.  5.0 points / Ang**2.
                        Smoothing algorithm: Karplus/York (Gamma=1.0000).
                        Polarization charges: spherical gaussians, with
                                              point-specific exponents (IZeta= 3).
                        Self-potential: point-specific (ISelfS= 7).
                        Self-field    : sphere-specific E.n sum rule (ISelfD= 2).
 1st derivatives      : Analytical E(r).r(x)/FMM algorithm (CHGder, D1EAlg=3).
                        Cavity 1st derivative terms included.
 2nd derivatives      : Analytical E(r).r(xy)/FMM algorithm (CHGder, D2EAlg=3).
                        Cavity 2nd derivative terms included.
 Solvent              : Toluene, Eps=   2.374100 Eps(inf)=   2.238315
 ------------------------------------------------------------------------------
 ------------------------------------------------------------------------------
 Atomic radii for non-electrostatic terms: SMD-CDS.
 ------------------------------------------------------------------------------
 Nuclear repulsion after PCM non-electrostatic terms =     1312.2364413390 Hartrees.
 One-electron integrals computed using PRISM.
   1 Symmetry operations used in ECPInt.
 ECPInt:  NShTT=   29646 NPrTT=   90516 LenC2=   27394 LenP2D=   61376.
 LDataN:  DoStor=T MaxTD1= 6 Len=  172
 NBasis=   611 RedAO= T EigKep=  2.55D-05  NBF=   611
 NBsUse=   611 1.00D-06 EigRej= -1.00D+00 NBFU=   611
 ExpMin= 9.52D-02 ExpMax= 2.70D+04 ExpMxC= 9.22D+02 IAcc=2 IRadAn=         4 AccDes= 0.00D+00
 Harris functional with IExCor= 4639 and IRadAn=       4 diagonalized for initial guess.
 HarFok:  IExCor= 4639 AccDes= 0.00D+00 IRadAn=         4 IDoV= 1 UseB2=F ITyADJ=14
 ICtDFT=  3500011 ScaDFX=  1.000000  1.000000  1.000000  1.000000
 FoFCou: FMM=F IPFlag=           0 FMFlag=      100000 FMFlg1=           0
         NFxFlg=           0 DoJE=T BraDBF=F KetDBF=T FulRan=T
         wScrn=  0.000000 ICntrl=     500 IOpCl=  0 I1Cent=   200000004 NGrid=           0
         NMat0=    1 NMatS0=      1 NMatT0=    0 NMatD0=    1 NMtDS0=    0 NMtDT0=    0
 Petite list used in FoFCou.
 Requested convergence on RMS density matrix=1.00D-08 within 128 cycles.
 Requested convergence on MAX density matrix=1.00D-06.
 Requested convergence on             energy=1.00D-06.
 No special actions if energy rises.
 Inv3:  Mode=1 IEnd=    15322800.
 Iteration    1 A*A^-1 deviation from unit magnitude is 5.33D-15 for   2251.
 Iteration    1 A*A^-1 deviation from orthogonality  is 2.52D-15 for   1214    275.
 Iteration    1 A^-1*A deviation from unit magnitude is 5.77D-15 for   2251.
 Iteration    1 A^-1*A deviation from orthogonality  is 1.47D-14 for   1079   1056.
 Error on total polarization charges =  0.01891
 SCF Done:  E(RwB97XD) =  -837.863200736     A.U. after   18 cycles
            NFock= 18  Conv=0.44D-08     -V/T= 2.0045
 SMD-CDS (non-electrostatic) energy       (kcal/mol) =      -5.21
 (included in total energy above)
 DoSCS=F DFT=T ScalE2(SS,OS)=  1.000000  1.000000
 Range of M.O.s used for correlation:     1   611
 NBasis=   611 NAE=    63 NBE=    63 NFC=     0 NFV=     0
 NROrb=    611 NOA=    63 NOB=    63 NVA=   548 NVB=   548

 **** Warning!!: The largest alpha MO coefficient is  0.34820501D+02

   1 Symmetry operations used in ECPInt.
 ECPInt:  NShTT=   29646 NPrTT=   90516 LenC2=   27394 LenP2D=   61376.
 LDataN:  DoStor=T MaxTD1= 7 Len=  274
 Number of processors reduced to   4 by ecpmxn.
 Symmetrizing basis deriv contribution to polar:
 IMax=3 JMax=2 DiffMx= 0.00D+00
 G2DrvN: will do    32 centers at a time, making    1 passes.
 Calling FoFCou, ICntrl=  3107 FMM=F I1Cent=   0 AccDes= 0.00D+00.
 NEqPCM:  Using equilibrium solvation (IEInf=0, Eps=   2.3741, EpsInf=   2.2383)
 G2PCM: DoFxE=T DoFxN=T DoGrad=T DoDP/DQ/DG/TGxP=FFFF NFrqRd=   0 IEInf=0 SqF1=F DoCFld=F IF1Alg=4.
 End of G2Drv F.D. properties file   721 does not exist.
 End of G2Drv F.D. properties file   722 does not exist.
 End of G2Drv F.D. properties file   788 does not exist.
          IDoAtm=1111111111111111111111111111111
 NEqPCM:  Using equilibrium solvation (IEInf=0, Eps=   2.3741, EpsInf=   2.2383)
          Differentiating once with respect to electric field.
                with respect to dipole field.
          Differentiating once with respect to nuclear coordinates.
          There are    96 degrees of freedom in the 1st order CPHF.  IDoFFX=6 NUNeed=     3.
     93 vectors produced by pass  0 Test12= 3.60D-14 1.04D-09 XBig12= 1.21D+02 6.98D+00.
 AX will form    93 AO Fock derivatives at one time.
     93 vectors produced by pass  1 Test12= 3.60D-14 1.04D-09 XBig12= 1.70D+01 6.85D-01.
     93 vectors produced by pass  2 Test12= 3.60D-14 1.04D-09 XBig12= 4.80D-01 9.47D-02.
     93 vectors produced by pass  3 Test12= 3.60D-14 1.04D-09 XBig12= 8.01D-03 1.22D-02.
     93 vectors produced by pass  4 Test12= 3.60D-14 1.04D-09 XBig12= 9.74D-05 1.02D-03.
     93 vectors produced by pass  5 Test12= 3.60D-14 1.04D-09 XBig12= 8.43D-07 6.63D-05.
     93 vectors produced by pass  6 Test12= 3.60D-14 1.04D-09 XBig12= 5.91D-09 6.08D-06.
     44 vectors produced by pass  7 Test12= 3.60D-14 1.04D-09 XBig12= 3.71D-11 3.74D-07.
      3 vectors produced by pass  8 Test12= 3.60D-14 1.04D-09 XBig12= 2.36D-13 3.34D-08.
      3 vectors produced by pass  9 Test12= 3.60D-14 1.04D-09 XBig12= 3.70D-15 4.98D-09.
 InvSVY:  IOpt=1 It=  1 EMax= 7.11D-15
 Solved reduced A of dimension   701 with    96 vectors.
 Isotropic polarizability for W=    0.000000      204.09 Bohr**3.
 End of Minotr F.D. properties file   721 does not exist.
 End of Minotr F.D. properties file   722 does not exist.
 End of Minotr F.D. properties file   788 does not exist.

 **********************************************************************

            Population analysis using the SCF density.

 **********************************************************************

 Orbital symmetries:
       Occupied  (A) (A) (A) (A) (A) (A) (A) (A) (A) (A) (A) (A)
                 (A) (A) (A) (A) (A) (A) (A) (A) (A) (A) (A) (A)
                 (A) (A) (A) (A) (A) (A) (A) (A) (A) (A) (A) (A)
                 (A) (A) (A) (A) (A) (A) (A) (A) (A) (A) (A) (A)
                 (A) (A) (A) (A) (A) (A) (A) (A) (A) (A) (A) (A)
                 (A) (A) (A)
       Virtual   (A) (A) (A) (A) (A) (A) (A) (A) (A) (A) (A) (A)
                 (A) (A) (A) (A) (A) (A) (A) (A) (A) (A) (A) (A)
                 (A) (A) (A) (A) (A) (A) (A) (A) (A) (A) (A) (A)
                 (A) (A) (A) (A) (A) (A) (A) (A) (A) (A) (A) (A)
                 (A) (A) (A) (A) (A) (A) (A) (A) (A) (A) (A) (A)
                 (A) (A) (A) (A) (A) (A) (A) (A) (A) (A) (A) (A)
                 (A) (A) (A) (A) (A) (A) (A) (A) (A) (A) (A) (A)
                 (A) (A) (A) (A) (A) (A) (A) (A) (A) (A) (A) (A)
                 (A) (A) (A) (A) (A) (A) (A) (A) (A) (A) (A) (A)
                 (A) (A) (A) (A) (A) (A) (A) (A) (A) (A) (A) (A)
                 (A) (A) (A) (A) (A) (A) (A) (A) (A) (A) (A) (A)
                 (A) (A) (A) (A) (A) (A) (A) (A) (A) (A) (A) (A)
                 (A) (A) (A) (A) (A) (A) (A) (A) (A) (A) (A) (A)
                 (A) (A) (A) (A) (A) (A) (A) (A) (A) (A) (A) (A)
                 (A) (A) (A) (A) (A) (A) (A) (A) (A) (A) (A) (A)
                 (A) (A) (A) (A) (A) (A) (A) (A) (A) (A) (A) (A)
                 (A) (A) (A) (A) (A) (A) (A) (A) (A) (A) (A) (A)
                 (A) (A) (A) (A) (A) (A) (A) (A) (A) (A) (A) (A)
                 (A) (A) (A) (A) (A) (A) (A) (A) (A) (A) (A) (A)
                 (A) (A) (A) (A) (A) (A) (A) (A) (A) (A) (A) (A)
                 (A) (A) (A) (A) (A) (A) (A) (A) (A) (A) (A) (A)
                 (A) (A) (A) (A) (A) (A) (A) (A) (A) (A) (A) (A)
                 (A) (A) (A) (A) (A) (A) (A) (A) (A) (A) (A) (A)
                 (A) (A) (A) (A) (A) (A) (A) (A) (A) (A) (A) (A)
                 (A) (A) (A) (A) (A) (A) (A) (A) (A) (A) (A) (A)
                 (A) (A) (A) (A) (A) (A) (A) (A) (A) (A) (A) (A)
                 (A) (A) (A) (A) (A) (A) (A) (A) (A) (A) (A) (A)
                 (A) (A) (A) (A) (A) (A) (A) (A) (A) (A) (A) (A)
                 (A) (A) (A) (A) (A) (A) (A) (A) (A) (A) (A) (A)
                 (A) (A) (A) (A) (A) (A) (A) (A) (A) (A) (A) (A)
                 (A) (A) (A) (A) (A) (A) (A) (A) (A) (A) (A) (A)
                 (A) (A) (A) (A) (A) (A) (A) (A) (A) (A) (A) (A)
                 (A) (A) (A) (A) (A) (A) (A) (A) (A) (A) (A) (A)
                 (A) (A) (A) (A) (A) (A) (A) (A) (A) (A) (A) (A)
                 (A) (A) (A) (A) (A) (A) (A) (A) (A) (A) (A) (A)
                 (A) (A) (A) (A) (A) (A) (A) (A) (A) (A) (A) (A)
                 (A) (A) (A) (A) (A) (A) (A) (A) (A) (A) (A) (A)
                 (A) (A) (A) (A) (A) (A) (A) (A) (A) (A) (A) (A)
                 (A) (A) (A) (A) (A) (A) (A) (A) (A) (A) (A) (A)
                 (A) (A) (A) (A) (A) (A) (A) (A) (A) (A) (A) (A)
                 (A) (A) (A) (A) (A) (A) (A) (A) (A) (A) (A) (A)
                 (A) (A) (A) (A) (A) (A) (A) (A) (A) (A) (A) (A)
                 (A) (A) (A) (A) (A) (A) (A) (A) (A) (A) (A) (A)
                 (A) (A) (A) (A) (A) (A) (A) (A) (A) (A) (A) (A)
                 (A) (A) (A) (A) (A) (A) (A) (A) (A) (A) (A) (A)
                 (A) (A) (A) (A) (A) (A) (A) (A)
 The electronic state is 1-A.
 Alpha  occ. eigenvalues --  -19.29718 -19.27900 -19.23247 -19.20822 -14.48967
 Alpha  occ. eigenvalues --  -14.43874 -10.42784 -10.40618 -10.35149 -10.34356
 Alpha  occ. eigenvalues --  -10.33430 -10.33198 -10.32221 -10.32112 -10.31967
 Alpha  occ. eigenvalues --  -10.31122 -10.29247  -1.22350  -1.20167  -1.12941
 Alpha  occ. eigenvalues --   -1.10231  -1.09527  -1.07656  -0.91036  -0.88657
 Alpha  occ. eigenvalues --   -0.85096  -0.81987  -0.79913  -0.78300  -0.69135
 Alpha  occ. eigenvalues --   -0.67710  -0.66707  -0.66234  -0.64978  -0.63832
 Alpha  occ. eigenvalues --   -0.62204  -0.58973  -0.58167  -0.56862  -0.56185
 Alpha  occ. eigenvalues --   -0.55374  -0.54639  -0.54010  -0.52504  -0.50502
 Alpha  occ. eigenvalues --   -0.50265  -0.50004  -0.48728  -0.47804  -0.47376
 Alpha  occ. eigenvalues --   -0.45631  -0.44787  -0.44184  -0.43347  -0.42863
 Alpha  occ. eigenvalues --   -0.39449  -0.39382  -0.38289  -0.37504  -0.37030
 Alpha  occ. eigenvalues --   -0.35431  -0.31496  -0.26544
 Alpha virt. eigenvalues --   -0.03785   0.08545   0.10569   0.12247   0.12500
 Alpha virt. eigenvalues --    0.13306   0.14427   0.15380   0.15917   0.16433
 Alpha virt. eigenvalues --    0.16807   0.17200   0.17767   0.18202   0.19015
 Alpha virt. eigenvalues --    0.19552   0.19935   0.20136   0.20810   0.20915
 Alpha virt. eigenvalues --    0.21957   0.22549   0.22854   0.23186   0.24050
 Alpha virt. eigenvalues --    0.24979   0.26102   0.26322   0.27778   0.28138
 Alpha virt. eigenvalues --    0.28855   0.29626   0.30291   0.30723   0.31549
 Alpha virt. eigenvalues --    0.33366   0.33857   0.34262   0.35126   0.36073
 Alpha virt. eigenvalues --    0.36361   0.36928   0.37301   0.38327   0.39045
 Alpha virt. eigenvalues --    0.40129   0.40591   0.41332   0.41596   0.42406
 Alpha virt. eigenvalues --    0.43103   0.43667   0.44024   0.44975   0.45228
 Alpha virt. eigenvalues --    0.45641   0.46406   0.46986   0.47365   0.47898
 Alpha virt. eigenvalues --    0.48198   0.48809   0.49672   0.49837   0.50194
 Alpha virt. eigenvalues --    0.50780   0.52069   0.52324   0.52550   0.52716
 Alpha virt. eigenvalues --    0.52894   0.53347   0.53925   0.54339   0.55596
 Alpha virt. eigenvalues --    0.56049   0.56424   0.56685   0.57241   0.57540
 Alpha virt. eigenvalues --    0.58999   0.59784   0.60604   0.61031   0.61836
 Alpha virt. eigenvalues --    0.62036   0.62677   0.63341   0.63914   0.64596
 Alpha virt. eigenvalues --    0.65763   0.66194   0.67452   0.68047   0.69082
 Alpha virt. eigenvalues --    0.70470   0.70649   0.71208   0.72564   0.73652
 Alpha virt. eigenvalues --    0.75046   0.75302   0.77623   0.78285   0.79922
 Alpha virt. eigenvalues --    0.81357   0.81602   0.82863   0.84029   0.85506
 Alpha virt. eigenvalues --    0.86499   0.88410   0.88582   0.89815   0.90406
 Alpha virt. eigenvalues --    0.91038   0.92029   0.92811   0.93507   0.94959
 Alpha virt. eigenvalues --    0.95353   0.96158   0.97063   0.97794   0.98644
 Alpha virt. eigenvalues --    0.99445   0.99902   1.00949   1.02134   1.04121
 Alpha virt. eigenvalues --    1.04546   1.05861   1.06851   1.07351   1.08041
 Alpha virt. eigenvalues --    1.09235   1.10543   1.10849   1.11363   1.12853
 Alpha virt. eigenvalues --    1.12954   1.14562   1.16556   1.17342   1.17648
 Alpha virt. eigenvalues --    1.18288   1.19548   1.21423   1.22406   1.24881
 Alpha virt. eigenvalues --    1.25704   1.26957   1.27781   1.28020   1.28641
 Alpha virt. eigenvalues --    1.29647   1.30218   1.31803   1.32119   1.32899
 Alpha virt. eigenvalues --    1.33889   1.34492   1.36581   1.37221   1.38358
 Alpha virt. eigenvalues --    1.39777   1.40460   1.40995   1.43076   1.44196
 Alpha virt. eigenvalues --    1.45571   1.45710   1.47917   1.48732   1.51655
 Alpha virt. eigenvalues --    1.52674   1.53501   1.55723   1.56173   1.57615
 Alpha virt. eigenvalues --    1.57808   1.59153   1.59965   1.60761   1.62082
 Alpha virt. eigenvalues --    1.62498   1.63398   1.63527   1.65062   1.65234
 Alpha virt. eigenvalues --    1.65981   1.66848   1.67588   1.68394   1.69661
 Alpha virt. eigenvalues --    1.70513   1.71616   1.72982   1.74163   1.75925
 Alpha virt. eigenvalues --    1.77171   1.78036   1.78731   1.81478   1.81719
 Alpha virt. eigenvalues --    1.83559   1.84195   1.85569   1.86779   1.89057
 Alpha virt. eigenvalues --    1.91237   1.91834   1.93453   1.93630   1.95587
 Alpha virt. eigenvalues --    1.96533   1.97488   1.99258   2.00134   2.01164
 Alpha virt. eigenvalues --    2.01921   2.02367   2.03878   2.04911   2.07772
 Alpha virt. eigenvalues --    2.08592   2.09192   2.09754   2.11399   2.11998
 Alpha virt. eigenvalues --    2.12990   2.13447   2.13947   2.15530   2.15663
 Alpha virt. eigenvalues --    2.17240   2.17718   2.19491   2.20186   2.21205
 Alpha virt. eigenvalues --    2.22974   2.23870   2.24186   2.24833   2.26785
 Alpha virt. eigenvalues --    2.27221   2.27859   2.31013   2.31917   2.32886
 Alpha virt. eigenvalues --    2.34133   2.35837   2.36467   2.37452   2.38152
 Alpha virt. eigenvalues --    2.38641   2.39733   2.41232   2.41568   2.42346
 Alpha virt. eigenvalues --    2.44063   2.44226   2.44952   2.46659   2.48001
 Alpha virt. eigenvalues --    2.48937   2.49307   2.50323   2.51091   2.51847
 Alpha virt. eigenvalues --    2.52070   2.53766   2.54892   2.55725   2.56663
 Alpha virt. eigenvalues --    2.58526   2.59893   2.60265   2.60498   2.61963
 Alpha virt. eigenvalues --    2.63039   2.63614   2.65030   2.65868   2.66456
 Alpha virt. eigenvalues --    2.68665   2.69983   2.70796   2.71811   2.72197
 Alpha virt. eigenvalues --    2.74337   2.76262   2.76989   2.77980   2.78495
 Alpha virt. eigenvalues --    2.79229   2.80932   2.81764   2.83505   2.83756
 Alpha virt. eigenvalues --    2.85219   2.86076   2.86764   2.88087   2.89279
 Alpha virt. eigenvalues --    2.89748   2.91514   2.91944   2.92712   2.93731
 Alpha virt. eigenvalues --    2.95181   2.96282   2.97877   2.98129   3.01501
 Alpha virt. eigenvalues --    3.01771   3.03972   3.04083   3.05108   3.06107
 Alpha virt. eigenvalues --    3.08082   3.08221   3.09769   3.11379   3.11671
 Alpha virt. eigenvalues --    3.11999   3.13311   3.15451   3.15556   3.16203
 Alpha virt. eigenvalues --    3.17242   3.18459   3.19124   3.20075   3.20810
 Alpha virt. eigenvalues --    3.21484   3.22224   3.23169   3.24159   3.25543
 Alpha virt. eigenvalues --    3.25923   3.27284   3.28078   3.29137   3.29532
 Alpha virt. eigenvalues --    3.30241   3.31179   3.31674   3.34004   3.34667
 Alpha virt. eigenvalues --    3.35405   3.36909   3.37116   3.37454   3.38660
 Alpha virt. eigenvalues --    3.39913   3.40705   3.41283   3.41674   3.43161
 Alpha virt. eigenvalues --    3.44793   3.44958   3.45327   3.47163   3.47896
 Alpha virt. eigenvalues --    3.48818   3.49661   3.50302   3.51244   3.51773
 Alpha virt. eigenvalues --    3.54543   3.55728   3.56417   3.56543   3.57638
 Alpha virt. eigenvalues --    3.58392   3.58695   3.60516   3.62136   3.63988
 Alpha virt. eigenvalues --    3.65216   3.65375   3.66507   3.66889   3.67803
 Alpha virt. eigenvalues --    3.70098   3.71153   3.73431   3.74058   3.74823
 Alpha virt. eigenvalues --    3.76057   3.77671   3.81115   3.81813   3.84501
 Alpha virt. eigenvalues --    3.84822   3.86584   3.87286   3.92004   3.92383
 Alpha virt. eigenvalues --    3.95793   3.96541   3.98674   3.99982   4.01881
 Alpha virt. eigenvalues --    4.04388   4.07273   4.09019   4.10124   4.11546
 Alpha virt. eigenvalues --    4.12337   4.14502   4.15819   4.18341   4.20127
 Alpha virt. eigenvalues --    4.22487   4.23703   4.24935   4.25493   4.27111
 Alpha virt. eigenvalues --    4.27345   4.27555   4.28455   4.29468   4.31629
 Alpha virt. eigenvalues --    4.33632   4.35480   4.36697   4.38060   4.38989
 Alpha virt. eigenvalues --    4.39625   4.40601   4.43445   4.44613   4.47195
 Alpha virt. eigenvalues --    4.47852   4.48358   4.51119   4.51994   4.52766
 Alpha virt. eigenvalues --    4.54309   4.54519   4.58817   4.60134   4.62520
 Alpha virt. eigenvalues --    4.64590   4.66473   4.71335   4.72604   4.75368
 Alpha virt. eigenvalues --    4.77550   4.78966   4.81997   4.83461   4.85119
 Alpha virt. eigenvalues --    4.91237   4.94730   4.98386   5.00029   5.03250
 Alpha virt. eigenvalues --    5.05265   5.06198   5.08232   5.09308   5.10212
 Alpha virt. eigenvalues --    5.13633   5.13953   5.15618   5.17576   5.18864
 Alpha virt. eigenvalues --    5.20676   5.21700   5.24091   5.25050   5.28633
 Alpha virt. eigenvalues --    5.30223   5.31818   5.33848   5.36163   5.39750
 Alpha virt. eigenvalues --    5.43018   5.44982   5.47105   5.52254   5.55845
 Alpha virt. eigenvalues --    5.60816   5.63662   5.64974   5.70698   5.80098
 Alpha virt. eigenvalues --    5.81512   5.82534   5.83753   5.87769   5.94148
 Alpha virt. eigenvalues --    6.00007   6.06232   6.09808   6.13056   6.15279
 Alpha virt. eigenvalues --    6.21867   6.30896   6.34179   6.34919   6.41049
 Alpha virt. eigenvalues --    6.45102   6.46714   6.47355   6.54649   6.55487
 Alpha virt. eigenvalues --    6.64653   6.65322   6.76928   6.77868   6.80650
 Alpha virt. eigenvalues --    6.83095   6.88610   6.90134   6.99832   7.00355
 Alpha virt. eigenvalues --    7.02486   7.03731   7.09833   7.13580   7.17844
 Alpha virt. eigenvalues --    7.25005   7.25985   7.42864   7.46911   7.53382
 Alpha virt. eigenvalues --    7.56583  22.47016  22.48721  22.54693  22.65378
 Alpha virt. eigenvalues --   22.68182  22.72101  22.81005  22.92539  22.94927
 Alpha virt. eigenvalues --   23.53593  23.61084  32.48607  32.73149  44.04377
 Alpha virt. eigenvalues --   44.07376  44.26147  44.33012
          Condensed to atoms (all electrons):
               1          2          3          4          5          6
     1  C    5.427419   0.218597   0.002631   0.045717   0.443044  -0.043745
     2  C    0.218597   5.163555  -0.122590   0.059640  -0.041154   0.003248
     3  C    0.002631  -0.122590   5.219754   0.180447   0.006539  -0.023211
     4  C    0.045717   0.059640   0.180447   5.468959  -0.046553   0.447274
     5  H    0.443044  -0.041154   0.006539  -0.046553   0.475602  -0.003819
     6  H   -0.043745   0.003248  -0.023211   0.447274  -0.003819   0.485138
     7  C   -0.043185   0.315040   0.290012  -0.058784   0.003289   0.001210
     8  H    0.006658  -0.026326  -0.028283   0.008215  -0.000085  -0.000052
     9  H   -0.012673  -0.017344  -0.015794  -0.000758  -0.000159   0.000613
    10  C    0.097307   0.139827   0.049090  -0.053861   0.007742   0.006477
    11  H   -0.001377  -0.034920   0.006304   0.002141  -0.005279   0.000087
    12  C   -0.022114   0.057937   0.148920   0.139330  -0.003230  -0.037835
    13  H    0.003050   0.007884  -0.034110  -0.025873   0.000127  -0.004227
    14  H   -0.027298   0.402461   0.006690   0.002022   0.001163  -0.000073
    15  H    0.003359   0.003203   0.433665  -0.024839  -0.000078  -0.002515
    16  N   -0.017583  -0.032454   0.004800   0.031190   0.004852  -0.011200
    17  N    0.076649  -0.000877  -0.013138  -0.011364  -0.013653   0.001637
    18  C    0.005228   0.000365   0.003667  -0.000873  -0.000834   0.008284
    19  C   -0.035415  -0.009837  -0.002122   0.006039  -0.002715  -0.000242
    20  O   -0.004967  -0.003674   0.000860   0.001657   0.000038   0.000028
    21  O    0.000503   0.000291   0.002375  -0.010025  -0.000037  -0.000445
    22  O   -0.011018   0.002694  -0.001111   0.005807   0.004448   0.000083
    23  O    0.007367   0.000465   0.000056  -0.008620   0.000934   0.008438
    24  C   -0.000327  -0.000029   0.000169  -0.000384   0.000035  -0.000322
    25  H   -0.000056  -0.000010  -0.000022   0.000164  -0.000007  -0.000198
    26  H   -0.000023   0.000006  -0.000019   0.000184   0.000001   0.000305
    27  H    0.000354  -0.000012   0.000141   0.000060   0.000015  -0.001697
    28  C    0.000564  -0.001723   0.000025  -0.000192   0.000147  -0.000003
    29  H    0.000609  -0.000891   0.000052  -0.000021   0.000088   0.000000
    30  H   -0.000326   0.000075  -0.000016   0.000050   0.000006   0.000000
    31  H   -0.000162   0.000369   0.000012  -0.000079   0.000051  -0.000001
               7          8          9         10         11         12
     1  C   -0.043185   0.006658  -0.012673   0.097307  -0.001377  -0.022114
     2  C    0.315040  -0.026326  -0.017344   0.139827  -0.034920   0.057937
     3  C    0.290012  -0.028283  -0.015794   0.049090   0.006304   0.148920
     4  C   -0.058784   0.008215  -0.000758  -0.053861   0.002141   0.139330
     5  H    0.003289  -0.000085  -0.000159   0.007742  -0.005279  -0.003230
     6  H    0.001210  -0.000052   0.000613   0.006477   0.000087  -0.037835
     7  C    4.866607   0.403184   0.399759  -0.018288   0.002227  -0.014506
     8  H    0.403184   0.547713  -0.017661  -0.005145  -0.000168  -0.005202
     9  H    0.399759  -0.017661   0.482430   0.007203  -0.000023   0.001145
    10  C   -0.018288  -0.005145   0.007203   5.335763   0.432461   0.143087
    11  H    0.002227  -0.000168  -0.000023   0.432461   0.459411  -0.036144
    12  C   -0.014506  -0.005202   0.001145   0.143087  -0.036144   5.296551
    13  H    0.002068   0.000136  -0.000109  -0.047505  -0.002880   0.458292
    14  H   -0.014625  -0.001707  -0.000126  -0.018597  -0.002267   0.000242
    15  H   -0.018869  -0.001293  -0.001553   0.004737   0.000011  -0.033524
    16  N   -0.010207   0.000366   0.012634   0.015035   0.000018  -0.007714
    17  N    0.021652  -0.000142  -0.009376  -0.003163   0.000081   0.007831
    18  C   -0.005809   0.000052   0.002629   0.000697   0.000003  -0.005356
    19  C    0.009652  -0.000309   0.000267   0.007962   0.000101  -0.002476
    20  O   -0.005287  -0.000046   0.007028   0.001076  -0.000002  -0.000351
    21  O   -0.000933  -0.000003   0.000280  -0.000185   0.000000  -0.000237
    22  O    0.000056  -0.000032   0.000571   0.000013   0.000197   0.000011
    23  O    0.000033   0.000000   0.000105  -0.000178  -0.000002   0.001822
    24  C   -0.000025   0.000000   0.000004   0.000107   0.000000  -0.000227
    25  H    0.000004   0.000000   0.000000   0.000004   0.000000  -0.000004
    26  H    0.000005   0.000000  -0.000002  -0.000003   0.000000   0.000025
    27  H   -0.000021   0.000000  -0.000002   0.000015   0.000000  -0.000300
    28  C    0.000202  -0.000003  -0.000118   0.000043  -0.000006   0.000020
    29  H    0.000154   0.000006  -0.000038   0.000077  -0.000013   0.000002
    30  H    0.000053  -0.000001  -0.000007  -0.000002   0.000001   0.000000
    31  H   -0.000039   0.000000  -0.000005   0.000015   0.000005   0.000001
              13         14         15         16         17         18
     1  C    0.003050  -0.027298   0.003359  -0.017583   0.076649   0.005228
     2  C    0.007884   0.402461   0.003203  -0.032454  -0.000877   0.000365
     3  C   -0.034110   0.006690   0.433665   0.004800  -0.013138   0.003667
     4  C   -0.025873   0.002022  -0.024839   0.031190  -0.011364  -0.000873
     5  H    0.000127   0.001163  -0.000078   0.004852  -0.013653  -0.000834
     6  H   -0.004227  -0.000073  -0.002515  -0.011200   0.001637   0.008284
     7  C    0.002068  -0.014625  -0.018869  -0.010207   0.021652  -0.005809
     8  H    0.000136  -0.001707  -0.001293   0.000366  -0.000142   0.000052
     9  H   -0.000109  -0.000126  -0.001553   0.012634  -0.009376   0.002629
    10  C   -0.047505  -0.018597   0.004737   0.015035  -0.003163   0.000697
    11  H   -0.002880  -0.002267   0.000011   0.000018   0.000081   0.000003
    12  C    0.458292   0.000242  -0.033524  -0.007714   0.007831  -0.005356
    13  H    0.487672   0.000034  -0.003628  -0.000015  -0.000059  -0.000047
    14  H    0.000034   0.493492  -0.000099   0.001396  -0.003274  -0.000061
    15  H   -0.003628  -0.000099   0.491123  -0.000987   0.000098   0.000961
    16  N   -0.000015   0.001396  -0.000987   7.009373   0.126558   0.424191
    17  N   -0.000059  -0.003274   0.000098   0.126558   6.689432  -0.028922
    18  C   -0.000047  -0.000061   0.000961   0.424191  -0.028922   4.265070
    19  C   -0.000008   0.005036   0.000032  -0.036998   0.356088  -0.006868
    20  O    0.000000  -0.000295   0.000011  -0.012865  -0.074430   0.000863
    21  O    0.000001  -0.000002   0.000989  -0.108465   0.007421   0.685514
    22  O    0.000003   0.004441  -0.000002   0.002917  -0.109046  -0.000215
    23  O   -0.000005  -0.000001  -0.000051  -0.094819  -0.026999   0.352364
    24  C   -0.000002   0.000001  -0.000007   0.004823   0.001276  -0.049442
    25  H    0.000000   0.000000   0.000000   0.000586   0.000084   0.005832
    26  H    0.000000   0.000000  -0.000004   0.000639  -0.000302  -0.014673
    27  H    0.000000   0.000000   0.000025  -0.000056  -0.000243   0.001333
    28  C    0.000000  -0.001114   0.000000   0.000028   0.006223  -0.000031
    29  H    0.000000  -0.001198   0.000000  -0.000084  -0.001023  -0.000013
    30  H    0.000000   0.000390   0.000000  -0.000045   0.000283  -0.000008
    31  H    0.000000  -0.000564   0.000000   0.000023   0.000759   0.000002
              19         20         21         22         23         24
     1  C   -0.035415  -0.004967   0.000503  -0.011018   0.007367  -0.000327
     2  C   -0.009837  -0.003674   0.000291   0.002694   0.000465  -0.000029
     3  C   -0.002122   0.000860   0.002375  -0.001111   0.000056   0.000169
     4  C    0.006039   0.001657  -0.010025   0.005807  -0.008620  -0.000384
     5  H   -0.002715   0.000038  -0.000037   0.004448   0.000934   0.000035
     6  H   -0.000242   0.000028  -0.000445   0.000083   0.008438  -0.000322
     7  C    0.009652  -0.005287  -0.000933   0.000056   0.000033  -0.000025
     8  H   -0.000309  -0.000046  -0.000003  -0.000032   0.000000   0.000000
     9  H    0.000267   0.007028   0.000280   0.000571   0.000105   0.000004
    10  C    0.007962   0.001076  -0.000185   0.000013  -0.000178   0.000107
    11  H    0.000101  -0.000002   0.000000   0.000197  -0.000002   0.000000
    12  C   -0.002476  -0.000351  -0.000237   0.000011   0.001822  -0.000227
    13  H   -0.000008   0.000000   0.000001   0.000003  -0.000005  -0.000002
    14  H    0.005036  -0.000295  -0.000002   0.004441  -0.000001   0.000001
    15  H    0.000032   0.000011   0.000989  -0.000002  -0.000051  -0.000007
    16  N   -0.036998  -0.012865  -0.108465   0.002917  -0.094819   0.004823
    17  N    0.356088  -0.074430   0.007421  -0.109046  -0.026999   0.001276
    18  C   -0.006868   0.000863   0.685514  -0.000215   0.352364  -0.049442
    19  C    4.354535   0.667756  -0.000897   0.368285   0.000151   0.000044
    20  O    0.667756   7.840211   0.000013  -0.086850  -0.000041   0.000009
    21  O   -0.000897   0.000013   7.908334   0.000003  -0.099256   0.000325
    22  O    0.368285  -0.086850   0.000003   7.990969  -0.000134  -0.000004
    23  O    0.000151  -0.000041  -0.099256  -0.000134   8.016842   0.232106
    24  C    0.000044   0.000009   0.000325  -0.000004   0.232106   4.780349
    25  H    0.000036   0.000000   0.002376  -0.000001  -0.033553   0.396174
    26  H   -0.000040  -0.000001   0.005237   0.000000  -0.031499   0.425242
    27  H    0.000035   0.000000   0.004982   0.000000  -0.043329   0.413297
    28  C   -0.043531   0.002811  -0.000002   0.217786  -0.000001   0.000000
    29  H   -0.000190   0.004993   0.000000  -0.041377   0.000000   0.000000
    30  H   -0.012392   0.003389   0.000000  -0.028575   0.000000   0.000000
    31  H    0.004189   0.002123   0.000000  -0.030789   0.000001   0.000000
              25         26         27         28         29         30
     1  C   -0.000056  -0.000023   0.000354   0.000564   0.000609  -0.000326
     2  C   -0.000010   0.000006  -0.000012  -0.001723  -0.000891   0.000075
     3  C   -0.000022  -0.000019   0.000141   0.000025   0.000052  -0.000016
     4  C    0.000164   0.000184   0.000060  -0.000192  -0.000021   0.000050
     5  H   -0.000007   0.000001   0.000015   0.000147   0.000088   0.000006
     6  H   -0.000198   0.000305  -0.001697  -0.000003   0.000000   0.000000
     7  C    0.000004   0.000005  -0.000021   0.000202   0.000154   0.000053
     8  H    0.000000   0.000000   0.000000  -0.000003   0.000006  -0.000001
     9  H    0.000000  -0.000002  -0.000002  -0.000118  -0.000038  -0.000007
    10  C    0.000004  -0.000003   0.000015   0.000043   0.000077  -0.000002
    11  H    0.000000   0.000000   0.000000  -0.000006  -0.000013   0.000001
    12  C   -0.000004   0.000025  -0.000300   0.000020   0.000002   0.000000
    13  H    0.000000   0.000000   0.000000   0.000000   0.000000   0.000000
    14  H    0.000000   0.000000   0.000000  -0.001114  -0.001198   0.000390
    15  H    0.000000  -0.000004   0.000025   0.000000   0.000000   0.000000
    16  N    0.000586   0.000639  -0.000056   0.000028  -0.000084  -0.000045
    17  N    0.000084  -0.000302  -0.000243   0.006223  -0.001023   0.000283
    18  C    0.005832  -0.014673   0.001333  -0.000031  -0.000013  -0.000008
    19  C    0.000036  -0.000040   0.000035  -0.043531  -0.000190  -0.012392
    20  O    0.000000  -0.000001   0.000000   0.002811   0.004993   0.003389
    21  O    0.002376   0.005237   0.004982  -0.000002   0.000000   0.000000
    22  O   -0.000001   0.000000   0.000000   0.217786  -0.041377  -0.028575
    23  O   -0.033553  -0.031499  -0.043329  -0.000001   0.000000   0.000000
    24  C    0.396174   0.425242   0.413297   0.000000   0.000000   0.000000
    25  H    0.542316  -0.022612  -0.026156   0.000000   0.000000   0.000000
    26  H   -0.022612   0.535312  -0.038033   0.000000   0.000000   0.000000
    27  H   -0.026156  -0.038033   0.563758   0.000000   0.000000   0.000000
    28  C    0.000000   0.000000   0.000000   4.791916   0.414379   0.421538
    29  H    0.000000   0.000000   0.000000   0.414379   0.547010  -0.034658
    30  H    0.000000   0.000000   0.000000   0.421538  -0.034658   0.522827
    31  H    0.000000   0.000000   0.000000   0.398432  -0.024541  -0.020405
              31
     1  C   -0.000162
     2  C    0.000369
     3  C    0.000012
     4  C   -0.000079
     5  H    0.000051
     6  H   -0.000001
     7  C   -0.000039
     8  H    0.000000
     9  H   -0.000005
    10  C    0.000015
    11  H    0.000005
    12  C    0.000001
    13  H    0.000000
    14  H   -0.000564
    15  H    0.000000
    16  N    0.000023
    17  N    0.000759
    18  C    0.000002
    19  C    0.004189
    20  O    0.002123
    21  O    0.000000
    22  O   -0.030789
    23  O    0.000001
    24  C    0.000000
    25  H    0.000000
    26  H    0.000000
    27  H    0.000000
    28  C    0.398432
    29  H   -0.024541
    30  H   -0.020405
    31  H    0.528373
 Mulliken charges:
               1
     1  C   -0.118788
     2  C   -0.083816
     3  C   -0.115795
     4  C   -0.156671
     5  H    0.169481
     6  H    0.166762
     7  C   -0.124629
     8  H    0.120127
     9  H    0.161078
    10  C   -0.101813
    11  H    0.180031
    12  C   -0.085994
    13  H    0.159200
    14  H    0.153931
    15  H    0.149236
    16  N   -0.305939
    17  N   -0.000062
    18  C    0.356096
    19  C    0.373832
    20  O   -0.344059
    21  O   -0.398160
    22  O   -0.289130
    23  O   -0.282196
    24  C   -0.203192
    25  H    0.135044
    26  H    0.140253
    27  H    0.125834
    28  C   -0.207391
    29  H    0.136677
    30  H    0.147820
    31  H    0.142231
 Sum of Mulliken charges =   0.00000
 Mulliken charges with hydrogens summed into heavy atoms:
               1
     1  C    0.050694
     2  C    0.070115
     3  C    0.033441
     4  C    0.010092
     7  C    0.156576
    10  C    0.078218
    12  C    0.073206
    16  N   -0.305939
    17  N   -0.000062
    18  C    0.356096
    19  C    0.373832
    20  O   -0.344059
    21  O   -0.398160
    22  O   -0.289130
    23  O   -0.282196
    24  C    0.197939
    28  C    0.219337
 APT charges:
               1
     1  C   -1.075846
     2  C    0.346863
     3  C    0.035588
     4  C   -0.275970
     5  H    0.129907
     6  H    0.107141
     7  C    0.008368
     8  H    0.007862
     9  H    0.053938
    10  C    0.144767
    11  H    0.081601
    12  C    0.234145
    13  H    0.054428
    14  H    0.046928
    15  H    0.070131
    16  N   -0.832519
    17  N    0.361180
    18  C    1.699580
    19  C    1.473199
    20  O   -0.838381
    21  O   -1.007892
    22  O   -0.898644
    23  O   -0.972794
    24  C    0.579555
    25  H   -0.007403
    26  H   -0.023293
    27  H   -0.032696
    28  C    0.554343
    29  H   -0.017886
    30  H   -0.013186
    31  H    0.006990
 Sum of APT charges =   0.00000
 APT charges with hydrogens summed into heavy atoms:
               1
     1  C   -0.945939
     2  C    0.393791
     3  C    0.105719
     4  C   -0.168829
     7  C    0.070167
    10  C    0.226367
    12  C    0.288573
    16  N   -0.832519
    17  N    0.361180
    18  C    1.699580
    19  C    1.473199
    20  O   -0.838381
    21  O   -1.007892
    22  O   -0.898644
    23  O   -0.972794
    24  C    0.516163
    28  C    0.530261
 Electronic spatial extent (au):  <R**2>=           3708.4737
 Charge=              0.0000 electrons
 Dipole moment (field-independent basis, Debye):
    X=              4.4194    Y=              5.7896    Z=             -6.2696  Tot=              9.6103
 Quadrupole moment (field-independent basis, Debye-Ang):
   XX=            -88.3182   YY=            -87.2115   ZZ=           -103.5632
   XY=             -0.7649   XZ=              4.7738   YZ=              4.0384
 Traceless Quadrupole moment (field-independent basis, Debye-Ang):
   XX=              4.7127   YY=              5.8195   ZZ=            -10.5322
   XY=             -0.7649   XZ=              4.7738   YZ=              4.0384
 Octapole moment (field-independent basis, Debye-Ang**2):
  XXX=             36.1955  YYY=              3.2507  ZZZ=            -21.2859  XYY=              1.6503
  XXY=            -21.0973  XXZ=            -50.3740  XZZ=              8.5188  YZZ=             15.3244
  YYZ=            -17.1819  XYZ=             -0.5570
 Hexadecapole moment (field-independent basis, Debye-Ang**3):
 XXXX=          -2242.9255 YYYY=          -1650.1397 ZZZZ=           -588.1218 XXXY=            -44.1294
 XXXZ=             90.2627 YYYX=            -41.9042 YYYZ=             -9.4011 ZZZX=              5.8891
 ZZZY=             20.9608 XXYY=           -619.3778 XXZZ=           -515.4558 YYZZ=           -385.5996
 XXYZ=             45.8270 YYXZ=            -31.6014 ZZXY=             17.3525
 N-N= 1.312236441339D+03 E-N=-4.583545278888D+03  KE= 8.341096422992D+02
  Exact polarizability: 213.398  38.792 241.685 -18.310 -27.718 157.199
 Approx polarizability: 198.220  39.437 229.997 -26.874 -36.486 178.822
   1 Symmetry operations used in ECPInt.
 ECPInt:  NShTT=   29646 NPrTT=   90516 LenC2=   27394 LenP2D=   61376.
 LDataN:  DoStor=T MaxTD1= 8 Len=  415
 D2PCM: PCM CHGder 2nd derivatives, FixD1E=F FixD2E=F DoIter=F DoCFld=F I1PDM=0
 Calling FoFJK, ICntrl=    100127 FMM=F ISym2X=0 I1Cent= 0 IOpClX= 0 NMat=1 NMatS=1 NMatT=0.
 Full mass-weighted force constant matrix:
 Low frequencies --- -636.4304   -9.1028   -0.0001    0.0003    0.0006   12.8693
 Low frequencies ---   13.9262   51.0558   56.6321
 ******    1 imaginary frequencies (negative Signs) ****** 
 Diagonal vibrational polarizability:
       87.8541447     191.5410768      42.1438761
 Harmonic frequencies (cm**-1), IR intensities (KM/Mole), Raman scattering
 activities (A**4/AMU), depolarization ratios for plane and unpolarized
 incident light, reduced masses (AMU), force constants (mDyne/A),
 and normal coordinates:
                      1                      2                      3
                      A                      A                      A
 Frequencies --   -636.4269                50.5242                55.1404
 Red. masses --      9.6616                 4.8686                 4.7902
 Frc consts  --      2.3057                 0.0073                 0.0086
 IR Inten    --   1959.9652                 2.6042                 0.1739
  Atom  AN      X      Y      Z        X      Y      Z        X      Y      Z
     1   6     0.22   0.60  -0.25    -0.04  -0.06   0.00    -0.05   0.02   0.00
     2   6     0.04  -0.03   0.08    -0.04  -0.02  -0.03     0.06  -0.02  -0.12
     3   6     0.01   0.01   0.03    -0.04  -0.02  -0.03     0.17   0.01   0.11
     4   6    -0.04   0.11  -0.05    -0.04  -0.06  -0.01     0.02   0.04   0.14
     5   1     0.06  -0.30   0.06    -0.05  -0.07   0.00    -0.16   0.05  -0.03
     6   1    -0.03  -0.12   0.08    -0.05  -0.07   0.01    -0.02   0.08   0.25
     7   6     0.01   0.00   0.03    -0.03   0.00  -0.03     0.22  -0.03  -0.05
     8   1     0.00   0.02   0.03    -0.03   0.02  -0.05     0.29  -0.05  -0.10
     9   1     0.04   0.02   0.07    -0.01   0.01  -0.01     0.26  -0.04  -0.04
    10   6    -0.04  -0.17  -0.10    -0.06  -0.05  -0.05    -0.02   0.02  -0.06
    11   1     0.15   0.04   0.06    -0.07  -0.07  -0.06    -0.12   0.02  -0.11
    12   6    -0.10   0.00   0.02    -0.06  -0.05  -0.05     0.04   0.03   0.09
    13   1     0.05   0.16   0.21    -0.07  -0.07  -0.07     0.02   0.05   0.16
    14   1     0.04  -0.02   0.11    -0.03  -0.01  -0.03     0.04  -0.03  -0.24
    15   1     0.02  -0.02   0.06    -0.03  -0.01  -0.03     0.25   0.01   0.20
    16   7     0.09  -0.10  -0.02     0.01  -0.08   0.03    -0.06   0.05  -0.01
    17   7    -0.19  -0.34   0.10     0.01  -0.06   0.02    -0.04   0.02   0.00
    18   6    -0.08   0.01  -0.05     0.01  -0.06   0.03    -0.05  -0.04  -0.04
    19   6     0.04  -0.02   0.04     0.04   0.01   0.03    -0.03   0.07   0.03
    20   8     0.03   0.01   0.03     0.09   0.12   0.06     0.02   0.22   0.07
    21   8     0.03   0.01   0.01     0.01  -0.22   0.07    -0.09  -0.15  -0.04
    22   8    -0.03   0.00   0.02     0.00  -0.06   0.01    -0.08  -0.07   0.00
    23   8     0.00   0.00   0.02     0.02   0.18  -0.03    -0.01   0.01  -0.06
    24   6    -0.01   0.00  -0.01     0.02   0.36  -0.07     0.00  -0.15  -0.07
    25   1     0.01   0.00  -0.01     0.03   0.55  -0.11     0.04  -0.13  -0.08
    26   1     0.00   0.00   0.00    -0.05   0.29  -0.22     0.08  -0.22  -0.09
    27   1     0.01   0.01  -0.01     0.10   0.36   0.10    -0.11  -0.20  -0.06
    28   6     0.00   0.00   0.00     0.04   0.01   0.02    -0.06  -0.02   0.03
    29   1    -0.01   0.02  -0.01     0.04   0.10  -0.04    -0.04   0.08  -0.05
    30   1     0.00   0.00   0.00     0.09   0.03   0.12    -0.03   0.01   0.16
    31   1    -0.03   0.02  -0.01     0.00  -0.05   0.00    -0.10  -0.12   0.00
                      4                      5                      6
                      A                      A                      A
 Frequencies --     64.5749                83.7860                96.5938
 Red. masses --      5.9132                 5.0145                 3.7307
 Frc consts  --      0.0145                 0.0207                 0.0205
 IR Inten    --      1.6151                 1.3735                 2.5972
  Atom  AN      X      Y      Z        X      Y      Z        X      Y      Z
     1   6     0.06  -0.02   0.04     0.06   0.04   0.03     0.03  -0.05  -0.03
     2   6    -0.02  -0.02   0.16     0.02   0.01   0.10     0.03  -0.09   0.01
     3   6    -0.10  -0.02  -0.02     0.00   0.15  -0.09     0.04  -0.06  -0.02
     4   6     0.02  -0.01  -0.07     0.06   0.11  -0.09     0.05  -0.01  -0.05
     5   1     0.16   0.02   0.04     0.11   0.00   0.05     0.05  -0.02  -0.04
     6   1     0.05   0.00  -0.18     0.07   0.12  -0.15     0.06   0.02  -0.08
     7   6    -0.15  -0.02   0.10    -0.07   0.10   0.04     0.00  -0.11   0.00
     8   1    -0.20  -0.03   0.16    -0.08   0.09   0.06     0.01  -0.14   0.04
     9   1    -0.21  -0.02   0.08    -0.16   0.14   0.06    -0.04  -0.11  -0.02
    10   6     0.08   0.00   0.14     0.15  -0.02   0.02     0.09  -0.06   0.03
    11   1     0.17   0.00   0.19     0.24  -0.09   0.06     0.12  -0.06   0.04
    12   6     0.04  -0.01   0.01     0.13   0.07  -0.11     0.10  -0.03   0.00
    13   1     0.07  -0.01  -0.03     0.22   0.08  -0.18     0.14  -0.01   0.01
    14   1    -0.01  -0.02   0.25     0.00  -0.04   0.20     0.02  -0.11   0.03
    15   1    -0.16  -0.02  -0.10    -0.02   0.22  -0.17     0.03  -0.05  -0.03
    16   7     0.01  -0.02  -0.03    -0.02   0.03   0.02    -0.03  -0.03  -0.07
    17   7     0.00   0.01  -0.04    -0.02   0.06   0.01    -0.04  -0.03  -0.08
    18   6     0.01   0.01  -0.02    -0.02  -0.07   0.04    -0.04  -0.01  -0.02
    19   6     0.04   0.06  -0.04    -0.03   0.01  -0.01    -0.02   0.02  -0.03
    20   8     0.16   0.34   0.03    -0.05  -0.06  -0.03    -0.03   0.07  -0.01
    21   8     0.02   0.09  -0.02    -0.03  -0.32   0.09     0.00  -0.01   0.03
    22   8    -0.09  -0.18  -0.11    -0.03   0.04  -0.01     0.02   0.03   0.00
    23   8    -0.01  -0.06   0.00    -0.01   0.10  -0.01    -0.13   0.02  -0.01
    24   6    -0.02  -0.05   0.03    -0.02  -0.12   0.04    -0.16   0.00   0.10
    25   1    -0.04  -0.11   0.04    -0.01   0.00   0.02    -0.24   0.01   0.10
    26   1    -0.03  -0.01   0.08     0.15  -0.29  -0.03    -0.10  -0.01   0.14
    27   1     0.00  -0.03  -0.02    -0.19  -0.23   0.17    -0.16  -0.01   0.15
    28   6    -0.06  -0.13  -0.12    -0.07  -0.05  -0.05     0.11   0.27   0.10
    29   1     0.02   0.03  -0.28    -0.05  -0.14   0.00     0.01   0.45   0.06
    30   1    -0.02  -0.07   0.11    -0.13  -0.06  -0.13     0.29   0.28   0.23
    31   1    -0.16  -0.32  -0.19    -0.05   0.00  -0.04     0.13   0.25   0.11
                      7                      8                      9
                      A                      A                      A
 Frequencies --    110.5440               155.5088               167.1291
 Red. masses --      4.1156                 3.9407                 1.4399
 Frc consts  --      0.0296                 0.0561                 0.0237
 IR Inten    --      1.7173                 8.1302                 1.4773
  Atom  AN      X      Y      Z        X      Y      Z        X      Y      Z
     1   6     0.05   0.06  -0.08     0.00  -0.02  -0.08     0.00  -0.01  -0.03
     2   6     0.01   0.09  -0.05    -0.02  -0.07  -0.02     0.00  -0.04  -0.01
     3   6    -0.05  -0.09   0.01    -0.05  -0.14  -0.01     0.00  -0.05  -0.01
     4   6     0.01  -0.02  -0.04    -0.02  -0.05  -0.08     0.01   0.00  -0.03
     5   1     0.08   0.11  -0.09     0.02  -0.07  -0.06     0.00  -0.02  -0.03
     6   1     0.02  -0.05  -0.08     0.00  -0.04  -0.12     0.01   0.01  -0.04
     7   6    -0.01  -0.04  -0.03    -0.05  -0.14  -0.02    -0.01  -0.07  -0.01
     8   1    -0.06  -0.03   0.02    -0.07  -0.15   0.02    -0.01  -0.08   0.01
     9   1     0.04  -0.09  -0.08    -0.04  -0.17  -0.06    -0.01  -0.08  -0.03
    10   6    -0.05   0.14   0.03    -0.02  -0.04   0.01     0.02  -0.02   0.01
    11   1    -0.07   0.23   0.03    -0.02   0.01   0.03     0.02  -0.01   0.01
    12   6    -0.08   0.03   0.07    -0.03  -0.05   0.04     0.02  -0.01   0.01
    13   1    -0.14   0.03   0.13    -0.02  -0.03   0.09     0.04   0.01   0.04
    14   1     0.04   0.15  -0.08    -0.02  -0.06  -0.04     0.00  -0.04  -0.02
    15   1    -0.08  -0.19   0.04    -0.07  -0.20   0.00     0.00  -0.06   0.00
    16   7     0.05   0.04  -0.12     0.02   0.12   0.06    -0.01   0.02   0.01
    17   7     0.05   0.03  -0.12     0.00   0.02   0.06     0.00   0.01   0.01
    18   6     0.04   0.02  -0.04     0.02   0.14   0.03    -0.01  -0.01   0.01
    19   6     0.02   0.01  -0.03    -0.01   0.00   0.03     0.01   0.05   0.02
    20   8    -0.08   0.03   0.00     0.02  -0.02   0.02     0.02   0.07   0.02
    21   8     0.09  -0.07   0.05    -0.01   0.04   0.02    -0.01  -0.01   0.01
    22   8     0.11  -0.05   0.04    -0.05   0.00   0.00     0.02   0.08   0.02
    23   8    -0.06   0.09  -0.03     0.09   0.26  -0.01    -0.01  -0.03   0.01
    24   6    -0.10  -0.01   0.12     0.10  -0.13  -0.01     0.00   0.02   0.00
    25   1    -0.21   0.04   0.11     0.18   0.05  -0.06     0.00  -0.02   0.01
    26   1     0.03  -0.09   0.15     0.37  -0.43  -0.16    -0.06   0.08   0.02
    27   1    -0.17  -0.06   0.23    -0.23  -0.33   0.17     0.05   0.06  -0.05
    28   6     0.02  -0.21   0.16    -0.01   0.06  -0.05    -0.03  -0.03  -0.02
    29   1     0.02  -0.26   0.19     0.00   0.10  -0.08    -0.19  -0.43   0.34
    30   1    -0.15  -0.19   0.18     0.06   0.06  -0.03    -0.12  -0.17  -0.58
    31   1     0.10  -0.31   0.20    -0.06   0.08  -0.07     0.15   0.42   0.12
                     10                     11                     12
                      A                      A                      A
 Frequencies --    178.6149               186.0637               197.0846
 Red. masses --      1.6763                 1.5758                 3.7163
 Frc consts  --      0.0315                 0.0321                 0.0850
 IR Inten    --      0.7658                 1.1798                 4.8658
  Atom  AN      X      Y      Z        X      Y      Z        X      Y      Z
     1   6    -0.01  -0.02   0.06    -0.01  -0.02   0.04     0.22  -0.04   0.03
     2   6    -0.01   0.01   0.02    -0.01   0.00   0.02     0.13   0.16   0.01
     3   6     0.01   0.06   0.01     0.00   0.03   0.01    -0.02  -0.11  -0.02
     4   6    -0.01  -0.02   0.07    -0.01  -0.02   0.05     0.12  -0.14  -0.05
     5   1    -0.03  -0.01   0.05    -0.02  -0.01   0.03     0.31  -0.06   0.05
     6   1    -0.02  -0.03   0.10    -0.02  -0.02   0.06     0.16  -0.27  -0.11
     7   6     0.02   0.08   0.02     0.00   0.05   0.02     0.08   0.10   0.00
     8   1     0.03   0.10  -0.02     0.01   0.06  -0.01    -0.04   0.22  -0.02
     9   1     0.02   0.11   0.06     0.01   0.06   0.04     0.22   0.08   0.02
    10   6    -0.02  -0.02  -0.02    -0.02  -0.02  -0.01     0.00   0.12   0.01
    11   1    -0.02  -0.06  -0.02    -0.02  -0.04  -0.01    -0.05   0.17  -0.01
    12   6    -0.01  -0.02  -0.03    -0.02  -0.02  -0.02    -0.08  -0.04   0.00
    13   1    -0.03  -0.04  -0.08    -0.03  -0.03  -0.05    -0.20  -0.11  -0.01
    14   1     0.00   0.01   0.04    -0.01   0.01   0.03     0.20   0.28   0.02
    15   1     0.03   0.10   0.01     0.01   0.05   0.01    -0.09  -0.24  -0.03
    16   7    -0.01  -0.07  -0.02     0.00  -0.03  -0.01    -0.04   0.06   0.01
    17   7     0.01  -0.05  -0.02     0.01  -0.03  -0.01    -0.01   0.00   0.05
    18   6     0.00   0.01  -0.04     0.00   0.03  -0.02    -0.05   0.00   0.00
    19   6     0.02  -0.03   0.00     0.01  -0.03   0.00    -0.04  -0.04   0.04
    20   8     0.04   0.01   0.01     0.03   0.00   0.00     0.00  -0.03   0.04
    21   8     0.01   0.07  -0.04     0.01   0.00  -0.01    -0.06  -0.04   0.00
    22   8     0.02  -0.03   0.00     0.00  -0.04  -0.01    -0.10  -0.07   0.00
    23   8    -0.03   0.05  -0.04    -0.01   0.14  -0.05    -0.04  -0.02   0.00
    24   6    -0.05  -0.04   0.03    -0.02  -0.04   0.02    -0.04   0.03  -0.01
    25   1    -0.08   0.39  -0.07    -0.06  -0.59   0.14    -0.03   0.04  -0.02
    26   1     0.13  -0.37  -0.26    -0.01   0.26   0.44    -0.08   0.04  -0.03
    27   1    -0.21  -0.20   0.45    -0.01   0.05  -0.46    -0.01   0.04  -0.01
    28   6     0.03  -0.01   0.00     0.03   0.01   0.00    -0.02   0.08  -0.08
    29   1    -0.08  -0.16   0.17    -0.06  -0.07   0.10    -0.10   0.05  -0.01
    30   1     0.05  -0.08  -0.26     0.07  -0.04  -0.16     0.13   0.03  -0.23
    31   1     0.12   0.22   0.07     0.08   0.16   0.04    -0.03   0.28  -0.07
                     13                     14                     15
                      A                      A                      A
 Frequencies --    212.8301               274.9391               295.6341
 Red. masses --      3.2813                 4.6808                 6.1712
 Frc consts  --      0.0876                 0.2085                 0.3178
 IR Inten    --      6.1721                10.7463                10.5537
  Atom  AN      X      Y      Z        X      Y      Z        X      Y      Z
     1   6     0.04  -0.05   0.03    -0.06   0.03  -0.05    -0.02   0.06  -0.02
     2   6     0.03  -0.01   0.02    -0.04   0.02  -0.09    -0.03  -0.09   0.10
     3   6     0.01  -0.04   0.00    -0.01   0.03  -0.02     0.00   0.01   0.03
     4   6     0.02  -0.08   0.02    -0.02   0.14  -0.08    -0.06  -0.09   0.11
     5   1     0.05  -0.08   0.04    -0.07   0.06  -0.06    -0.07  -0.03   0.01
     6   1     0.03  -0.11   0.02    -0.02   0.23  -0.11    -0.07  -0.11   0.16
     7   6     0.03   0.01   0.01    -0.05  -0.09  -0.06    -0.01   0.04   0.07
     8   1     0.01   0.05  -0.01    -0.02  -0.20   0.04     0.02   0.10  -0.03
     9   1     0.06   0.02   0.04    -0.12  -0.15  -0.17     0.00   0.12   0.18
    10   6     0.00  -0.05  -0.01     0.03   0.13   0.02    -0.06  -0.20  -0.03
    11   1    -0.01  -0.07  -0.02     0.01   0.15   0.01     0.01  -0.22   0.01
    12   6    -0.01  -0.07  -0.02     0.05   0.12   0.04    -0.03  -0.10  -0.02
    13   1    -0.03  -0.08  -0.04     0.08   0.16   0.10    -0.01  -0.11  -0.07
    14   1     0.04   0.01   0.03    -0.05  -0.01  -0.12    -0.06  -0.13   0.12
    15   1     0.00  -0.04  -0.01     0.01   0.02   0.01     0.01   0.07   0.01
    16   7    -0.04  -0.03  -0.01    -0.03  -0.05   0.04     0.06   0.40  -0.09
    17   7     0.01  -0.03   0.04     0.08   0.02   0.11     0.06   0.07  -0.01
    18   6    -0.04   0.00  -0.04     0.00  -0.03  -0.07     0.08   0.05  -0.12
    19   6     0.05   0.07   0.06     0.07  -0.07   0.15     0.01   0.01   0.03
    20   8     0.06   0.01   0.03     0.09  -0.10   0.14    -0.08  -0.02   0.04
    21   8    -0.04   0.02  -0.05    -0.05  -0.02  -0.12     0.04  -0.10  -0.12
    22   8     0.09   0.25   0.07    -0.01  -0.11   0.10    -0.02  -0.06   0.01
    23   8    -0.07   0.05  -0.05    -0.03  -0.02  -0.08     0.05  -0.10  -0.08
    24   6    -0.09  -0.01   0.02    -0.10   0.02   0.12    -0.03   0.08   0.16
    25   1    -0.15  -0.06   0.04    -0.27   0.03   0.12    -0.27   0.14   0.15
    26   1    -0.03   0.00   0.09    -0.03   0.04   0.20    -0.02   0.13   0.23
    27   1    -0.11  -0.02   0.01    -0.04   0.04   0.20     0.14   0.13   0.31
    28   6    -0.04  -0.07  -0.11     0.08   0.01  -0.15     0.03   0.03  -0.08
    29   1     0.33  -0.04  -0.39     0.16   0.02  -0.21     0.04   0.05  -0.10
    30   1    -0.28   0.03   0.18     0.25  -0.02  -0.21     0.13   0.01  -0.10
    31   1    -0.26  -0.46  -0.26    -0.08   0.14  -0.23    -0.03   0.10  -0.10
                     16                     17                     18
                      A                      A                      A
 Frequencies --    333.3719               341.6133               428.9872
 Red. masses --      5.1349                 5.7619                 6.0318
 Frc consts  --      0.3362                 0.3962                 0.6540
 IR Inten    --     16.2862                 7.0256                29.5930
  Atom  AN      X      Y      Z        X      Y      Z        X      Y      Z
     1   6     0.01   0.02  -0.01    -0.02   0.03  -0.02     0.01   0.02   0.02
     2   6     0.02   0.01   0.00    -0.03  -0.02   0.01     0.01   0.03  -0.01
     3   6    -0.01  -0.03   0.00     0.00   0.03   0.01     0.03   0.05   0.00
     4   6     0.01   0.01  -0.03    -0.02   0.00   0.03    -0.01  -0.02   0.06
     5   1     0.02  -0.07   0.02    -0.05   0.03  -0.03    -0.03   0.03   0.01
     6   1     0.01  -0.01  -0.04    -0.02   0.03   0.02    -0.02  -0.06   0.10
     7   6     0.01  -0.01   0.00    -0.02   0.00   0.01    -0.04  -0.08   0.00
     8   1    -0.01   0.02   0.00     0.00  -0.02   0.00    -0.02  -0.25   0.19
     9   1     0.04  -0.01   0.01    -0.05   0.01   0.02    -0.19  -0.17  -0.18
    10   6    -0.01  -0.01  -0.01    -0.01  -0.02   0.00     0.01   0.02  -0.02
    11   1    -0.02  -0.02  -0.01     0.01  -0.01   0.02     0.02   0.00  -0.02
    12   6     0.00   0.00   0.01     0.01   0.01   0.01    -0.02  -0.03  -0.06
    13   1     0.01   0.02   0.04     0.01   0.00   0.00    -0.05  -0.05  -0.09
    14   1     0.01   0.00  -0.01    -0.04  -0.04   0.01     0.02   0.03  -0.01
    15   1    -0.02  -0.05   0.00     0.00   0.04   0.01     0.05   0.10   0.00
    16   7    -0.03   0.04   0.11    -0.04   0.25  -0.05     0.04  -0.01  -0.07
    17   7    -0.01   0.04   0.13     0.04   0.02   0.04     0.10   0.05   0.04
    18   6    -0.03   0.00  -0.02    -0.13   0.07   0.05     0.09  -0.02  -0.11
    19   6     0.03   0.02  -0.07     0.11  -0.03   0.01    -0.01   0.01   0.11
    20   8     0.27  -0.07  -0.17     0.21  -0.08  -0.03     0.15  -0.09   0.04
    21   8    -0.16  -0.02  -0.15    -0.06   0.00   0.15     0.30   0.01   0.09
    22   8    -0.03   0.02  -0.13     0.12  -0.08  -0.01    -0.21   0.05   0.01
    23   8     0.04   0.00  -0.03    -0.20  -0.02   0.08    -0.07  -0.03  -0.10
    24   6    -0.02   0.03   0.14    -0.13  -0.04  -0.25    -0.10  -0.02  -0.11
    25   1    -0.18   0.04   0.14     0.17  -0.03  -0.26    -0.08  -0.02  -0.11
    26   1     0.04   0.05   0.22    -0.28  -0.06  -0.41    -0.10  -0.03  -0.12
    27   1     0.03   0.04   0.22    -0.19  -0.04  -0.39    -0.09  -0.02  -0.12
    28   6    -0.08  -0.02   0.23     0.16  -0.06   0.00    -0.27   0.09   0.09
    29   1    -0.29   0.03   0.35     0.14  -0.05   0.00    -0.34   0.11   0.13
    30   1    -0.20   0.02   0.31     0.19  -0.07  -0.01    -0.29   0.10   0.13
    31   1     0.17  -0.13   0.37     0.15  -0.04   0.00    -0.18   0.05   0.14
                     19                     20                     21
                      A                      A                      A
 Frequencies --    440.5089               457.7618               539.3879
 Red. masses --      2.0412                 7.3282                 2.9876
 Frc consts  --      0.2334                 0.9047                 0.5121
 IR Inten    --      0.6588                41.8681                29.6318
  Atom  AN      X      Y      Z        X      Y      Z        X      Y      Z
     1   6    -0.05  -0.01  -0.05     0.02   0.15   0.01    -0.05   0.10  -0.10
     2   6    -0.05  -0.10   0.00     0.12   0.07   0.09    -0.03  -0.06  -0.02
     3   6    -0.05  -0.10   0.01     0.03  -0.08   0.01     0.02  -0.01  -0.01
     4   6    -0.02   0.04  -0.10    -0.05   0.04  -0.06    -0.07  -0.08   0.08
     5   1     0.01  -0.04  -0.03     0.06  -0.16   0.13    -0.14   0.22  -0.15
     6   1    -0.02   0.11  -0.15    -0.06  -0.19   0.11    -0.10  -0.17   0.24
     7   6     0.07   0.14   0.00     0.04  -0.05   0.05     0.04   0.00  -0.02
     8   1     0.06   0.47  -0.41    -0.06  -0.08   0.19     0.11   0.05  -0.17
     9   1     0.36   0.33   0.37     0.06  -0.14  -0.06     0.07   0.08   0.10
    10   6     0.01  -0.03   0.05    -0.07  -0.21  -0.10     0.19   0.14   0.12
    11   1     0.00   0.00   0.05    -0.15  -0.38  -0.18     0.49   0.37   0.32
    12   6     0.03   0.02   0.09    -0.08  -0.09  -0.05    -0.08  -0.16  -0.14
    13   1     0.10   0.09   0.16     0.08   0.06   0.12    -0.10  -0.16  -0.13
    14   1    -0.08  -0.14   0.00     0.07  -0.01   0.05    -0.06  -0.12  -0.02
    15   1    -0.07  -0.15   0.02     0.04  -0.07   0.02     0.09   0.09   0.01
    16   7     0.01  -0.03   0.00     0.01  -0.22   0.10     0.01  -0.04   0.01
    17   7     0.02   0.04   0.01     0.13   0.44   0.10     0.03   0.06   0.01
    18   6     0.02  -0.01  -0.02    -0.02  -0.05   0.00    -0.02   0.00   0.01
    19   6     0.00   0.01   0.02     0.06   0.15  -0.01     0.01   0.03   0.01
    20   8     0.02  -0.02   0.01    -0.12   0.00  -0.03    -0.01  -0.01   0.00
    21   8     0.06   0.01   0.02    -0.01   0.03  -0.01    -0.04   0.00  -0.01
    22   8    -0.03   0.00   0.01     0.02  -0.10  -0.04    -0.01  -0.01   0.00
    23   8    -0.02   0.00  -0.02    -0.07   0.02  -0.01     0.00   0.01   0.02
    24   6    -0.03  -0.01  -0.03    -0.08  -0.01  -0.05     0.00   0.00   0.01
    25   1    -0.02  -0.01  -0.03    -0.03  -0.03  -0.05     0.02   0.00   0.01
    26   1    -0.02  -0.01  -0.03    -0.07  -0.03  -0.06     0.00   0.00   0.00
    27   1    -0.03  -0.01  -0.03    -0.11  -0.03  -0.08    -0.01   0.00   0.00
    28   6    -0.03   0.01   0.01     0.09  -0.02  -0.02     0.00   0.00   0.00
    29   1    -0.04   0.01   0.01     0.03   0.03  -0.02    -0.01   0.01   0.00
    30   1    -0.02   0.01   0.01     0.17  -0.03  -0.03     0.01   0.00   0.00
    31   1    -0.02   0.01   0.01     0.09   0.03  -0.02     0.00   0.01   0.00
                     22                     23                     24
                      A                      A                      A
 Frequencies --    612.9914               644.1362               685.0187
 Red. masses --      9.1292                 4.6187                 6.3338
 Frc consts  --      2.0211                 1.1291                 1.7511
 IR Inten    --     15.4858                17.2647                18.5411
  Atom  AN      X      Y      Z        X      Y      Z        X      Y      Z
     1   6     0.03  -0.07   0.04    -0.18   0.03   0.12     0.02   0.05  -0.08
     2   6    -0.07  -0.07  -0.05     0.17   0.25   0.03     0.04   0.06  -0.07
     3   6     0.00   0.05   0.00    -0.08  -0.20  -0.01    -0.13  -0.04   0.01
     4   6     0.05  -0.01   0.01    -0.20   0.08  -0.01    -0.01  -0.13   0.20
     5   1    -0.01  -0.23   0.09    -0.25   0.13   0.07    -0.21   0.17  -0.15
     6   1     0.06   0.00  -0.02    -0.20   0.19  -0.08     0.06   0.13  -0.17
     7   6    -0.01  -0.02  -0.04     0.02   0.00   0.00    -0.16   0.07  -0.08
     8   1     0.08  -0.07  -0.08    -0.32   0.18   0.16    -0.28   0.17  -0.07
     9   1    -0.08   0.02  -0.01     0.33  -0.17  -0.14    -0.04   0.04  -0.08
    10   6     0.02   0.10   0.05     0.15  -0.01  -0.07     0.06  -0.04  -0.13
    11   1     0.10   0.23   0.12     0.16  -0.06  -0.09    -0.02   0.03  -0.15
    12   6    -0.02   0.03   0.00     0.10  -0.11  -0.04     0.23   0.02   0.15
    13   1    -0.10  -0.04  -0.09     0.25   0.07   0.22     0.08  -0.12   0.01
    14   1    -0.02   0.01  -0.04     0.05   0.03   0.02     0.02  -0.01   0.12
[...]
 .00014604,0.00012563,0.00023989,-0.00001159,-0.00001539,-0.00003395,0.
 00023055,0.00014667,0.00000028,-0.00000465,-0.00002810,-0.00003409,-0.
 00001691,-0.00000860,-0.00002999,0.00000088,0.00001790,-0.00001777,-0.
 00136267,0.00006844,-0.00029322,0.00066252,0.00032162,-0.00054439,0.00
 104982,0.00036233,0.00228999,0.00012585,-0.00018653,-0.00014681,-0.000
 10479,0.00008119,0.00000508,-0.00136159,-0.00013674,-0.00017967,-0.000
 11533,0.00007758,0.00006849,-0.00549881,-0.00200496,-0.00834297,-0.000
 81890,-0.05939142,-0.31239969,0.00616155,0.06596795,0.33514662,-0.0003
 0282,-0.00057565,0.00023849,0.00009502,0.00018040,-0.00001054,0.000004
 83,-0.00004444,-0.00002297,0.00016101,-0.00030999,0.00003694,0.0000226
 8,0.00004356,-0.00004945,-0.00015324,0.00013245,-0.00012304,-0.0000287
 9,-0.00000613,-0.00002467,-0.00000214,-0.00001880,-0.00001346,0.000006
 61,0.00001227,0.00000759,-0.00016038,0.00017974,0.00023341,-0.00000923
 ,-0.00000999,-0.00003329,0.00025417,0.00013826,-0.00003890,-0.00001434
 ,-0.00003450,-0.00003637,-0.00001598,-0.00000574,-0.00003281,-0.000009
 63,0.00001117,-0.00003003,-0.00156842,0.00082972,-0.00034780,0.0004211
 1,0.00030691,-0.00088617,0.00082303,0.00080876,0.00964628,0.00029294,-
 0.00037353,-0.00012390,-0.00021160,0.00021151,-0.00010606,0.00155720,-
 0.00042515,-0.00230277,-0.00017208,0.00009864,0.00007387,-0.03433475,-
 0.02590603,0.00789964,-0.10161347,-0.08194389,0.06205784,0.00192871,0.
 00082533,0.00051755,0.12459113,0.00008685,0.00012843,-0.00007985,-0.00
 001859,0.00001590,0.00000575,-0.00002832,0.00002412,0.00002154,0.00001
 819,0.00008834,0.00000341,0.00000607,-0.00000915,0.00000298,0.00013273
 ,0.00004658,0.00004983,-0.00000374,-0.00001754,-0.00000134,-0.00000968
 ,-0.00000175,-0.00000251,0.00000032,0.00000412,0.00000635,0.00007595,-
 0.00005372,-0.00005488,0.00000826,0.00000920,0.00000922,-0.00008510,-0
 .00005541,0.00000164,0.00000875,0.00001223,0.00001060,-0.00000368,-0.0
 0000231,0.00000048,0.00000290,0.00000062,0.00001292,0.00013506,-0.0003
 5587,-0.00037497,-0.00004117,-0.00008413,0.00003072,-0.00176337,0.0012
 9547,0.00348900,0.00012080,-0.00003831,0.00001056,-0.00003903,0.000031
 89,-0.00004242,0.00207562,0.00003702,-0.00046332,-0.00003604,0.0000098
 5,0.00001243,-0.00314367,0.00454952,-0.00475688,-0.08729561,-0.1875129
 9,0.10329019,0.00498170,0.00704488,-0.00473599,0.09707523,0.19379362,-
 0.00007972,-0.00016164,0.00003597,0.00001744,0.00006087,-0.00000117,0.
 00001066,-0.00001610,-0.00001278,-0.00000730,-0.00011089,0.00004268,-0
 .00001319,0.00000832,-0.00000652,0.00002117,-0.00000984,-0.00004730,-0
 .00000414,0.00000454,-0.00000214,0.00000571,-0.00000058,-0.00000067,-0
 .00000880,0.00000086,-0.00000115,-0.00002339,0.00006007,0.00006438,-0.
 00000817,-0.00000818,-0.00000880,0.00009319,0.00003045,-0.00001255,-0.
 00000473,-0.00001142,-0.00001446,-0.00000270,-0.00000278,-0.00000817,-
 0.00000286,-0.00000590,-0.00000602,-0.00033930,0.00083529,-0.00005670,
 0.00012827,0.00010039,-0.00028527,-0.00156747,-0.00124547,0.00226096,-
 0.00000413,-0.00002024,-0.00002413,-0.00000579,-0.00000874,0.00001600,
 0.00009420,-0.00026857,-0.00071347,0.00002659,-0.00001526,-0.00000756,
 -0.00705907,-0.01040189,0.00689620,0.06819745,0.10688795,-0.12978070,0
 .01291331,0.02230327,-0.01339719,-0.06987201,-0.11258148,0.13158013,-0
 .00056590,-0.00087124,0.00039489,0.00015331,0.00020109,-0.00003924,0.0
 0003939,-0.00007026,-0.00008491,0.00005478,-0.00033764,-0.00000260,0.0
 0001281,0.00005843,-0.00006135,-0.00017402,0.00002507,-0.00010088,-0.0
 0002513,0.00003651,-0.00002854,0.00001046,-0.00001928,-0.00000173,0.00
 001419,0.00000061,0.00000862,-0.00026375,0.00025187,0.00034717,-0.0000
 0629,-0.00001958,-0.00004741,0.00044662,0.00024980,-0.00000396,-0.0000
 2020,-0.00005415,-0.00006007,-0.00001034,-0.00000380,-0.00003937,-0.00
 001820,-0.00000050,-0.00004479,-0.00215542,-0.00051828,0.00027170,0.00
 085704,0.00015216,-0.00128624,0.00136226,0.00321283,0.00926381,0.00011
 012,-0.00024716,-0.00017396,-0.00011825,0.00013571,-0.00004227,0.00152
 707,-0.00093330,-0.00221205,-0.00009303,0.00007177,0.00003410,-0.03235
 857,0.02877422,-0.00447071,-0.09253742,0.09042498,0.01737019,0.0017682
 3,-0.00047166,0.00090414,0.00838605,-0.01227675,-0.00249980,0.11356083
 ,-0.00003350,-0.00001665,-0.00003996,-0.00000281,0.00004127,-0.0000034
 9,0.00001154,0.00003280,-0.00001473,-0.00014761,0.00006856,-0.00003454
 ,-0.00000288,-0.00001704,0.00001250,0.00022289,0.00002627,0.00008134,-
 0.00000043,0.00000232,0.00000669,0.00000239,0.00000550,0.00000324,-0.0
 0000258,-0.00000587,-0.00000628,0.00007221,-0.00002072,-0.00001271,0.0
 0000441,-0.00000263,0.00000478,0.00001505,-0.00001695,0.00004427,0.000
 00199,0.00000207,-0.00000193,-0.00000432,-0.00000810,0.00000027,0.0000
 0227,-0.00000219,0.00001063,-0.00001757,-0.00039158,0.00052111,-0.0002
 1578,0.00004326,0.00003769,0.00072359,0.00033626,-0.00349716,0.0000038
 9,0.00001917,0.00005221,0.00003214,-0.00001091,0.00000025,-0.00197366,
 0.00049644,0.00009059,0.00003029,-0.00000246,-0.00000762,0.00264127,0.
 00921375,0.00338310,0.09670761,-0.26739115,-0.03962603,0.00087574,-0.0
 0399281,-0.00001409,0.00883124,-0.01895267,-0.00542967,-0.10775184,0.2
 8054148,-0.00002461,-0.00004912,0.00001201,0.00001132,0.00003301,0.000
 00112,-0.00003459,0.00000089,0.00000098,0.00002325,-0.00001495,-0.0000
 2188,0.00000861,-0.00000927,-0.00000341,0.00006930,-0.00000698,0.00014
 231,-0.00000513,-0.00000808,-0.00001449,-0.00000457,-0.00000020,-0.000
 00187,-0.00000385,0.00000072,0.00000271,0.00000923,0.00000869,0.000021
 21,0.00000791,0.00000007,-0.00000081,0.00003386,0.00000722,-0.00001560
 ,0.00000575,0.00000764,0.00000537,-0.00000496,-0.00000432,-0.00000570,
 -0.00000879,-0.00000950,-0.00000444,-0.00030149,-0.00056205,0.00005229
 ,0.00002865,-0.00008319,-0.00021421,-0.00200500,0.00222742,0.00312905,
 0.00010640,-0.00000401,-0.00001343,-0.00002339,0.00001403,-0.00002270,
 0.00095099,-0.00034877,-0.00088747,-0.00000288,0.00000778,0.00000368,-
 0.00755838,0.00938194,0.00012127,0.02043201,-0.04345768,-0.05934571,0.
 01234330,-0.02770412,-0.00237839,-0.00665866,0.01613643,0.00349046,-0.
 01739509,0.04444147,0.05595050,-0.00094036,-0.00162904,-0.00036102,0.0
 0072171,0.00061286,-0.00001569,0.00011196,0.00001547,-0.00026513,0.000
 15316,-0.00178458,0.00023480,-0.00016332,0.00068954,-0.00072205,0.0000
 5726,0.00014900,-0.00025738,0.00003713,-0.00010443,-0.00002771,0.00001
 651,-0.00021520,-0.00011687,-0.00004027,0.00015530,0.00011319,-0.00044
 432,0.00054468,0.00051004,0.00010941,0.00004911,-0.00004243,0.00143132
 ,0.00032421,0.00029101,-0.00002623,-0.00021977,-0.00024344,0.00081490,
 0.00064004,0.00036840,-0.00001150,-0.00001591,-0.00009003,-0.00010978,
 0.00088760,-0.00020533,0.00570854,-0.00102745,0.00174394,-0.00103982,-
 0.00062937,0.00036695,-0.05375800,0.01508379,0.02812379,0.00103750,0.0
 0143877,-0.01716499,0.00081033,-0.00001202,-0.00028576,-0.17923580,0.0
 5357822,-0.01414825,0.00082780,0.00016826,0.00032650,-0.00048217,-0.00
 003456,-0.00019372,0.00002287,0.00000979,0.00005300,0.00008229,0.00002
 170,-0.00000971,0.00006133,-0.00002833,0.00000304,0.49620966,0.0013269
 5,0.00106130,-0.00056928,0.00020127,-0.00012355,0.00008849,-0.00009980
 ,0.00004520,0.00021746,-0.00021321,0.00069822,-0.00002406,0.00009487,-
 0.00018928,0.00002618,-0.00004097,-0.00007266,0.00013054,-0.00011594,0
 .00005796,-0.00009575,0.00000787,0.00005900,0.00003154,0.00006034,-0.0
 0004457,-0.00004965,0.00019036,-0.00050537,-0.00025700,-0.00002070,0.0
 0000513,0.00004279,-0.00076021,-0.00027578,-0.00016183,-0.00000923,0.0
 0007953,0.00009454,-0.00061210,-0.00061470,0.00005915,-0.00001198,0.00
 001112,0.00003730,0.00020370,0.00049477,0.00020868,-0.00522189,0.00437
 559,0.00270401,0.00078661,0.00029179,-0.00000130,0.01445187,-0.0044165
 2,-0.01302286,-0.00373353,-0.00424811,0.00639719,-0.00044431,-0.000056
 87,0.00009910,0.06259795,-0.09606982,0.01202380,-0.00041073,-0.0001297
 9,-0.00024050,0.00021717,0.00003607,0.00008424,-0.00001347,0.00000214,
 -0.00003028,-0.00004764,-0.00001015,0.00001017,-0.00002704,0.00000155,
 -0.00000606,0.05150228,0.57299951,-0.00033075,-0.00003875,-0.00018719,
 0.00019799,-0.00010340,-0.00006667,-0.00004255,0.00001545,-0.00001261,
 -0.00000823,-0.00008009,0.00006570,-0.00001771,-0.00016082,0.00013688,
 -0.00000820,0.00003674,-0.00002258,-0.00000195,-0.00001615,-0.00005971
 ,0.00000625,-0.00004677,-0.00001153,0.00005418,0.00002389,0.00000055,-
 0.00009051,0.00006398,0.00010570,0.00000083,0.00005032,0.00000007,0.00
 007529,0.00006420,-0.00003742,-0.00001213,-0.00000938,-0.00002189,0.00
 019314,-0.00026123,0.00020520,-0.00000707,0.00002328,-0.00001245,0.001
 60796,-0.00019729,0.00080127,0.00230994,0.00123622,-0.00437972,0.00011
 109,-0.00028726,-0.00020203,0.03431732,-0.01654259,0.00660760,0.002365
 32,-0.00128377,-0.00211533,0.00028564,0.00004595,-0.00008657,-0.039323
 42,0.02300214,-0.09425512,0.00007882,0.00002667,0.00001935,-0.00003321
 ,0.00000623,0.00000965,0.00000362,-0.00000100,0.00000267,0.00000683,-0
 .00000013,-0.00000222,0.00000439,-0.00000230,-0.00000246,-0.03063667,0
 .00513876,0.62188300,0.00043177,0.00053297,-0.00018178,-0.00033737,-0.
 00021026,0.00001127,-0.00003036,-0.00001386,0.00005627,-0.00004493,0.0
 0032405,-0.00000029,0.00005524,-0.00013882,0.00010834,-0.00000795,-0.0
 0003391,0.00004311,0.00004952,0.00003323,0.00005118,-0.00000669,0.0000
 2755,0.00002023,-0.00002069,-0.00001639,0.00000812,0.00015602,-0.00014
 645,-0.00025340,0.00000039,0.00000070,0.00003076,-0.00028104,-0.000153
 70,-0.00001318,0.00001792,0.00003846,0.00004843,-0.00007473,0.00016653
 ,-0.00010113,0.00001969,-0.00000041,0.00002895,0.00037182,-0.00013102,
 -0.00003770,-0.00158991,0.00088878,0.00090958,-0.00002691,0.00011853,-
 0.00008761,0.00373734,-0.00059106,-0.00975360,0.00094193,-0.00087139,0
 .00303840,-0.00004222,-0.00001477,0.00001082,-0.03260756,-0.00695743,-
 0.01991759,-0.00004677,-0.00001307,0.00003289,0.00003811,0.00000591,0.
 00001695,0.00000063,-0.00000082,-0.00000277,-0.00000719,-0.00000287,0.
 00000162,-0.00000434,0.00000224,-0.00000058,-0.11011034,-0.06083188,-0
 .08907710,0.12939290,-0.00019314,-0.00031001,0.00016690,0.00021062,0.0
 0022003,-0.00008735,0.00000977,0.00000884,-0.00000324,0.00003264,-0.00
 022975,-0.00000391,-0.00003062,0.00005530,-0.00003764,-0.00000097,0.00
 002237,-0.00001841,-0.00006728,0.00003881,-0.00005971,0.00000554,-0.00
 001043,-0.00000904,-0.00000455,0.00001433,-0.00000088,-0.00012123,0.00
 010958,0.00022780,-0.00001172,-0.00002136,-0.00002619,0.00019840,0.000
 12537,-0.00000408,-0.00002301,-0.00001616,-0.00001736,0.00017063,-0.00
 021951,0.00004302,-0.00001676,0.00000125,-0.00002099,-0.00028195,0.000
 01621,0.00013025,0.00085392,-0.00059521,-0.00026275,0.00005028,-0.0000
 6336,0.00002409,-0.00141714,0.00175333,0.00051182,0.00115388,-0.000487
 43,-0.00015468,-0.00001628,0.00001444,0.00002714,0.01420186,0.00953721
 ,0.01440121,0.00002411,0.00001907,0.00000453,-0.00000593,-0.00000388,-
 0.00000742,0.00000201,-0.00000142,0.00000282,0.00000419,0.00000017,-0.
 00000164,0.00000084,0.00000205,0.00000100,-0.06618080,-0.12007021,-0.0
 9832215,0.06356614,0.12078644,0.00021930,0.00006188,-0.00003230,-0.000
 20510,0.00002755,-0.00003939,0.00001697,-0.00001047,-0.00000047,-0.000
 00627,0.00007887,0.00004060,0.00002381,-0.00006849,0.00004391,0.000001
 60,-0.00002178,0.00001690,0.00001932,-0.00000965,0.00006599,-0.0000056
 4,0.00001405,0.00001277,0.00000404,-0.00000948,-0.00000557,0.00007469,
 -0.00001117,-0.00008604,-0.00002306,-0.00000239,-0.00000541,-0.0000721
 7,-0.00004243,-0.00002335,0.00000447,0.00001346,0.00001598,-0.00020556
 ,0.00019629,0.00001540,0.00001251,-0.00000501,0.00001428,0.00026276,-0
 .00005611,-0.00005430,-0.00079217,-0.00027965,0.00004564,-0.00005662,0
 .00005081,-0.00008461,0.00282481,0.00029343,-0.00078681,0.00033490,-0.
 00020558,0.00056995,-0.00002111,-0.00000341,0.00001636,-0.00661171,0.0
 0354379,0.00017909,-0.00003983,0.00000039,0.00002447,0.00002533,-0.000
 00288,0.00000894,0.00000133,-0.00000150,-0.00000067,-0.00000371,-0.000
 00124,0.00000037,-0.00000400,0.00000394,0.00000125,-0.09563394,-0.0966
 8688,-0.19064170,0.10785241,0.10275043,0.20052803,0.00002495,0.0002545
 5,0.00014866,-0.00029690,-0.00014284,-0.00003277,-0.00000225,-0.000024
 24,0.00001991,-0.00000086,0.00028670,-0.00005508,0.00002250,-0.0001234
 1,0.00017187,-0.00000673,-0.00001758,0.00003269,0.00003240,0.00001892,
 0.00002535,-0.00000819,0.00002540,0.00002388,-0.00000379,-0.00001732,-
 0.00000431,0.00006445,-0.00002017,-0.00010000,-0.00002400,-0.00000140,
 0.00000290,-0.00019557,-0.00002508,-0.00003429,0.00000999,0.00003788,0
 .00004139,-0.00012034,-0.00002548,-0.00001166,0.00000893,0.00000255,0.
 00001521,-0.00003695,-0.00026677,-0.00013221,-0.00077289,-0.00047699,-
 0.00024008,0.00009927,0.00014829,0.00003846,0.00384330,0.00224319,-0.0
 0618728,-0.00021440,-0.00040774,0.00237382,-0.00011628,-0.00000590,0.0
 0002339,-0.01015654,0.04091678,-0.00710253,-0.00009219,-0.00003889,-0.
 00004845,0.00004821,0.00000739,0.00002370,-0.00000421,0.00000044,-0.00
 000732,-0.00001200,-0.00000144,0.00000210,-0.00000629,-0.00000012,-0.0
 0000082,-0.05572873,-0.04659239,0.01282792,-0.00013702,-0.01419924,0.0
 0504842,0.06424082,0.00013983,0.00001510,-0.00011309,-0.00005647,0.000
 11309,-0.00000940,0.00002078,-0.00000826,-0.00002596,-0.00000926,-0.00
 013688,0.00005239,-0.00002525,0.00008113,-0.00009992,0.00000802,-0.000
 00086,-0.00001790,0.00000252,-0.00002521,0.00003730,-0.00000105,-0.000
 01015,-0.00000903,-0.00001017,0.00000174,0.00000963,-0.00000207,0.0000
 3432,-0.00001780,0.00000399,0.00001194,-0.00000251,0.00010000,0.000001
 16,0.00001743,0.00000101,-0.00001572,-0.00001644,0.00003415,0.00012722
 ,0.00002054,0.00000583,-0.00000752,-0.00000141,0.00035149,0.00003054,-
 0.00007042,0.00007356,-0.00036224,-0.00023978,-0.00025752,-0.00004699,
 -0.00008459,-0.00235331,-0.00055998,0.00622859,-0.00112444,0.00129659,
 -0.00207829,0.00015207,-0.00000290,-0.00004342,0.01260303,-0.01263174,
 0.00203690,0.00008913,0.00002894,0.00008097,-0.00005382,-0.00000991,-0
 .00001920,0.00000423,-0.00000096,0.00000808,0.00001128,0.00000210,-0.0
 0000249,0.00000610,0.00000022,0.00000147,-0.03758675,-0.29864142,0.063
 02268,-0.00350259,-0.01292373,0.00443279,0.03254384,0.32279238,0.00004
 980,0.00000255,-0.00001056,-0.00008437,0.00000715,0.00001841,-0.000006
 86,-0.00000211,0.00001054,0.00002281,0.00007403,0.00000910,0.00003066,
 -0.00002079,0.00003120,-0.00000301,-0.00000768,0.00001400,-0.00001126,
 0.00000385,0.00002323,-0.00000277,0.00001712,0.00000603,0.00000405,-0.
 00001271,-0.00000945,0.00001423,-0.00004111,-0.00003199,-0.00000092,-0
 .00001226,0.00000050,-0.00004571,-0.00000299,-0.00001218,0.00000386,0.
 00001128,0.00001129,-0.00008190,0.00003591,-0.00006355,0.00000382,0.00
 000010,0.00000640,-0.00009192,0.00005902,-0.00005434,-0.00010483,0.000
 28241,0.00004249,0.00012774,0.00001282,0.00005567,0.00163933,-0.001779
 30,0.00059092,-0.00028176,0.00012500,-0.00006363,-0.00006187,0.0000013
 6,-0.00000372,-0.00342102,0.00544601,-0.00023186,-0.00006739,-0.000024
 70,-0.00006960,0.00002828,0.00000399,0.00001397,-0.00000482,0.00000182
 ,-0.00000683,-0.00000673,-0.00000025,0.00000197,-0.00000390,-0.0000012
 3,-0.00000148,0.01047406,0.06460528,-0.06642558,-0.00321586,-0.0228824
 4,0.00647992,-0.00865026,-0.07257383,0.06425860,0.00029180,0.00037970,
 -0.00001341,-0.00006844,-0.00015515,-0.00000190,0.00000197,-0.00000558
 ,0.00002579,-0.00007047,0.00028139,-0.00006786,-0.00001136,-0.00002959
 ,0.00005900,-0.00000854,-0.00003301,0.00004339,0.00001587,-0.00000560,
 0.00001146,-0.00000004,0.00001859,0.00000613,0.00000056,-0.00001434,-0
 .00001033,0.00009793,-0.00012519,-0.00013747,0.00000064,0.00001637,0.0
 0002164,-0.00026468,-0.00009341,-0.00002392,0.00001071,0.00003083,0.00
 003647,-0.00002556,-0.00001728,0.00000750,0.00000321,-0.00000377,0.000
 01454,-0.00028552,-0.00000960,-0.00033510,-0.00143382,0.00009175,0.001
 70022,0.00008260,0.00019734,0.00010118,-0.00237909,0.00227014,-0.00582
 209,0.00138429,-0.00056179,0.00086602,-0.00015055,-0.00003016,0.000010
 25,-0.02960129,0.00364912,0.03108348,-0.00010965,-0.00004006,-0.000074
 07,0.00005161,0.00000592,0.00002695,-0.00000742,-0.00000104,-0.0000094
 3,-0.00001071,-0.00000109,0.00000058,-0.00000737,0.00000067,-0.0000008
 3,-0.10612305,-0.01243420,0.10514295,0.01016276,0.00208581,-0.01304579
 ,-0.00045868,-0.00116817,0.00374850,0.12891227,-0.00015816,-0.00015983
 ,0.00001555,0.00006702,0.00006011,0.00001800,-0.00002054,0.00000778,0.
 00000172,0.00003489,-0.00010664,0.00002205,0.00002262,0.00002840,-0.00
 000200,-0.00000033,0.00001598,-0.00001262,-0.00002451,0.00000623,-0.00
 002280,0.00000263,-0.00000153,-0.00000414,-0.00001034,0.00000197,0.000
 00638,-0.00002989,0.00004411,0.00006417,0.00001609,-0.00002442,-0.0000
 0143,0.00010898,0.00003155,0.00001405,-0.00000465,-0.00000971,-0.00001
 341,0.00000278,0.00004772,-0.00008630,-0.00000466,0.00000392,-0.000006
 82,0.00010569,0.00001075,0.00016522,0.00061351,0.00018698,-0.00089945,
 0.00008094,-0.00010552,0.00000367,0.00215294,-0.00125340,0.00250867,-0
 .00063965,0.00096792,-0.00038416,0.00002673,0.00001828,-0.00000587,0.0
 1453028,-0.00085532,-0.01602841,0.00000449,0.00000332,-0.00002056,-0.0
 0000356,0.00000266,0.00000185,-0.00000027,0.00000156,-0.00000084,0.000
 00082,-0.00000004,0.00000062,0.00000049,-0.00000127,-0.00000148,-0.016
 40239,-0.05475007,0.02459657,0.00792559,0.00222768,-0.01404955,-0.0140
 9892,0.00084801,0.02667169,0.00570138,0.05275282,-0.00011906,-0.000183
 00,0.00003848,0.00005908,0.00006032,0.00001207,-0.00000554,0.00000825,
 -0.00000642,0.00002658,-0.00014199,0.00000922,0.00000166,0.00003839,-0
 .00003621,0.00000242,0.00001451,-0.00001785,-0.00000614,0.00002043,-0.
 00001980,-0.00000032,-0.00000494,-0.00000514,-0.00002093,0.00001066,0.
 00001399,-0.00003251,0.00005460,0.00005913,0.00001293,-0.00001214,0.00
 000039,0.00012571,0.00002778,0.00002952,-0.00000385,-0.00001515,-0.000
 01436,0.00003025,0.00006031,-0.00009056,-0.00000290,-0.00000031,-0.000
 00798,-0.00017859,0.00006119,0.00009999,0.00023071,0.00001651,0.000285
 67,-0.00006441,-0.00005688,0.00004568,-0.00269145,0.00148212,-0.001174
 76,0.00179592,-0.00084373,0.00081409,0.00002393,0.00000150,-0.00000140
 ,-0.00583387,-0.00031479,0.00894975,0.00006127,0.00001407,0.00002644,-
 0.00002966,0.00000069,-0.00001404,0.00000181,0.00000125,0.00000414,0.0
 0000490,0.00000122,-0.00000016,0.00000386,-0.00000237,-0.00000014,0.11
 781138,0.01914625,-0.27129484,0.01037325,0.00362890,-0.01631922,0.0017
 8741,-0.00052327,-0.00458945,-0.12336385,-0.02255036,0.28320376\\-0.00
 000323,-0.00002694,-0.00000290,0.00000121,0.00000158,-0.00000766,0.000
 00909,0.00000988,-0.00001879,0.00001260,0.00000611,-0.00002133,0.00000
 534,-0.00000799,0.00000083,0.00000523,0.00000207,-0.00000747,0.0000084
 1,0.00000023,-0.00000372,0.00000780,0.00000719,-0.00001387,-0.00000088
 ,0.00001230,-0.00000609,0.00001324,-0.00000488,-0.00000873,0.00001132,
 -0.00002218,-0.00001508,0.00001596,-0.00000570,-0.00002607,0.00001973,
 -0.00000075,-0.00002466,0.00000533,-0.00001290,-0.00000040,0.00000681,
 0.00001799,-0.00001630,-0.00000398,0.00001116,0.00000775,-0.00000698,0
 .00000727,0.00000863,-0.00000710,0.00002041,0.00000489,-0.00000294,-0.
 00000356,0.00001221,-0.00001255,0.00000211,0.00001572,-0.00000380,0.00
 002437,0.00000156,-0.00001198,-0.00001321,0.00001495,-0.00000674,0.000
 00284,0.00000250,-0.00000469,0.00001861,0.00000329,-0.00000423,0.00000
 371,0.00000553,-0.00001034,0.00001591,0.00000956,0.00000165,0.00001171
 ,-0.00000368,-0.00001013,-0.00002322,0.00001536,-0.00000783,-0.0000142
 5,0.00002223,-0.00001558,-0.00001204,0.00002594,-0.00001073,-0.0000278
 4,0.00002580\\\@


 IF MATHEMATICALLY YOU END UP WITH THE INCORRECT ANSWER,
 TRY MULTIPLYING BY THE PAGE NUMBER.
 Job cpu time:       0 days 15 hours  8 minutes 45.1 seconds.
 File lengths (MBytes):  RWF=   1094 Int=      0 D2E=      0 Chk=     29 Scr=      1
 Normal termination of Gaussian 09 at Fri Feb 25 01:06:17 2022.
