 Entering Gaussian System, Link 0=g09
 Input=ts_cyclo.com
 Output=ts_cyclo.log
 Initial command:
 /apps/applications/gaussian/G09.D01/2/default/g09/l1.exe "/nobackup/pmmass/Temp/Gau-48636.inp" -scrdir="/nobackup/pmmass/Temp/"
 Entering Link 1 = /apps/applications/gaussian/G09.D01/2/default/g09/l1.exe PID=     48637.
  
 Copyright (c) 1988,1990,1992,1993,1995,1998,2003,2009,2013,
            Gaussian, Inc.  All Rights Reserved.
  
 This is part of the Gaussian(R) 09 program.  It is based on
 the Gaussian(R) 03 system (copyright 2003, Gaussian, Inc.),
 the Gaussian(R) 98 system (copyright 1998, Gaussian, Inc.),
 the Gaussian(R) 94 system (copyright 1995, Gaussian, Inc.),
 the Gaussian 92(TM) system (copyright 1992, Gaussian, Inc.),
 the Gaussian 90(TM) system (copyright 1990, Gaussian, Inc.),
 the Gaussian 88(TM) system (copyright 1988, Gaussian, Inc.),
 the Gaussian 86(TM) system (copyright 1986, Carnegie Mellon
 University), and the Gaussian 82(TM) system (copyright 1983,
 Carnegie Mellon University). Gaussian is a federally registered
 trademark of Gaussian, Inc.
  
 This software contains proprietary and confidential information,
 including trade secrets, belonging to Gaussian, Inc.
  
 This software is provided under written license and may be
 used, copied, transmitted, or stored only in accord with that
 written license.
  
 The following legend is applicable only to US Government
 contracts under FAR:
  
                    RESTRICTED RIGHTS LEGEND
  
 Use, reproduction and disclosure by the US Government is
 subject to restrictions as set forth in subparagraphs (a)
 and (c) of the Commercial Computer Software - Restricted
 Rights clause in FAR 52.227-19.
  
 Gaussian, Inc.
 340 Quinnipiac St., Bldg. 40, Wallingford CT 06492
  
  
 ---------------------------------------------------------------
 Warning -- This program may not be used in any manner that
 competes with the business of Gaussian, Inc. or will provide
 assistance to any competitor of Gaussian, Inc.  The licensee
 of this program is prohibited from giving any competitor of
 Gaussian, Inc. access to this program.  By using this program,
 the user acknowledges that Gaussian, Inc. is engaged in the
 business of creating and licensing software in the field of
 computational chemistry and represents and warrants to the
 licensee that it is not a competitor of Gaussian, Inc. and that
 it will not use this program in any manner prohibited above.
 ---------------------------------------------------------------
  

 Cite this work as:
 Gaussian 09, Revision D.01,
 M. J. Frisch, G. W. Trucks, H. B. Schlegel, G. E. Scuseria, 
 M. A. Robb, J. R. Cheeseman, G. Scalmani, V. Barone, B. Mennucci, 
 G. A. Petersson, H. Nakatsuji, M. Caricato, X. Li, H. P. Hratchian, 
 A. F. Izmaylov, J. Bloino, G. Zheng, J. L. Sonnenberg, M. Hada, 
 M. Ehara, K. Toyota, R. Fukuda, J. Hasegawa, M. Ishida, T. Nakajima, 
 Y. Honda, O. Kitao, H. Nakai, T. Vreven, J. A. Montgomery, Jr., 
 J. E. Peralta, F. Ogliaro, M. Bearpark, J. J. Heyd, E. Brothers, 
 K. N. Kudin, V. N. Staroverov, T. Keith, R. Kobayashi, J. Normand, 
 K. Raghavachari, A. Rendell, J. C. Burant, S. S. Iyengar, J. Tomasi, 
 M. Cossi, N. Rega, J. M. Millam, M. Klene, J. E. Knox, J. B. Cross, 
 V. Bakken, C. Adamo, J. Jaramillo, R. Gomperts, R. E. Stratmann, 
 O. Yazyev, A. J. Austin, R. Cammi, C. Pomelli, J. W. Ochterski, 
 R. L. Martin, K. Morokuma, V. G. Zakrzewski, G. A. Voth, 
 P. Salvador, J. J. Dannenberg, S. Dapprich, A. D. Daniels, 
 O. Farkas, J. B. Foresman, J. V. Ortiz, J. Cioslowski, 
 and D. J. Fox, Gaussian, Inc., Wallingford CT, 2013.
 
 ******************************************
 Gaussian 09:  ES64L-G09RevD.01 24-Apr-2013
                23-Feb-2022 
 ******************************************
 %nprocshared=8
 Will use up to    8 processors via shared memory.
 %mem=4GB
 %NoSave
 %chk="ts_cyclo.chk"
 ----------------------------------------------------------------------
 #n wB97XD/Def2TZVP scrf(smd,solvent=toluene) opt=(calcfc,ts,noeigentes
 t)
 ----------------------------------------------------------------------
 1/5=1,10=4,11=1,14=-1,18=20,26=3,38=1/1,3;
 2/9=110,12=2,17=6,18=5,40=1/2;
 3/5=44,7=101,11=2,16=1,25=1,30=1,70=32201,71=2,72=13,74=-58,140=1/1,2,3;
 4//1;
 5/5=2,38=5,53=13/2;
 8/6=4,10=90,11=11/1;
 11/6=1,8=1,9=11,15=111,16=1/1,2,10;
 10/6=1,13=1/2;
 6/7=2,8=2,9=2,10=2,28=1/1;
 7/10=1,18=20,25=1/1,2,3,16;
 1/5=1,10=4,11=1,14=-1,18=20,26=3/3(2);
 2/9=110/2;
 99//99;
 2/9=110/2;
 3/5=44,7=101,11=2,16=1,25=1,30=1,70=32205,71=1,72=13,74=-58/1,2,3;
 4/5=5,16=3,69=1/1;
 5/5=2,38=5,53=13/2;
 7//1,2,3,16;
 1/5=1,11=1,14=-1,18=20,26=3/3(-5);
 2/9=110/2;
 6/7=2,8=2,9=2,10=2,19=2,28=1/1;
 99/9=1/99;
 ------------------------------
 ts cycloaddition toluene - opt
 ------------------------------
 Symbolic Z-matrix:
 Charge =  0 Multiplicity = 1
 C                     0.52385   0.79241  -0.84176 
 C                     1.68661   1.38669   0.00439 
 C                    -0.21261   2.36418   0.83509 
 C                    -0.64895   1.65569  -0.41296 
 H                     0.65774   0.45809  -1.85729 
 H                    -1.67131   1.48566  -0.70552 
 C                     1.06357   1.73351   1.34636 
 H                     1.6898    2.43419   1.89986 
 H                     0.86514   0.85347   1.95571 
 C                     1.33586   2.42285  -0.93721 
 H                     1.83043   2.61093  -1.87743 
 C                     0.05894   3.01914  -0.48507 
 H                    -0.38384   3.92486  -0.8634 
 H                     2.63679   0.87797  -0.0773 
 H                    -0.96695   2.76376   1.49409 
 N                    -0.78034  -0.78033   0.86819 
 N                     0.03289  -0.95328  -0.12156 
 C                    -2.12543  -0.76725   0.5046 
 C                     1.29437  -1.47506   0.27605 
 O                     1.58998  -1.88907   1.3614 
 O                    -2.99551  -0.54489   1.31334 
 O                     2.08929  -1.54565  -0.7968 
 O                    -2.38415  -1.05825  -0.78338 
 C                    -3.75917  -1.09668  -1.1377 
 H                    -3.78629  -1.34114  -2.19798 
 H                    -4.29033  -1.86007  -0.56783 
 H                    -4.23982  -0.13154  -0.9675 
 C                     3.35813  -2.15479  -0.58235 
 H                     3.9177   -1.63903   0.19916 
 H                     3.24011  -3.20226  -0.30314 
 H                     3.88513  -2.08084  -1.53086 
 
 Add virtual bond connecting atoms N17        and C1         Dist= 3.69D+00.

 GradGradGradGradGradGradGradGradGradGradGradGradGradGradGradGradGradGrad
 Berny optimization.
 Initialization pass.
                           ----------------------------
                           !    Initial Parameters    !
                           ! (Angstroms and Degrees)  !
 --------------------------                            --------------------------
 ! Name  Definition              Value          Derivative Info.                !
 --------------------------------------------------------------------------------
 ! R1    R(1,2)                  1.556          calculate D2E/DX2 analytically  !
 ! R2    R(1,4)                  1.5181         calculate D2E/DX2 analytically  !
 ! R3    R(1,5)                  1.0775         calculate D2E/DX2 analytically  !
 ! R4    R(1,10)                 1.824          calculate D2E/DX2 analytically  !
 ! R5    R(1,17)                 1.9512         calculate D2E/DX2 analytically  !
 ! R6    R(2,7)                  1.5197         calculate D2E/DX2 analytically  !
 ! R7    R(2,10)                 1.4434         calculate D2E/DX2 analytically  !
 ! R8    R(2,14)                 1.0809         calculate D2E/DX2 analytically  !
 ! R9    R(3,4)                  1.5            calculate D2E/DX2 analytically  !
 ! R10   R(3,7)                  1.5125         calculate D2E/DX2 analytically  !
 ! R11   R(3,12)                 1.4985         calculate D2E/DX2 analytically  !
 ! R12   R(3,15)                 1.0784         calculate D2E/DX2 analytically  !
 ! R13   R(4,6)                  1.0769         calculate D2E/DX2 analytically  !
 ! R14   R(4,12)                 1.538          calculate D2E/DX2 analytically  !
 ! R15   R(7,8)                  1.0906         calculate D2E/DX2 analytically  !
 ! R16   R(7,9)                  1.0886         calculate D2E/DX2 analytically  !
 ! R17   R(10,11)                1.0789         calculate D2E/DX2 analytically  !
 ! R18   R(10,12)                1.48           calculate D2E/DX2 analytically  !
 ! R19   R(12,13)                1.0768         calculate D2E/DX2 analytically  !
 ! R20   R(16,17)                1.2926         calculate D2E/DX2 analytically  !
 ! R21   R(16,18)                1.3934         calculate D2E/DX2 analytically  !
 ! R22   R(17,19)                1.4219         calculate D2E/DX2 analytically  !
 ! R23   R(18,21)                1.2085         calculate D2E/DX2 analytically  !
 ! R24   R(18,23)                1.3456         calculate D2E/DX2 analytically  !
 ! R25   R(19,20)                1.1987         calculate D2E/DX2 analytically  !
 ! R26   R(19,22)                1.3371         calculate D2E/DX2 analytically  !
 ! R27   R(22,28)                1.4237         calculate D2E/DX2 analytically  !
 ! R28   R(23,24)                1.4205         calculate D2E/DX2 analytically  !
 ! R29   R(24,25)                1.0884         calculate D2E/DX2 analytically  !
 ! R30   R(24,26)                1.0907         calculate D2E/DX2 analytically  !
 ! R31   R(24,27)                1.0916         calculate D2E/DX2 analytically  !
 ! R32   R(28,29)                1.0908         calculate D2E/DX2 analytically  !
 ! R33   R(28,30)                1.0904         calculate D2E/DX2 analytically  !
 ! R34   R(28,31)                1.0876         calculate D2E/DX2 analytically  !
 ! A1    A(2,1,4)              101.9184         calculate D2E/DX2 analytically  !
 ! A2    A(2,1,5)              122.5591         calculate D2E/DX2 analytically  !
 ! A3    A(2,1,17)             109.2088         calculate D2E/DX2 analytically  !
 ! A4    A(4,1,5)              122.5922         calculate D2E/DX2 analytically  !
 ! A5    A(4,1,10)              81.3954         calculate D2E/DX2 analytically  !
 ! A6    A(4,1,17)             102.1295         calculate D2E/DX2 analytically  !
 ! A7    A(5,1,10)              99.9457         calculate D2E/DX2 analytically  !
 ! A8    A(5,1,17)              95.8285         calculate D2E/DX2 analytically  !
 ! A9    A(10,1,17)            158.6056         calculate D2E/DX2 analytically  !
 ! A10   A(1,2,7)              105.1297         calculate D2E/DX2 analytically  !
 ! A11   A(1,2,14)             115.8526         calculate D2E/DX2 analytically  !
 ! A12   A(7,2,10)             108.2174         calculate D2E/DX2 analytically  !
 ! A13   A(7,2,14)             122.3144         calculate D2E/DX2 analytically  !
 ! A14   A(10,2,14)            120.1453         calculate D2E/DX2 analytically  !
 ! A15   A(4,3,7)              109.253          calculate D2E/DX2 analytically  !
 ! A16   A(4,3,15)             118.6838         calculate D2E/DX2 analytically  !
 ! A17   A(7,3,12)             109.0951         calculate D2E/DX2 analytically  !
 ! A18   A(7,3,15)             122.5557         calculate D2E/DX2 analytically  !
 ! A19   A(12,3,15)            120.2095         calculate D2E/DX2 analytically  !
 ! A20   A(1,4,3)              106.1936         calculate D2E/DX2 analytically  !
 ! A21   A(1,4,6)              124.5345         calculate D2E/DX2 analytically  !
 ! A22   A(1,4,12)              97.7763         calculate D2E/DX2 analytically  !
 ! A23   A(3,4,6)              125.224          calculate D2E/DX2 analytically  !
 ! A24   A(6,4,12)             124.347          calculate D2E/DX2 analytically  !
 ! A25   A(2,7,3)               98.1973         calculate D2E/DX2 analytically  !
 ! A26   A(2,7,8)              111.0619         calculate D2E/DX2 analytically  !
 ! A27   A(2,7,9)              112.6142         calculate D2E/DX2 analytically  !
 ! A28   A(3,7,8)              112.8383         calculate D2E/DX2 analytically  !
 ! A29   A(3,7,9)              111.8683         calculate D2E/DX2 analytically  !
 ! A30   A(8,7,9)              109.8731         calculate D2E/DX2 analytically  !
 ! A31   A(1,10,11)            113.9237         calculate D2E/DX2 analytically  !
 ! A32   A(1,10,12)             87.7111         calculate D2E/DX2 analytically  !
 ! A33   A(2,10,11)            125.6107         calculate D2E/DX2 analytically  !
 ! A34   A(2,10,12)            107.4332         calculate D2E/DX2 analytically  !
 ! A35   A(11,10,12)           126.2629         calculate D2E/DX2 analytically  !
 ! A36   A(3,12,10)            104.4411         calculate D2E/DX2 analytically  !
 ! A37   A(3,12,13)            127.0594         calculate D2E/DX2 analytically  !
 ! A38   A(4,12,10)             93.1105         calculate D2E/DX2 analytically  !
 ! A39   A(4,12,13)            124.9517         calculate D2E/DX2 analytically  !
 ! A40   A(10,12,13)           125.8954         calculate D2E/DX2 analytically  !
 ! A41   A(17,16,18)           114.1277         calculate D2E/DX2 analytically  !
 ! A42   A(1,17,16)            108.7367         calculate D2E/DX2 analytically  !
 ! A43   A(1,17,19)            102.0227         calculate D2E/DX2 analytically  !
 ! A44   A(16,17,19)           113.1508         calculate D2E/DX2 analytically  !
 ! A45   A(16,18,21)           121.4724         calculate D2E/DX2 analytically  !
 ! A46   A(16,18,23)           115.6801         calculate D2E/DX2 analytically  !
 ! A47   A(21,18,23)           122.8146         calculate D2E/DX2 analytically  !
 ! A48   A(17,19,20)           126.781          calculate D2E/DX2 analytically  !
 ! A49   A(17,19,22)           108.8109         calculate D2E/DX2 analytically  !
 ! A50   A(20,19,22)           124.1711         calculate D2E/DX2 analytically  !
 ! A51   A(19,22,28)           115.5665         calculate D2E/DX2 analytically  !
 ! A52   A(18,23,24)           115.5149         calculate D2E/DX2 analytically  !
 ! A53   A(23,24,25)           105.8538         calculate D2E/DX2 analytically  !
 ! A54   A(23,24,26)           111.1012         calculate D2E/DX2 analytically  !
 ! A55   A(23,24,27)           111.3113         calculate D2E/DX2 analytically  !
 ! A56   A(25,24,26)           109.8544         calculate D2E/DX2 analytically  !
 ! A57   A(25,24,27)           109.8468         calculate D2E/DX2 analytically  !
 ! A58   A(26,24,27)           108.8409         calculate D2E/DX2 analytically  !
 ! A59   A(22,28,29)           111.2719         calculate D2E/DX2 analytically  !
 ! A60   A(22,28,30)           110.6769         calculate D2E/DX2 analytically  !
 ! A61   A(22,28,31)           105.7467         calculate D2E/DX2 analytically  !
 ! A62   A(29,28,30)           109.0418         calculate D2E/DX2 analytically  !
 ! A63   A(29,28,31)           110.1272         calculate D2E/DX2 analytically  !
 ! A64   A(30,28,31)           109.9416         calculate D2E/DX2 analytically  !
 ! D1    D(4,1,2,7)             37.4489         calculate D2E/DX2 analytically  !
 ! D2    D(4,1,2,14)           175.7245         calculate D2E/DX2 analytically  !
 ! D3    D(5,1,2,7)            179.4434         calculate D2E/DX2 analytically  !
 ! D4    D(5,1,2,14)           -42.2809         calculate D2E/DX2 analytically  !
 ! D5    D(17,1,2,7)           -70.0658         calculate D2E/DX2 analytically  !
 ! D6    D(17,1,2,14)           68.2098         calculate D2E/DX2 analytically  !
 ! D7    D(2,1,4,3)            -14.9481         calculate D2E/DX2 analytically  !
 ! D8    D(2,1,4,6)           -173.2159         calculate D2E/DX2 analytically  !
 ! D9    D(2,1,4,12)            45.0425         calculate D2E/DX2 analytically  !
 ! D10   D(5,1,4,3)           -156.9261         calculate D2E/DX2 analytically  !
 ! D11   D(5,1,4,6)             44.8061         calculate D2E/DX2 analytically  !
 ! D12   D(5,1,4,12)           -96.9355         calculate D2E/DX2 analytically  !
 ! D13   D(10,1,4,3)           -60.5769         calculate D2E/DX2 analytically  !
 ! D14   D(10,1,4,6)           141.1552         calculate D2E/DX2 analytically  !
 ! D15   D(10,1,4,12)           -0.5864         calculate D2E/DX2 analytically  !
 ! D16   D(17,1,4,3)            97.9629         calculate D2E/DX2 analytically  !
 ! D17   D(17,1,4,6)           -60.3049         calculate D2E/DX2 analytically  !
 ! D18   D(17,1,4,12)          157.9535         calculate D2E/DX2 analytically  !
 ! D19   D(4,1,10,11)         -128.4363         calculate D2E/DX2 analytically  !
 ! D20   D(4,1,10,12)            0.6042         calculate D2E/DX2 analytically  !
 ! D21   D(5,1,10,11)           -6.6625         calculate D2E/DX2 analytically  !
 ! D22   D(5,1,10,12)          122.378          calculate D2E/DX2 analytically  !
 ! D23   D(17,1,10,11)         130.2405         calculate D2E/DX2 analytically  !
 ! D24   D(17,1,10,12)        -100.719          calculate D2E/DX2 analytically  !
 ! D25   D(2,1,17,16)           83.3841         calculate D2E/DX2 analytically  !
 ! D26   D(2,1,17,19)          -36.398          calculate D2E/DX2 analytically  !
 ! D27   D(4,1,17,16)          -23.9875         calculate D2E/DX2 analytically  !
 ! D28   D(4,1,17,19)         -143.7696         calculate D2E/DX2 analytically  !
 ! D29   D(5,1,17,16)         -149.1403         calculate D2E/DX2 analytically  !
 ! D30   D(5,1,17,19)           91.0777         calculate D2E/DX2 analytically  !
 ! D31   D(10,1,17,16)          73.4277         calculate D2E/DX2 analytically  !
 ! D32   D(10,1,17,19)         -46.3543         calculate D2E/DX2 analytically  !
 ! D33   D(1,2,7,3)            -43.5694         calculate D2E/DX2 analytically  !
 ! D34   D(1,2,7,8)           -161.9735         calculate D2E/DX2 analytically  !
 ! D35   D(1,2,7,9)             74.3137         calculate D2E/DX2 analytically  !
 ! D36   D(10,2,7,3)            35.0731         calculate D2E/DX2 analytically  !
 ! D37   D(10,2,7,8)           -83.3311         calculate D2E/DX2 analytically  !
 ! D38   D(10,2,7,9)           152.9561         calculate D2E/DX2 analytically  !
 ! D39   D(14,2,7,3)          -178.4404         calculate D2E/DX2 analytically  !
 ! D40   D(14,2,7,8)            63.1555         calculate D2E/DX2 analytically  !
 ! D41   D(14,2,7,9)           -60.5574         calculate D2E/DX2 analytically  !
 ! D42   D(7,2,10,11)          162.3044         calculate D2E/DX2 analytically  !
 ! D43   D(7,2,10,12)          -26.7719         calculate D2E/DX2 analytically  !
 ! D44   D(14,2,10,11)          14.9609         calculate D2E/DX2 analytically  !
 ! D45   D(14,2,10,12)        -174.1154         calculate D2E/DX2 analytically  !
 ! D46   D(7,3,4,1)            -12.4136         calculate D2E/DX2 analytically  !
 ! D47   D(7,3,4,6)            145.6617         calculate D2E/DX2 analytically  !
 ! D48   D(15,3,4,1)          -159.6412         calculate D2E/DX2 analytically  !
 ! D49   D(15,3,4,6)            -1.5658         calculate D2E/DX2 analytically  !
 ! D50   D(4,3,7,2)             34.4766         calculate D2E/DX2 analytically  !
 ! D51   D(4,3,7,8)            151.5184         calculate D2E/DX2 analytically  !
 ! D52   D(4,3,7,9)            -83.9761         calculate D2E/DX2 analytically  !
 ! D53   D(12,3,7,2)           -31.3037         calculate D2E/DX2 analytically  !
 ! D54   D(12,3,7,8)            85.7381         calculate D2E/DX2 analytically  !
 ! D55   D(12,3,7,9)          -149.7564         calculate D2E/DX2 analytically  !
 ! D56   D(15,3,7,2)          -179.8149         calculate D2E/DX2 analytically  !
 ! D57   D(15,3,7,8)           -62.7731         calculate D2E/DX2 analytically  !
 ! D58   D(15,3,7,9)            61.7324         calculate D2E/DX2 analytically  !
 ! D59   D(7,3,12,10)           17.1885         calculate D2E/DX2 analytically  !
 ! D60   D(7,3,12,13)         -145.2049         calculate D2E/DX2 analytically  !
 ! D61   D(15,3,12,10)         166.5617         calculate D2E/DX2 analytically  !
 ! D62   D(15,3,12,13)           4.1683         calculate D2E/DX2 analytically  !
 ! D63   D(1,4,12,10)            0.7155         calculate D2E/DX2 analytically  !
 ! D64   D(1,4,12,13)          139.6853         calculate D2E/DX2 analytically  !
 ! D65   D(6,4,12,10)         -141.1273         calculate D2E/DX2 analytically  !
 ! D66   D(6,4,12,13)           -2.1575         calculate D2E/DX2 analytically  !
 ! D67   D(1,10,12,3)           58.3656         calculate D2E/DX2 analytically  !
 ! D68   D(1,10,12,4)           -0.5905         calculate D2E/DX2 analytically  !
 ! D69   D(1,10,12,13)        -138.9701         calculate D2E/DX2 analytically  !
 ! D70   D(2,10,12,3)            5.8128         calculate D2E/DX2 analytically  !
 ! D71   D(2,10,12,4)          -53.1434         calculate D2E/DX2 analytically  !
 ! D72   D(2,10,12,13)         168.4771         calculate D2E/DX2 analytically  !
 ! D73   D(11,10,12,3)         176.6606         calculate D2E/DX2 analytically  !
 ! D74   D(11,10,12,4)         117.7045         calculate D2E/DX2 analytically  !
 ! D75   D(11,10,12,13)        -20.6751         calculate D2E/DX2 analytically  !
 ! D76   D(18,16,17,1)          90.4558         calculate D2E/DX2 analytically  !
 ! D77   D(18,16,17,19)       -156.9468         calculate D2E/DX2 analytically  !
 ! D78   D(17,16,18,21)       -176.0654         calculate D2E/DX2 analytically  !
 ! D79   D(17,16,18,23)          5.9648         calculate D2E/DX2 analytically  !
 ! D80   D(1,17,19,20)         125.6402         calculate D2E/DX2 analytically  !
 ! D81   D(1,17,19,22)         -59.8022         calculate D2E/DX2 analytically  !
 ! D82   D(16,17,19,20)          9.0087         calculate D2E/DX2 analytically  !
 ! D83   D(16,17,19,22)       -176.4336         calculate D2E/DX2 analytically  !
 ! D84   D(16,18,23,24)        177.5731         calculate D2E/DX2 analytically  !
 ! D85   D(21,18,23,24)         -0.3666         calculate D2E/DX2 analytically  !
 ! D86   D(17,19,22,28)       -175.0067         calculate D2E/DX2 analytically  !
 ! D87   D(20,19,22,28)         -0.2746         calculate D2E/DX2 analytically  !
 ! D88   D(19,22,28,29)        -57.5212         calculate D2E/DX2 analytically  !
 ! D89   D(19,22,28,30)         63.888          calculate D2E/DX2 analytically  !
 ! D90   D(19,22,28,31)       -177.088          calculate D2E/DX2 analytically  !
 ! D91   D(18,23,24,25)        179.9452         calculate D2E/DX2 analytically  !
 ! D92   D(18,23,24,26)        -60.8439         calculate D2E/DX2 analytically  !
 ! D93   D(18,23,24,27)         60.6294         calculate D2E/DX2 analytically  !
 --------------------------------------------------------------------------------
 Trust Radius=3.00D-01 FncErr=1.00D-07 GrdErr=1.00D-06
 Number of steps in this run=    186 maximum allowed number of steps=    186.
 Search for a saddle point of order  1.
 GradGradGradGradGradGradGradGradGradGradGradGradGradGradGradGradGradGrad

                          Input orientation:                          
 ---------------------------------------------------------------------
 Center     Atomic      Atomic             Coordinates (Angstroms)
 Number     Number       Type             X           Y           Z
 ---------------------------------------------------------------------
      1          6           0        0.523850    0.792410   -0.841760
      2          6           0        1.686610    1.386690    0.004390
      3          6           0       -0.212610    2.364180    0.835090
      4          6           0       -0.648950    1.655690   -0.412960
      5          1           0        0.657740    0.458090   -1.857290
      6          1           0       -1.671310    1.485660   -0.705520
      7          6           0        1.063570    1.733510    1.346360
      8          1           0        1.689800    2.434190    1.899860
      9          1           0        0.865140    0.853470    1.955710
     10          6           0        1.335860    2.422850   -0.937210
     11          1           0        1.830430    2.610930   -1.877430
     12          6           0        0.058940    3.019140   -0.485070
     13          1           0       -0.383840    3.924860   -0.863400
     14          1           0        2.636790    0.877970   -0.077300
     15          1           0       -0.966950    2.763760    1.494090
     16          7           0       -0.780340   -0.780330    0.868190
     17          7           0        0.032890   -0.953280   -0.121560
     18          6           0       -2.125430   -0.767250    0.504600
     19          6           0        1.294370   -1.475060    0.276050
     20          8           0        1.589980   -1.889070    1.361400
     21          8           0       -2.995510   -0.544890    1.313340
     22          8           0        2.089290   -1.545650   -0.796800
     23          8           0       -2.384150   -1.058250   -0.783380
     24          6           0       -3.759170   -1.096680   -1.137700
     25          1           0       -3.786290   -1.341140   -2.197980
     26          1           0       -4.290330   -1.860070   -0.567830
     27          1           0       -4.239820   -0.131540   -0.967500
     28          6           0        3.358130   -2.154790   -0.582350
     29          1           0        3.917700   -1.639030    0.199160
     30          1           0        3.240110   -3.202260   -0.303140
     31          1           0        3.885130   -2.080840   -1.530860
 ---------------------------------------------------------------------
                    Distance matrix (angstroms):
                    1          2          3          4          5
     1  C    0.000000
     2  C    1.556004   0.000000
     3  C    2.413433   2.291852   0.000000
     4  C    1.518085   2.387757   1.499993   0.000000
     5  H    1.077496   2.320932   3.411686   2.286433   0.000000
     6  H    2.306054   3.433569   2.296319   1.076904   2.794092
     7  C    2.442301   1.519653   1.512540   2.456418   3.471998
     8  H    3.401670   2.165658   2.181238   3.380081   4.368786
     9  H    2.818873   2.183297   2.167851   2.923461   3.839051
    10  C    1.823953   1.443352   2.354198   2.191539   2.273032
    11  H    2.467140   2.249599   3.404800   3.033889   2.451597
    12  C    2.302541   2.356645   1.498511   1.537954   2.966568
    13  H    3.261382   3.388529   2.312987   2.328586   3.753825
    14  H    2.248607   1.080885   3.340712   3.393170   2.694680
    15  H    3.400721   3.340196   1.078413   2.228404   4.380352
    16  N    2.664273   3.395286   3.195521   2.755504   3.321144
    17  N    1.951195   2.868120   3.461357   2.712295   2.322749
    18  C    3.356175   4.406962   3.684285   2.982038   3.850457
    19  C    2.642843   2.901252   4.162124   3.748710   2.948475
    20  O    3.630548   3.547029   4.649351   4.552635   4.091234
    21  O    4.338055   5.231310   4.054127   3.650891   4.940152
    22  O    2.814098   3.066378   4.821678   4.230115   2.681221
    23  O    3.447436   4.813460   4.364408   3.242468   3.564501
    24  C    4.690469   6.093276   5.333624   4.215953   4.737532
    25  H    4.996867   6.499548   5.974956   4.691502   4.806527
    26  H    5.503364   6.825884   6.036578   5.064010   5.614265
    27  H    4.854075   6.194527   5.069159   4.049204   5.012533
    28  C    4.097124   3.959839   5.931308   5.532191   3.967962
    29  H    4.302747   3.764396   5.787016   5.664288   4.387965
    30  H    4.860614   4.854524   6.648466   6.223867   4.741538
    31  H    4.475335   4.383406   6.492103   5.980739   4.119316
                    6          7          8          9         10
     6  H    0.000000
     7  C    3.428004   0.000000
     8  H    4.357152   1.090632   0.000000
     9  H    3.730333   1.088647   1.783777   0.000000
    10  C    3.158334   2.400838   2.859085   3.324683   0.000000
    11  H    3.860283   3.427938   3.784037   4.325900   1.078882
    12  C    2.322482   2.452807   2.947840   3.361174   1.480040
    13  H    2.762644   3.432208   3.762670   4.352099   2.284480
    14  H    4.395870   2.287745   2.688452   2.696752   2.195112
    15  H    2.639687   2.281721   2.707690   2.686793   3.366062
    16  N    2.899155   3.154052   4.183189   2.561173   4.242421
    17  N    3.032117   3.230469   4.278603   2.876115   3.709619
    18  C    2.597348   4.139092   5.172229   3.698103   4.923016
    19  C    4.304021   3.390244   4.251513   2.903024   4.082576
    20  O    5.128057   3.660658   4.357807   2.898297   4.892938
    21  O    3.154748   4.654925   5.583104   4.156040   5.712550
    22  O    4.831075   4.049460   4.823971   3.851056   4.041827
    23  O    2.643044   4.921025   5.999499   4.659954   5.097077
    24  C    3.348794   6.118770   7.168339   5.895465   6.195694
    25  H    3.832933   6.748108   7.812360   6.610995   6.480246
    26  H    4.251133   6.726231   7.764800   6.349049   7.080527
    27  H    3.046508   6.079334   7.068601   5.964564   6.133028
    28  C    6.209937   4.909563   5.477539   4.659010   5.017000
    29  H    6.466774   4.564663   4.944395   4.314643   4.945311
    30  H    6.801511   5.640922   6.247098   5.214579   5.972443
    31  H    6.653956   5.548771   6.080692   5.466872   5.209071
                   11         12         13         14         15
    11  H    0.000000
    12  C    2.289864   0.000000
    13  H    2.767248   1.076808   0.000000
    14  H    2.625611   3.375825   4.361846   0.000000
    15  H    4.383587   2.243823   2.691826   4.360323   0.000000
    16  N    5.084800   4.119669   5.029357   3.914165   3.603769
    17  N    4.360943   3.989103   4.951792   3.183666   4.174493
    18  C    5.721450   4.481927   5.188493   5.071893   3.845673
    19  C    4.649747   4.722650   5.768351   2.731977   4.956287
    20  O    5.549580   5.462972   6.530504   3.289708   5.310774
    21  O    6.590137   5.026555   5.615842   5.973375   3.885214
    22  O    4.302549   5.005677   6.003939   2.586768   5.758454
    23  O    5.694077   4.762645   5.370198   5.427461   4.669377
    24  C    6.748126   5.651890   6.056728   6.777315   5.442960
    25  H    6.875257   6.060684   6.410033   7.118826   6.199215
    26  H    7.692113   6.536795   6.986662   7.464749   6.056086
    27  H    6.722875   5.351529   5.597660   7.007092   5.015363
    28  C    5.169447   6.137073   7.144471   3.158012   6.870957
    29  H    5.170211   6.087425   7.112605   2.837684   6.702329
    30  H    6.185367   6.989904   8.015157   4.130772   7.518164
    31  H    5.133674   6.460898   7.398516   3.525017   7.494208
                   16         17         18         19         20
    16  N    0.000000
    17  N    1.292617   0.000000
    18  C    1.393426   2.255001   0.000000
    19  C    2.266650   1.421858   3.499752   0.000000
    20  O    2.662889   2.345081   3.974526   1.198655   0.000000
    21  O    2.271689   3.375933   1.208530   4.510461   4.778687
    22  O    3.404803   2.244021   4.479220   1.337119   2.241668
    23  O    2.318864   2.508208   1.345552   3.850666   4.591737
    24  C    3.605149   3.928463   2.339825   5.261191   5.957079
    25  H    4.330317   4.364412   3.223623   5.652598   6.470989
    26  H    3.943098   4.439781   2.651632   5.661205   6.188765
    27  H    3.969721   4.432485   2.653649   5.829127   6.519145
    28  C    4.595665   3.565554   5.759875   2.336234   2.641046
    29  H    4.822504   3.957886   6.113323   2.629574   2.613733
    30  H    4.837538   3.921370   5.947330   2.665443   2.686650
    31  H    5.404940   4.254089   6.480389   3.216198   3.697250
                   21         22         23         24         25
    21  O    0.000000
    22  O    5.595481   0.000000
    23  O    2.243554   4.499934   0.000000
    24  C    2.625880   5.875566   1.420458   0.000000
    25  H    3.686287   6.043804   2.011745   1.088435   0.000000
    26  H    2.635348   6.391466   2.079158   1.090709   1.783461
    27  H    2.630855   6.487409   2.082355   1.091553   1.784069
    28  C    6.823061   1.423726   5.849495   7.216922   7.369873
    29  H    7.087384   2.084164   6.404374   7.811253   8.073814
    30  H    6.968327   2.076642   6.038188   7.356621   7.511623
    31  H    7.602093   2.012539   6.395959   7.717413   7.735819
                   26         27         28         29         30
    26  H    0.000000
    27  H    1.774853   0.000000
    28  C    7.654150   7.872149   0.000000
    29  H    8.246750   8.377276   1.090818   0.000000
    30  H    7.653696   8.112956   1.090450   1.776266   0.000000
    31  H    8.234945   8.374483   1.087598   1.785840   1.783516
                   31
    31  H    0.000000
 Stoichiometry    C11H14N2O4
 Framework group  C1[X(C11H14N2O4)]
 Deg. of freedom    87
 Full point group                 C1      NOp   1
 Largest Abelian subgroup         C1      NOp   1
 Largest concise Abelian subgroup C1      NOp   1
                         Standard orientation:                         
 ---------------------------------------------------------------------
 Center     Atomic      Atomic             Coordinates (Angstroms)
 Number     Number       Type             X           Y           Z
 ---------------------------------------------------------------------
      1          6           0        0.523850    0.792410   -0.841761
      2          6           0        1.686610    1.386689    0.004389
      3          6           0       -0.212610    2.364180    0.835089
      4          6           0       -0.648950    1.655690   -0.412961
      5          1           0        0.657740    0.458089   -1.857291
      6          1           0       -1.671310    1.485660   -0.705521
      7          6           0        1.063570    1.733509    1.346359
      8          1           0        1.689800    2.434189    1.899859
      9          1           0        0.865140    0.853469    1.955709
     10          6           0        1.335860    2.422849   -0.937211
     11          1           0        1.830430    2.610929   -1.877431
     12          6           0        0.058940    3.019140   -0.485071
     13          1           0       -0.383839    3.924860   -0.863401
     14          1           0        2.636790    0.877969   -0.077301
     15          1           0       -0.966950    2.763760    1.494089
     16          7           0       -0.780341   -0.780330    0.868189
     17          7           0        0.032889   -0.953280   -0.121561
     18          6           0       -2.125431   -0.767250    0.504599
     19          6           0        1.294369   -1.475061    0.276049
     20          8           0        1.589979   -1.889071    1.361399
     21          8           0       -2.995511   -0.544889    1.313339
     22          8           0        2.089289   -1.545651   -0.796801
     23          8           0       -2.384151   -1.058250   -0.783381
     24          6           0       -3.759171   -1.096679   -1.137701
     25          1           0       -3.786291   -1.341139   -2.197981
     26          1           0       -4.290331   -1.860069   -0.567831
     27          1           0       -4.239820   -0.131539   -0.967501
     28          6           0        3.358129   -2.154791   -0.582351
     29          1           0        3.917699   -1.639031    0.199159
     30          1           0        3.240109   -3.202261   -0.303141
     31          1           0        3.885129   -2.080841   -1.530861
 ---------------------------------------------------------------------
 Rotational constants (GHZ):      0.5991382      0.4539488      0.3212727
 Standard basis: def2TZVP (5D, 7F)
 There are   696 symmetry adapted cartesian basis functions of A   symmetry.
 There are   611 symmetry adapted basis functions of A   symmetry.
   611 basis functions,   979 primitive gaussians,   696 cartesian basis functions
    63 alpha electrons       63 beta electrons
       nuclear repulsion energy      1311.8873540013 Hartrees.
 NAtoms=   31 NActive=   31 NUniq=   31 SFac= 1.00D+00 NAtFMM=   60 NAOKFM=F Big=F
 Integral buffers will be    131072 words long.
 Raffenetti 2 integral format.
 Two-electron integral symmetry is turned on.
 Nuclear repulsion after empirical dispersion term =     1311.8635447333 Hartrees.
 Force inversion solution in PCM.
 ------------------------------------------------------------------------------
 Polarizable Continuum Model (PCM)
 =================================
 Model                : PCM (using non-symmetric T matrix).
 Atomic radii         : SMD-Coulomb.
 Polarization charges : Total charges.
 Charge compensation  : None.
 Solution method      : Matrix inversion.
 Cavity type          : VdW (van der Waals Surface) (Alpha=1.000).
 Cavity algorithm     : GePol (No added spheres)
                        Default sphere list used, NSphG=   31.
                        Lebedev-Laikov grids with approx.  5.0 points / Ang**2.
                        Smoothing algorithm: Karplus/York (Gamma=1.0000).
                        Polarization charges: spherical gaussians, with
                                              point-specific exponents (IZeta= 3).
                        Self-potential: point-specific (ISelfS= 7).
                        Self-field    : sphere-specific E.n sum rule (ISelfD= 2).
 1st derivatives      : Analytical E(r).r(x)/FMM algorithm (CHGder, D1EAlg=3).
                        Cavity 1st derivative terms included.
 2nd derivatives      : Analytical E(r).r(xy)/FMM algorithm (CHGder, D2EAlg=3).
                        Cavity 2nd derivative terms included.
 Solvent              : Toluene, Eps=   2.374100 Eps(inf)=   2.238315
 ------------------------------------------------------------------------------
 ------------------------------------------------------------------------------
 Atomic radii for non-electrostatic terms: SMD-CDS.
 ------------------------------------------------------------------------------
 Nuclear repulsion after PCM non-electrostatic terms =     1311.8552467512 Hartrees.
 One-electron integrals computed using PRISM.
   1 Symmetry operations used in ECPInt.
 ECPInt:  NShTT=   29646 NPrTT=   90516 LenC2=   27391 LenP2D=   61362.
 LDataN:  DoStor=T MaxTD1= 6 Len=  172
 NBasis=   611 RedAO= T EigKep=  2.56D-05  NBF=   611
 NBsUse=   611 1.00D-06 EigRej= -1.00D+00 NBFU=   611
 ExpMin= 9.52D-02 ExpMax= 2.70D+04 ExpMxC= 9.22D+02 IAcc=2 IRadAn=         4 AccDes= 0.00D+00
 Harris functional with IExCor= 4639 and IRadAn=       4 diagonalized for initial guess.
 HarFok:  IExCor= 4639 AccDes= 0.00D+00 IRadAn=         4 IDoV= 1 UseB2=F ITyADJ=14
 ICtDFT=  3500011 ScaDFX=  1.000000  1.000000  1.000000  1.000000
 FoFCou: FMM=F IPFlag=           0 FMFlag=      100000 FMFlg1=           0
         NFxFlg=           0 DoJE=T BraDBF=F KetDBF=T FulRan=T
         wScrn=  0.000000 ICntrl=     500 IOpCl=  0 I1Cent=   200000004 NGrid=           0
         NMat0=    1 NMatS0=      1 NMatT0=    0 NMatD0=    1 NMtDS0=    0 NMtDT0=    0
 Petite list used in FoFCou.
 Requested convergence on RMS density matrix=1.00D-08 within 128 cycles.
 Requested convergence on MAX density matrix=1.00D-06.
 Requested convergence on             energy=1.00D-06.
 No special actions if energy rises.
 Inv3:  Mode=1 IEnd=    15336363.
 Iteration    1 A*A^-1 deviation from unit magnitude is 5.88D-15 for    254.
 Iteration    1 A*A^-1 deviation from orthogonality  is 2.59D-15 for   2231   1608.
 Iteration    1 A^-1*A deviation from unit magnitude is 5.22D-15 for    248.
 Iteration    1 A^-1*A deviation from orthogonality  is 1.23D-14 for    892    860.
 Error on total polarization charges =  0.01892
 SCF Done:  E(RwB97XD) =  -837.863194183     A.U. after   18 cycles
            NFock= 18  Conv=0.45D-08     -V/T= 2.0045
 SMD-CDS (non-electrostatic) energy       (kcal/mol) =      -5.21
 (included in total energy above)
 DoSCS=F DFT=T ScalE2(SS,OS)=  1.000000  1.000000
 Range of M.O.s used for correlation:     1   611
 NBasis=   611 NAE=    63 NBE=    63 NFC=     0 NFV=     0
 NROrb=    611 NOA=    63 NOB=    63 NVA=   548 NVB=   548

 **** Warning!!: The largest alpha MO coefficient is  0.34888638D+02

   1 Symmetry operations used in ECPInt.
 ECPInt:  NShTT=   29646 NPrTT=   90516 LenC2=   27391 LenP2D=   61362.
 LDataN:  DoStor=T MaxTD1= 7 Len=  274
 Number of processors reduced to   4 by ecpmxn.
 Symmetrizing basis deriv contribution to polar:
 IMax=3 JMax=2 DiffMx= 0.00D+00
 G2DrvN: will do    32 centers at a time, making    1 passes.
 Calling FoFCou, ICntrl=  3107 FMM=F I1Cent=   0 AccDes= 0.00D+00.
 NEqPCM:  Using equilibrium solvation (IEInf=0, Eps=   2.3741, EpsInf=   2.2383)
 G2PCM: DoFxE=T DoFxN=T DoGrad=T DoDP/DQ/DG/TGxP=FFFF NFrqRd=   0 IEInf=0 SqF1=F DoCFld=F IF1Alg=4.
 End of G2Drv F.D. properties file   721 does not exist.
 End of G2Drv F.D. properties file   722 does not exist.
 End of G2Drv F.D. properties file   788 does not exist.
          IDoAtm=1111111111111111111111111111111
 NEqPCM:  Using equilibrium solvation (IEInf=0, Eps=   2.3741, EpsInf=   2.2383)
          Differentiating once with respect to nuclear coordinates.
          There are    96 degrees of freedom in the 1st order CPHF.  IDoFFX=6 NUNeed=     0.
     90 vectors produced by pass  0 Test12= 3.60D-14 1.04D-09 XBig12= 1.35D-01 1.37D-01.
 AX will form    90 AO Fock derivatives at one time.
     90 vectors produced by pass  1 Test12= 3.60D-14 1.04D-09 XBig12= 1.21D-02 2.09D-02.
     90 vectors produced by pass  2 Test12= 3.60D-14 1.04D-09 XBig12= 4.64D-04 4.22D-03.
     90 vectors produced by pass  3 Test12= 3.60D-14 1.04D-09 XBig12= 5.93D-06 4.94D-04.
     90 vectors produced by pass  4 Test12= 3.60D-14 1.04D-09 XBig12= 6.07D-08 3.06D-05.
     90 vectors produced by pass  5 Test12= 3.60D-14 1.04D-09 XBig12= 5.27D-10 1.94D-06.
     90 vectors produced by pass  6 Test12= 3.60D-14 1.04D-09 XBig12= 3.64D-12 1.37D-07.
     48 vectors produced by pass  7 Test12= 3.60D-14 1.04D-09 XBig12= 2.72D-14 1.29D-08.
      8 vectors produced by pass  8 Test12= 3.60D-14 1.04D-09 XBig12= 1.40D-15 3.48D-09.
      2 vectors produced by pass  9 Test12= 3.60D-14 1.04D-09 XBig12= 4.81D-16 1.19D-09.
 InvSVY:  IOpt=1 It=  1 EMax= 6.66D-16
 Solved reduced A of dimension   688 with    96 vectors.
 End of Minotr F.D. properties file   721 does not exist.
 End of Minotr F.D. properties file   722 does not exist.
 End of Minotr F.D. properties file   788 does not exist.

 **********************************************************************

            Population analysis using the SCF density.

 **********************************************************************

 Orbital symmetries:
       Occupied  (A) (A) (A) (A) (A) (A) (A) (A) (A) (A) (A) (A)
                 (A) (A) (A) (A) (A) (A) (A) (A) (A) (A) (A) (A)
                 (A) (A) (A) (A) (A) (A) (A) (A) (A) (A) (A) (A)
                 (A) (A) (A) (A) (A) (A) (A) (A) (A) (A) (A) (A)
                 (A) (A) (A) (A) (A) (A) (A) (A) (A) (A) (A) (A)
                 (A) (A) (A)
       Virtual   (A) (A) (A) (A) (A) (A) (A) (A) (A) (A) (A) (A)
                 (A) (A) (A) (A) (A) (A) (A) (A) (A) (A) (A) (A)
                 (A) (A) (A) (A) (A) (A) (A) (A) (A) (A) (A) (A)
                 (A) (A) (A) (A) (A) (A) (A) (A) (A) (A) (A) (A)
                 (A) (A) (A) (A) (A) (A) (A) (A) (A) (A) (A) (A)
                 (A) (A) (A) (A) (A) (A) (A) (A) (A) (A) (A) (A)
                 (A) (A) (A) (A) (A) (A) (A) (A) (A) (A) (A) (A)
                 (A) (A) (A) (A) (A) (A) (A) (A) (A) (A) (A) (A)
                 (A) (A) (A) (A) (A) (A) (A) (A) (A) (A) (A) (A)
                 (A) (A) (A) (A) (A) (A) (A) (A) (A) (A) (A) (A)
                 (A) (A) (A) (A) (A) (A) (A) (A) (A) (A) (A) (A)
                 (A) (A) (A) (A) (A) (A) (A) (A) (A) (A) (A) (A)
                 (A) (A) (A) (A) (A) (A) (A) (A) (A) (A) (A) (A)
                 (A) (A) (A) (A) (A) (A) (A) (A) (A) (A) (A) (A)
                 (A) (A) (A) (A) (A) (A) (A) (A) (A) (A) (A) (A)
                 (A) (A) (A) (A) (A) (A) (A) (A) (A) (A) (A) (A)
                 (A) (A) (A) (A) (A) (A) (A) (A) (A) (A) (A) (A)
                 (A) (A) (A) (A) (A) (A) (A) (A) (A) (A) (A) (A)
                 (A) (A) (A) (A) (A) (A) (A) (A) (A) (A) (A) (A)
                 (A) (A) (A) (A) (A) (A) (A) (A) (A) (A) (A) (A)
                 (A) (A) (A) (A) (A) (A) (A) (A) (A) (A) (A) (A)
                 (A) (A) (A) (A) (A) (A) (A) (A) (A) (A) (A) (A)
                 (A) (A) (A) (A) (A) (A) (A) (A) (A) (A) (A) (A)
                 (A) (A) (A) (A) (A) (A) (A) (A) (A) (A) (A) (A)
                 (A) (A) (A) (A) (A) (A) (A) (A) (A) (A) (A) (A)
                 (A) (A) (A) (A) (A) (A) (A) (A) (A) (A) (A) (A)
                 (A) (A) (A) (A) (A) (A) (A) (A) (A) (A) (A) (A)
                 (A) (A) (A) (A) (A) (A) (A) (A) (A) (A) (A) (A)
                 (A) (A) (A) (A) (A) (A) (A) (A) (A) (A) (A) (A)
                 (A) (A) (A) (A) (A) (A) (A) (A) (A) (A) (A) (A)
                 (A) (A) (A) (A) (A) (A) (A) (A) (A) (A) (A) (A)
                 (A) (A) (A) (A) (A) (A) (A) (A) (A) (A) (A) (A)
                 (A) (A) (A) (A) (A) (A) (A) (A) (A) (A) (A) (A)
                 (A) (A) (A) (A) (A) (A) (A) (A) (A) (A) (A) (A)
                 (A) (A) (A) (A) (A) (A) (A) (A) (A) (A) (A) (A)
                 (A) (A) (A) (A) (A) (A) (A) (A) (A) (A) (A) (A)
                 (A) (A) (A) (A) (A) (A) (A) (A) (A) (A) (A) (A)
                 (A) (A) (A) (A) (A) (A) (A) (A) (A) (A) (A) (A)
                 (A) (A) (A) (A) (A) (A) (A) (A) (A) (A) (A) (A)
                 (A) (A) (A) (A) (A) (A) (A) (A) (A) (A) (A) (A)
                 (A) (A) (A) (A) (A) (A) (A) (A) (A) (A) (A) (A)
                 (A) (A) (A) (A) (A) (A) (A) (A) (A) (A) (A) (A)
                 (A) (A) (A) (A) (A) (A) (A) (A) (A) (A) (A) (A)
                 (A) (A) (A) (A) (A) (A) (A) (A) (A) (A) (A) (A)
                 (A) (A) (A) (A) (A) (A) (A) (A) (A) (A) (A) (A)
                 (A) (A) (A) (A) (A) (A) (A) (A)
 The electronic state is 1-A.
 Alpha  occ. eigenvalues --  -19.29726 -19.27920 -19.23255 -19.20842 -14.48973
 Alpha  occ. eigenvalues --  -14.43922 -10.42797 -10.40648 -10.35113 -10.34319
 Alpha  occ. eigenvalues --  -10.33437 -10.33185 -10.32237 -10.32099 -10.31951
 Alpha  occ. eigenvalues --  -10.31117 -10.29242  -1.22352  -1.20181  -1.12945
 Alpha  occ. eigenvalues --   -1.10239  -1.09530  -1.07653  -0.91022  -0.88664
 Alpha  occ. eigenvalues --   -0.85088  -0.82006  -0.79889  -0.78317  -0.69124
 Alpha  occ. eigenvalues --   -0.67726  -0.66696  -0.66222  -0.64956  -0.63845
 Alpha  occ. eigenvalues --   -0.62213  -0.58967  -0.58162  -0.56866  -0.56176
 Alpha  occ. eigenvalues --   -0.55379  -0.54636  -0.54006  -0.52509  -0.50512
 Alpha  occ. eigenvalues --   -0.50272  -0.49995  -0.48731  -0.47794  -0.47392
 Alpha  occ. eigenvalues --   -0.45626  -0.44787  -0.44181  -0.43339  -0.42859
 Alpha  occ. eigenvalues --   -0.39449  -0.39386  -0.38286  -0.37517  -0.37040
 Alpha  occ. eigenvalues --   -0.35440  -0.31496  -0.26553
 Alpha virt. eigenvalues --   -0.03783   0.08538   0.10572   0.12235   0.12498
 Alpha virt. eigenvalues --    0.13310   0.14426   0.15378   0.15919   0.16428
 Alpha virt. eigenvalues --    0.16810   0.17187   0.17760   0.18201   0.19011
 Alpha virt. eigenvalues --    0.19548   0.19942   0.20134   0.20801   0.20921
 Alpha virt. eigenvalues --    0.21955   0.22551   0.22856   0.23194   0.24037
 Alpha virt. eigenvalues --    0.24978   0.26093   0.26321   0.27773   0.28148
 Alpha virt. eigenvalues --    0.28844   0.29623   0.30295   0.30717   0.31541
 Alpha virt. eigenvalues --    0.33357   0.33856   0.34244   0.35108   0.36056
 Alpha virt. eigenvalues --    0.36357   0.36920   0.37293   0.38331   0.39043
 Alpha virt. eigenvalues --    0.40123   0.40577   0.41331   0.41592   0.42404
 Alpha virt. eigenvalues --    0.43085   0.43672   0.44027   0.44974   0.45227
 Alpha virt. eigenvalues --    0.45633   0.46413   0.46976   0.47361   0.47896
 Alpha virt. eigenvalues --    0.48198   0.48813   0.49664   0.49837   0.50192
 Alpha virt. eigenvalues --    0.50786   0.52075   0.52323   0.52539   0.52722
 Alpha virt. eigenvalues --    0.52897   0.53340   0.53927   0.54335   0.55590
 Alpha virt. eigenvalues --    0.56041   0.56431   0.56675   0.57223   0.57539
 Alpha virt. eigenvalues --    0.58987   0.59766   0.60589   0.61011   0.61816
 Alpha virt. eigenvalues --    0.62045   0.62661   0.63320   0.63905   0.64589
 Alpha virt. eigenvalues --    0.65773   0.66196   0.67443   0.68035   0.69060
 Alpha virt. eigenvalues --    0.70473   0.70633   0.71214   0.72550   0.73622
 Alpha virt. eigenvalues --    0.75035   0.75268   0.77615   0.78263   0.79914
 Alpha virt. eigenvalues --    0.81319   0.81594   0.82844   0.84045   0.85507
 Alpha virt. eigenvalues --    0.86489   0.88380   0.88574   0.89800   0.90392
 Alpha virt. eigenvalues --    0.91016   0.92012   0.92800   0.93495   0.94940
 Alpha virt. eigenvalues --    0.95352   0.96141   0.97059   0.97784   0.98640
 Alpha virt. eigenvalues --    0.99429   0.99908   1.00932   1.02095   1.04090
 Alpha virt. eigenvalues --    1.04554   1.05852   1.06843   1.07357   1.08036
 Alpha virt. eigenvalues --    1.09227   1.10525   1.10831   1.11337   1.12840
 Alpha virt. eigenvalues --    1.12960   1.14559   1.16552   1.17311   1.17639
 Alpha virt. eigenvalues --    1.18251   1.19557   1.21413   1.22409   1.24849
 Alpha virt. eigenvalues --    1.25728   1.26974   1.27761   1.28010   1.28626
 Alpha virt. eigenvalues --    1.29625   1.30192   1.31799   1.32104   1.32872
 Alpha virt. eigenvalues --    1.33867   1.34491   1.36588   1.37197   1.38336
 Alpha virt. eigenvalues --    1.39786   1.40442   1.40989   1.43054   1.44182
 Alpha virt. eigenvalues --    1.45549   1.45726   1.47889   1.48739   1.51655
 Alpha virt. eigenvalues --    1.52654   1.53482   1.55721   1.56177   1.57602
 Alpha virt. eigenvalues --    1.57798   1.59154   1.59968   1.60736   1.62057
 Alpha virt. eigenvalues --    1.62483   1.63373   1.63517   1.65050   1.65198
 Alpha virt. eigenvalues --    1.65951   1.66792   1.67554   1.68388   1.69668
 Alpha virt. eigenvalues --    1.70502   1.71598   1.72966   1.74154   1.75902
 Alpha virt. eigenvalues --    1.77143   1.78035   1.78720   1.81456   1.81697
 Alpha virt. eigenvalues --    1.83547   1.84203   1.85533   1.86791   1.89001
 Alpha virt. eigenvalues --    1.91196   1.91754   1.93419   1.93617   1.95591
 Alpha virt. eigenvalues --    1.96527   1.97475   1.99256   2.00080   2.01160
 Alpha virt. eigenvalues --    2.01921   2.02366   2.03863   2.04872   2.07751
 Alpha virt. eigenvalues --    2.08555   2.09174   2.09742   2.11392   2.11996
 Alpha virt. eigenvalues --    2.13000   2.13455   2.13925   2.15496   2.15634
 Alpha virt. eigenvalues --    2.17243   2.17693   2.19479   2.20152   2.21164
 Alpha virt. eigenvalues --    2.22958   2.23828   2.24179   2.24807   2.26761
 Alpha virt. eigenvalues --    2.27197   2.27809   2.31021   2.31889   2.32887
 Alpha virt. eigenvalues --    2.34096   2.35795   2.36453   2.37425   2.38129
 Alpha virt. eigenvalues --    2.38636   2.39684   2.41196   2.41573   2.42326
 Alpha virt. eigenvalues --    2.44072   2.44193   2.44941   2.46619   2.47981
 Alpha virt. eigenvalues --    2.48960   2.49280   2.50315   2.51042   2.51816
 Alpha virt. eigenvalues --    2.52083   2.53737   2.54913   2.55691   2.56627
 Alpha virt. eigenvalues --    2.58518   2.59872   2.60268   2.60496   2.61960
 Alpha virt. eigenvalues --    2.63025   2.63615   2.65018   2.65860   2.66451
 Alpha virt. eigenvalues --    2.68655   2.69980   2.70777   2.71795   2.72183
 Alpha virt. eigenvalues --    2.74331   2.76276   2.77003   2.77964   2.78462
 Alpha virt. eigenvalues --    2.79211   2.80913   2.81764   2.83451   2.83717
 Alpha virt. eigenvalues --    2.85209   2.86045   2.86745   2.88061   2.89252
 Alpha virt. eigenvalues --    2.89703   2.91496   2.91955   2.92664   2.93714
 Alpha virt. eigenvalues --    2.95126   2.96237   2.97899   2.98116   3.01497
 Alpha virt. eigenvalues --    3.01740   3.03952   3.04070   3.05110   3.06091
 Alpha virt. eigenvalues --    3.08038   3.08186   3.09750   3.11368   3.11637
 Alpha virt. eigenvalues --    3.11954   3.13291   3.15427   3.15551   3.16219
 Alpha virt. eigenvalues --    3.17245   3.18440   3.19074   3.20060   3.20792
 Alpha virt. eigenvalues --    3.21470   3.22199   3.23152   3.24141   3.25522
 Alpha virt. eigenvalues --    3.25891   3.27257   3.28053   3.29104   3.29532
 Alpha virt. eigenvalues --    3.30167   3.31168   3.31653   3.33972   3.34654
 Alpha virt. eigenvalues --    3.35365   3.36845   3.37078   3.37435   3.38619
 Alpha virt. eigenvalues --    3.39880   3.40671   3.41244   3.41651   3.43131
 Alpha virt. eigenvalues --    3.44785   3.44952   3.45307   3.47139   3.47896
 Alpha virt. eigenvalues --    3.48813   3.49638   3.50289   3.51210   3.51731
 Alpha virt. eigenvalues --    3.54502   3.55685   3.56394   3.56513   3.57616
 Alpha virt. eigenvalues --    3.58378   3.58658   3.60477   3.62131   3.63972
 Alpha virt. eigenvalues --    3.65193   3.65373   3.66472   3.66878   3.67782
 Alpha virt. eigenvalues --    3.70096   3.71094   3.73397   3.74032   3.74772
 Alpha virt. eigenvalues --    3.76044   3.77637   3.81070   3.81786   3.84470
 Alpha virt. eigenvalues --    3.84826   3.86599   3.87295   3.92009   3.92351
 Alpha virt. eigenvalues --    3.95753   3.96504   3.98659   4.00021   4.01888
 Alpha virt. eigenvalues --    4.04341   4.07273   4.08936   4.10108   4.11522
 Alpha virt. eigenvalues --    4.12271   4.14496   4.15810   4.18342   4.20102
 Alpha virt. eigenvalues --    4.22453   4.23675   4.24947   4.25458   4.27106
 Alpha virt. eigenvalues --    4.27287   4.27543   4.28428   4.29445   4.31617
 Alpha virt. eigenvalues --    4.33595   4.35496   4.36710   4.38032   4.38987
 Alpha virt. eigenvalues --    4.39602   4.40624   4.43419   4.44632   4.47175
 Alpha virt. eigenvalues --    4.47822   4.48334   4.51071   4.51974   4.52743
 Alpha virt. eigenvalues --    4.54288   4.54496   4.58908   4.60157   4.62379
 Alpha virt. eigenvalues --    4.64445   4.66456   4.71320   4.72655   4.75367
 Alpha virt. eigenvalues --    4.77510   4.79023   4.81947   4.83364   4.85081
 Alpha virt. eigenvalues --    4.91262   4.94731   4.98373   4.99994   5.03206
 Alpha virt. eigenvalues --    5.05257   5.06147   5.08185   5.09254   5.10214
 Alpha virt. eigenvalues --    5.13608   5.13925   5.15597   5.17556   5.18769
 Alpha virt. eigenvalues --    5.20619   5.21700   5.24065   5.25032   5.28574
 Alpha virt. eigenvalues --    5.30168   5.31781   5.33783   5.36101   5.39692
 Alpha virt. eigenvalues --    5.42960   5.44918   5.47044   5.52216   5.55718
 Alpha virt. eigenvalues --    5.60758   5.63650   5.64944   5.70637   5.80065
 Alpha virt. eigenvalues --    5.81446   5.82461   5.83739   5.87706   5.94077
 Alpha virt. eigenvalues --    5.99924   6.06183   6.09827   6.13082   6.15247
 Alpha virt. eigenvalues --    6.21865   6.30841   6.34150   6.34887   6.40989
 Alpha virt. eigenvalues --    6.45080   6.46677   6.47325   6.54565   6.55436
 Alpha virt. eigenvalues --    6.64616   6.65269   6.76874   6.77793   6.80597
 Alpha virt. eigenvalues --    6.83039   6.88598   6.90122   6.99828   7.00341
 Alpha virt. eigenvalues --    7.02460   7.03704   7.09789   7.13550   7.17841
 Alpha virt. eigenvalues --    7.24975   7.25954   7.42845   7.46902   7.53359
 Alpha virt. eigenvalues --    7.56535  22.46977  22.48661  22.54659  22.65340
 Alpha virt. eigenvalues --   22.68166  22.72059  22.80989  22.92521  22.94925
 Alpha virt. eigenvalues --   23.53542  23.61049  32.48556  32.72959  44.04311
 Alpha virt. eigenvalues --   44.07365  44.26124  44.32986
          Condensed to atoms (all electrons):
               1          2          3          4          5          6
     1  C    5.428329   0.218610   0.002931   0.046198   0.442957  -0.043767
     2  C    0.218610   5.163402  -0.123067   0.059893  -0.041085   0.003252
     3  C    0.002931  -0.123067   5.219463   0.179916   0.006542  -0.023181
     4  C    0.046198   0.059893   0.179916   5.468697  -0.046434   0.447262
     5  H    0.442957  -0.041085   0.006542  -0.046434   0.475247  -0.003800
     6  H   -0.043767   0.003252  -0.023181   0.447262  -0.003800   0.485191
     7  C   -0.043228   0.315019   0.290370  -0.058797   0.003289   0.001214
     8  H    0.006641  -0.026257  -0.028208   0.008227  -0.000085  -0.000051
     9  H   -0.012608  -0.017374  -0.015858  -0.000790  -0.000156   0.000608
    10  C    0.098946   0.139149   0.049453  -0.055169   0.007759   0.006469
    11  H   -0.001424  -0.034893   0.006314   0.002155  -0.005294   0.000087
    12  C   -0.022841   0.058171   0.149020   0.140488  -0.003219  -0.037810
    13  H    0.003043   0.007870  -0.034121  -0.025857   0.000128  -0.004236
    14  H   -0.027351   0.402485   0.006692   0.001997   0.001159  -0.000074
    15  H    0.003364   0.003232   0.433699  -0.024873  -0.000078  -0.002515
    16  N   -0.017891  -0.032330   0.004903   0.031174   0.004819  -0.011147
    17  N    0.076148  -0.000967  -0.013121  -0.011634  -0.013501   0.001592
    18  C    0.005169   0.000386   0.003651  -0.000806  -0.000828   0.008284
    19  C   -0.035106  -0.009669  -0.002126   0.006011  -0.002733  -0.000233
    20  O   -0.005015  -0.003655   0.000858   0.001654   0.000041   0.000028
    21  O    0.000500   0.000292   0.002362  -0.009988  -0.000036  -0.000443
    22  O   -0.011093   0.002776  -0.001106   0.005790   0.004455   0.000082
    23  O    0.007270   0.000458   0.000080  -0.008585   0.000931   0.008419
    24  C   -0.000320  -0.000029   0.000166  -0.000385   0.000034  -0.000319
    25  H   -0.000055  -0.000010  -0.000021   0.000161  -0.000007  -0.000194
    26  H   -0.000022   0.000006  -0.000018   0.000182   0.000001   0.000302
    27  H    0.000347  -0.000012   0.000137   0.000067   0.000015  -0.001679
    28  C    0.000548  -0.001751   0.000026  -0.000190   0.000146  -0.000003
    29  H    0.000603  -0.000898   0.000052  -0.000022   0.000088   0.000000
    30  H   -0.000323   0.000077  -0.000016   0.000050   0.000006   0.000000
    31  H   -0.000156   0.000365   0.000012  -0.000079   0.000049  -0.000001
               7          8          9         10         11         12
     1  C   -0.043228   0.006641  -0.012608   0.098946  -0.001424  -0.022841
     2  C    0.315019  -0.026257  -0.017374   0.139149  -0.034893   0.058171
     3  C    0.290370  -0.028208  -0.015858   0.049453   0.006314   0.149020
     4  C   -0.058797   0.008227  -0.000790  -0.055169   0.002155   0.140488
     5  H    0.003289  -0.000085  -0.000156   0.007759  -0.005294  -0.003219
     6  H    0.001214  -0.000051   0.000608   0.006469   0.000087  -0.037810
     7  C    4.866455   0.403109   0.399836  -0.018192   0.002229  -0.014759
     8  H    0.403109   0.547783  -0.017685  -0.005154  -0.000167  -0.005219
     9  H    0.399836  -0.017685   0.482608   0.007185  -0.000024   0.001191
    10  C   -0.018192  -0.005154   0.007185   5.336054   0.432489   0.143264
    11  H    0.002229  -0.000167  -0.000024   0.432489   0.459638  -0.036172
    12  C   -0.014759  -0.005219   0.001191   0.143264  -0.036172   5.295922
    13  H    0.002072   0.000136  -0.000108  -0.047486  -0.002885   0.458252
    14  H   -0.014615  -0.001712  -0.000132  -0.018561  -0.002277   0.000255
    15  H   -0.018918  -0.001288  -0.001558   0.004727   0.000012  -0.033543
    16  N   -0.010001   0.000357   0.012536   0.014962   0.000017  -0.007628
    17  N    0.021440  -0.000142  -0.009305  -0.003202   0.000081   0.007857
    18  C   -0.005796   0.000051   0.002618   0.000695   0.000003  -0.005333
    19  C    0.009571  -0.000301   0.000233   0.007950   0.000101  -0.002471
    20  O   -0.005303  -0.000045   0.007058   0.001082  -0.000002  -0.000352
    21  O   -0.000935  -0.000003   0.000279  -0.000184   0.000000  -0.000237
    22  O    0.000058  -0.000031   0.000570  -0.000001   0.000195   0.000009
    23  O    0.000031   0.000000   0.000103  -0.000173  -0.000002   0.001793
    24  C   -0.000025   0.000000   0.000004   0.000105   0.000000  -0.000224
    25  H    0.000004   0.000000   0.000000   0.000004   0.000000  -0.000004
    26  H    0.000005   0.000000  -0.000002  -0.000003   0.000000   0.000025
    27  H   -0.000021   0.000000  -0.000002   0.000015   0.000000  -0.000296
    28  C    0.000202  -0.000003  -0.000117   0.000049  -0.000006   0.000018
    29  H    0.000151   0.000006  -0.000038   0.000078  -0.000013   0.000002
    30  H    0.000054  -0.000001  -0.000007  -0.000002   0.000001   0.000000
    31  H   -0.000039   0.000000  -0.000005   0.000015   0.000005   0.000001
              13         14         15         16         17         18
     1  C    0.003043  -0.027351   0.003364  -0.017891   0.076148   0.005169
     2  C    0.007870   0.402485   0.003232  -0.032330  -0.000967   0.000386
     3  C   -0.034121   0.006692   0.433699   0.004903  -0.013121   0.003651
     4  C   -0.025857   0.001997  -0.024873   0.031174  -0.011634  -0.000806
     5  H    0.000128   0.001159  -0.000078   0.004819  -0.013501  -0.000828
     6  H   -0.004236  -0.000074  -0.002515  -0.011147   0.001592   0.008284
     7  C    0.002072  -0.014615  -0.018918  -0.010001   0.021440  -0.005796
     8  H    0.000136  -0.001712  -0.001288   0.000357  -0.000142   0.000051
     9  H   -0.000108  -0.000132  -0.001558   0.012536  -0.009305   0.002618
    10  C   -0.047486  -0.018561   0.004727   0.014962  -0.003202   0.000695
    11  H   -0.002885  -0.002277   0.000012   0.000017   0.000081   0.000003
    12  C    0.458252   0.000255  -0.033543  -0.007628   0.007857  -0.005333
    13  H    0.487822   0.000035  -0.003636  -0.000013  -0.000058  -0.000046
    14  H    0.000035   0.493760  -0.000099   0.001382  -0.003247  -0.000061
    15  H   -0.003636  -0.000099   0.491263  -0.000982   0.000098   0.000946
    16  N   -0.000013   0.001382  -0.000982   7.007156   0.127217   0.423600
    17  N   -0.000058  -0.003247   0.000098   0.127217   6.690182  -0.028702
    18  C   -0.000046  -0.000061   0.000946   0.423600  -0.028702   4.264676
    19  C   -0.000008   0.005025   0.000032  -0.036522   0.355755  -0.006867
    20  O    0.000000  -0.000299   0.000011  -0.012779  -0.074481   0.000866
    21  O    0.000001  -0.000002   0.000979  -0.108394   0.007406   0.685262
    22  O    0.000003   0.004383  -0.000002   0.002914  -0.108949  -0.000216
    23  O   -0.000005  -0.000001  -0.000050  -0.094678  -0.026855   0.352786
    24  C   -0.000002   0.000001  -0.000006   0.004816   0.001268  -0.049309
    25  H    0.000000   0.000000   0.000000   0.000586   0.000085   0.005813
    26  H    0.000000   0.000000  -0.000003   0.000635  -0.000299  -0.014608
    27  H    0.000000   0.000000   0.000024  -0.000057  -0.000242   0.001306
    28  C    0.000000  -0.001090   0.000000   0.000031   0.006221  -0.000030
    29  H    0.000000  -0.001178   0.000000  -0.000084  -0.001020  -0.000013
    30  H    0.000000   0.000386   0.000000  -0.000045   0.000280  -0.000008
    31  H    0.000000  -0.000559   0.000000   0.000023   0.000758   0.000002
              19         20         21         22         23         24
     1  C   -0.035106  -0.005015   0.000500  -0.011093   0.007270  -0.000320
     2  C   -0.009669  -0.003655   0.000292   0.002776   0.000458  -0.000029
     3  C   -0.002126   0.000858   0.002362  -0.001106   0.000080   0.000166
     4  C    0.006011   0.001654  -0.009988   0.005790  -0.008585  -0.000385
     5  H   -0.002733   0.000041  -0.000036   0.004455   0.000931   0.000034
     6  H   -0.000233   0.000028  -0.000443   0.000082   0.008419  -0.000319
     7  C    0.009571  -0.005303  -0.000935   0.000058   0.000031  -0.000025
     8  H   -0.000301  -0.000045  -0.000003  -0.000031   0.000000   0.000000
     9  H    0.000233   0.007058   0.000279   0.000570   0.000103   0.000004
    10  C    0.007950   0.001082  -0.000184  -0.000001  -0.000173   0.000105
    11  H    0.000101  -0.000002   0.000000   0.000195  -0.000002   0.000000
    12  C   -0.002471  -0.000352  -0.000237   0.000009   0.001793  -0.000224
    13  H   -0.000008   0.000000   0.000001   0.000003  -0.000005  -0.000002
    14  H    0.005025  -0.000299  -0.000002   0.004383  -0.000001   0.000001
    15  H    0.000032   0.000011   0.000979  -0.000002  -0.000050  -0.000006
    16  N   -0.036522  -0.012779  -0.108394   0.002914  -0.094678   0.004816
    17  N    0.355755  -0.074481   0.007406  -0.108949  -0.026855   0.001268
    18  C   -0.006867   0.000866   0.685262  -0.000216   0.352786  -0.049309
    19  C    4.353671   0.667644  -0.000898   0.368745   0.000146   0.000045
    20  O    0.667644   7.840383   0.000013  -0.086878  -0.000040   0.000009
    21  O   -0.000898   0.000013   7.908618   0.000003  -0.099298   0.000437
    22  O    0.368745  -0.086878   0.000003   7.990031  -0.000133  -0.000004
    23  O    0.000146  -0.000040  -0.099298  -0.000133   8.015813   0.232082
    24  C    0.000045   0.000009   0.000437  -0.000004   0.232082   4.780201
    25  H    0.000036   0.000000   0.002364  -0.000001  -0.033532   0.396223
    26  H   -0.000040  -0.000001   0.005242   0.000000  -0.031506   0.425167
    27  H    0.000035   0.000000   0.004966   0.000000  -0.043235   0.413243
    28  C   -0.043462   0.002848  -0.000002   0.217828  -0.000001   0.000000
    29  H   -0.000141   0.004978   0.000000  -0.041362   0.000000   0.000000
    30  H   -0.012390   0.003414   0.000000  -0.028571   0.000000   0.000000
    31  H    0.004164   0.002113   0.000000  -0.030746   0.000001   0.000000
              25         26         27         28         29         30
     1  C   -0.000055  -0.000022   0.000347   0.000548   0.000603  -0.000323
     2  C   -0.000010   0.000006  -0.000012  -0.001751  -0.000898   0.000077
     3  C   -0.000021  -0.000018   0.000137   0.000026   0.000052  -0.000016
     4  C    0.000161   0.000182   0.000067  -0.000190  -0.000022   0.000050
     5  H   -0.000007   0.000001   0.000015   0.000146   0.000088   0.000006
     6  H   -0.000194   0.000302  -0.001679  -0.000003   0.000000   0.000000
     7  C    0.000004   0.000005  -0.000021   0.000202   0.000151   0.000054
     8  H    0.000000   0.000000   0.000000  -0.000003   0.000006  -0.000001
     9  H    0.000000  -0.000002  -0.000002  -0.000117  -0.000038  -0.000007
    10  C    0.000004  -0.000003   0.000015   0.000049   0.000078  -0.000002
    11  H    0.000000   0.000000   0.000000  -0.000006  -0.000013   0.000001
    12  C   -0.000004   0.000025  -0.000296   0.000018   0.000002   0.000000
    13  H    0.000000   0.000000   0.000000   0.000000   0.000000   0.000000
    14  H    0.000000   0.000000   0.000000  -0.001090  -0.001178   0.000386
    15  H    0.000000  -0.000003   0.000024   0.000000   0.000000   0.000000
    16  N    0.000586   0.000635  -0.000057   0.000031  -0.000084  -0.000045
    17  N    0.000085  -0.000299  -0.000242   0.006221  -0.001020   0.000280
    18  C    0.005813  -0.014608   0.001306  -0.000030  -0.000013  -0.000008
    19  C    0.000036  -0.000040   0.000035  -0.043462  -0.000141  -0.012390
    20  O    0.000000  -0.000001   0.000000   0.002848   0.004978   0.003414
    21  O    0.002364   0.005242   0.004966  -0.000002   0.000000   0.000000
    22  O   -0.000001   0.000000   0.000000   0.217828  -0.041362  -0.028571
    23  O   -0.033532  -0.031506  -0.043235  -0.000001   0.000000   0.000000
    24  C    0.396223   0.425167   0.413243   0.000000   0.000000   0.000000
    25  H    0.542121  -0.022628  -0.026141   0.000000   0.000000   0.000000
    26  H   -0.022628   0.535191  -0.037974   0.000000   0.000000   0.000000
    27  H   -0.026141  -0.037974   0.563532   0.000000   0.000000   0.000000
    28  C    0.000000   0.000000   0.000000   4.791859   0.414276   0.421524
    29  H    0.000000   0.000000   0.000000   0.414276   0.547086  -0.034663
    30  H    0.000000   0.000000   0.000000   0.421524  -0.034663   0.522755
    31  H    0.000000   0.000000   0.000000   0.398457  -0.024542  -0.020408
              31
     1  C   -0.000156
     2  C    0.000365
     3  C    0.000012
     4  C   -0.000079
     5  H    0.000049
     6  H   -0.000001
     7  C   -0.000039
     8  H    0.000000
     9  H   -0.000005
    10  C    0.000015
    11  H    0.000005
    12  C    0.000001
    13  H    0.000000
    14  H   -0.000559
    15  H    0.000000
    16  N    0.000023
    17  N    0.000758
    18  C    0.000002
    19  C    0.004164
    20  O    0.002113
    21  O    0.000000
    22  O   -0.030746
    23  O    0.000001
    24  C    0.000000
    25  H    0.000000
    26  H    0.000000
    27  H    0.000000
    28  C    0.398457
    29  H   -0.024542
    30  H   -0.020408
    31  H    0.528215
 Mulliken charges:
               1
     1  C   -0.120402
     2  C   -0.083447
     3  C   -0.115806
     4  C   -0.156316
     5  H    0.169589
     6  H    0.166660
     7  C   -0.124482
     8  H    0.120042
     9  H    0.160940
    10  C   -0.102321
    11  H    0.179832
    12  C   -0.086162
    13  H    0.159103
    14  H    0.153698
    15  H    0.149166
    16  N   -0.304578
    17  N   -0.000662
    18  C    0.356508
    19  C    0.373803
    20  O   -0.344151
    21  O   -0.398304
    22  O   -0.288749
    23  O   -0.281816
    24  C   -0.203178
    25  H    0.135197
    26  H    0.140348
    27  H    0.125972
    28  C   -0.207378
    29  H    0.136653
    30  H    0.147885
    31  H    0.142355
 Sum of Mulliken charges =   0.00000
 Mulliken charges with hydrogens summed into heavy atoms:
               1
     1  C    0.049187
     2  C    0.070251
     3  C    0.033360
     4  C    0.010344
     7  C    0.156500
    10  C    0.077511
    12  C    0.072941
    16  N   -0.304578
    17  N   -0.000662
    18  C    0.356508
    19  C    0.373803
    20  O   -0.344151
    21  O   -0.398304
    22  O   -0.288749
    23  O   -0.281816
    24  C    0.198340
    28  C    0.219515
 APT charges:
               1
     1  C   -0.528826
     2  C   -0.425738
     3  C   -0.565293
     4  C   -0.201370
     5  H    0.418287
     6  H    0.413096
     7  C   -0.748439
     8  H    0.650475
     9  H    0.151319
    10  C   -0.341496
    11  H    0.691812
    12  C   -0.832497
    13  H    0.797207
    14  H    0.452588
    15  H    0.586002
    16  N   -0.359641
    17  N   -0.072797
    18  C   -0.297276
    19  C   -0.155811
    20  O    0.065263
    21  O    0.166722
    22  O   -0.095247
    23  O   -0.122414
    24  C   -1.355229
    25  H    0.533121
    26  H    0.607963
    27  H    0.376889
    28  C   -1.340811
    29  H    0.354492
    30  H    0.550206
    31  H    0.627442
 Sum of APT charges =   0.00000
 APT charges with hydrogens summed into heavy atoms:
               1
     1  C   -0.110539
     2  C    0.026850
     3  C    0.020709
     4  C    0.211727
     7  C    0.053355
    10  C    0.350316
    12  C   -0.035290
    16  N   -0.359641
    17  N   -0.072797
    18  C   -0.297276
    19  C   -0.155811
    20  O    0.065263
    21  O    0.166722
    22  O   -0.095247
    23  O   -0.122414
    24  C    0.162743
    28  C    0.191330
 Electronic spatial extent (au):  <R**2>=           3711.3658
 Charge=              0.0000 electrons
 Dipole moment (field-independent basis, Debye):
    X=              4.4153    Y=              5.7464    Z=             -6.2702  Tot=              9.5829
 Quadrupole moment (field-independent basis, Debye-Ang):
   XX=            -88.2663   YY=            -87.1870   ZZ=           -103.5750
   XY=             -0.7628   XZ=              4.7885   YZ=              4.0233
 Traceless Quadrupole moment (field-independent basis, Debye-Ang):
   XX=              4.7431   YY=              5.8224   ZZ=            -10.5655
   XY=             -0.7628   XZ=              4.7885   YZ=              4.0233
 Octapole moment (field-independent basis, Debye-Ang**2):
  XXX=             35.8337  YYY=              2.9616  ZZZ=            -21.3347  XYY=              1.7258
  XXY=            -21.3901  XXZ=            -50.4990  XZZ=              8.5042  YZZ=             15.2692
  YYZ=            -17.0910  XYZ=             -0.4721
 Hexadecapole moment (field-independent basis, Debye-Ang**3):
 XXXX=          -2243.6504 YYYY=          -1651.6806 ZZZZ=           -588.3608 XXXY=            -43.8744
 XXXZ=             90.8563 YYYX=            -42.5699 YYYZ=             -9.2778 ZZZX=              5.9264
 ZZZY=             21.0231 XXYY=           -619.6088 XXZZ=           -515.6986 YYZZ=           -385.9082
 XXYZ=             45.7134 YYXZ=            -31.6636 ZZXY=             17.4030
 N-N= 1.311855246751D+03 E-N=-4.582780603204D+03  KE= 8.341062072745D+02
  Exact polarizability:   0.000   0.000   0.000   0.000   0.000   0.000
 Approx polarizability: 198.338  39.396 229.705 -26.924 -36.325 178.858
   1 Symmetry operations used in ECPInt.
 ECPInt:  NShTT=   29646 NPrTT=   90516 LenC2=   27391 LenP2D=   61362.
 LDataN:  DoStor=T MaxTD1= 8 Len=  415
 D2PCM: PCM CHGder 2nd derivatives, FixD1E=F FixD2E=F DoIter=F DoCFld=F I1PDM=0
 Calling FoFJK, ICntrl=    100147 FMM=F ISym2X=0 I1Cent= 0 IOpClX= 0 NMat=1 NMatS=1 NMatT=0.
 ***** Axes restored to original set *****
 -------------------------------------------------------------------
 Center     Atomic                   Forces (Hartrees/Bohr)
 Number     Number              X              Y              Z
 -------------------------------------------------------------------
      1        6           0.000345332    0.000554816   -0.000178623
      2        6          -0.000060406   -0.000149672    0.000009737
      3        6          -0.000025754   -0.000010301    0.000063521
      4        6          -0.000090350    0.000206787   -0.000028429
      5        1           0.000011191   -0.000039465    0.000041123
      6        1          -0.000010341   -0.000063626    0.000062678
      7        6           0.000037339   -0.000015938    0.000040833
      8        1          -0.000013715   -0.000000614    0.000006356
      9        1          -0.000038499   -0.000044922    0.000008528
     10        6           0.000100774   -0.000181122   -0.000157019
     11        1          -0.000015957    0.000032444    0.000045647
     12        6          -0.000280686   -0.000148597   -0.000007553
     13        1          -0.000002755    0.000024253    0.000072392
     14        1          -0.000003959   -0.000006402    0.000016955
     15        1          -0.000006557   -0.000036423    0.000032123
     16        7           0.000491516   -0.000119443    0.000008388
     17        7          -0.000404383   -0.000214552    0.000016821
     18        6          -0.000785583    0.000161979    0.000288837
     19        6           0.000153588   -0.000027913    0.000348701
     20        8          -0.000043021    0.000070842   -0.000193897
     21        8           0.000461072   -0.000134527   -0.000382553
     22        8          -0.000013018    0.000052919   -0.000134341
     23        8           0.000146170   -0.000044086   -0.000179897
     24        6           0.000092851    0.000045444    0.000141113
     25        1           0.000051971   -0.000009925   -0.000040698
     26        1           0.000009210   -0.000010186    0.000035384
     27        1           0.000005041   -0.000026863    0.000049720
     28        6          -0.000069305    0.000046335    0.000078229
     29        1          -0.000020569    0.000015123    0.000009685
     30        1          -0.000003463    0.000018632   -0.000010081
     31        1          -0.000017735    0.000055005   -0.000063680
 -------------------------------------------------------------------
 Cartesian Forces:  Max     0.000785583 RMS     0.000168448
 FormGI is forming the generalized inverse of G from B-inverse, IUseBI=4.

 GradGradGradGradGradGradGradGradGradGradGradGradGradGradGradGradGradGrad
 Berny optimization.
 Internal  Forces:  Max     0.000603257 RMS     0.000083882
 Search for a saddle point.
 Step number   1 out of a maximum of  186
 All quantities printed in internal units (Hartrees-Bohrs-Radians)
 Swapping is turned off.
 Second derivative matrix not updated -- analytic derivatives used.
 ITU=  0
     Eigenvalues ---   -0.04725   0.00354   0.00364   0.00403   0.00570
     Eigenvalues ---    0.00689   0.00856   0.01011   0.01031   0.01307
     Eigenvalues ---    0.01406   0.01443   0.01572   0.01842   0.01950
     Eigenvalues ---    0.02301   0.02746   0.03043   0.03449   0.03608
     Eigenvalues ---    0.03747   0.03763   0.04121   0.04803   0.04932
     Eigenvalues ---    0.05337   0.05788   0.05924   0.06275   0.06563
     Eigenvalues ---    0.07265   0.08243   0.08365   0.08576   0.08599
     Eigenvalues ---    0.08965   0.09591   0.10732   0.11742   0.13147
     Eigenvalues ---    0.13248   0.14520   0.14928   0.16496   0.17976
     Eigenvalues ---    0.18705   0.18988   0.19100   0.19307   0.19488
     Eigenvalues ---    0.19843   0.20650   0.21948   0.22278   0.23021
     Eigenvalues ---    0.24430   0.24894   0.25375   0.26671   0.27723
     Eigenvalues ---    0.29367   0.30454   0.30926   0.32092   0.34042
     Eigenvalues ---    0.34276   0.34469   0.34498   0.34672   0.35046
     Eigenvalues ---    0.35236   0.35295   0.36744   0.37267   0.37475
     Eigenvalues ---    0.37551   0.37769   0.37857   0.38626   0.38756
     Eigenvalues ---    0.41635   0.46642   0.48816   0.50168   0.62469
     Eigenvalues ---    0.86234   0.89840
 Eigenvectors required to have negative eigenvalues:
                          R5        R4        D77       R20       A43
   1                   -0.75203   0.29284   0.19428   0.14557   0.12316
                          D4        D10       D81       D12       R18
   1                   -0.12153   0.10987   0.10799   0.10687  -0.09731
 RFO step:  Lambda0=3.958202730D-06 Lambda=-4.34994125D-06.
 Linear search not attempted -- option 19 set.
 Iteration  1 RMS(Cart)=  0.00256443 RMS(Int)=  0.00000262
 Iteration  2 RMS(Cart)=  0.00000331 RMS(Int)=  0.00000031
 Iteration  3 RMS(Cart)=  0.00000000 RMS(Int)=  0.00000031
 Variable       Old X    -DE/DX   Delta X   Delta X   Delta X     New X
                                 (Linear)    (Quad)   (Total)
    R1        2.94042  -0.00013   0.00000   0.00027   0.00027   2.94070
    R2        2.86876   0.00008   0.00000   0.00022   0.00022   2.86898
    R3        2.03617  -0.00002   0.00000   0.00003   0.00003   2.03620
    R4        3.44677  -0.00018   0.00000   0.00269   0.00269   3.44946
    R5        3.68722   0.00016   0.00000  -0.00697  -0.00697   3.68026
    R6        2.87173   0.00002   0.00000   0.00006   0.00006   2.87179
    R7        2.72754   0.00004   0.00000  -0.00009  -0.00009   2.72745
    R8        2.04258   0.00001   0.00000   0.00000   0.00000   2.04257
    R9        2.83458  -0.00003   0.00000  -0.00001  -0.00001   2.83456
   R10        2.85829   0.00003   0.00000  -0.00001  -0.00001   2.85827
   R11        2.83177   0.00003   0.00000   0.00013   0.00013   2.83190
   R12        2.03790   0.00000   0.00000  -0.00002  -0.00002   2.03789
   R13        2.03505   0.00000   0.00000  -0.00006  -0.00006   2.03499
   R14        2.90631  -0.00012   0.00000  -0.00058  -0.00058   2.90574
   R15        2.06100   0.00000   0.00000  -0.00003  -0.00003   2.06096
   R16        2.05724   0.00004   0.00000   0.00007   0.00007   2.05731
   R17        2.03879  -0.00003   0.00000  -0.00002  -0.00002   2.03877
   R18        2.79687   0.00020   0.00000   0.00003   0.00003   2.79690
   R19        2.03487   0.00000   0.00000  -0.00001  -0.00001   2.03486
   R20        2.44269  -0.00031   0.00000   0.00072   0.00072   2.44342
   R21        2.63319   0.00007   0.00000  -0.00018  -0.00018   2.63301
   R22        2.68692  -0.00008   0.00000  -0.00045  -0.00045   2.68647
   R23        2.28379  -0.00060   0.00000  -0.00067  -0.00067   2.28312
[...]
 Alpha virt. eigenvalues --    4.22487   4.23703   4.24935   4.25493   4.27111
 Alpha virt. eigenvalues --    4.27345   4.27555   4.28455   4.29468   4.31629
 Alpha virt. eigenvalues --    4.33633   4.35480   4.36697   4.38060   4.38989
 Alpha virt. eigenvalues --    4.39625   4.40601   4.43445   4.44613   4.47195
 Alpha virt. eigenvalues --    4.47852   4.48358   4.51118   4.51994   4.52766
 Alpha virt. eigenvalues --    4.54308   4.54519   4.58817   4.60134   4.62519
 Alpha virt. eigenvalues --    4.64590   4.66473   4.71335   4.72604   4.75368
 Alpha virt. eigenvalues --    4.77550   4.78966   4.81997   4.83461   4.85119
 Alpha virt. eigenvalues --    4.91237   4.94730   4.98386   5.00029   5.03250
 Alpha virt. eigenvalues --    5.05265   5.06199   5.08233   5.09308   5.10212
 Alpha virt. eigenvalues --    5.13634   5.13953   5.15618   5.17576   5.18863
 Alpha virt. eigenvalues --    5.20676   5.21700   5.24091   5.25049   5.28633
 Alpha virt. eigenvalues --    5.30223   5.31818   5.33848   5.36163   5.39750
 Alpha virt. eigenvalues --    5.43018   5.44982   5.47105   5.52254   5.55845
 Alpha virt. eigenvalues --    5.60816   5.63662   5.64974   5.70698   5.80098
 Alpha virt. eigenvalues --    5.81512   5.82534   5.83754   5.87768   5.94148
 Alpha virt. eigenvalues --    6.00007   6.06232   6.09808   6.13056   6.15279
 Alpha virt. eigenvalues --    6.21867   6.30896   6.34179   6.34918   6.41049
 Alpha virt. eigenvalues --    6.45102   6.46714   6.47355   6.54649   6.55487
 Alpha virt. eigenvalues --    6.64653   6.65322   6.76928   6.77868   6.80650
 Alpha virt. eigenvalues --    6.83095   6.88610   6.90134   6.99832   7.00355
 Alpha virt. eigenvalues --    7.02486   7.03732   7.09833   7.13580   7.17844
 Alpha virt. eigenvalues --    7.25005   7.25985   7.42864   7.46910   7.53382
 Alpha virt. eigenvalues --    7.56583  22.47015  22.48721  22.54693  22.65379
 Alpha virt. eigenvalues --   22.68182  22.72101  22.81004  22.92539  22.94926
 Alpha virt. eigenvalues --   23.53593  23.61084  32.48607  32.73149  44.04377
 Alpha virt. eigenvalues --   44.07376  44.26147  44.33011
          Condensed to atoms (all electrons):
               1          2          3          4          5          6
     1  C    5.427418   0.218596   0.002630   0.045723   0.443043  -0.043744
     2  C    0.218596   5.163550  -0.122585   0.059638  -0.041154   0.003248
     3  C    0.002630  -0.122585   5.219756   0.180447   0.006539  -0.023211
     4  C    0.045723   0.059638   0.180447   5.468958  -0.046553   0.447274
     5  H    0.443043  -0.041154   0.006539  -0.046553   0.475602  -0.003819
     6  H   -0.043744   0.003248  -0.023211   0.447274  -0.003819   0.485138
     7  C   -0.043185   0.315039   0.290008  -0.058784   0.003289   0.001210
     8  H    0.006657  -0.026326  -0.028284   0.008216  -0.000085  -0.000052
     9  H   -0.012673  -0.017344  -0.015795  -0.000759  -0.000159   0.000613
    10  C    0.097310   0.139833   0.049089  -0.053860   0.007742   0.006477
    11  H   -0.001377  -0.034920   0.006304   0.002141  -0.005279   0.000087
    12  C   -0.022116   0.057934   0.148916   0.139326  -0.003229  -0.037835
    13  H    0.003050   0.007883  -0.034110  -0.025874   0.000127  -0.004227
    14  H   -0.027298   0.402462   0.006690   0.002022   0.001163  -0.000073
    15  H    0.003359   0.003203   0.433668  -0.024839  -0.000078  -0.002515
    16  N   -0.017583  -0.032454   0.004801   0.031190   0.004851  -0.011200
    17  N    0.076648  -0.000878  -0.013138  -0.011364  -0.013653   0.001637
    18  C    0.005228   0.000365   0.003667  -0.000873  -0.000834   0.008284
    19  C   -0.035416  -0.009837  -0.002122   0.006039  -0.002715  -0.000242
    20  O   -0.004967  -0.003674   0.000860   0.001657   0.000038   0.000028
    21  O    0.000503   0.000291   0.002375  -0.010025  -0.000037  -0.000445
    22  O   -0.011018   0.002694  -0.001111   0.005807   0.004448   0.000083
    23  O    0.007367   0.000465   0.000056  -0.008620   0.000934   0.008438
    24  C   -0.000327  -0.000029   0.000169  -0.000384   0.000035  -0.000322
    25  H   -0.000056  -0.000010  -0.000022   0.000164  -0.000007  -0.000198
    26  H   -0.000023   0.000006  -0.000019   0.000184   0.000001   0.000305
    27  H    0.000354  -0.000012   0.000141   0.000060   0.000015  -0.001697
    28  C    0.000564  -0.001723   0.000025  -0.000192   0.000147  -0.000003
    29  H    0.000609  -0.000891   0.000052  -0.000021   0.000088   0.000000
    30  H   -0.000326   0.000075  -0.000016   0.000050   0.000006   0.000000
    31  H   -0.000162   0.000369   0.000012  -0.000079   0.000051  -0.000001
               7          8          9         10         11         12
     1  C   -0.043185   0.006657  -0.012673   0.097310  -0.001377  -0.022116
     2  C    0.315039  -0.026326  -0.017344   0.139833  -0.034920   0.057934
     3  C    0.290008  -0.028284  -0.015795   0.049089   0.006304   0.148916
     4  C   -0.058784   0.008216  -0.000759  -0.053860   0.002141   0.139326
     5  H    0.003289  -0.000085  -0.000159   0.007742  -0.005279  -0.003229
     6  H    0.001210  -0.000052   0.000613   0.006477   0.000087  -0.037835
     7  C    4.866613   0.403185   0.399759  -0.018289   0.002227  -0.014506
     8  H    0.403185   0.547713  -0.017661  -0.005145  -0.000168  -0.005202
     9  H    0.399759  -0.017661   0.482432   0.007203  -0.000023   0.001146
    10  C   -0.018289  -0.005145   0.007203   5.335753   0.432459   0.143092
    11  H    0.002227  -0.000168  -0.000023   0.432459   0.459410  -0.036144
    12  C   -0.014506  -0.005202   0.001146   0.143092  -0.036144   5.296555
    13  H    0.002068   0.000136  -0.000109  -0.047505  -0.002880   0.458293
    14  H   -0.014625  -0.001707  -0.000126  -0.018596  -0.002267   0.000242
    15  H   -0.018870  -0.001293  -0.001553   0.004737   0.000011  -0.033525
    16  N   -0.010207   0.000366   0.012634   0.015034   0.000018  -0.007714
    17  N    0.021653  -0.000142  -0.009376  -0.003163   0.000081   0.007830
    18  C   -0.005809   0.000052   0.002629   0.000697   0.000003  -0.005356
    19  C    0.009652  -0.000309   0.000268   0.007962   0.000101  -0.002476
    20  O   -0.005287  -0.000046   0.007028   0.001076  -0.000002  -0.000351
    21  O   -0.000933  -0.000003   0.000280  -0.000185   0.000000  -0.000237
    22  O    0.000056  -0.000032   0.000571   0.000013   0.000197   0.000011
    23  O    0.000033   0.000000   0.000105  -0.000178  -0.000002   0.001822
    24  C   -0.000025   0.000000   0.000004   0.000107   0.000000  -0.000227
    25  H    0.000004   0.000000   0.000000   0.000004   0.000000  -0.000004
    26  H    0.000005   0.000000  -0.000002  -0.000003   0.000000   0.000025
    27  H   -0.000021   0.000000  -0.000002   0.000015   0.000000  -0.000300
    28  C    0.000202  -0.000003  -0.000118   0.000043  -0.000006   0.000020
    29  H    0.000154   0.000006  -0.000038   0.000077  -0.000013   0.000002
    30  H    0.000053  -0.000001  -0.000007  -0.000002   0.000001   0.000000
    31  H   -0.000039   0.000000  -0.000005   0.000015   0.000005   0.000001
              13         14         15         16         17         18
     1  C    0.003050  -0.027298   0.003359  -0.017583   0.076648   0.005228
     2  C    0.007883   0.402462   0.003203  -0.032454  -0.000878   0.000365
     3  C   -0.034110   0.006690   0.433668   0.004801  -0.013138   0.003667
     4  C   -0.025874   0.002022  -0.024839   0.031190  -0.011364  -0.000873
     5  H    0.000127   0.001163  -0.000078   0.004851  -0.013653  -0.000834
     6  H   -0.004227  -0.000073  -0.002515  -0.011200   0.001637   0.008284
     7  C    0.002068  -0.014625  -0.018870  -0.010207   0.021653  -0.005809
     8  H    0.000136  -0.001707  -0.001293   0.000366  -0.000142   0.000052
     9  H   -0.000109  -0.000126  -0.001553   0.012634  -0.009376   0.002629
    10  C   -0.047505  -0.018596   0.004737   0.015034  -0.003163   0.000697
    11  H   -0.002880  -0.002267   0.000011   0.000018   0.000081   0.000003
    12  C    0.458293   0.000242  -0.033525  -0.007714   0.007830  -0.005356
    13  H    0.487674   0.000034  -0.003628  -0.000015  -0.000059  -0.000047
    14  H    0.000034   0.493490  -0.000099   0.001396  -0.003274  -0.000061
    15  H   -0.003628  -0.000099   0.491122  -0.000987   0.000098   0.000961
    16  N   -0.000015   0.001396  -0.000987   7.009369   0.126559   0.424190
    17  N   -0.000059  -0.003274   0.000098   0.126559   6.689433  -0.028922
    18  C   -0.000047  -0.000061   0.000961   0.424190  -0.028922   4.265068
    19  C   -0.000008   0.005036   0.000032  -0.036998   0.356088  -0.006868
    20  O    0.000000  -0.000295   0.000011  -0.012864  -0.074430   0.000863
    21  O    0.000001  -0.000002   0.000989  -0.108465   0.007421   0.685514
    22  O    0.000003   0.004441  -0.000002   0.002917  -0.109044  -0.000215
    23  O   -0.000005  -0.000001  -0.000051  -0.094819  -0.027000   0.352365
    24  C   -0.000002   0.000001  -0.000007   0.004824   0.001276  -0.049442
    25  H    0.000000   0.000000   0.000000   0.000586   0.000084   0.005832
    26  H    0.000000   0.000000  -0.000004   0.000639  -0.000302  -0.014673
    27  H    0.000000   0.000000   0.000025  -0.000056  -0.000243   0.001333
    28  C    0.000000  -0.001114   0.000000   0.000028   0.006223  -0.000031
    29  H    0.000000  -0.001198   0.000000  -0.000084  -0.001023  -0.000013
    30  H    0.000000   0.000390   0.000000  -0.000045   0.000283  -0.000008
    31  H    0.000000  -0.000564   0.000000   0.000023   0.000759   0.000002
              19         20         21         22         23         24
     1  C   -0.035416  -0.004967   0.000503  -0.011018   0.007367  -0.000327
     2  C   -0.009837  -0.003674   0.000291   0.002694   0.000465  -0.000029
     3  C   -0.002122   0.000860   0.002375  -0.001111   0.000056   0.000169
     4  C    0.006039   0.001657  -0.010025   0.005807  -0.008620  -0.000384
     5  H   -0.002715   0.000038  -0.000037   0.004448   0.000934   0.000035
     6  H   -0.000242   0.000028  -0.000445   0.000083   0.008438  -0.000322
     7  C    0.009652  -0.005287  -0.000933   0.000056   0.000033  -0.000025
     8  H   -0.000309  -0.000046  -0.000003  -0.000032   0.000000   0.000000
     9  H    0.000268   0.007028   0.000280   0.000571   0.000105   0.000004
    10  C    0.007962   0.001076  -0.000185   0.000013  -0.000178   0.000107
    11  H    0.000101  -0.000002   0.000000   0.000197  -0.000002   0.000000
    12  C   -0.002476  -0.000351  -0.000237   0.000011   0.001822  -0.000227
    13  H   -0.000008   0.000000   0.000001   0.000003  -0.000005  -0.000002
    14  H    0.005036  -0.000295  -0.000002   0.004441  -0.000001   0.000001
    15  H    0.000032   0.000011   0.000989  -0.000002  -0.000051  -0.000007
    16  N   -0.036998  -0.012864  -0.108465   0.002917  -0.094819   0.004824
    17  N    0.356088  -0.074430   0.007421  -0.109044  -0.027000   0.001276
    18  C   -0.006868   0.000863   0.685514  -0.000215   0.352365  -0.049442
    19  C    4.354537   0.667755  -0.000897   0.368285   0.000151   0.000044
    20  O    0.667755   7.840212   0.000013  -0.086851  -0.000041   0.000009
    21  O   -0.000897   0.000013   7.908335   0.000003  -0.099256   0.000325
    22  O    0.368285  -0.086851   0.000003   7.990972  -0.000134  -0.000004
    23  O    0.000151  -0.000041  -0.099256  -0.000134   8.016840   0.232106
    24  C    0.000044   0.000009   0.000325  -0.000004   0.232106   4.780351
    25  H    0.000036   0.000000   0.002376  -0.000001  -0.033552   0.396173
    26  H   -0.000040  -0.000001   0.005237   0.000000  -0.031499   0.425243
    27  H    0.000035   0.000000   0.004982   0.000000  -0.043328   0.413296
    28  C   -0.043532   0.002811  -0.000002   0.217786  -0.000001   0.000000
    29  H   -0.000190   0.004993   0.000000  -0.041377   0.000000   0.000000
    30  H   -0.012392   0.003389   0.000000  -0.028575   0.000000   0.000000
    31  H    0.004189   0.002123   0.000000  -0.030790   0.000001   0.000000
              25         26         27         28         29         30
     1  C   -0.000056  -0.000023   0.000354   0.000564   0.000609  -0.000326
     2  C   -0.000010   0.000006  -0.000012  -0.001723  -0.000891   0.000075
     3  C   -0.000022  -0.000019   0.000141   0.000025   0.000052  -0.000016
     4  C    0.000164   0.000184   0.000060  -0.000192  -0.000021   0.000050
     5  H   -0.000007   0.000001   0.000015   0.000147   0.000088   0.000006
     6  H   -0.000198   0.000305  -0.001697  -0.000003   0.000000   0.000000
     7  C    0.000004   0.000005  -0.000021   0.000202   0.000154   0.000053
     8  H    0.000000   0.000000   0.000000  -0.000003   0.000006  -0.000001
     9  H    0.000000  -0.000002  -0.000002  -0.000118  -0.000038  -0.000007
    10  C    0.000004  -0.000003   0.000015   0.000043   0.000077  -0.000002
    11  H    0.000000   0.000000   0.000000  -0.000006  -0.000013   0.000001
    12  C   -0.000004   0.000025  -0.000300   0.000020   0.000002   0.000000
    13  H    0.000000   0.000000   0.000000   0.000000   0.000000   0.000000
    14  H    0.000000   0.000000   0.000000  -0.001114  -0.001198   0.000390
    15  H    0.000000  -0.000004   0.000025   0.000000   0.000000   0.000000
    16  N    0.000586   0.000639  -0.000056   0.000028  -0.000084  -0.000045
    17  N    0.000084  -0.000302  -0.000243   0.006223  -0.001023   0.000283
    18  C    0.005832  -0.014673   0.001333  -0.000031  -0.000013  -0.000008
    19  C    0.000036  -0.000040   0.000035  -0.043532  -0.000190  -0.012392
    20  O    0.000000  -0.000001   0.000000   0.002811   0.004993   0.003389
    21  O    0.002376   0.005237   0.004982  -0.000002   0.000000   0.000000
    22  O   -0.000001   0.000000   0.000000   0.217786  -0.041377  -0.028575
    23  O   -0.033552  -0.031499  -0.043328  -0.000001   0.000000   0.000000
    24  C    0.396173   0.425243   0.413296   0.000000   0.000000   0.000000
    25  H    0.542315  -0.022612  -0.026157   0.000000   0.000000   0.000000
    26  H   -0.022612   0.535309  -0.038032   0.000000   0.000000   0.000000
    27  H   -0.026157  -0.038032   0.563759   0.000000   0.000000   0.000000
    28  C    0.000000   0.000000   0.000000   4.791916   0.414380   0.421538
    29  H    0.000000   0.000000   0.000000   0.414380   0.547009  -0.034658
    30  H    0.000000   0.000000   0.000000   0.421538  -0.034658   0.522829
    31  H    0.000000   0.000000   0.000000   0.398431  -0.024541  -0.020405
              31
     1  C   -0.000162
     2  C    0.000369
     3  C    0.000012
     4  C   -0.000079
     5  H    0.000051
     6  H   -0.000001
     7  C   -0.000039
     8  H    0.000000
     9  H   -0.000005
    10  C    0.000015
    11  H    0.000005
    12  C    0.000001
    13  H    0.000000
    14  H   -0.000564
    15  H    0.000000
    16  N    0.000023
    17  N    0.000759
    18  C    0.000002
    19  C    0.004189
    20  O    0.002123
    21  O    0.000000
    22  O   -0.030790
    23  O    0.000001
    24  C    0.000000
    25  H    0.000000
    26  H    0.000000
    27  H    0.000000
    28  C    0.398431
    29  H   -0.024541
    30  H   -0.020405
    31  H    0.528375
 Mulliken charges:
               1
     1  C   -0.118790
     2  C   -0.083816
     3  C   -0.115794
     4  C   -0.156671
     5  H    0.169483
     6  H    0.166762
     7  C   -0.124629
     8  H    0.120127
     9  H    0.161077
    10  C   -0.101814
    11  H    0.180032
    12  C   -0.085994
    13  H    0.159199
    14  H    0.153932
    15  H    0.149235
    16  N   -0.305936
    17  N   -0.000062
    18  C    0.356098
    19  C    0.373831
    20  O   -0.344059
    21  O   -0.398160
    22  O   -0.289132
    23  O   -0.282196
    24  C   -0.203193
    25  H    0.135044
    26  H    0.140254
    27  H    0.125834
    28  C   -0.207390
    29  H    0.136678
    30  H    0.147819
    31  H    0.142230
 Sum of Mulliken charges =   0.00000
 Mulliken charges with hydrogens summed into heavy atoms:
               1
     1  C    0.050693
     2  C    0.070116
     3  C    0.033441
     4  C    0.010091
     7  C    0.156575
    10  C    0.078218
    12  C    0.073206
    16  N   -0.305936
    17  N   -0.000062
    18  C    0.356098
    19  C    0.373831
    20  O   -0.344059
    21  O   -0.398160
    22  O   -0.289132
    23  O   -0.282196
    24  C    0.197940
    28  C    0.219336
 Electronic spatial extent (au):  <R**2>=           3708.4736
 Charge=              0.0000 electrons
 Dipole moment (field-independent basis, Debye):
    X=              4.4193    Y=              5.7896    Z=             -6.2695  Tot=              9.6102
 Quadrupole moment (field-independent basis, Debye-Ang):
   XX=            -88.3183   YY=            -87.2117   ZZ=           -103.5632
   XY=             -0.7647   XZ=              4.7738   YZ=              4.0383
 Traceless Quadrupole moment (field-independent basis, Debye-Ang):
   XX=              4.7127   YY=              5.8194   ZZ=            -10.5321
   XY=             -0.7647   XZ=              4.7738   YZ=              4.0383
 Octapole moment (field-independent basis, Debye-Ang**2):
  XXX=             36.1940  YYY=              3.2506  ZZZ=            -21.2859  XYY=              1.6497
  XXY=            -21.0970  XXZ=            -50.3740  XZZ=              8.5186  YZZ=             15.3244
  YYZ=            -17.1815  XYZ=             -0.5572
 Hexadecapole moment (field-independent basis, Debye-Ang**3):
 XXXX=          -2242.9267 YYYY=          -1650.1415 ZZZZ=           -588.1210 XXXY=            -44.1263
 XXXZ=             90.2646 YYYX=            -41.9028 YYYZ=             -9.4012 ZZZX=              5.8899
 ZZZY=             20.9602 XXYY=           -619.3794 XXZZ=           -515.4555 YYZZ=           -385.5996
 XXYZ=             45.8265 YYXZ=            -31.6012 ZZXY=             17.3528
 N-N= 1.312236496484D+03 E-N=-4.583545355603D+03  KE= 8.341096272937D+02
 1\1\GINC-D10S4B4\FTS\RwB97XD\def2TZVP\C11H14N2O4\PMMASS\23-Feb-2022\0\
 \#n wB97XD/Def2TZVP scrf(smd,solvent=toluene) opt=(calcfc,ts,noeigente
 st)\\ts cycloaddition toluene - opt\\0,1\C,0.5230952918,0.7903769625,-
 0.8420945003\C,1.6854622721,1.3856760989,0.0041793089\C,-0.2142827709,
 2.3628896344,0.8336871913\C,-0.6498212531,1.654410721,-0.4146628995\H,
 0.6580630829,0.4569048267,-1.8577709031\H,-1.6721115323,1.4834917031,-
 0.7068610175\C,1.0615482448,1.732275936,1.3458326926\H,1.6874231389,2.
 4328035275,1.8998947631\H,0.8622057366,0.8520853309,1.9547384626\C,1.3
 355822371,2.4220040629,-0.9374743376\H,1.8303407349,2.6096691596,-1.87
 76644818\C,0.057805031,3.0175726681,-0.4865738702\H,-0.3845078459,3.92
 36050161,-0.8646922753\H,2.6355958402,0.8767687443,-0.0767974467\H,-0.
 9691471916,2.762236234,1.4922170626\N,-0.7787699375,-0.7793884095,0.86
 9463196\N,0.0340215671,-0.9516535387,-0.1211704228\C,-2.1237926485,-0.
 7662059325,0.5058173923\C,1.2948160887,-1.4749518902,0.2757327742\O,1.
 5893888197,-1.8923441861,1.3599271511\O,-2.9940361731,-0.5442064408,1.
 3139333155\O,2.090593815,-1.5427750625,-0.7968487917\O,-2.3818286226,-
 1.0568903816,-0.7827234614\C,-3.7569398372,-1.0939908142,-1.1360461757
 \H,-3.7848668895,-1.3368532712,-2.1967410791\H,-4.288206548,-1.8578168
 087,-0.5667748016\H,-4.2369691632,-0.1289053409,-0.9638148696\C,3.3584
 137417,-2.1536383291,-0.5820016541\H,3.9164605966,-1.6414235593,0.2029
 113344\H,3.2387980675,-3.2021003485,-0.3071651714\H,3.8872961067,-2.07
 63563122,-1.5292564853\\Version=ES64L-G09RevD.01\State=1-A\HF=-837.863
 2007\RMSD=4.711e-09\RMSF=1.236e-05\Dipole=1.7425841,2.272154,-2.469081
 3\Quadrupole=3.5042939,4.3335878,-7.8378816,-0.5627778,3.551434,2.9856
 915\PG=C01 [X(C11H14N2O4)]\\@


 IF AT FIRST YOU DON'T SUCCEED, TRY LOOKING IN 
 THE WASTEBASKET FOR THE DIRECTIONS.
 Job cpu time:       0 days 17 hours 49 minutes 19.2 seconds.
 File lengths (MBytes):  RWF=   1090 Int=      0 D2E=      0 Chk=     32 Scr=      1
 Normal termination of Gaussian 09 at Wed Feb 23 18:57:56 2022.
