 Entering Gaussian System, Link 0=g09
 Input=freq_m062x_TS_associated_cycloaddition_PM6_toluene_3.com
 Output=freq_m062x_TS_associated_cycloaddition_PM6_toluene_3.log
 Initial command:
 /apps/applications/gaussian/G09.D01/2/default/g09/l1.exe "/local/727547.1.40core-192G.q/Gau-54286.inp" -scrdir="/local/727547.1.40core-192G.q/"
 Entering Link 1 = /apps/applications/gaussian/G09.D01/2/default/g09/l1.exe PID=     54287.
  
 Copyright (c) 1988,1990,1992,1993,1995,1998,2003,2009,2013,
            Gaussian, Inc.  All Rights Reserved.
  
 This is part of the Gaussian(R) 09 program.  It is based on
 the Gaussian(R) 03 system (copyright 2003, Gaussian, Inc.),
 the Gaussian(R) 98 system (copyright 1998, Gaussian, Inc.),
 the Gaussian(R) 94 system (copyright 1995, Gaussian, Inc.),
 the Gaussian 92(TM) system (copyright 1992, Gaussian, Inc.),
 the Gaussian 90(TM) system (copyright 1990, Gaussian, Inc.),
 the Gaussian 88(TM) system (copyright 1988, Gaussian, Inc.),
 the Gaussian 86(TM) system (copyright 1986, Carnegie Mellon
 University), and the Gaussian 82(TM) system (copyright 1983,
 Carnegie Mellon University). Gaussian is a federally registered
 trademark of Gaussian, Inc.
  
 This software contains proprietary and confidential information,
 including trade secrets, belonging to Gaussian, Inc.
  
 This software is provided under written license and may be
 used, copied, transmitted, or stored only in accord with that
 written license.
  
 The following legend is applicable only to US Government
 contracts under FAR:
  
                    RESTRICTED RIGHTS LEGEND
  
 Use, reproduction and disclosure by the US Government is
 subject to restrictions as set forth in subparagraphs (a)
 and (c) of the Commercial Computer Software - Restricted
 Rights clause in FAR 52.227-19.
  
 Gaussian, Inc.
 340 Quinnipiac St., Bldg. 40, Wallingford CT 06492
  
  
 ---------------------------------------------------------------
 Warning -- This program may not be used in any manner that
 competes with the business of Gaussian, Inc. or will provide
 assistance to any competitor of Gaussian, Inc.  The licensee
 of this program is prohibited from giving any competitor of
 Gaussian, Inc. access to this program.  By using this program,
 the user acknowledges that Gaussian, Inc. is engaged in the
 business of creating and licensing software in the field of
 computational chemistry and represents and warrants to the
 licensee that it is not a competitor of Gaussian, Inc. and that
 it will not use this program in any manner prohibited above.
 ---------------------------------------------------------------
  

 Cite this work as:
 Gaussian 09, Revision D.01,
 M. J. Frisch, G. W. Trucks, H. B. Schlegel, G. E. Scuseria, 
 M. A. Robb, J. R. Cheeseman, G. Scalmani, V. Barone, B. Mennucci, 
 G. A. Petersson, H. Nakatsuji, M. Caricato, X. Li, H. P. Hratchian, 
 A. F. Izmaylov, J. Bloino, G. Zheng, J. L. Sonnenberg, M. Hada, 
 M. Ehara, K. Toyota, R. Fukuda, J. Hasegawa, M. Ishida, T. Nakajima, 
 Y. Honda, O. Kitao, H. Nakai, T. Vreven, J. A. Montgomery, Jr., 
 J. E. Peralta, F. Ogliaro, M. Bearpark, J. J. Heyd, E. Brothers, 
 K. N. Kudin, V. N. Staroverov, T. Keith, R. Kobayashi, J. Normand, 
 K. Raghavachari, A. Rendell, J. C. Burant, S. S. Iyengar, J. Tomasi, 
 M. Cossi, N. Rega, J. M. Millam, M. Klene, J. E. Knox, J. B. Cross, 
 V. Bakken, C. Adamo, J. Jaramillo, R. Gomperts, R. E. Stratmann, 
 O. Yazyev, A. J. Austin, R. Cammi, C. Pomelli, J. W. Ochterski, 
 R. L. Martin, K. Morokuma, V. G. Zakrzewski, G. A. Voth, 
 P. Salvador, J. J. Dannenberg, S. Dapprich, A. D. Daniels, 
 O. Farkas, J. B. Foresman, J. V. Ortiz, J. Cioslowski, 
 and D. J. Fox, Gaussian, Inc., Wallingford CT, 2013.
 
 ******************************************
 Gaussian 09:  ES64L-G09RevD.01 24-Apr-2013
                 7-Sep-2020 
 ******************************************
 %nprocshared=4
 Will use up to    4 processors via shared memory.
 %chk=freq_m062x_TS_associated_cycloaddition_PM6_toluene_3.chk
 ----------------------------------------------------------------------
 # freq scrf=(cpcm,solvent=toluene) geom=connectivity def2svp empirical
 dispersion=gd3 m062x
 ----------------------------------------------------------------------
 1/10=4,30=1,38=1,57=2/1,3;
 2/12=2,17=6,18=5,40=1/2;
 3/5=43,7=101,11=2,16=1,25=1,30=1,70=2101,71=2,72=13,74=-55,124=31,140=1/1,2,3;
 4//1;
 5/5=2,38=5,53=13,98=1/2;
 8/6=4,10=90,11=11/1;
 11/6=1,8=1,9=11,15=111,16=1/1,2,10;
 10/6=1/2;
 6/7=2,8=2,9=2,10=2,18=1,28=1/1;
 7/8=1,10=1,25=1/1,2,3,16;
 1/10=4,30=1/3;
 99//99;
 -------------------
 Title Card Required
 -------------------
 Symbolic Z-matrix:
 Charge =  0 Multiplicity = 1
 C                     0.45813   0.78292  -0.83861 
 C                     1.57256   1.43011   0.04372 
 C                    -0.40423   2.25916   0.86733 
 C                    -0.77322   1.56926  -0.41616 
 H                     0.63648   0.47339  -1.86554 
 H                    -1.78483   1.337    -0.73947 
 C                     0.90413   1.69114   1.3871 
 H                     1.47964   2.41578   1.97946 
 H                     0.74653   0.76812   1.96043 
 C                     1.16485   2.46619  -0.87987 
 H                     1.65825   2.70727  -1.81965 
 C                    -0.15623   2.97208  -0.42857 
 H                    -0.65346   3.86879  -0.7883 
 H                     2.56081   0.97643  -0.04331 
 H                    -1.20324   2.59221   1.52739 
 N                    -0.716    -0.85856   0.8655 
 N                     0.1076   -0.94086  -0.12833 
 C                    -2.05855  -0.90135   0.50229 
 C                     1.40404  -1.38759   0.24447 
 O                     1.7335   -1.80132   1.31999 
 O                    -2.94927  -0.81385   1.3136 
 O                     2.20908  -1.3599   -0.8239 
 O                    -2.30086  -1.06883  -0.81547 
 C                    -3.66904  -1.14163  -1.17143 
 H                    -3.69941  -1.3151   -2.25214 
 H                    -4.169    -1.9626   -0.64004 
 H                    -4.18865  -0.20424  -0.92387 
 C                     3.51989  -1.86359  -0.61165 
 H                     4.03671  -1.28696   0.16835 
 H                     3.48156  -2.91624  -0.30177 
 H                     4.04371  -1.76697  -1.56725 
 

 GradGradGradGradGradGradGradGradGradGradGradGradGradGradGradGradGradGrad
 Berny optimization.
 Initialization pass.
 Trust Radius=3.00D-01 FncErr=1.00D-07 GrdErr=1.00D-07
 Number of steps in this run=      2 maximum allowed number of steps=      2.
 GradGradGradGradGradGradGradGradGradGradGradGradGradGradGradGradGradGrad

                          Input orientation:                          
 ---------------------------------------------------------------------
 Center     Atomic      Atomic             Coordinates (Angstroms)
 Number     Number       Type             X           Y           Z
 ---------------------------------------------------------------------
      1          6           0        0.458129    0.782917   -0.838612
      2          6           0        1.572555    1.430114    0.043723
      3          6           0       -0.404231    2.259159    0.867333
      4          6           0       -0.773220    1.569258   -0.416157
      5          1           0        0.636481    0.473393   -1.865542
      6          1           0       -1.784832    1.336998   -0.739469
      7          6           0        0.904133    1.691140    1.387101
      8          1           0        1.479643    2.415776    1.979462
      9          1           0        0.746525    0.768122    1.960428
     10          6           0        1.164852    2.466189   -0.879871
     11          1           0        1.658249    2.707274   -1.819653
     12          6           0       -0.156225    2.972078   -0.428567
     13          1           0       -0.653459    3.868791   -0.788301
     14          1           0        2.560811    0.976429   -0.043306
     15          1           0       -1.203239    2.592214    1.527391
     16          7           0       -0.715996   -0.858558    0.865499
     17          7           0        0.107597   -0.940858   -0.128332
     18          6           0       -2.058549   -0.901352    0.502285
     19          6           0        1.404036   -1.387587    0.244469
     20          8           0        1.733503   -1.801316    1.319988
     21          8           0       -2.949265   -0.813846    1.313602
     22          8           0        2.209078   -1.359900   -0.823895
     23          8           0       -2.300859   -1.068832   -0.815469
     24          6           0       -3.669036   -1.141629   -1.171431
     25          1           0       -3.699406   -1.315098   -2.252136
     26          1           0       -4.168999   -1.962604   -0.640035
     27          1           0       -4.188645   -0.204236   -0.923872
     28          6           0        3.519894   -1.863590   -0.611652
     29          1           0        4.036711   -1.286955    0.168348
     30          1           0        3.481556   -2.916242   -0.301767
     31          1           0        4.043715   -1.766974   -1.567249
 ---------------------------------------------------------------------
                    Distance matrix (angstroms):
                    1          2          3          4          5
     1  C    0.000000
     2  C    1.561834   0.000000
     3  C    2.415203   2.296374   0.000000
     4  C    1.520862   2.394475   1.503151   0.000000
     5  H    1.087290   2.331704   3.426463   2.299760   0.000000
     6  H    2.312511   3.448784   2.310466   1.087122   2.806530
     7  C    2.444910   1.523019   1.518098   2.465787   3.483422
     8  H    3.413394   2.174223   2.193249   3.395729   4.389514
     9  H    2.813897   2.189593   2.177679   2.932507   3.838883
    10  C    1.826079   1.446616   2.357457   2.185324   2.285161
    11  H    2.471008   2.260675   3.416800   3.029344   2.456896
    12  C    2.310410   2.364189   1.499706   1.532560   2.989433
    13  H    3.280362   3.405077   2.322532   2.332528   3.788551
    14  H    2.256375   1.090896   3.356506   3.406791   2.697524
    15  H    3.410523   3.355112   1.088584   2.238020   4.402950
    16  N    2.641402   3.339282   3.133267   2.745944   3.325939
    17  N    1.897043   2.792349   3.390195   2.675699   2.301678
    18  C    3.311863   4.339462   3.585925   2.932494   3.841837
    19  C    2.603631   2.829865   4.117833   3.730925   2.916253
    20  O    3.600610   3.478059   4.611102   4.545176   4.065140
    21  O    4.334975   5.205267   4.014936   3.661478   4.962007
    22  O    2.767256   2.990335   4.773597   4.200038   2.630409
    23  O    3.322879   4.688953   4.183843   3.074516   3.479810
    24  C    4.565976   5.963618   5.136231   4.037957   4.650544
    25  H    4.866705   6.371870   5.776208   4.500321   4.706174
    26  H    5.384016   6.703992   5.853966   4.904639   5.525268
    27  H    4.751237   6.066199   4.857831   3.881776   4.962637
    28  C    4.053383   3.882027   5.880749   5.500317   3.917627
    29  H    4.254949   3.670158   5.725860   5.624503   4.335562
    30  H    4.807608   4.759670   6.576542   6.183520   4.693556
    31  H    4.459740   4.350084   6.474655   5.971459   4.088700
                    6          7          8          9         10
     6  H    0.000000
     7  C    3.446484   0.000000
     8  H    4.383280   1.098727   0.000000
     9  H    3.744440   1.097956   1.803493   0.000000
    10  C    3.161554   2.409946   2.877051   3.335525   0.000000
    11  H    3.859956   3.447389   3.814465   4.345177   1.088463
    12  C    2.328628   2.462075   2.963805   3.373378   1.484872
    13  H    2.773511   3.449729   3.784427   4.373741   2.298245
    14  H    4.415797   2.302490   2.707810   2.711084   2.206338
    15  H    2.655649   2.296221   2.726418   2.704887   3.379149
    16  N    2.922122   3.065591   4.096707   2.446206   4.199744
    17  N    3.023806   3.139812   4.194317   2.773402   3.645623
    18  C    2.574312   4.035022   5.069930   3.575159   4.862201
    19  C    4.308176   3.321757   4.181087   2.832652   4.021559
    20  O    5.144809   3.590210   4.275888   2.826004   4.834702
    21  O    3.193295   4.596633   5.521689   4.071839   5.700519
    22  O    4.819928   3.987509   4.758846   3.797367   3.966421
    23  O    2.461723   4.768725   5.852036   4.512932   4.950927
    24  C    3.143312   5.956890   7.006579   5.740459   6.038860
    25  H    3.603799   6.593488   7.658224   6.469297   6.312072
    26  H    4.072040   6.572351   7.611776   6.195292   6.936980
    27  H    2.861420   5.905035   6.886458   5.798325   5.982728
    28  C    6.196791   4.844928   5.402728   4.607937   4.936107
    29  H    6.449777   4.490819   4.850665   4.273197   4.840705
    30  H    6.783545   5.542865   6.135314   5.115903   5.888284
    31  H    6.655210   5.526637   6.053844   5.453685   5.165270
                   11         12         13         14         15
    11  H    0.000000
    12  C    2.301642   0.000000
    13  H    2.785104   1.086621   0.000000
    14  H    2.639290   3.393129   4.387745   0.000000
    15  H    4.405004   2.250846   2.700803   4.387018   0.000000
    16  N    5.055911   4.081877   5.008672   3.864009   3.547300
    17  N    4.309751   3.933295   4.914009   3.114720   4.116103
    18  C    5.676986   4.414610   5.137524   5.016196   3.739973
    19  C    4.592724   4.679110   5.738415   2.647549   4.927737
    20  O    5.494578   5.423450   6.503275   3.202948   5.288722
    21  O    6.591264   5.016916   5.622794   5.950397   3.833478
    22  O    4.223370   4.951462   5.961090   2.488266   5.726400
    23  O    5.562544   4.591089   5.205265   5.330588   4.482970
    24  C    6.604106   5.460245   5.860444   6.676064   5.225455
    25  H    6.713493   5.853154   6.188159   7.022844   5.981869
    26  H    7.560164   6.363816   6.810739   7.367791   5.851481
    27  H    6.592836   5.157006   5.394948   6.908294   4.768802
    28  C    5.081121   6.077093   7.092832   3.050994   6.836496
    29  H    5.055996   6.006362   7.035239   2.710348   6.659732
    30  H    6.103471   6.922560   7.960637   4.008424   7.458968
    31  H    5.076717   6.433872   7.377808   3.470975   7.490650
                   16         17         18         19         20
    16  N    0.000000
    17  N    1.293359   0.000000
    18  C    1.391476   2.256419   0.000000
    19  C    2.271582   1.421021   3.506050   0.000000
    20  O    2.663719   2.341279   3.982240   1.198525   0.000000
    21  O    2.278220   3.382264   1.208001   4.519232   4.785755
    22  O    3.414887   2.252915   4.492400   1.338006   2.239923
    23  O    2.319840   2.507827   1.350274   3.866694   4.623071
    24  C    3.598563   3.923177   2.335107   5.272696   5.985798
    25  H    4.339218   4.375371   3.232713   5.681849   6.520198
    26  H    3.925402   4.426633   2.623957   5.672011   6.221514
    27  H    3.960969   4.430936   2.656540   5.834674   6.531264
    28  C    4.597263   3.567745   5.769383   2.331604   2.631787
    29  H    4.822631   3.955470   6.116568   2.635697   2.625949
    30  H    4.818300   3.913543   5.949710   2.636522   2.632269
    31  H    5.422023   4.271531   6.501530   3.223998   3.697891
                   21         22         23         24         25
    21  O    0.000000
    22  O    5.610309   0.000000
    23  O    2.240177   4.519328   0.000000
    24  C    2.607854   5.892423   1.415598   0.000000
    25  H    3.678104   6.078821   2.020048   1.094960   0.000000
    26  H    2.573731   6.409128   2.078353   1.098337   1.799625
    27  H    2.629444   6.502032   2.079186   1.099993   1.799348
    28  C    6.830709   1.420207   5.878295   7.246744   7.423633
    29  H    7.095019   2.080892   6.417185   7.822702   8.105988
    30  H    6.955929   2.077022   6.092055   7.418661   7.611427
    31  H    7.622960   2.020935   6.426990   7.748178   7.786474
                   26         27         28         29         30
    26  H    0.000000
    27  H    1.781238   0.000000
    28  C    7.689583   7.891293   0.000000
    29  H    8.273068   8.367897   1.099094   0.000000
    30  H    7.717178   8.159288   1.097987   1.784315   0.000000
    31  H    8.267204   8.404037   1.094024   1.800768   1.799523
                   31
    31  H    0.000000
 Stoichiometry    C11H14N2O4
 Framework group  C1[X(C11H14N2O4)]
 Deg. of freedom    87
 Full point group                 C1      NOp   1
 Largest Abelian subgroup         C1      NOp   1
 Largest concise Abelian subgroup C1      NOp   1
                         Standard orientation:                         
 ---------------------------------------------------------------------
 Center     Atomic      Atomic             Coordinates (Angstroms)
 Number     Number       Type             X           Y           Z
 ---------------------------------------------------------------------
      1          6           0        0.458129    0.782917   -0.838612
      2          6           0        1.572555    1.430114    0.043723
      3          6           0       -0.404231    2.259159    0.867333
      4          6           0       -0.773220    1.569258   -0.416157
      5          1           0        0.636481    0.473393   -1.865542
      6          1           0       -1.784832    1.336998   -0.739469
      7          6           0        0.904133    1.691140    1.387101
      8          1           0        1.479643    2.415776    1.979462
      9          1           0        0.746525    0.768122    1.960428
     10          6           0        1.164852    2.466189   -0.879871
     11          1           0        1.658249    2.707274   -1.819653
     12          6           0       -0.156225    2.972078   -0.428567
     13          1           0       -0.653460    3.868791   -0.788301
     14          1           0        2.560811    0.976429   -0.043306
     15          1           0       -1.203239    2.592214    1.527391
     16          7           0       -0.715996   -0.858558    0.865499
     17          7           0        0.107597   -0.940858   -0.128332
     18          6           0       -2.058549   -0.901352    0.502285
     19          6           0        1.404036   -1.387587    0.244469
     20          8           0        1.733503   -1.801316    1.319988
     21          8           0       -2.949265   -0.813846    1.313602
     22          8           0        2.209078   -1.359900   -0.823895
     23          8           0       -2.300859   -1.068832   -0.815469
     24          6           0       -3.669036   -1.141630   -1.171431
     25          1           0       -3.699406   -1.315099   -2.252136
     26          1           0       -4.168999   -1.962605   -0.640035
     27          1           0       -4.188645   -0.204237   -0.923872
     28          6           0        3.519894   -1.863590   -0.611652
     29          1           0        4.036711   -1.286954    0.168348
     30          1           0        3.481556   -2.916242   -0.301767
     31          1           0        4.043715   -1.766973   -1.567249
 ---------------------------------------------------------------------
 Rotational constants (GHZ):      0.6237102      0.4532674      0.3284810
 Standard basis: def2SVP (5D, 7F)
 There are   325 symmetry adapted cartesian basis functions of A   symmetry.
 There are   308 symmetry adapted basis functions of A   symmetry.
   308 basis functions,   523 primitive gaussians,   325 cartesian basis functions
    63 alpha electrons       63 beta electrons
       nuclear repulsion energy      1319.7280853485 Hartrees.
 NAtoms=   31 NActive=   31 NUniq=   31 SFac= 1.00D+00 NAtFMM=   60 NAOKFM=F Big=F
 Integral buffers will be    131072 words long.
 Raffenetti 2 integral format.
 Two-electron integral symmetry is turned on.
 Nuclear repulsion after empirical dispersion term =     1319.7263495547 Hartrees.
 Force inversion solution in PCM.
 ------------------------------------------------------------------------------
 Polarizable Continuum Model (PCM)
 =================================
 Model                : C-PCM.
 Atomic radii         : UFF (Universal Force Field).
 Polarization charges : Total charges.
 Charge compensation  : None.
 Solution method      : Matrix inversion.
 Cavity type          : Scaled VdW (van der Waals Surface) (Alpha=1.100).
 Cavity algorithm     : GePol (No added spheres)
                        Default sphere list used, NSphG=   31.
                        Lebedev-Laikov grids with approx.  5.0 points / Ang**2.
                        Smoothing algorithm: Karplus/York (Gamma=1.0000).
                        Polarization charges: spherical gaussians, with
                                              point-specific exponents (IZeta= 3).
                        Self-potential: point-specific (ISelfS= 7).
                        Self-field    : sphere-specific E.n sum rule (ISelfD= 2).
 1st derivatives      : Analytical E(r).r(x)/FMM algorithm (CHGder, D1EAlg=3).
                        Cavity 1st derivative terms included.
 2nd derivatives      : Analytical E(r).r(xy)/FMM algorithm (CHGder, D2EAlg=3).
                        Cavity 2nd derivative terms included.
 Solvent              : Toluene, Eps=   2.374100 Eps(inf)=   2.238315
 ------------------------------------------------------------------------------
 One-electron integrals computed using PRISM.
   1 Symmetry operations used in ECPInt.
 ECPInt:  NShTT=   10440 NPrTT=   37938 LenC2=    9942 LenP2D=   26223.
 LDataN:  DoStor=T MaxTD1= 4 Len=   56
 NBasis=   308 RedAO= T EigKep=  3.77D-04  NBF=   308
 NBsUse=   308 1.00D-06 EigRej= -1.00D+00 NBFU=   308
 ExpMin= 1.22D-01 ExpMax= 2.27D+03 ExpMxC= 3.41D+02 IAcc=1 IRadAn=         1 AccDes= 0.00D+00
 Harris functional with IExCor= 1009 and IRadAn=       1 diagonalized for initial guess.
 HarFok:  IExCor= 1009 AccDes= 0.00D+00 IRadAn=         1 IDoV= 1 UseB2=F ITyADJ=14
 ICtDFT=  3500011 ScaDFX=  1.000000  1.000000  1.000000  1.000000
 FoFCou: FMM=F IPFlag=           0 FMFlag=      100000 FMFlg1=           0
         NFxFlg=           0 DoJE=T BraDBF=F KetDBF=T FulRan=T
         wScrn=  0.000000 ICntrl=     500 IOpCl=  0 I1Cent=   200000004 NGrid=           0
         NMat0=    1 NMatS0=      1 NMatT0=    0 NMatD0=    1 NMtDS0=    0 NMtDT0=    0
 Petite list used in FoFCou.
 Requested convergence on RMS density matrix=1.00D-08 within 128 cycles.
 Requested convergence on MAX density matrix=1.00D-06.
 Requested convergence on             energy=1.00D-06.
 No special actions if energy rises.
 Inv3:  Mode=1 IEnd=    14985675.
 Iteration    1 A*A^-1 deviation from unit magnitude is 4.55D-15 for   2224.
 Iteration    1 A*A^-1 deviation from orthogonality  is 3.26D-15 for   2234    570.
 Iteration    1 A^-1*A deviation from unit magnitude is 4.77D-15 for   2224.
 Iteration    1 A^-1*A deviation from orthogonality  is 2.89D-15 for   2220   2172.
 Error on total polarization charges =  0.00496
 SCF Done:  E(RM062X) =  -836.841561403     A.U. after   17 cycles
            NFock= 17  Conv=0.32D-08     -V/T= 2.0092
 DoSCS=F DFT=T ScalE2(SS,OS)=  1.000000  1.000000
 Range of M.O.s used for correlation:     1   308
 NBasis=   308 NAE=    63 NBE=    63 NFC=     0 NFV=     0
 NROrb=    308 NOA=    63 NOB=    63 NVA=   245 NVB=   245

 **** Warning!!: The largest alpha MO coefficient is  0.10226251D+02

   1 Symmetry operations used in ECPInt.
 ECPInt:  NShTT=   10440 NPrTT=   37938 LenC2=    9942 LenP2D=   26223.
 LDataN:  DoStor=T MaxTD1= 5 Len=  102
 Number of processors reduced to   2 by ecpmxn.
 Symmetrizing basis deriv contribution to polar:
 IMax=3 JMax=2 DiffMx= 0.00D+00
 G2DrvN: will do    16 centers at a time, making    2 passes.
 Calling FoFCou, ICntrl=  3107 FMM=F I1Cent=   0 AccDes= 0.00D+00.
 Calling FoFCou, ICntrl=  3107 FMM=F I1Cent=   0 AccDes= 0.00D+00.
 NEqPCM:  Using equilibrium solvation (IEInf=0, Eps=   2.3741, EpsInf=   2.2383)
 G2PCM: DoFxE=T DoFxN=T DoGrad=T DoDP/DQ/DG/TGxP=FFFF NFrqRd=   0 IEInf=0 SqF1=F DoCFld=F IF1Alg=4.
 End of G2Drv F.D. properties file   721 does not exist.
 End of G2Drv F.D. properties file   722 does not exist.
 End of G2Drv F.D. properties file   788 does not exist.
          IDoAtm=1111111111111111111111111111111
 NEqPCM:  Using equilibrium solvation (IEInf=0, Eps=   2.3741, EpsInf=   2.2383)
          Differentiating once with respect to electric field.
                with respect to dipole field.
          Differentiating once with respect to nuclear coordinates.
 PrRfSu:  requested number of processors reduced to:   3 ShMem   1 Linda.
          There are    96 degrees of freedom in the 1st order CPHF.  IDoFFX=6 NUNeed=     3.
     96 vectors produced by pass  0 Test12= 1.61D-14 1.04D-09 XBig12= 1.68D+02 8.71D+00.
 AX will form    96 AO Fock derivatives at one time.
 PrRfSu:  requested number of processors reduced to:   3 ShMem   1 Linda.
     94 vectors produced by pass  1 Test12= 1.61D-14 1.04D-09 XBig12= 2.46D+01 1.14D+00.
 PrRfSu:  requested number of processors reduced to:   3 ShMem   1 Linda.
     93 vectors produced by pass  2 Test12= 1.61D-14 1.04D-09 XBig12= 3.98D-01 1.02D-01.
 PrRfSu:  requested number of processors reduced to:   3 ShMem   1 Linda.
     93 vectors produced by pass  3 Test12= 1.61D-14 1.04D-09 XBig12= 4.73D-03 8.43D-03.
 PrRfSu:  requested number of processors reduced to:   3 ShMem   1 Linda.
     93 vectors produced by pass  4 Test12= 1.61D-14 1.04D-09 XBig12= 3.01D-05 5.28D-04.
 PrRfSu:  requested number of processors reduced to:   3 ShMem   1 Linda.
     93 vectors produced by pass  5 Test12= 1.61D-14 1.04D-09 XBig12= 1.18D-07 3.00D-05.
 PrRfSu:  requested number of processors reduced to:   3 ShMem   1 Linda.
     66 vectors produced by pass  6 Test12= 1.61D-14 1.04D-09 XBig12= 3.70D-10 1.74D-06.
      6 vectors produced by pass  7 Test12= 1.61D-14 1.04D-09 XBig12= 1.06D-12 7.56D-08.
      3 vectors produced by pass  8 Test12= 1.61D-14 1.04D-09 XBig12= 3.10D-15 4.43D-09.
 InvSVY:  IOpt=1 It=  1 EMax= 7.11D-15
 Solved reduced A of dimension   637 with    96 vectors.
 Isotropic polarizability for W=    0.000000      183.61 Bohr**3.
 End of Minotr F.D. properties file   721 does not exist.
 End of Minotr F.D. properties file   722 does not exist.
 End of Minotr F.D. properties file   788 does not exist.

 **********************************************************************

            Population analysis using the SCF density.

 **********************************************************************

 Orbital symmetries:
       Occupied  (A) (A) (A) (A) (A) (A) (A) (A) (A) (A) (A) (A)
                 (A) (A) (A) (A) (A) (A) (A) (A) (A) (A) (A) (A)
                 (A) (A) (A) (A) (A) (A) (A) (A) (A) (A) (A) (A)
                 (A) (A) (A) (A) (A) (A) (A) (A) (A) (A) (A) (A)
                 (A) (A) (A) (A) (A) (A) (A) (A) (A) (A) (A) (A)
                 (A) (A) (A)
       Virtual   (A) (A) (A) (A) (A) (A) (A) (A) (A) (A) (A) (A)
                 (A) (A) (A) (A) (A) (A) (A) (A) (A) (A) (A) (A)
                 (A) (A) (A) (A) (A) (A) (A) (A) (A) (A) (A) (A)
                 (A) (A) (A) (A) (A) (A) (A) (A) (A) (A) (A) (A)
                 (A) (A) (A) (A) (A) (A) (A) (A) (A) (A) (A) (A)
                 (A) (A) (A) (A) (A) (A) (A) (A) (A) (A) (A) (A)
                 (A) (A) (A) (A) (A) (A) (A) (A) (A) (A) (A) (A)
                 (A) (A) (A) (A) (A) (A) (A) (A) (A) (A) (A) (A)
                 (A) (A) (A) (A) (A) (A) (A) (A) (A) (A) (A) (A)
                 (A) (A) (A) (A) (A) (A) (A) (A) (A) (A) (A) (A)
                 (A) (A) (A) (A) (A) (A) (A) (A) (A) (A) (A) (A)
                 (A) (A) (A) (A) (A) (A) (A) (A) (A) (A) (A) (A)
                 (A) (A) (A) (A) (A) (A) (A) (A) (A) (A) (A) (A)
                 (A) (A) (A) (A) (A) (A) (A) (A) (A) (A) (A) (A)
                 (A) (A) (A) (A) (A) (A) (A) (A) (A) (A) (A) (A)
                 (A) (A) (A) (A) (A) (A) (A) (A) (A) (A) (A) (A)
                 (A) (A) (A) (A) (A) (A) (A) (A) (A) (A) (A) (A)
                 (A) (A) (A) (A) (A) (A) (A) (A) (A) (A) (A) (A)
                 (A) (A) (A) (A) (A) (A) (A) (A) (A) (A) (A) (A)
                 (A) (A) (A) (A) (A) (A) (A) (A) (A) (A) (A) (A)
                 (A) (A) (A) (A) (A)
 The electronic state is 1-A.
 Alpha  occ. eigenvalues --  -19.68166 -19.65977 -19.62635 -19.59749 -14.82074
 Alpha  occ. eigenvalues --  -14.76600 -10.70595 -10.68025 -10.62481 -10.61966
 Alpha  occ. eigenvalues --  -10.61295 -10.60597 -10.59876 -10.59463 -10.59236
 Alpha  occ. eigenvalues --  -10.58488 -10.56881  -1.23873  -1.21293  -1.13886
 Alpha  occ. eigenvalues --   -1.10758  -1.10141  -1.07895  -0.90607  -0.88273
 Alpha  occ. eigenvalues --   -0.84319  -0.81259  -0.78932  -0.77135  -0.67836
 Alpha  occ. eigenvalues --   -0.66552  -0.65211  -0.64994  -0.63481  -0.62816
 Alpha  occ. eigenvalues --   -0.61743  -0.58489  -0.57503  -0.56206  -0.55258
 Alpha  occ. eigenvalues --   -0.54451  -0.53319  -0.52962  -0.51404  -0.49373
 Alpha  occ. eigenvalues --   -0.49021  -0.48472  -0.47339  -0.46287  -0.46074
 Alpha  occ. eigenvalues --   -0.44056  -0.43615  -0.42679  -0.41924  -0.41358
 Alpha  occ. eigenvalues --   -0.38130  -0.37775  -0.36818  -0.36232  -0.35875
 Alpha  occ. eigenvalues --   -0.34834  -0.30099  -0.24339
 Alpha virt. eigenvalues --   -0.06971   0.05717   0.07889   0.09425   0.10195
 Alpha virt. eigenvalues --    0.11354   0.12744   0.13773   0.14511   0.15112
 Alpha virt. eigenvalues --    0.15898   0.16292   0.16522   0.16720   0.16859
 Alpha virt. eigenvalues --    0.17418   0.18296   0.18559   0.19251   0.19852
 Alpha virt. eigenvalues --    0.21004   0.21619   0.22427   0.23421   0.25150
 Alpha virt. eigenvalues --    0.26342   0.28440   0.30051   0.31617   0.33996
 Alpha virt. eigenvalues --    0.35563   0.37107   0.37475   0.39864   0.41782
 Alpha virt. eigenvalues --    0.44993   0.46019   0.46658   0.48777   0.49518
 Alpha virt. eigenvalues --    0.49752   0.50548   0.50691   0.51250   0.51870
 Alpha virt. eigenvalues --    0.52681   0.54598   0.55326   0.55872   0.57458
 Alpha virt. eigenvalues --    0.59387   0.60155   0.61273   0.61890   0.62960
 Alpha virt. eigenvalues --    0.64087   0.65944   0.66499   0.67423   0.67724
 Alpha virt. eigenvalues --    0.67941   0.68436   0.69321   0.69579   0.69869
 Alpha virt. eigenvalues --    0.70532   0.70909   0.71092   0.71699   0.71963
 Alpha virt. eigenvalues --    0.72628   0.72825   0.73143   0.74131   0.74653
 Alpha virt. eigenvalues --    0.75696   0.76458   0.77631   0.79242   0.79943
 Alpha virt. eigenvalues --    0.80370   0.81736   0.82838   0.84362   0.85330
 Alpha virt. eigenvalues --    0.89205   0.90221   0.93490   0.93749   0.95837
 Alpha virt. eigenvalues --    0.99113   0.99721   1.00455   1.01701   1.03090
 Alpha virt. eigenvalues --    1.06379   1.07534   1.09128   1.09915   1.12919
 Alpha virt. eigenvalues --    1.15370   1.17065   1.18290   1.19680   1.20810
 Alpha virt. eigenvalues --    1.23334   1.26109   1.27920   1.28231   1.31475
 Alpha virt. eigenvalues --    1.32789   1.36842   1.37358   1.37802   1.39593
 Alpha virt. eigenvalues --    1.40495   1.42884   1.46303   1.49795   1.50950
 Alpha virt. eigenvalues --    1.53967   1.54919   1.56119   1.56752   1.57508
 Alpha virt. eigenvalues --    1.58885   1.58889   1.60496   1.61761   1.63403
 Alpha virt. eigenvalues --    1.64354   1.66028   1.66616   1.67324   1.69538
 Alpha virt. eigenvalues --    1.70701   1.71550   1.73933   1.75048   1.75986
 Alpha virt. eigenvalues --    1.76606   1.78354   1.79088   1.80603   1.82167
 Alpha virt. eigenvalues --    1.83128   1.84284   1.85807   1.86562   1.87501
 Alpha virt. eigenvalues --    1.88946   1.90083   1.90508   1.91616   1.92975
 Alpha virt. eigenvalues --    1.93125   1.94594   1.95443   1.96204   1.97123
 Alpha virt. eigenvalues --    1.98105   1.99072   1.99920   2.00507   2.02514
 Alpha virt. eigenvalues --    2.03347   2.04787   2.07600   2.07904   2.09292
 Alpha virt. eigenvalues --    2.09972   2.10647   2.11309   2.12667   2.14285
 Alpha virt. eigenvalues --    2.16742   2.18678   2.20055   2.21496   2.22303
 Alpha virt. eigenvalues --    2.24623   2.25924   2.28674   2.32376   2.33764
 Alpha virt. eigenvalues --    2.34353   2.35360   2.38929   2.39152   2.39780
 Alpha virt. eigenvalues --    2.42587   2.43073   2.45072   2.47240   2.50073
 Alpha virt. eigenvalues --    2.53030   2.54869   2.57132   2.57490   2.59770
 Alpha virt. eigenvalues --    2.62384   2.67035   2.67969   2.68876   2.69416
 Alpha virt. eigenvalues --    2.71275   2.71948   2.73624   2.73784   2.75081
 Alpha virt. eigenvalues --    2.77476   2.78798   2.82576   2.84375   2.84842
 Alpha virt. eigenvalues --    2.88851   2.89625   2.90805   2.91549   2.93397
 Alpha virt. eigenvalues --    2.94933   2.97014   2.97278   2.98180   3.00820
 Alpha virt. eigenvalues --    3.02118   3.03810   3.06580   3.06717   3.08119
 Alpha virt. eigenvalues --    3.10544   3.17854   3.19324   3.23688   3.29066
 Alpha virt. eigenvalues --    3.29471   3.29701   3.32026   3.38322   3.50875
 Alpha virt. eigenvalues --    3.51815   3.69801   3.71275   3.77143   3.80418
          Condensed to atoms (all electrons):
               1          2          3          4          5          6
     1  C    5.631635   0.182764   0.004393   0.150050   0.395715  -0.030729
     2  C    0.182764   5.444636  -0.034856  -0.014153  -0.052717   0.005877
     3  C    0.004393  -0.034856   5.486137   0.087076   0.009485  -0.028601
     4  C    0.150050  -0.014153   0.087076   5.536612  -0.026842   0.411654
     5  H    0.395715  -0.052717   0.009485  -0.026842   0.558811  -0.003519
     6  H   -0.030729   0.005877  -0.028601   0.411654  -0.003519   0.559455
     7  C   -0.094680   0.257587   0.262164  -0.053173   0.006138   0.003015
     8  H    0.008316  -0.023518  -0.018310   0.008392  -0.000198  -0.000157
     9  H   -0.002623  -0.020396  -0.011340  -0.013328   0.000064   0.000442
    10  C    0.010990   0.118778   0.002406  -0.082731   0.038470   0.002950
    11  H    0.016661  -0.056021   0.008203  -0.006158  -0.002786  -0.000013
    12  C   -0.134694   0.039654   0.010527   0.118848  -0.016095  -0.004656
    13  H    0.005089   0.005278  -0.035741  -0.015905   0.000236  -0.004076
    14  H   -0.036537   0.395772   0.003815   0.007620  -0.001859  -0.000045
    15  H    0.004334   0.003797   0.406712  -0.013896  -0.000133  -0.003959
    16  N   -0.090784  -0.016305  -0.007052   0.041198   0.002561  -0.005767
    17  N    0.072436  -0.024061  -0.012856  -0.034821  -0.009833  -0.001042
    18  C   -0.000193   0.001062   0.003100   0.002020  -0.000265   0.006694
    19  C   -0.060201   0.006152  -0.001166   0.006319  -0.002901  -0.000134
    20  O   -0.002220  -0.001782   0.000078   0.000094   0.000148   0.000002
    21  O    0.000707   0.000017   0.000446  -0.004914  -0.000004  -0.000933
    22  O   -0.006417  -0.006126  -0.000024   0.001406   0.006925   0.000007
    23  O    0.001527   0.000180  -0.000320  -0.007081   0.000710   0.011929
    24  C   -0.000116  -0.000002  -0.000016  -0.000495  -0.000009   0.000279
    25  H    0.000010  -0.000001  -0.000006   0.000034  -0.000009  -0.000238
    26  H   -0.000027   0.000002  -0.000001   0.000047   0.000003   0.000253
    27  H    0.000107  -0.000008   0.000102   0.000029   0.000008  -0.000502
    28  C   -0.000071  -0.001487  -0.000004  -0.000017   0.000017   0.000000
    29  H   -0.000052  -0.000439  -0.000006  -0.000005   0.000111   0.000000
    30  H   -0.000032   0.000003  -0.000001   0.000010   0.000012   0.000000
    31  H    0.000015   0.000064   0.000001  -0.000008  -0.000104   0.000000
               7          8          9         10         11         12
     1  C   -0.094680   0.008316  -0.002623   0.010990   0.016661  -0.134694
     2  C    0.257587  -0.023518  -0.020396   0.118778  -0.056021   0.039654
     3  C    0.262164  -0.018310  -0.011340   0.002406   0.008203   0.010527
     4  C   -0.053173   0.008392  -0.013328  -0.082731  -0.006158   0.118848
     5  H    0.006138  -0.000198   0.000064   0.038470  -0.002786  -0.016095
     6  H    0.003015  -0.000157   0.000442   0.002950  -0.000013  -0.004656
     7  C    4.717457   0.385262   0.373329  -0.038152   0.005108  -0.041064
     8  H    0.385262   0.607830  -0.017848  -0.003805   0.000038  -0.008847
     9  H    0.373329  -0.017848   0.564194   0.008796  -0.000186   0.008214
    10  C   -0.038152  -0.003805   0.008796   5.317187   0.437461   0.156539
    11  H    0.005108   0.000038  -0.000186   0.437461   0.565945  -0.045738
    12  C   -0.041064  -0.008847   0.008214   0.156539  -0.045738   5.508859
    13  H    0.004135   0.000261  -0.000173  -0.050330  -0.004324   0.450535
    14  H   -0.013265  -0.002390  -0.001312  -0.029802  -0.004894   0.007829
    15  H   -0.015751  -0.002240  -0.001925   0.005970  -0.000071  -0.026285
    16  N   -0.000562   0.000064   0.029526   0.004016  -0.000017   0.003225
    17  N    0.008288   0.000068  -0.011390   0.003141  -0.000032   0.008869
    18  C   -0.001198  -0.000010  -0.000233   0.000055   0.000003  -0.001491
    19  C    0.000016  -0.000179  -0.000497  -0.000374  -0.000065   0.000434
    20  O   -0.002489   0.000037   0.008685   0.000112  -0.000001  -0.000006
    21  O   -0.000112  -0.000001   0.000027  -0.000005   0.000000  -0.000096
    22  O   -0.000039  -0.000025   0.000264   0.000587   0.000070  -0.000106
    23  O    0.000015   0.000001   0.000097  -0.000072  -0.000001   0.000599
    24  C    0.000002   0.000000  -0.000003   0.000004   0.000000  -0.000023
    25  H    0.000000   0.000000   0.000001   0.000001   0.000000   0.000000
    26  H    0.000000   0.000000  -0.000001   0.000000   0.000000   0.000005
    27  H   -0.000004   0.000000   0.000000   0.000007   0.000000  -0.000130
    28  C    0.000106  -0.000001  -0.000023   0.000064  -0.000002   0.000003
    29  H    0.000072   0.000016   0.000026  -0.000067  -0.000005   0.000005
    30  H    0.000013  -0.000001  -0.000018   0.000003   0.000000   0.000000
    31  H   -0.000007   0.000000   0.000000   0.000003   0.000001   0.000000
              13         14         15         16         17         18
     1  C    0.005089  -0.036537   0.004334  -0.090784   0.072436  -0.000193
     2  C    0.005278   0.395772   0.003797  -0.016305  -0.024061   0.001062
     3  C   -0.035741   0.003815   0.406712  -0.007052  -0.012856   0.003100
     4  C   -0.015905   0.007620  -0.013896   0.041198  -0.034821   0.002020
     5  H    0.000236  -0.001859  -0.000133   0.002561  -0.009833  -0.000265
     6  H   -0.004076  -0.000045  -0.003959  -0.005767  -0.001042   0.006694
     7  C    0.004135  -0.013265  -0.015751  -0.000562   0.008288  -0.001198
     8  H    0.000261  -0.002390  -0.002240   0.000064   0.000068  -0.000010
     9  H   -0.000173  -0.001312  -0.001925   0.029526  -0.011390  -0.000233
    10  C   -0.050330  -0.029802   0.005970   0.004016   0.003141   0.000055
    11  H   -0.004324  -0.004894  -0.000071  -0.000017  -0.000032   0.000003
    12  C    0.450535   0.007829  -0.026285   0.003225   0.008869  -0.001491
    13  H    0.583127   0.000001  -0.003894   0.000038  -0.000039  -0.000008
    14  H    0.000001   0.589261  -0.000231   0.000782  -0.005334  -0.000060
    15  H   -0.003894  -0.000231   0.571992  -0.001358   0.000114   0.000404
    16  N    0.000038   0.000782  -0.001358   6.944780   0.227710   0.340146
    17  N   -0.000039  -0.005334   0.000114   0.227710   6.922341  -0.053168
    18  C   -0.000008  -0.000060   0.000404   0.340146  -0.053168   4.422171
    19  C    0.000001   0.008208  -0.000005  -0.055323   0.281695   0.004083
    20  O    0.000000  -0.000029  -0.000002   0.002671  -0.089060  -0.000360
    21  O   -0.000001   0.000000   0.000600  -0.094078   0.003254   0.710197
    22  O    0.000000   0.007681   0.000001   0.003222  -0.103823  -0.000169
    23  O   -0.000001  -0.000001  -0.000016  -0.106877   0.002927   0.321250
    24  C    0.000000   0.000000  -0.000003   0.004955   0.000043  -0.031256
    25  H    0.000000   0.000000   0.000000   0.000034   0.000029   0.004938
    26  H    0.000000   0.000000  -0.000002   0.000500  -0.000089  -0.006302
    27  H   -0.000001   0.000000   0.000014   0.000041  -0.000074  -0.001145
    28  C    0.000000   0.001125   0.000000  -0.000122   0.005541   0.000006
    29  H    0.000000   0.000689   0.000000  -0.000005   0.000099   0.000001
    30  H    0.000000   0.000215   0.000000  -0.000018   0.000366   0.000000
    31  H    0.000000  -0.000382   0.000000   0.000004   0.000013   0.000000
              19         20         21         22         23         24
     1  C   -0.060201  -0.002220   0.000707  -0.006417   0.001527  -0.000116
     2  C    0.006152  -0.001782   0.000017  -0.006126   0.000180  -0.000002
     3  C   -0.001166   0.000078   0.000446  -0.000024  -0.000320  -0.000016
     4  C    0.006319   0.000094  -0.004914   0.001406  -0.007081  -0.000495
     5  H   -0.002901   0.000148  -0.000004   0.006925   0.000710  -0.000009
     6  H   -0.000134   0.000002  -0.000933   0.000007   0.011929   0.000279
     7  C    0.000016  -0.002489  -0.000112  -0.000039   0.000015   0.000002
     8  H   -0.000179   0.000037  -0.000001  -0.000025   0.000001   0.000000
     9  H   -0.000497   0.008685   0.000027   0.000264   0.000097  -0.000003
    10  C   -0.000374   0.000112  -0.000005   0.000587  -0.000072   0.000004
    11  H   -0.000065  -0.000001   0.000000   0.000070  -0.000001   0.000000
    12  C    0.000434  -0.000006  -0.000096  -0.000106   0.000599  -0.000023
    13  H    0.000001   0.000000  -0.000001   0.000000  -0.000001   0.000000
    14  H    0.008208  -0.000029   0.000000   0.007681  -0.000001   0.000000
    15  H   -0.000005  -0.000002   0.000600   0.000001  -0.000016  -0.000003
    16  N   -0.055323   0.002671  -0.094078   0.003222  -0.106877   0.004955
    17  N    0.281695  -0.089060   0.003254  -0.103823   0.002927   0.000043
    18  C    0.004083  -0.000360   0.710197  -0.000169   0.321250  -0.031256
    19  C    4.444342   0.707257  -0.000157   0.362743  -0.000825   0.000049
    20  O    0.707257   7.693815   0.000002  -0.084321  -0.000001   0.000000
    21  O   -0.000157   0.000002   7.763026   0.000000  -0.095143  -0.001492
    22  O    0.362743  -0.084321   0.000000   7.994044   0.000004   0.000000
    23  O   -0.000825  -0.000001  -0.095143   0.000004   8.054612   0.270692
    24  C    0.000049   0.000000  -0.001492   0.000000   0.270692   4.414858
    25  H   -0.000001   0.000000   0.000945   0.000000  -0.024031   0.398759
    26  H    0.000009   0.000000   0.008357   0.000000  -0.027484   0.409349
    27  H    0.000000   0.000000   0.007255   0.000000  -0.033848   0.402200
    28  C   -0.032344  -0.002366   0.000000   0.266084   0.000000   0.000000
    29  H   -0.001063   0.007355   0.000000  -0.032697   0.000000   0.000000
    30  H   -0.005376   0.005820   0.000000  -0.025812   0.000000   0.000000
    31  H    0.004976   0.000798   0.000000  -0.022957   0.000000   0.000000
              25         26         27         28         29         30
     1  C    0.000010  -0.000027   0.000107  -0.000071  -0.000052  -0.000032
     2  C   -0.000001   0.000002  -0.000008  -0.001487  -0.000439   0.000003
     3  C   -0.000006  -0.000001   0.000102  -0.000004  -0.000006  -0.000001
     4  C    0.000034   0.000047   0.000029  -0.000017  -0.000005   0.000010
     5  H   -0.000009   0.000003   0.000008   0.000017   0.000111   0.000012
     6  H   -0.000238   0.000253  -0.000502   0.000000   0.000000   0.000000
     7  C    0.000000   0.000000  -0.000004   0.000106   0.000072   0.000013
     8  H    0.000000   0.000000   0.000000  -0.000001   0.000016  -0.000001
     9  H    0.000001  -0.000001   0.000000  -0.000023   0.000026  -0.000018
    10  C    0.000001   0.000000   0.000007   0.000064  -0.000067   0.000003
    11  H    0.000000   0.000000   0.000000  -0.000002  -0.000005   0.000000
    12  C    0.000000   0.000005  -0.000130   0.000003   0.000005   0.000000
    13  H    0.000000   0.000000  -0.000001   0.000000   0.000000   0.000000
    14  H    0.000000   0.000000   0.000000   0.001125   0.000689   0.000215
    15  H    0.000000  -0.000002   0.000014   0.000000   0.000000   0.000000
    16  N    0.000034   0.000500   0.000041  -0.000122  -0.000005  -0.000018
    17  N    0.000029  -0.000089  -0.000074   0.005541   0.000099   0.000366
    18  C    0.004938  -0.006302  -0.001145   0.000006   0.000001   0.000000
    19  C   -0.000001   0.000009   0.000000  -0.032344  -0.001063  -0.005376
    20  O    0.000000   0.000000   0.000000  -0.002366   0.007355   0.005820
    21  O    0.000945   0.008357   0.007255   0.000000   0.000000   0.000000
    22  O    0.000000   0.000000   0.000000   0.266084  -0.032697  -0.025812
    23  O   -0.024031  -0.027484  -0.033848   0.000000   0.000000   0.000000
    24  C    0.398759   0.409349   0.402200   0.000000   0.000000   0.000000
    25  H    0.611847  -0.023467  -0.025040   0.000000   0.000000   0.000000
    26  H   -0.023467   0.617323  -0.034432   0.000000   0.000000   0.000000
    27  H   -0.025040  -0.034432   0.638836   0.000000   0.000000   0.000000
    28  C    0.000000   0.000000   0.000000   4.424575   0.402203   0.410636
    29  H    0.000000   0.000000   0.000000   0.402203   0.620302  -0.032484
    30  H    0.000000   0.000000   0.000000   0.410636  -0.032484   0.602753
    31  H    0.000000   0.000000   0.000000   0.400952  -0.022742  -0.021834
              31
     1  C    0.000015
     2  C    0.000064
     3  C    0.000001
     4  C   -0.000008
     5  H   -0.000104
     6  H    0.000000
     7  C   -0.000007
     8  H    0.000000
     9  H    0.000000
    10  C    0.000003
    11  H    0.000001
    12  C    0.000000
    13  H    0.000000
    14  H   -0.000382
    15  H    0.000000
    16  N    0.000004
    17  N    0.000013
    18  C    0.000000
    19  C    0.004976
    20  O    0.000798
    21  O    0.000000
    22  O   -0.022957
    23  O    0.000000
    24  C    0.000000
    25  H    0.000000
    26  H    0.000000
    27  H    0.000000
    28  C    0.400952
    29  H   -0.022742
    30  H   -0.021834
    31  H    0.595242
 Mulliken charges:
               1
     1  C   -0.025374
     2  C   -0.209748
     3  C   -0.134343
     4  C   -0.097879
     5  H    0.097860
     6  H    0.081814
     7  C    0.237788
     8  H    0.067244
     9  H    0.087632
    10  C    0.097800
    11  H    0.086823
    12  C   -0.034914
    13  H    0.065791
    14  H    0.073143
    15  H    0.075835
    16  N   -0.227203
    17  N   -0.191316
    18  C    0.279729
    19  C    0.334327
    20  O   -0.244237
    21  O   -0.297896
    22  O   -0.360524
    23  O   -0.368841
    24  C    0.132224
    25  H    0.056196
    26  H    0.055958
    27  H    0.046585
    28  C    0.125127
    29  H    0.058686
    30  H    0.065747
    31  H    0.065967
 Sum of Mulliken charges =   0.00000
 Mulliken charges with hydrogens summed into heavy atoms:
               1
     1  C    0.072487
     2  C   -0.136605
     3  C   -0.058508
     4  C   -0.016065
     7  C    0.392664
    10  C    0.184622
    12  C    0.030877
    16  N   -0.227203
    17  N   -0.191316
    18  C    0.279729
    19  C    0.334327
    20  O   -0.244237
    21  O   -0.297896
    22  O   -0.360524
    23  O   -0.368841
    24  C    0.290962
    28  C    0.315527
 APT charges:
               1
     1  C   -1.022292
     2  C    0.323607
     3  C    0.015228
     4  C   -0.247945
     5  H    0.137460
     6  H    0.121980
     7  C   -0.014450
     8  H    0.019903
     9  H    0.073012
    10  C    0.071783
    11  H    0.101218
    12  C    0.184682
    13  H    0.078619
    14  H    0.063232
    15  H    0.082802
    16  N   -0.894796
    17  N    0.350903
    18  C    1.780776
    19  C    1.577540
    20  O   -0.876719
    21  O   -1.039396
    22  O   -0.952063
    23  O   -1.004131
    24  C    0.586827
    25  H   -0.006885
    26  H   -0.020654
    27  H   -0.036143
    28  C    0.562135
    29  H   -0.018387
    30  H   -0.008706
    31  H    0.010860
 Sum of APT charges =   0.00000
 APT charges with hydrogens summed into heavy atoms:
               1
     1  C   -0.884832
     2  C    0.386839
     3  C    0.098030
     4  C   -0.125965
     7  C    0.078465
    10  C    0.173002
    12  C    0.263301
    16  N   -0.894796
    17  N    0.350903
    18  C    1.780776
    19  C    1.577540
    20  O   -0.876719
    21  O   -1.039396
    22  O   -0.952063
    23  O   -1.004131
    24  C    0.523144
    28  C    0.545902
 Electronic spatial extent (au):  <R**2>=           3646.6648
 Charge=              0.0000 electrons
 Dipole moment (field-independent basis, Debye):
    X=              4.0766    Y=              6.0888    Z=             -6.0347  Tot=              9.4926
 Quadrupole moment (field-independent basis, Debye-Ang):
   XX=            -87.1217   YY=            -88.7468   ZZ=           -103.5619
   XY=             -2.0961   XZ=              4.4408   YZ=              4.3324
 Traceless Quadrupole moment (field-independent basis, Debye-Ang):
   XX=              6.0217   YY=              4.3967   ZZ=            -10.4184
   XY=             -2.0961   XZ=              4.4408   YZ=              4.3324
 Octapole moment (field-independent basis, Debye-Ang**2):
  XXX=             38.6654  YYY=             -0.5382  ZZZ=            -18.7371  XYY=              0.0922
  XXY=            -17.3969  XXZ=            -49.3861  XZZ=              6.6519  YZZ=             14.2609
  YYZ=            -16.9363  XYZ=             -3.0081
 Hexadecapole moment (field-independent basis, Debye-Ang**3):
 XXXX=          -2192.2703 YYYY=          -1581.1199 ZZZZ=           -582.3329 XXXY=            -61.3646
 XXXZ=             76.7334 YYYX=            -35.4998 YYYZ=            -16.5963 ZZZX=              5.3188
 ZZZY=             18.8364 XXYY=           -613.8018 XXZZ=           -510.9911 YYZZ=           -371.8235
 XXYZ=             54.3015 YYXZ=            -24.5064 ZZXY=             12.6968
 N-N= 1.319726349555D+03 E-N=-4.591264009181D+03  KE= 8.292007169548D+02
  Exact polarizability: 189.746  34.226 219.754 -16.293 -28.147 141.336
 Approx polarizability: 198.136  51.563 255.081 -31.818 -51.768 177.618
   1 Symmetry operations used in ECPInt.
 ECPInt:  NShTT=   10440 NPrTT=   37938 LenC2=    9942 LenP2D=   26223.
 LDataN:  DoStor=T MaxTD1= 6 Len=  172
 D2PCM: C-PCM CHGder 2nd derivatives, FixD1E=F FixD2E=F DoIter=F DoCFld=F I1PDM=0
 Calling FoFJK, ICntrl=    100127 FMM=F ISym2X=0 I1Cent= 0 IOpClX= 0 NMat=1 NMatS=1 NMatT=0.
 Full mass-weighted force constant matrix:
 Low frequencies --- -636.8980  -25.2078  -11.1975   -0.0007   -0.0003    0.0007
 Low frequencies ---    8.8468   28.2885   55.8983
 ******    1 imaginary frequencies (negative Signs) ****** 
 Diagonal vibrational polarizability:
       81.9986524     169.2301129      37.1666853
 Harmonic frequencies (cm**-1), IR intensities (KM/Mole), Raman scattering
 activities (A**4/AMU), depolarization ratios for plane and unpolarized
 incident light, reduced masses (AMU), force constants (mDyne/A),
 and normal coordinates:
                      1                      2                      3
                      A                      A                      A
 Frequencies --   -636.8978                25.1017                55.3963
 Red. masses --      9.9628                 4.0924                 6.1082
 Frc consts  --      2.3811                 0.0015                 0.0110
 IR Inten    --   1716.3237                 0.1494                 0.5971
  Atom  AN      X      Y      Z        X      Y      Z        X      Y      Z
     1   6     0.20   0.64  -0.24    -0.07   0.00  -0.03     0.04  -0.05   0.04
     2   6     0.03  -0.03   0.08     0.04   0.00  -0.18    -0.01  -0.07   0.13
     3   6     0.01   0.00   0.03     0.15  -0.03   0.11    -0.05   0.00  -0.04
     4   6    -0.04   0.09  -0.04    -0.02   0.00   0.14     0.03   0.00  -0.06
     5   1     0.08  -0.25   0.04    -0.21   0.02  -0.06     0.11  -0.02   0.04
     6   1    -0.02  -0.12   0.06    -0.06   0.02   0.25     0.05   0.02  -0.14
     7   6     0.01   0.00   0.03     0.21  -0.05  -0.08    -0.11  -0.05   0.07
     8   1    -0.01   0.02   0.02     0.29  -0.07  -0.12    -0.13  -0.06   0.11
     9   1     0.05   0.03   0.08     0.29  -0.07  -0.09    -0.19  -0.04   0.05
    10   6    -0.04  -0.19  -0.11    -0.09   0.02  -0.09     0.11  -0.05   0.09
    11   1     0.15   0.05   0.07    -0.22   0.04  -0.16     0.20  -0.07   0.14
    12   6    -0.09  -0.01   0.02    -0.02   0.01   0.10     0.08  -0.02  -0.03
    13   1     0.05   0.15   0.22    -0.08   0.01   0.19     0.14  -0.01  -0.08
    14   1     0.04  -0.02   0.11     0.03   0.01  -0.32    -0.01  -0.10   0.21
    15   1     0.02  -0.02   0.05     0.23  -0.06   0.22    -0.09   0.03  -0.11
    16   7     0.09  -0.07  -0.02    -0.04   0.01  -0.01    -0.01  -0.05  -0.02
    17   7    -0.16  -0.35   0.09    -0.02   0.00   0.00    -0.02  -0.02  -0.03
    18   6    -0.07   0.01  -0.05    -0.03  -0.03  -0.03    -0.01  -0.04   0.00
    19   6     0.04  -0.01   0.04    -0.02   0.05   0.04     0.02   0.07  -0.02
    20   8     0.03   0.01   0.03     0.00   0.16   0.08     0.15   0.40   0.07
    21   8     0.03   0.01   0.01    -0.05  -0.12  -0.04     0.00  -0.11   0.02
    22   8    -0.03  -0.01   0.02    -0.03  -0.05   0.03    -0.09  -0.18  -0.10
    23   8    -0.01  -0.01   0.03     0.00   0.04  -0.05    -0.04   0.06  -0.01
    24   6    -0.01   0.00  -0.01     0.01   0.00  -0.08    -0.04   0.07   0.01
    25   1     0.02   0.00  -0.01     0.04   0.07  -0.09    -0.06   0.15   0.00
    26   1     0.00   0.00  -0.01     0.04  -0.05  -0.14    -0.02   0.02  -0.04
    27   1     0.02   0.01  -0.01    -0.03  -0.04  -0.03    -0.05   0.04   0.09
    28   6    -0.01   0.00   0.00    -0.02  -0.01   0.08    -0.02  -0.01  -0.09
    29   1    -0.01   0.01  -0.01    -0.02   0.08   0.02     0.00   0.26  -0.30
    30   1     0.00   0.00   0.00     0.00   0.02   0.18     0.10   0.08   0.22
    31   1    -0.03   0.01  -0.01    -0.02  -0.09   0.07    -0.12  -0.23  -0.16
                      4                      5                      6
                      A                      A                      A
 Frequencies --     67.8797                68.0374                92.0027
 Red. masses --      3.5583                 6.0376                 3.5838
 Frc consts  --      0.0097                 0.0165                 0.0179
 IR Inten    --      0.7137                 3.2907                 3.0781
  Atom  AN      X      Y      Z        X      Y      Z        X      Y      Z
     1   6     0.03   0.07   0.02     0.02   0.01  -0.01     0.03  -0.02  -0.03
     2   6     0.04   0.02   0.04     0.01   0.00   0.00     0.04  -0.07  -0.01
     3   6     0.06   0.11   0.00     0.00  -0.11   0.08     0.06  -0.03  -0.01
     4   6     0.05   0.10   0.00     0.01  -0.03   0.04     0.06   0.01  -0.03
     5   1     0.03   0.05   0.03     0.02   0.07  -0.02     0.04   0.00  -0.04
     6   1     0.05   0.12   0.00     0.01  -0.02   0.02     0.05   0.04  -0.05
     7   6     0.03   0.06   0.03     0.03  -0.10   0.03     0.04  -0.08  -0.01
     8   1     0.05   0.04   0.03     0.01  -0.11   0.06     0.05  -0.12   0.01
     9   1    -0.02   0.07   0.03     0.07  -0.13  -0.02     0.00  -0.10  -0.04
    10   6     0.09   0.03   0.02    -0.02   0.06   0.08     0.08  -0.03   0.01
    11   1     0.13   0.00   0.03    -0.05   0.12   0.08     0.10  -0.03   0.02
    12   6     0.10   0.08  -0.01    -0.03  -0.01   0.13     0.09  -0.01   0.01
    13   1     0.15   0.10  -0.02    -0.06   0.00   0.19     0.12   0.01   0.02
    14   1     0.03  -0.02   0.06     0.02   0.03  -0.04     0.04  -0.08  -0.01
    15   1     0.06   0.15  -0.02    -0.01  -0.18   0.11     0.06  -0.03  -0.01
    16   7    -0.03   0.08   0.00     0.00   0.04  -0.05    -0.03  -0.01  -0.07
    17   7    -0.03   0.07   0.01     0.00   0.02  -0.05    -0.03  -0.02  -0.08
    18   6    -0.03  -0.01   0.00     0.00   0.10  -0.05    -0.04   0.00  -0.01
    19   6    -0.04   0.02  -0.01     0.00   0.03  -0.03    -0.04  -0.01  -0.04
    20   8    -0.05  -0.02  -0.02     0.02   0.13   0.00    -0.07  -0.01  -0.03
    21   8    -0.04  -0.13   0.00     0.00   0.40  -0.08     0.00   0.00   0.03
    22   8    -0.05   0.01  -0.01    -0.02  -0.06  -0.05     0.02   0.03   0.01
    23   8    -0.01   0.00  -0.01     0.00  -0.21  -0.01    -0.12   0.01   0.00
    24   6     0.00  -0.30   0.01     0.00  -0.24   0.00    -0.14  -0.06   0.10
    25   1     0.03  -0.23   0.00     0.00  -0.53   0.05    -0.21  -0.03   0.09
    26   1     0.21  -0.46  -0.04    -0.05  -0.06   0.23    -0.05  -0.12   0.11
    27   1    -0.22  -0.45   0.09     0.05  -0.14  -0.26    -0.19  -0.11   0.17
    28   6    -0.08  -0.09  -0.05    -0.02  -0.04  -0.03     0.09   0.28   0.13
    29   1    -0.03  -0.16  -0.03     0.00   0.04  -0.10    -0.07   0.42   0.13
    30   1    -0.16  -0.10  -0.09    -0.01  -0.01   0.07     0.26   0.29   0.21
    31   1    -0.09  -0.09  -0.05    -0.04  -0.13  -0.05     0.14   0.31   0.17
                      7                      8                      9
                      A                      A                      A
 Frequencies --    109.2906               152.1835               156.9553
 Red. masses --      3.9041                 1.6781                 1.1448
 Frc consts  --      0.0275                 0.0229                 0.0166
 IR Inten    --      1.4157                 4.2257                 1.1389
  Atom  AN      X      Y      Z        X      Y      Z        X      Y      Z
     1   6     0.06   0.05  -0.07    -0.01  -0.02  -0.02     0.00  -0.02  -0.01
     2   6     0.00   0.08  -0.02    -0.02  -0.02  -0.01     0.00  -0.02   0.00
     3   6    -0.06  -0.09  -0.01    -0.03  -0.05   0.00     0.00  -0.03  -0.01
     4   6     0.01  -0.02  -0.08    -0.02  -0.03  -0.02     0.00  -0.01  -0.01
     5   1     0.11   0.10  -0.08     0.00  -0.04  -0.01     0.00  -0.02  -0.01
     6   1     0.04  -0.05  -0.13    -0.01  -0.03  -0.03     0.00  -0.01  -0.02
     7   6    -0.04  -0.04  -0.02    -0.02  -0.04  -0.01     0.00  -0.03   0.00
     8   1    -0.10  -0.03   0.03    -0.03  -0.03   0.00     0.00  -0.04   0.00
     9   1     0.01  -0.08  -0.07    -0.01  -0.04  -0.01     0.00  -0.04  -0.01
    10   6    -0.04   0.12   0.04    -0.03  -0.02   0.00     0.01  -0.02   0.00
    11   1    -0.05   0.20   0.06    -0.03   0.00   0.00     0.01  -0.02   0.00
    12   6    -0.07   0.02   0.05    -0.03  -0.03   0.01     0.01  -0.02   0.00
    13   1    -0.12   0.01   0.10    -0.04  -0.03   0.02     0.01  -0.01   0.01
    14   1     0.03   0.13  -0.04    -0.01  -0.01  -0.01     0.00  -0.02   0.00
    15   1    -0.11  -0.20  -0.01    -0.04  -0.08   0.00     0.00  -0.03  -0.01
    16   7     0.05   0.03  -0.11     0.01   0.03   0.03    -0.01   0.00   0.00
    17   7     0.05   0.04  -0.11     0.01  -0.01   0.03     0.00   0.00   0.01
    18   6     0.03   0.01  -0.03     0.01   0.07   0.01    -0.01   0.01   0.00
    19   6     0.03   0.03  -0.03     0.00  -0.02   0.01     0.00   0.02   0.01
    20   8    -0.06   0.04   0.00     0.02  -0.03   0.00     0.02   0.06   0.02
    21   8     0.09  -0.06   0.05     0.00   0.07   0.00    -0.01   0.01   0.00
    22   8     0.11  -0.02   0.03    -0.01  -0.02   0.00     0.00   0.02   0.01
    23   8    -0.07   0.07  -0.02     0.04   0.13   0.00    -0.01   0.01   0.00
    24   6    -0.11   0.01   0.12     0.05  -0.05  -0.02    -0.01   0.00   0.00
    25   1    -0.21   0.11   0.10     0.09   0.41  -0.09     0.00   0.06  -0.01
    26   1     0.01  -0.08   0.09     0.27  -0.42  -0.38     0.02  -0.06  -0.05
    27   1    -0.15  -0.06   0.27    -0.19  -0.30   0.41    -0.03  -0.04   0.06
    28   6     0.02  -0.23   0.13     0.01   0.03  -0.02    -0.01   0.00  -0.02
    29   1     0.05  -0.31   0.17     0.03   0.12  -0.11    -0.18  -0.38   0.37
    30   1    -0.18  -0.22   0.13     0.05   0.06   0.09     0.00  -0.17  -0.58
    31   1     0.11  -0.31   0.17    -0.04  -0.05  -0.05     0.15   0.51   0.12
                     10                     11                     12
                      A                      A                      A
 Frequencies --    180.0271               193.8480               203.4794
 Red. masses --      2.4225                 3.2285                 3.8335
 Frc consts  --      0.0463                 0.0715                 0.0935
 IR Inten    --      3.1384                 1.3989                 4.9879
  Atom  AN      X      Y      Z        X      Y      Z        X      Y      Z
     1   6    -0.02   0.00   0.08    -0.03   0.00   0.06     0.21  -0.01   0.04
     2   6     0.00   0.04   0.03    -0.03   0.04   0.02     0.12   0.17   0.01
     3   6     0.03   0.12   0.03    -0.02   0.08   0.03    -0.01  -0.10  -0.02
     4   6    -0.01   0.01   0.10    -0.04  -0.01   0.08     0.13  -0.12  -0.06
     5   1    -0.05   0.04   0.06    -0.06   0.03   0.04     0.32  -0.05   0.06
     6   1    -0.02   0.00   0.14    -0.04  -0.02   0.11     0.18  -0.25  -0.11
     7   6     0.03   0.13   0.03    -0.01   0.10   0.03     0.08   0.11   0.00
     8   1     0.06   0.14  -0.01     0.01   0.13  -0.02    -0.05   0.23  -0.02
     9   1     0.02   0.15   0.06     0.00   0.13   0.06     0.23   0.11   0.03
    10   6     0.00   0.01  -0.02    -0.05   0.01  -0.01    -0.02   0.14   0.01
    11   1    -0.01  -0.04  -0.03    -0.05  -0.01  -0.02    -0.08   0.18  -0.01
    12   6     0.00   0.02  -0.04    -0.05   0.00  -0.02    -0.08  -0.03   0.01
    13   1    -0.02  -0.02  -0.10    -0.08  -0.03  -0.07    -0.20  -0.10   0.01
    14   1     0.00   0.04   0.04    -0.03   0.04   0.03     0.18   0.29   0.02
    15   1     0.05   0.18   0.02     0.00   0.12   0.03    -0.08  -0.25  -0.04
    16   7     0.00  -0.10  -0.05     0.03  -0.05  -0.03    -0.04   0.05   0.02
    17   7     0.01  -0.05  -0.05     0.01  -0.05  -0.04    -0.01   0.01   0.05
    18   6    -0.01  -0.05  -0.04     0.03   0.06  -0.03    -0.04  -0.01   0.00
    19   6     0.02  -0.02  -0.03     0.01  -0.09  -0.04    -0.04  -0.05   0.04
    20   8     0.01   0.01  -0.01     0.02  -0.02  -0.02    -0.01  -0.04   0.04
    21   8     0.01   0.07  -0.03     0.04   0.01  -0.01    -0.05  -0.05  -0.01
    22   8     0.03  -0.04  -0.01    -0.01  -0.20  -0.05    -0.10  -0.11  -0.01
    23   8    -0.05  -0.13  -0.02     0.01   0.20  -0.04    -0.04  -0.04   0.00
    24   6    -0.07   0.03   0.02     0.00  -0.08   0.02    -0.04   0.03  -0.02
    25   1    -0.12   0.53  -0.06    -0.01  -0.49   0.09    -0.03   0.09  -0.02
    26   1    -0.04  -0.23  -0.35     0.11   0.07   0.35    -0.08   0.02  -0.06
    27   1    -0.07  -0.10   0.49    -0.09  -0.04  -0.33     0.00   0.04   0.03
    28   6     0.03  -0.03   0.03     0.06   0.01   0.06    -0.03   0.08  -0.08
    29   1    -0.02  -0.06   0.08    -0.16   0.01   0.21    -0.09   0.11  -0.06
    30   1     0.03  -0.05  -0.01     0.22  -0.04  -0.09     0.15   0.05  -0.14
    31   1     0.08   0.01   0.06     0.17   0.24   0.14    -0.07   0.21  -0.09
                     13                     14                     15
                      A                      A                      A
 Frequencies --    211.8018               283.9797               311.3972
 Red. masses --      4.4284                 4.3097                 6.2599
 Frc consts  --      0.1170                 0.2048                 0.3576
 IR Inten    --      5.4920                 4.9010                 8.4318
  Atom  AN      X      Y      Z        X      Y      Z        X      Y      Z
     1   6     0.05  -0.07   0.07    -0.08   0.04  -0.06     0.00   0.04   0.00
     2   6     0.04   0.00   0.03    -0.06  -0.01  -0.06    -0.01  -0.08   0.11
     3   6     0.02  -0.01   0.01    -0.01   0.05  -0.01     0.01  -0.02   0.04
     4   6     0.03  -0.10   0.06    -0.04   0.12  -0.04    -0.04  -0.13   0.12
     5   1     0.05  -0.09   0.08    -0.11   0.06  -0.07    -0.05  -0.03   0.02
     6   1     0.04  -0.15   0.08    -0.06   0.21  -0.06    -0.05  -0.20   0.17
     7   6     0.05   0.06   0.03    -0.05  -0.08  -0.05     0.02   0.06   0.09
     8   1     0.03   0.11  -0.02    -0.01  -0.18   0.03     0.03   0.16  -0.04
     9   1     0.08   0.08   0.07    -0.12  -0.11  -0.12     0.05   0.14   0.23
    10   6    -0.01  -0.07  -0.03     0.01   0.09   0.02    -0.06  -0.25  -0.04
    11   1    -0.03  -0.11  -0.04     0.02   0.11   0.02    -0.01  -0.27  -0.01
    12   6    -0.02  -0.09  -0.04     0.03   0.10   0.04    -0.04  -0.15  -0.03
    13   1    -0.06  -0.13  -0.09     0.07   0.14   0.08    -0.02  -0.16  -0.08
    14   1     0.05   0.03   0.05    -0.07  -0.05  -0.09    -0.02  -0.12   0.13
    15   1     0.02   0.00   0.00     0.01   0.06   0.02     0.01   0.03   0.02
    16   7    -0.05  -0.08  -0.03    -0.01   0.03   0.00     0.05   0.38  -0.07
    17   7     0.02  -0.08   0.03     0.09   0.03   0.08     0.04   0.11  -0.02
    18   6    -0.05   0.03  -0.07     0.02  -0.01  -0.08     0.08   0.07  -0.10
    19   6     0.06   0.04   0.07     0.07  -0.06   0.15    -0.02   0.04  -0.01
    20   8     0.09   0.01   0.05     0.05  -0.09   0.15    -0.10   0.01   0.00
    21   8    -0.05   0.04  -0.07    -0.01  -0.02  -0.11     0.07  -0.08  -0.11
    22   8     0.08   0.22   0.09     0.00  -0.14   0.10    -0.02  -0.03  -0.02
    23   8    -0.11   0.16  -0.09    -0.02  -0.05  -0.08     0.06  -0.07  -0.09
    24   6    -0.14  -0.05   0.04    -0.09   0.02   0.12    -0.01   0.05   0.14
    25   1    -0.22  -0.27   0.07    -0.27   0.05   0.12    -0.23   0.12   0.14
    26   1     0.00   0.00   0.25    -0.04   0.03   0.18     0.02   0.07   0.20
    27   1    -0.22  -0.06  -0.10    -0.01   0.03   0.24     0.12   0.08   0.31
    28   6     0.01  -0.04  -0.13     0.10   0.02  -0.16    -0.01   0.02  -0.03
    29   1     0.31  -0.09  -0.29     0.18   0.05  -0.23    -0.03   0.04  -0.03
    30   1    -0.16  -0.01  -0.04     0.31  -0.01  -0.23     0.04   0.02  -0.04
    31   1    -0.16  -0.24  -0.25    -0.10   0.16  -0.26    -0.02   0.06  -0.03
                     16                     17                     18
                      A                      A                      A
 Frequencies --    336.1950               351.9860               436.2838
 Red. masses --      5.7813                 5.0886                 4.5528
 Frc consts  --      0.3850                 0.3714                 0.5106
 IR Inten    --     15.1717                 7.8293                27.7025
  Atom  AN      X      Y      Z        X      Y      Z        X      Y      Z
     1   6     0.00   0.02  -0.01    -0.02   0.03  -0.02     0.02   0.02   0.03
     2   6     0.01   0.00  -0.01    -0.02  -0.03   0.02     0.02   0.05   0.00
     3   6    -0.01  -0.03  -0.01     0.00   0.02   0.01     0.03   0.07   0.00
     4   6     0.00   0.03  -0.04    -0.02  -0.01   0.04    -0.01  -0.04   0.08
     5   1     0.01  -0.08   0.02    -0.05   0.03  -0.03    -0.04   0.04   0.01
     6   1     0.00   0.03  -0.06    -0.03  -0.01   0.04    -0.01  -0.10   0.12
     7   6     0.00  -0.02  -0.01    -0.01   0.00   0.02    -0.04  -0.11  -0.01
     8   1    -0.02  -0.01   0.00     0.01   0.00   0.00    -0.01  -0.37   0.27
     9   1     0.02  -0.02  -0.01    -0.04   0.02   0.04    -0.24  -0.24  -0.26
    10   6    -0.01  -0.01  -0.01    -0.02  -0.05   0.00     0.01   0.04  -0.03
    11   1    -0.02  -0.01  -0.02     0.01  -0.04   0.01     0.04   0.02  -0.02
    12   6     0.00   0.02   0.02     0.00  -0.01   0.01    -0.03  -0.04  -0.08
    13   1     0.02   0.04   0.06     0.01  -0.01  -0.01    -0.08  -0.08  -0.13
    14   1     0.00   0.00  -0.02    -0.03  -0.05   0.02     0.03   0.07  -0.01
    15   1    -0.01  -0.05   0.00     0.00   0.03   0.01     0.06   0.13   0.00
    16   7    -0.05   0.06   0.12    -0.04   0.23  -0.05     0.04   0.00  -0.06
    17   7     0.01   0.05   0.16     0.04   0.05   0.02     0.08   0.04   0.03
    18   6    -0.05   0.00  -0.03    -0.11   0.05   0.05     0.07  -0.01  -0.09
    19   6     0.06   0.02  -0.05     0.09  -0.01   0.00    -0.01   0.01   0.09
    20   8     0.33  -0.07  -0.16     0.14  -0.05  -0.02     0.12  -0.07   0.04
    21   8    -0.17  -0.02  -0.16    -0.02  -0.02   0.16     0.24   0.01   0.08
    22   8    -0.01   0.01  -0.13     0.11  -0.07  -0.01    -0.17   0.04   0.01
    23   8     0.00  -0.01  -0.04    -0.19  -0.03   0.08    -0.05  -0.01  -0.08
    24   6    -0.06   0.02   0.12    -0.11  -0.02  -0.26    -0.07  -0.01  -0.09
    25   1    -0.20   0.03   0.12     0.19  -0.01  -0.27    -0.06  -0.02  -0.09
    26   1     0.00   0.03   0.19    -0.28  -0.03  -0.43    -0.08  -0.02  -0.10
    27   1    -0.01   0.02   0.21    -0.16   0.00  -0.42    -0.07  -0.01  -0.11
    28   6    -0.06  -0.03   0.21     0.15  -0.04  -0.02    -0.23   0.06   0.07
    29   1    -0.26   0.00   0.32     0.15  -0.03  -0.03    -0.28   0.06   0.10
    30   1    -0.20   0.01   0.32     0.20  -0.05  -0.03    -0.25   0.07   0.11
    31   1     0.19  -0.14   0.35     0.13  -0.01  -0.03    -0.16   0.03   0.10
                     19                     20                     21
                      A                      A                      A
 Frequencies --    445.1711               473.2957               523.8431
 Red. masses --      2.2634                 7.0885                 3.0416
 Frc consts  --      0.2643                 0.9356                 0.4918
 IR Inten    --      5.3356                16.7431                37.4553
  Atom  AN      X      Y      Z        X      Y      Z        X      Y      Z
     1   6    -0.05  -0.04  -0.04    -0.02   0.13   0.02    -0.07   0.10  -0.09
     2   6    -0.06  -0.10  -0.02     0.10   0.06   0.08    -0.01  -0.04  -0.02
     3   6    -0.05  -0.08   0.00     0.01  -0.11   0.00     0.01  -0.03  -0.01
     4   6    -0.02   0.04  -0.08    -0.07   0.07  -0.10    -0.09  -0.09   0.07
     5   1    -0.01  -0.02  -0.04     0.06  -0.13   0.12    -0.17   0.19  -0.13
     6   1    -0.02   0.15  -0.14    -0.06  -0.12   0.02    -0.12  -0.18   0.21
     7   6     0.05   0.14  -0.01     0.05  -0.01   0.04     0.04   0.00  -0.02
     8   1     0.04   0.48  -0.41    -0.07   0.07   0.07     0.08   0.09  -0.18
     9   1     0.31   0.33   0.36     0.19  -0.03   0.04     0.11   0.08   0.11
    10   6     0.02  -0.01   0.06    -0.04  -0.20  -0.09     0.20   0.14   0.11
    11   1     0.02   0.03   0.07    -0.16  -0.42  -0.20     0.49   0.38   0.32
    12   6     0.04   0.03   0.09    -0.03  -0.06  -0.01    -0.06  -0.17  -0.14
    13   1     0.10   0.08   0.15     0.15   0.13   0.21    -0.06  -0.15  -0.09
    14   1    -0.07  -0.14  -0.01     0.05  -0.05   0.03    -0.05  -0.12  -0.02
    15   1    -0.06  -0.13   0.01     0.03  -0.10   0.01     0.10   0.11   0.02
    16   7     0.01  -0.01  -0.02     0.02  -0.28   0.09     0.01  -0.04   0.02
    17   7     0.02  -0.01   0.00     0.10   0.41   0.12     0.02   0.07   0.02
    18   6     0.03  -0.01  -0.03     0.01  -0.08  -0.01    -0.02   0.00   0.01
    19   6     0.00  -0.01   0.04     0.04   0.15   0.01     0.01   0.03   0.00
    20   8     0.05  -0.02   0.02    -0.11  -0.01  -0.02    -0.01  -0.01   0.00
    21   8     0.10   0.01   0.03     0.03   0.05   0.00    -0.05   0.00  -0.02
    22   8    -0.05   0.02   0.01     0.01  -0.09  -0.03     0.00  -0.01   0.00
    23   8    -0.02  -0.01  -0.04    -0.06   0.02  -0.02     0.00   0.01   0.02
    24   6    -0.03  -0.01  -0.04    -0.08  -0.02  -0.06     0.00   0.00   0.01
    25   1    -0.03  -0.01  -0.04    -0.04  -0.04  -0.06     0.02   0.00   0.01
    26   1    -0.03  -0.01  -0.04    -0.07  -0.03  -0.06     0.01   0.00   0.01
    27   1    -0.03   0.00  -0.04    -0.12  -0.03  -0.09    -0.01   0.00   0.00
    28   6    -0.07   0.02   0.02     0.05  -0.01  -0.01     0.01   0.00   0.00
    29   1    -0.08   0.01   0.03    -0.01   0.04  -0.01     0.00   0.01   0.00
    30   1    -0.08   0.02   0.03     0.13  -0.01  -0.02     0.02   0.00   0.00
    31   1    -0.05   0.01   0.03     0.06   0.04  -0.01     0.01   0.01   0.00
                     22                     23                     24
                      A                      A                      A
 Frequencies --    627.1449               642.2922               694.4089
 Red. masses --      7.7363                 4.5209                 5.6348
 Frc consts  --      1.7927                 1.0989                 1.6009
 IR Inten    --     29.0226                 4.1632                 9.5601
  Atom  AN      X      Y      Z        X      Y      Z        X      Y      Z
     1   6     0.06  -0.07   0.01    -0.14   0.01   0.15     0.06   0.05  -0.07
     2   6    -0.09  -0.13  -0.05     0.13   0.23   0.01     0.02   0.02  -0.09
     3   6     0.02   0.10   0.00    -0.09  -0.18  -0.01    -0.16  -0.02   0.05
     4   6     0.09  -0.02   0.00    -0.18   0.05   0.00     0.05  -0.13   0.21
     5   1     0.08  -0.27   0.08    -0.22   0.04   0.13    -0.23   0.12  -0.15
     6   1     0.10  -0.05   0.01    -0.17   0.20  -0.17     0.13   0.19  -0.25
     7   6     0.00  -0.03  -0.03    -0.01   0.00  -0.02    -0.18   0.05  -0.10
     8   1     0.18  -0.11  -0.10    -0.35   0.13   0.16    -0.26   0.12  -0.12
     9   1    -0.14   0.04   0.03     0.31  -0.15  -0.17    -0.06   0.04  -0.09
    10   6    -0.02   0.09   0.07     0.15   0.03  -0.10     0.06  -0.02  -0.14
    11   1     0.08   0.25   0.17     0.08  -0.06  -0.16    -0.05   0.08  -0.17
    12   6    -0.06   0.05  -0.01     0.12  -0.09  -0.01     0.21   0.00   0.16
    13   1    -0.16  -0.06  -0.15     0.21   0.07   0.26     0.00  -0.23  -0.10
    14   1    -0.03   0.01  -0.05     0.04   0.02   0.02     0.02  -0.01   0.14
    15   1    -0.03  -0.05   0.01     0.10   0.19   0.03    -0.11   0.16   0.03
    16   7     0.04   0.06   0.34    -0.03   0.08   0.07     0.16  -0.02   0.03
    17   7    -0.05  -0.10   0.32    -0.08  -0.13   0.05     0.16  -0.02   0.02
    18   6     0.09  -0.03  -0.07     0.02   0.03  -0.04     0.06  -0.04   0.06
    19   6    -0.01   0.03  -0.11    -0.03  -0.06  -0.04     0.08   0.02   0.01
    20   8    -0.21   0.08  -0.05    -0.01   0.03  -0.01    -0.09   0.00   0.06
    21   8     0.18   0.01  -0.03     0.08  -0.01   0.02    -0.09   0.00  -0.11
    22   8     0.07   0.02  -0.14     0.03   0.02  -0.01    -0.02   0.01  -0.08
    23   8    -0.05  -0.01  -0.13     0.01  -0.02  -0.06    -0.07   0.02   0.11
    24   6    -0.16  -0.01  -0.09    -0.02   0.00  -0.02    -0.07   0.00  -0.02
    25   1    -0.20  -0.02  -0.09    -0.08   0.00  -0.02     0.14  -0.01  -0.03
    26   1    -0.14  -0.02  -0.07    -0.01   0.01   0.00    -0.13  -0.03  -0.12
    27   1    -0.14  -0.01  -0.08     0.00   0.00   0.01    -0.13  -0.01  -0.13
    28   6     0.10  -0.03  -0.01     0.04  -0.01   0.00    -0.07   0.03   0.00
    29   1     0.04  -0.01   0.02     0.05  -0.02   0.00    -0.15   0.04   0.04
    30   1     0.04  -0.02   0.02     0.02  -0.01  -0.01    -0.12   0.04   0.04
    31   1     0.21  -0.08   0.04     0.04  -0.02   0.00     0.05  -0.03   0.06
                     25                     26                     27
                      A                      A                      A
 Frequencies --    724.0068               752.2179               781.8813
 Red. masses --      5.5014                 3.3760                 6.9381
 Frc consts  --      1.6991                 1.1255                 2.4990
 IR Inten    --     52.1679                71.9355                14.6721
  Atom  AN      X      Y      Z        X      Y      Z        X      Y      Z
     1   6    -0.10  -0.09  -0.02     0.08   0.10   0.24     0.03  -0.02   0.17
     2   6     0.00   0.10   0.10    -0.01  -0.15  -0.04    -0.03  -0.05  -0.02
     3   6     0.13  -0.02  -0.05    -0.05   0.02   0.01    -0.01  -0.01  -0.01
     4   6    -0.07   0.10  -0.16    -0.06   0.04  -0.03    -0.06   0.05  -0.04
     5   1     0.07   0.03  -0.04     0.18  -0.06   0.32     0.12  -0.16   0.24
     6   1    -0.19  -0.05   0.28     0.07  -0.03  -0.39    -0.01   0.06  -0.23
     7   6     0.12  -0.02   0.14     0.04  -0.05  -0.11     0.05  -0.04  -0.03
     8   1     0.09  -0.06   0.21     0.10  -0.03  -0.19     0.04   0.00  -0.07
     9   1     0.06  -0.06   0.06     0.08  -0.01  -0.03     0.08  -0.02   0.00
    10   6    -0.06  -0.02   0.06     0.05   0.07   0.05     0.00   0.04   0.02
    11   1     0.12   0.00   0.16    -0.34  -0.32  -0.25     0.01   0.01   0.01
    12   6    -0.08   0.02  -0.09    -0.08  -0.03  -0.04    -0.03  -0.01  -0.03
    13   1     0.14   0.26   0.18    -0.12  -0.04   0.00     0.00   0.06   0.09
    14   1     0.00   0.13  -0.09    -0.06  -0.25  -0.06     0.00   0.03  -0.08
    15   1     0.08  -0.09  -0.09     0.11   0.16   0.14     0.12   0.16   0.07
    16   7     0.21   0.06   0.03     0.08  -0.03  -0.01    -0.10   0.07  -0.18
    17   7     0.13  -0.12  -0.05     0.02   0.03  -0.03     0.11  -0.16   0.06
    18   6     0.13  -0.02   0.07     0.03   0.19  -0.01    -0.13  -0.15  -0.01
    19   6     0.08  -0.09   0.00     0.00  -0.08  -0.02     0.25   0.33   0.13
    20   8    -0.06   0.01   0.08     0.00   0.02   0.02    -0.13  -0.10   0.09
    21   8    -0.07  -0.01  -0.16    -0.02  -0.06  -0.05    -0.05   0.05   0.10
    22   8    -0.02   0.04  -0.07     0.00   0.02   0.00    -0.01  -0.03  -0.24
    23   8    -0.09   0.02   0.14    -0.03  -0.03   0.06     0.04   0.03  -0.02
    24   6    -0.09   0.00  -0.03    -0.02   0.00   0.00     0.09   0.01   0.04
    25   1     0.18  -0.01  -0.04     0.09   0.02  -0.01    -0.03  -0.01   0.04
    26   1    -0.19  -0.03  -0.17    -0.08  -0.01  -0.07     0.16   0.02   0.12
    27   1    -0.18  -0.01  -0.18    -0.01   0.01  -0.04     0.10   0.00   0.10
    28   6    -0.09   0.03   0.00    -0.01   0.01   0.00    -0.02   0.00  -0.02
    29   1    -0.16   0.03   0.04    -0.01   0.00   0.01    -0.26   0.07   0.09
    30   1    -0.17   0.05   0.04    -0.05   0.01   0.01    -0.11   0.04   0.10
    31   1     0.03  -0.04   0.06    -0.01  -0.01   0.01     0.29  -0.09   0.14
                     28                     29                     30
                      A                      A                      A
 Frequencies --    791.7594               806.6163               813.0109
 Red. masses --      3.1447                 1.5674                 4.7074
 Frc consts  --      1.1615                 0.6008                 1.8333
 IR Inten    --      1.5385                54.0311                36.2196
  Atom  AN      X      Y      Z        X      Y      Z        X      Y      Z
     1   6     0.00  -0.05  -0.05     0.03   0.01   0.01    -0.04  -0.06  -0.11
     2   6    -0.15   0.06  -0.01    -0.10  -0.03  -0.02     0.18   0.03   0.03
     3   6     0.04  -0.02   0.09     0.07  -0.03  -0.06     0.00   0.07  -0.07
     4   6     0.03   0.02  -0.03    -0.01  -0.07   0.02    -0.05  -0.05   0.02
     5   1     0.08  -0.31   0.05     0.14  -0.06   0.06    -0.13   0.13  -0.19
     6   1     0.04   0.39  -0.31    -0.04  -0.39   0.35    -0.13  -0.16   0.35
     7   6     0.02  -0.01   0.17    -0.06   0.01   0.05    -0.04   0.05  -0.14
     8   1     0.07  -0.02   0.14    -0.07   0.04   0.01    -0.09   0.01  -0.04
     9   1     0.11  -0.06   0.14    -0.09   0.03   0.07    -0.19   0.08  -0.15
    10   6    -0.02   0.02  -0.16     0.04   0.08  -0.08    -0.04  -0.09   0.15
    11   1     0.33   0.33   0.10    -0.10  -0.07  -0.19    -0.09  -0.01   0.15
    12   6     0.04  -0.07  -0.01     0.03   0.02   0.02    -0.02   0.04   0.06
    13   1    -0.21  -0.22  -0.02     0.16   0.32   0.60     0.29   0.23   0.11
    14   1    -0.13   0.11  -0.03    -0.13  -0.10   0.04     0.24   0.14   0.09
    15   1     0.02   0.17  -0.03     0.03   0.12  -0.19     0.01  -0.11   0.02
    16   7    -0.01  -0.08  -0.02    -0.01   0.00  -0.01    -0.05  -0.10  -0.01
[...]
 -0.00000593,-0.00001354,-0.00003854,0.00019093,0.00015180,0.00001262,-
 0.00000479,-0.00002211,-0.00003330,-0.00001359,-0.00000995,-0.00003033
 ,-0.00000151,0.00001658,-0.00001572,-0.00141406,0.00002825,-0.00038998
 ,0.00060053,0.00037407,-0.00056607,0.00122599,0.00016158,0.00329233,0.
 00016425,-0.00019560,-0.00012069,-0.00011445,0.00008460,-0.00001477,-0
 .00117693,-0.00019473,-0.00056650,-0.00012768,0.00007085,0.00006869,-0
 .00511324,-0.00129539,-0.00803586,-0.00092370,-0.04388514,-0.32779251,
 0.00707463,0.04848672,0.34731271,-0.00017519,-0.00051248,0.00021011,0.
 00009543,0.00019129,0.00001734,0.00000858,-0.00003935,-0.00001086,0.00
 021771,-0.00035862,0.00002687,0.00002055,0.00003194,-0.00004807,-0.000
 25526,0.00017949,-0.00011809,-0.00002734,-0.00001244,-0.00002832,-0.00
 000191,-0.00001637,-0.00001309,0.00000849,0.00001269,0.00001442,-0.000
 17661,0.00011896,0.00022205,-0.00000436,-0.00000705,-0.00003778,0.0002
 0150,0.00014178,-0.00003991,-0.00001466,-0.00002750,-0.00003497,-0.000
 01399,-0.00000629,-0.00003395,-0.00001173,0.00001186,-0.00002593,-0.00
 161410,0.00059743,-0.00034885,0.00029217,0.00037013,-0.00088354,0.0009
 5571,0.00023266,0.01047028,0.00038436,-0.00037563,-0.00011068,-0.00023
 162,0.00020206,-0.00012404,0.00191616,0.00046456,-0.00202617,-0.000202
 77,0.00009266,0.00009010,-0.03291195,-0.02816304,0.00622547,-0.0956534
 1,-0.08343285,0.05511724,0.00167241,0.00137376,-0.00030736,0.11742974,
 0.00008970,0.00015736,-0.00008572,-0.00002743,0.00000424,0.00000602,-0
 .00002907,0.00001573,0.00002472,0.00000693,0.00011103,0.00002193,0.000
 00602,-0.00000832,0.00000137,0.00021834,0.00008150,0.00003877,-0.00000
 246,-0.00001856,-0.00000157,-0.00000844,-0.00000161,-0.00000042,0.0000
 0206,0.00000379,0.00000784,0.00007804,-0.00003811,-0.00006333,0.000006
 92,0.00001004,0.00001020,-0.00007949,-0.00006019,-0.00000440,0.0000034
 1,0.00000757,0.00000779,-0.00000187,-0.00000267,-0.00000041,-0.0000000
 3,0.00000059,0.00001033,0.00025004,-0.00034919,-0.00048606,-0.00001600
 ,-0.00008709,0.00007250,-0.00157168,0.00117890,0.00447418,0.00012621,-
 0.00004273,-0.00000530,-0.00004272,0.00003331,-0.00003793,0.00272606,0
 .00032483,-0.00026600,-0.00003781,0.00000874,0.00001921,-0.00426259,0.
 00443152,-0.00486010,-0.08921321,-0.21076973,0.10437543,0.00420841,0.0
 0633414,-0.00393211,0.09869002,0.21671983,-0.00000773,-0.00006866,0.00
 000059,0.00000447,0.00004836,-0.00000046,0.00000308,-0.00001542,-0.000
 00484,-0.00000049,-0.00010185,0.00003784,-0.00000711,0.00000513,-0.000
 00371,0.00005575,-0.00000247,-0.00001879,-0.00000294,0.00000267,-0.000
 00009,0.00000401,0.00000042,-0.00000170,-0.00001217,-0.00000168,-0.000
 00309,-0.00000208,0.00003807,0.00003793,-0.00000302,-0.00000259,-0.000
 00299,0.00006195,0.00001345,-0.00001478,-0.00000241,-0.00000647,-0.000
 00951,-0.00000354,-0.00000287,-0.00000557,-0.00000319,-0.00000976,-0.0
 0000332,-0.00028319,0.00070393,-0.00003642,0.00006464,0.00004460,-0.00
 023841,-0.00210078,-0.00132564,0.00286506,0.00000528,0.00000290,-0.000
 00525,-0.00000303,-0.00000914,0.00000479,0.00092250,0.00006960,-0.0006
 5576,0.00002918,-0.00001465,-0.00001454,-0.00670760,-0.01066960,0.0055
 1000,0.06104303,0.10896015,-0.12003510,0.01159784,0.02279735,-0.010223
 80,-0.06152274,-0.11328738,0.11882614,-0.00047308,-0.00086113,0.000384
 13,0.00016307,0.00020618,-0.00001422,0.00005101,-0.00005600,-0.0000927
 4,0.00010822,-0.00037347,-0.00004469,0.00001425,0.00004066,-0.00005787
 ,-0.00039886,0.00007347,-0.00010718,-0.00003206,0.00003374,-0.00002833
 ,0.00000996,-0.00001766,-0.00000354,0.00001907,0.00000556,0.00001074,-
 0.00030668,0.00018232,0.00034711,0.00000020,-0.00001631,-0.00005322,0.
 00042185,0.00028253,0.00001404,-0.00001330,-0.00004259,-0.00005677,-0.
 00001066,-0.00000336,-0.00004021,-0.00001313,0.00000588,-0.00003335,-0
 .00223084,-0.00058448,0.00001122,0.00086370,0.00035736,-0.00130329,0.0
 0135366,0.00220786,0.01054068,0.00018140,-0.00028805,-0.00016642,-0.00
 014934,0.00014322,-0.00005678,0.00146823,-0.00056757,-0.00234157,-0.00
 013410,0.00007814,0.00005127,-0.03387531,0.02798480,-0.00318318,-0.097
 33197,0.09726751,0.02628403,0.00160011,-0.00125454,0.00023388,0.008035
 84,-0.01113371,-0.00312388,0.12063065,-0.00011238,-0.00013580,-0.00001
 895,0.00001432,0.00009262,-0.00001015,0.00000903,0.00002487,-0.0000265
 5,-0.00014449,0.00009667,-0.00005472,-0.00000056,-0.00001365,0.0000069
 7,0.00053499,0.00013299,0.00009710,-0.00000377,0.00000879,0.00001009,0
 .00000353,0.00000373,0.00000257,-0.00000323,-0.00000725,-0.00000836,0.
 00007016,-0.00000014,0.00002724,0.00000617,-0.00000314,0.00000211,0.00
 007959,0.00000421,0.00006137,0.00000327,-0.00000398,-0.00000923,-0.000
 00670,-0.00001169,-0.00000555,0.00000646,0.00000286,0.00001269,-0.0001
 1891,-0.00039901,0.00054577,-0.00010095,0.00005133,-0.00006509,0.00052
 530,0.00044411,-0.00348221,-0.00002505,0.00001837,0.00002649,0.0000290
 7,-0.00001149,0.00000651,-0.00191534,0.00032658,0.00003689,0.00003328,
 0.00000126,-0.00001027,0.00175279,0.01029916,0.00407483,0.10290669,-0.
 25594646,-0.05533526,-0.00013942,-0.00143865,0.00068741,0.01026577,-0.
 01803985,-0.00717283,-0.11365338,0.26450382,-0.00004165,-0.00008659,0.
 00002159,0.00000470,0.00003465,0.00000572,-0.00003117,-0.00000066,-0.0
 0000651,0.00003698,-0.00002316,-0.00002071,0.00000524,-0.00000645,-0.0
 0000457,0.00008703,0.00000857,0.00010205,-0.00000642,-0.00000623,-0.00
 001119,-0.00000463,0.00000017,-0.00000112,-0.00000336,-0.00000199,0.00
 000211,-0.00000568,0.00002660,0.00003219,0.00000490,-0.00000063,-0.000
 00212,0.00006180,0.00002217,-0.00001217,0.00000405,0.00000344,0.000000
 42,-0.00000571,-0.00000562,-0.00000715,-0.00000647,-0.00000866,-0.0000
 0211,-0.00033078,-0.00055133,-0.00000116,0.00009356,-0.00002598,-0.000
 25283,-0.00222592,0.00170312,0.00352600,0.00009351,-0.00000514,-0.0000
 1647,-0.00002490,0.00001212,-0.00001795,0.00116232,-0.00008575,-0.0009
 2300,-0.00000385,0.00000982,0.00000145,-0.00782043,0.00991974,0.000908
 00,0.02999758,-0.05959769,-0.06578261,0.01280653,-0.02589513,-0.003126
 98,-0.00667902,0.01396204,0.00399535,-0.02717060,0.06060319,0.06159614
 ,-0.00071722,-0.00117000,-0.00048143,0.00045571,0.00040021,-0.00005319
 ,0.00018029,0.00004895,-0.00029185,0.00023307,-0.00167684,0.00010199,-
 0.00035397,0.00076801,-0.00079492,0.00006359,0.00012457,-0.00027447,0.
 00005411,-0.00012147,0.00003891,0.00004814,-0.00019068,-0.00011275,-0.
 00012066,0.00017888,0.00021098,-0.00053202,0.00044741,0.00031011,0.000
 13164,0.00008104,-0.00006366,0.00131203,0.00034618,0.00039061,-0.00001
 055,-0.00017583,-0.00024956,0.00115930,0.00078119,0.00053860,-0.000012
 54,-0.00001938,-0.00006891,0.00027607,0.00066166,-0.00043434,0.0064464
 8,-0.00147981,0.00185500,-0.00154007,-0.00069352,0.00019519,-0.0570520
 2,0.01074266,0.03150036,-0.00012822,0.00283500,-0.01806037,0.00100000,
 0.00005829,-0.00034820,-0.20920420,0.05385154,-0.01881177,0.00098656,0
 .00023401,0.00052555,-0.00053654,-0.00005147,-0.00022080,0.00004087,0.
 00000632,0.00005648,0.00009057,0.00002124,-0.00001063,0.00007088,-0.00
 002006,0.00000455,0.51062831,0.00127012,0.00082843,-0.00052259,0.00031
 103,0.00004430,0.00012849,-0.00011883,0.00003973,0.00019666,-0.0002770
 9,0.00050592,0.00002817,0.00013699,-0.00016364,0.00001269,-0.00003051,
 -0.00005193,0.00011445,-0.00011416,0.00002852,-0.00014539,-0.00000023,
 0.00004719,0.00002324,0.00008037,-0.00002994,-0.00007978,0.00020329,-0
 .00041877,-0.00013949,-0.00002933,0.00000213,0.00004563,-0.00060548,-0
 .00024833,-0.00018338,-0.00001829,0.00004521,0.00008030,-0.00015916,-0
 .00127456,-0.00030740,-0.00001595,0.00001171,0.00001862,-0.00000007,0.
 00062089,0.00028900,-0.00492290,0.00354085,0.00286637,0.00085376,0.000
 33269,0.00005424,0.00977729,-0.00024435,-0.01154247,-0.00303488,-0.004
 97043,0.00508736,-0.00044076,-0.00010041,0.00011068,0.06353464,-0.0906
 1445,0.01358235,-0.00038566,-0.00012868,-0.00026962,0.00020034,0.00003
 451,0.00007737,-0.00001814,0.00000115,-0.00002505,-0.00003918,-0.00000
 761,0.00000682,-0.00002536,0.00000105,-0.00000520,0.03957315,0.5875635
 9,-0.00034140,0.00010921,-0.00020860,0.00020744,-0.00013556,-0.0001107
 1,-0.00006106,0.00001491,-0.00000119,-0.00000572,-0.00004203,0.0000503
 9,0.00001597,-0.00017608,0.00016535,-0.00000673,0.00003878,-0.00001656
 ,0.00000909,-0.00001421,-0.00007362,0.00000715,-0.00003424,-0.00000289
 ,0.00005225,0.00002299,0.00000834,-0.00011302,0.00001171,0.00009304,0.
 00000212,0.00004538,0.00000860,0.00003504,0.00004398,-0.00002834,-0.00
 001068,-0.00000691,-0.00001561,0.00034276,-0.00045375,0.00024374,-0.00
 000685,0.00002263,-0.00000858,0.00165174,-0.00016767,0.00064207,0.0021
 6235,0.00166606,-0.00406887,0.00005699,-0.00025543,-0.00018585,0.03552
 664,-0.01340268,0.00479154,0.00446326,-0.00198158,-0.00223056,0.000258
 59,0.00006250,-0.00007932,-0.04541555,0.02245545,-0.09466262,0.0000961
 2,0.00002755,0.00004502,-0.00003703,0.00000645,0.00000649,0.00000563,-
 0.00000057,0.00000311,0.00000610,-0.00000138,-0.00000103,0.00000635,-0
 .00000257,-0.00000220,-0.03554124,0.00045145,0.63571353,0.00040226,0.0
 0055124,-0.00015147,-0.00039432,-0.00022665,0.00003625,-0.00003308,-0.
 00002477,0.00005367,-0.00006390,0.00031690,0.00001948,0.00008190,-0.00
 015203,0.00011849,-0.00000504,-0.00003007,0.00004320,0.00005913,0.0000
 2211,0.00007309,-0.00001225,0.00002339,0.00002041,-0.00000732,-0.00001
 446,-0.00000431,0.00019380,-0.00009077,-0.00028412,-0.00000372,0.00000
 070,0.00003636,-0.00025896,-0.00016953,-0.00002603,0.00001877,0.000033
 56,0.00004890,-0.00033880,0.00033574,-0.00019425,0.00002075,0.00000079
 ,0.00002773,0.00037776,-0.00005082,-0.00006519,-0.00184065,0.00070900,
 0.00097463,-0.00000168,0.00014257,-0.00007832,0.00449960,-0.00008162,-
 0.01067723,0.00157848,-0.00087343,0.00301370,-0.00005246,-0.00002551,0
 .00001238,-0.03366769,-0.01119333,-0.02045665,-0.00007259,-0.00002672,
 0.00001018,0.00004271,0.00000654,0.00001851,-0.00000225,-0.00000063,-0
 .00000329,-0.00000844,-0.00000278,0.00000142,-0.00000511,0.00000153,-0
 .00000061,-0.09930520,-0.06312463,-0.08029512,0.11874529,-0.00011118,-
 0.00027900,0.00012932,0.00021594,0.00025329,-0.00008827,0.00001474,0.0
 0000970,0.00000084,0.00004164,-0.00020222,-0.00000561,-0.00003165,0.00
 004816,-0.00003250,-0.00000363,0.00001576,-0.00001416,-0.00007191,0.00
 004568,-0.00006767,0.00000278,-0.00000590,-0.00000575,-0.00000942,0.00
 001314,0.00000238,-0.00013410,0.00006685,0.00024527,-0.00001312,-0.000
 02257,-0.00003261,0.00016345,0.00012986,-0.00000028,-0.00002400,-0.000
 01276,-0.00001292,0.00010389,-0.00009122,0.00000321,-0.00001454,-0.000
 00009,-0.00001760,-0.00023978,-0.00003041,0.00010118,0.00082337,-0.000
 48998,-0.00017147,0.00002709,-0.00005252,0.00002512,-0.00109480,0.0013
 4172,-0.00018893,0.00133933,-0.00048528,0.00008068,-0.00000667,0.00001
 244,0.00001713,0.01113539,0.01065195,0.01282557,0.00003055,0.00001782,
 0.00000949,-0.00001101,-0.00000318,-0.00000701,0.00000199,-0.00000060,
 0.00000235,0.00000350,0.00000040,-0.00000106,0.00000148,0.00000031,0.0
 0000046,-0.06876416,-0.13526276,-0.10958600,0.06665703,0.13488075,0.00
 018538,-0.00000900,-0.00000787,-0.00014958,0.00007969,-0.00003490,0.00
 001630,-0.00001504,0.00000210,-0.00000101,0.00005365,0.00004635,0.0000
 2678,-0.00005539,0.00004192,0.00000068,-0.00001900,0.00001693,0.000013
 81,-0.00000329,0.00005492,-0.00000555,0.00000853,0.00000761,0.00000896
 ,-0.00001528,-0.00000929,0.00007691,0.00001000,-0.00005249,-0.00002236
 ,-0.00000674,-0.00000278,-0.00004680,-0.00003037,-0.00003136,0.0000025
 1,0.00001051,0.00001499,-0.00029144,0.00018184,0.00001277,0.00001065,-
 0.00000403,0.00001074,0.00019164,-0.00001255,-0.00003611,-0.00070749,-
 0.00033814,0.00000143,-0.00001596,0.00005129,-0.00005114,0.00304128,0.
 00037030,-0.00053417,-0.00031427,0.00003827,0.00049906,-0.00003253,-0.
 00000719,0.00001533,-0.00690750,0.00297549,0.00039139,-0.00005291,-0.0
 0000570,0.00000063,0.00002611,-0.00000128,0.00001017,-0.00000076,-0.00
 000089,-0.00000148,-0.00000441,-0.00000130,0.00000047,-0.00000427,0.00
 000231,0.00000089,-0.08708632,-0.10886739,-0.18963397,0.09909322,0.114
 56262,0.19616211,-0.00003655,0.00015793,0.00018203,-0.00022898,-0.0001
 3118,-0.00002651,-0.00001490,-0.00002678,0.00002359,0.00000082,0.00025
 978,-0.00004400,0.00005244,-0.00012644,0.00018970,-0.00000986,-0.00001
 116,0.00003769,0.00003346,0.00002857,0.00000861,-0.00001061,0.00002179
 ,0.00002269,-0.00000276,-0.00001924,-0.00001585,0.00006916,0.00000434,
 -0.00006255,-0.00002389,-0.00001065,0.00000658,-0.00017138,-0.00002505
 ,-0.00004528,0.00000602,0.00003243,0.00004012,-0.00019853,-0.00003450,
 -0.00005483,0.00000677,0.00000487,0.00001198,-0.00011568,-0.00022327,-
 0.00007629,-0.00074589,-0.00026658,-0.00023634,0.00018936,0.00012573,0
 .00005543,0.00436260,0.00255572,-0.00738217,0.00015385,-0.00093967,0.0
 0232874,-0.00014890,-0.00000947,0.00003810,-0.01440846,0.04050661,-0.0
 0766867,-0.00011496,-0.00004283,-0.00007657,0.00005958,0.00000823,0.00
 002679,-0.00000666,-0.00000005,-0.00000770,-0.00001302,-0.00000196,0.0
 0000189,-0.00000802,0.00000062,-0.00000087,-0.05011511,-0.02831159,0.0
 0805474,0.00103366,-0.01252768,0.00504390,0.05981421,0.00010390,0.0000
 8245,-0.00008842,-0.00006288,0.00010017,-0.00000511,0.00002746,-0.0000
 0692,-0.00002530,-0.00001648,-0.00010966,0.00004420,-0.00003875,0.0000
 7630,-0.00009860,0.00000626,-0.00000414,-0.00001911,-0.00000251,-0.000
 02514,0.00003611,0.00000261,-0.00001143,-0.00000851,-0.00000967,0.0000
 0023,0.00001592,0.00000322,0.00004006,-0.00002295,0.00000452,0.0000087
 1,-0.00000611,0.00008541,0.00000521,0.00002004,0.00000084,-0.00000814,
 -0.00001393,0.00000974,0.00015069,0.00000107,0.00000469,-0.00000549,0.
 ,0.00035241,0.00000959,-0.00008550,0.00002579,-0.00040653,-0.00033419,
 -0.00025683,-0.00003661,-0.00007095,-0.00260072,-0.00020488,0.00615354
 ,-0.00146320,0.00118341,-0.00166267,0.00014255,0.00000496,-0.00004550,
 0.01231547,-0.00821268,0.00149021,0.00007802,0.00002325,0.00007586,-0.
 00004874,-0.00000826,-0.00001724,0.00000491,-0.00000043,0.00000602,0.0
 0000917,0.00000225,-0.00000196,0.00000587,-0.00000053,0.00000109,-0.01
 896918,-0.30544345,0.07286815,-0.00156578,-0.01330433,0.00567880,0.012
 53465,0.32465058,0.00006522,-0.00000750,-0.00001734,-0.00008834,0.0000
 2160,0.00002931,-0.00000766,-0.00000426,0.00001386,0.00002108,0.000090
 16,0.00001313,0.00003911,-0.00002858,0.00003963,-0.00000269,-0.0000086
 9,0.00001699,-0.00001569,0.00000264,0.00002741,-0.00000398,0.00001482,
 0.00000490,0.00001696,-0.00001790,-0.00001958,0.00002952,-0.00004797,-
 0.00003163,-0.00000370,-0.00001092,0.00000150,-0.00005728,-0.00000571,
 -0.00002117,0.00000406,0.00001025,0.00001333,-0.00014473,0.00006564,-0
 .00005793,0.00000378,0.00000090,0.00000620,-0.00010295,0.00003858,-0.0
 0004032,-0.00017225,0.00030182,0.00003249,0.00014526,0.00003155,0.0000
 4963,0.00191202,-0.00178681,0.00083608,-0.00095434,0.00046068,-0.00011
 790,-0.00007592,-0.00000449,0.00000566,-0.00372052,0.00522448,-0.00050
 945,-0.00007357,-0.00002413,-0.00007245,0.00003452,0.00000570,0.000014
 54,-0.00000495,0.00000093,-0.00000579,-0.00000675,-0.00000085,0.000001
 94,-0.00000518,-0.00000012,-0.00000101,0.00551357,0.07486181,-0.071352
 99,-0.00107172,-0.02184215,0.00689599,-0.00206575,-0.08261623,0.068313
 37,0.00023758,0.00031543,0.00001523,-0.00007144,-0.00015977,-0.0000075
 2,-0.00000935,-0.00000830,0.00002815,-0.00008401,0.00026538,-0.0000471
 4,0.00000403,-0.00003688,0.00007451,-0.00000558,-0.00002860,0.00004555
 ,0.00002250,-0.00000308,0.00000878,-0.00000376,0.00002098,0.00000912,0
 .00000315,-0.00001766,-0.00002026,0.00012028,-0.00007867,-0.00013170,-
 0.00000913,0.00001044,0.00002659,-0.00024011,-0.00010571,-0.00004219,0
 .00000867,0.00002582,0.00003692,-0.00005913,-0.00002219,-0.00001110,0.
 00000300,-0.00000205,0.00001383,-0.00033146,0.00000083,-0.00026562,-0.
 00148571,-0.00008567,0.00159404,0.00015314,0.00020809,0.00009165,-0.00
 203309,0.00248481,-0.00605635,0.00149233,-0.00060716,0.00115453,-0.000
 17235,-0.00004066,0.00002735,-0.03006574,0.00140914,0.03160912,-0.0001
 3034,-0.00004845,-0.00009392,0.00006248,0.00000714,0.00002753,-0.00000
 899,-0.00000080,-0.00000914,-0.00001289,-0.00000213,0.00000150,-0.0000
 0962,0.00000164,-0.00000066,-0.10354932,-0.01426876,0.10887404,0.00901
 933,0.00249550,-0.01209498,0.00059225,-0.00068276,0.00079287,0.1265632
 6,-0.00009819,-0.00011003,-0.00000010,0.00005328,0.00004265,0.00002400
 ,-0.00001044,0.00000547,-0.00000102,0.00003237,-0.00007081,0.00001142,
 0.00001686,0.00001850,0.00000412,0.00000093,0.00001077,-0.00001068,-0.
 00002111,0.00000324,-0.00001266,0.00000147,-0.00000178,-0.00000306,-0.
 00000489,0.00000040,0.00000577,-0.00002416,0.00001939,0.00004072,0.000
 01348,-0.00001312,-0.00000340,0.00007339,0.00002536,0.00001784,-0.0000
 0230,-0.00000686,-0.00001069,-0.00000573,0.00005429,-0.00009614,-0.000
 00257,0.00000184,-0.00000477,0.00011845,0.00000598,0.00009736,0.000427
 43,0.00025028,-0.00065969,0.00003486,-0.00008070,-0.00000111,0.0017882
 2,-0.00095423,0.00216571,-0.00076494,0.00100815,-0.00029646,0.00002677
 ,0.00001548,-0.00000657,0.01189133,-0.00012394,-0.01338741,0.00001292,
 0.00000477,-0.00000686,-0.00000575,0.00000184,0.00000048,0.00000079,0.
 00000116,0.00000014,0.00000106,-0.00000013,0.00000059,0.00000102,-0.00
 000108,-0.00000096,-0.01782790,-0.05468860,0.02841345,0.00885244,0.002
 75497,-0.01463071,-0.01353317,0.00145075,0.02527478,0.00895410,0.05037
 598,-0.00005906,-0.00014545,0.00002341,0.00002121,0.00004606,0.0000126
 6,0.00000280,0.00000638,-0.00000833,0.00003157,-0.00010275,0.00000487,
 -0.00000924,0.00003142,-0.00003793,0.00000026,0.00000796,-0.00001467,-
 0.00000192,0.00001038,-0.00000529,-0.00000024,-0.00000409,-0.00000386,
 -0.00001919,0.00001228,0.00001285,-0.00002555,0.00003649,0.00003512,0.
 00001353,-0.00000647,-0.00000616,0.00008948,0.00002237,0.00003052,-0.0
 0000230,-0.00000849,-0.00001205,0.00003539,0.00006350,-0.00008715,-0.0
 0000047,-0.00000149,-0.00000528,-0.00013632,0.00004552,0.00005793,0.00
 021931,-0.00003663,0.00028792,-0.00007239,-0.00004192,0.00002906,-0.00
 306763,0.00114606,-0.00045119,0.00170783,-0.00055926,0.00050130,0.0000
 2604,0.00000083,-0.00000505,-0.00619945,-0.00046225,0.00936474,0.00005
 286,0.00001298,0.00002629,-0.00002643,-0.00000196,-0.00001056,0.000002
 24,0.00000067,0.00000295,0.00000455,0.00000193,-0.00000096,0.00000385,
 -0.00000170,-0.00000007,0.12166251,0.02405203,-0.27908765,0.00970670,0
 .00406841,-0.01379025,0.00169080,-0.00126871,-0.00406839,-0.12565073,-
 0.02692410,0.28720520\\-0.00001942,-0.00001825,0.00000046,0.00000354,0
 .00000862,0.00000474,-0.00000393,-0.00000305,0.00000974,0.00000253,-0.
 00000063,0.00000956,-0.00000362,0.00001270,-0.00000121,-0.00000204,0.0
 0000066,0.00000368,-0.00000492,-0.00000906,-0.00000107,0.00000046,-0.0
 0000271,0.00000189,0.00000304,-0.00000454,0.00000239,0.00000370,0.0000
 1219,0.00000776,-0.00000610,0.00000443,0.00000390,-0.00000287,0.000002
 08,0.00000263,-0.00000464,0.00000016,0.00001021,-0.00000511,0.00000235
 ,-0.00000090,0.00000024,-0.00000706,0.00000880,0.00001342,0.00000461,0
 .00000606,0.00003072,0.00000449,-0.00000513,-0.00000725,-0.00000965,-0
 .00000269,-0.00001722,0.00000272,-0.00001847,0.00000394,-0.00000275,-0
 .00000617,-0.00000186,-0.00000935,-0.00000352,0.00000560,-0.00000716,-
 0.00000262,0.00000372,0.00000480,-0.00000027,0.00000252,-0.00000092,0.
 00000460,0.00000109,0.00000155,0.00000093,0.00000029,-0.00000297,0.000
 00078,-0.00000332,-0.00000277,0.00000441,0.00000124,0.00000360,-0.0000
 0934,0.00000246,0.00000262,-0.00000827,0.00000359,0.00000453,-0.000013
 12,0.00000021,0.00000875,-0.00000974\\\@


 REFRAIN FROM ILLUSIONS, INSIST ON WORK AND NOT WORDS,
 PATIENTLY SEEK DIVINE AND SCIENTIFIC TRUTH.
 LAST WORDS OF MARIA MENDELEEVA TO HER SON DMITRI, C. 1850
 Job cpu time:       0 days  1 hours 33 minutes 26.7 seconds.
 File lengths (MBytes):  RWF=    393 Int=      0 D2E=      0 Chk=     13 Scr=      1
 Normal termination of Gaussian 09 at Mon Sep  7 19:25:59 2020.
