 Entering Gaussian System, Link 0=g09
 Input=m062x_TS_associated_cycloaddition_PM6_toluene_3.com
 Output=m062x_TS_associated_cycloaddition_PM6_toluene_3.log
 Initial command:
 /apps/applications/gaussian/G09.D01/2/default/g09/l1.exe "/local/726100.1.40core-192G.q/Gau-397569.inp" -scrdir="/local/726100.1.40core-192G.q/"
 Entering Link 1 = /apps/applications/gaussian/G09.D01/2/default/g09/l1.exe PID=    397570.
  
 Copyright (c) 1988,1990,1992,1993,1995,1998,2003,2009,2013,
            Gaussian, Inc.  All Rights Reserved.
  
 This is part of the Gaussian(R) 09 program.  It is based on
 the Gaussian(R) 03 system (copyright 2003, Gaussian, Inc.),
 the Gaussian(R) 98 system (copyright 1998, Gaussian, Inc.),
 the Gaussian(R) 94 system (copyright 1995, Gaussian, Inc.),
 the Gaussian 92(TM) system (copyright 1992, Gaussian, Inc.),
 the Gaussian 90(TM) system (copyright 1990, Gaussian, Inc.),
 the Gaussian 88(TM) system (copyright 1988, Gaussian, Inc.),
 the Gaussian 86(TM) system (copyright 1986, Carnegie Mellon
 University), and the Gaussian 82(TM) system (copyright 1983,
 Carnegie Mellon University). Gaussian is a federally registered
 trademark of Gaussian, Inc.
  
 This software contains proprietary and confidential information,
 including trade secrets, belonging to Gaussian, Inc.
  
 This software is provided under written license and may be
 used, copied, transmitted, or stored only in accord with that
 written license.
  
 The following legend is applicable only to US Government
 contracts under FAR:
  
                    RESTRICTED RIGHTS LEGEND
  
 Use, reproduction and disclosure by the US Government is
 subject to restrictions as set forth in subparagraphs (a)
 and (c) of the Commercial Computer Software - Restricted
 Rights clause in FAR 52.227-19.
  
 Gaussian, Inc.
 340 Quinnipiac St., Bldg. 40, Wallingford CT 06492
  
  
 ---------------------------------------------------------------
 Warning -- This program may not be used in any manner that
 competes with the business of Gaussian, Inc. or will provide
 assistance to any competitor of Gaussian, Inc.  The licensee
 of this program is prohibited from giving any competitor of
 Gaussian, Inc. access to this program.  By using this program,
 the user acknowledges that Gaussian, Inc. is engaged in the
 business of creating and licensing software in the field of
 computational chemistry and represents and warrants to the
 licensee that it is not a competitor of Gaussian, Inc. and that
 it will not use this program in any manner prohibited above.
 ---------------------------------------------------------------
  

 Cite this work as:
 Gaussian 09, Revision D.01,
 M. J. Frisch, G. W. Trucks, H. B. Schlegel, G. E. Scuseria, 
 M. A. Robb, J. R. Cheeseman, G. Scalmani, V. Barone, B. Mennucci, 
 G. A. Petersson, H. Nakatsuji, M. Caricato, X. Li, H. P. Hratchian, 
 A. F. Izmaylov, J. Bloino, G. Zheng, J. L. Sonnenberg, M. Hada, 
 M. Ehara, K. Toyota, R. Fukuda, J. Hasegawa, M. Ishida, T. Nakajima, 
 Y. Honda, O. Kitao, H. Nakai, T. Vreven, J. A. Montgomery, Jr., 
 J. E. Peralta, F. Ogliaro, M. Bearpark, J. J. Heyd, E. Brothers, 
 K. N. Kudin, V. N. Staroverov, T. Keith, R. Kobayashi, J. Normand, 
 K. Raghavachari, A. Rendell, J. C. Burant, S. S. Iyengar, J. Tomasi, 
 M. Cossi, N. Rega, J. M. Millam, M. Klene, J. E. Knox, J. B. Cross, 
 V. Bakken, C. Adamo, J. Jaramillo, R. Gomperts, R. E. Stratmann, 
 O. Yazyev, A. J. Austin, R. Cammi, C. Pomelli, J. W. Ochterski, 
 R. L. Martin, K. Morokuma, V. G. Zakrzewski, G. A. Voth, 
 P. Salvador, J. J. Dannenberg, S. Dapprich, A. D. Daniels, 
 O. Farkas, J. B. Foresman, J. V. Ortiz, J. Cioslowski, 
 and D. J. Fox, Gaussian, Inc., Wallingford CT, 2013.
 
 ******************************************
 Gaussian 09:  ES64L-G09RevD.01 24-Apr-2013
                 7-Sep-2020 
 ******************************************
 %nprocshared=4
 Will use up to    4 processors via shared memory.
 %chk=m062x_TS_associated_cycloaddition_PM6_toluene_3.chk
 ----------------------------------------------------------------------
 # opt=(calcfc,ts,noeigentest) scrf=(cpcm,solvent=toluene) geom=connect
 ivity def2svp m062x empiricaldispersion=gd3
 ----------------------------------------------------------------------
 1/5=1,10=4,11=1,14=-1,18=20,26=3,38=1,57=2/1,3;
 2/9=110,12=2,17=6,18=5,40=1/2;
 3/5=43,7=101,11=2,16=1,25=1,30=1,70=2101,71=2,72=13,74=-55,124=31,140=1/1,2,3;
 4//1;
 5/5=2,38=5,53=13/2;
 8/6=4,10=90,11=11/1;
 11/6=1,8=1,9=11,15=111,16=1/1,2,10;
 10/6=1,13=1/2;
 6/7=2,8=2,9=2,10=2,28=1/1;
 7/10=1,18=20,25=1/1,2,3,16;
 1/5=1,10=4,11=1,14=-1,18=20,26=3/3(2);
 2/9=110/2;
 99//99;
 2/9=110/2;
 3/5=43,7=101,11=2,16=1,25=1,30=1,70=2105,71=1,72=13,74=-55,124=31/1,2,3;
 4/5=5,16=3,69=1/1;
 5/5=2,38=5,53=13/2;
 7//1,2,3,16;
 1/5=1,11=1,14=-1,18=20,26=3/3(-5);
 2/9=110/2;
 6/7=2,8=2,9=2,10=2,19=2,28=1/1;
 99/9=1/99;
 -------------------
 Title Card Required
 -------------------
 Symbolic Z-matrix:
 Charge =  0 Multiplicity = 1
 C                     0.48989   0.85263  -0.73315 
 C                     0.88896   1.65797   0.60604 
 C                    -1.41937   1.99989   0.33634 
 C                    -0.97774   1.28278  -0.95103 
 H                     1.13815   0.65014  -1.59189 
 H                    -1.62264   0.76749  -1.64098 
 C                    -0.39522   1.74189   1.4464 
 H                    -0.34696   2.56708   2.17786 
 H                    -0.607     0.82394   2.02513 
 C                     0.76527   2.6019   -0.51728 
 H                     1.55089   3.13033  -1.02443 
 C                    -0.71966   2.79365  -0.7879 
 H                    -1.1231    3.62403  -1.3337 
 H                     1.83345   1.4157    1.09647 
 H                    -2.45982   2.14061   0.59857 
 N                    -0.2716   -1.23554   0.70207 
 N                     0.46438  -0.90145  -0.30225 
 C                    -1.69844  -1.18817   0.59595 
 C                     1.85595  -1.36301  -0.13649 
 O                     2.21537  -2.49559  -0.3351 
 O                    -2.43814  -0.98953   1.53315 
 O                     2.69854  -0.30509   0.08357 
 O                    -2.14587  -1.50566  -0.66758 
 C                    -3.58338  -1.60964  -0.8536 
 H                    -3.66542  -1.87958  -1.91295 
 H                    -3.98498  -2.39534  -0.206 
 H                    -4.0528   -0.64433  -0.64267 
 C                     4.12781  -0.59731   0.07757 
 H                     4.35944  -1.31855   0.86803 
 H                     4.42216  -0.97746  -0.90548 
 H                     4.56559   0.38633   0.28379 
 
 Add virtual bond connecting atoms N17        and C1         Dist= 3.41D+00.

 GradGradGradGradGradGradGradGradGradGradGradGradGradGradGradGradGradGrad
 Berny optimization.
 Initialization pass.
                           ----------------------------
                           !    Initial Parameters    !
                           ! (Angstroms and Degrees)  !
 --------------------------                            --------------------------
 ! Name  Definition              Value          Derivative Info.                !
 --------------------------------------------------------------------------------
 ! R1    R(1,2)                  1.6128         calculate D2E/DX2 analytically  !
 ! R2    R(1,4)                  1.5448         calculate D2E/DX2 analytically  !
 ! R3    R(1,5)                  1.0948         calculate D2E/DX2 analytically  !
 ! R4    R(1,17)                 1.8064         calculate D2E/DX2 analytically  !
 ! R5    R(2,7)                  1.537          calculate D2E/DX2 analytically  !
 ! R6    R(2,10)                 1.4725         calculate D2E/DX2 analytically  !
 ! R7    R(2,14)                 1.0915         calculate D2E/DX2 analytically  !
 ! R8    R(3,4)                  1.5384         calculate D2E/DX2 analytically  !
 ! R9    R(3,7)                  1.5322         calculate D2E/DX2 analytically  !
 ! R10   R(3,12)                 1.5439         calculate D2E/DX2 analytically  !
 ! R11   R(3,15)                 1.0822         calculate D2E/DX2 analytically  !
 ! R12   R(4,6)                  1.0758         calculate D2E/DX2 analytically  !
 ! R13   R(4,12)                 1.5414         calculate D2E/DX2 analytically  !
 ! R14   R(7,8)                  1.1038         calculate D2E/DX2 analytically  !
 ! R15   R(7,9)                  1.1056         calculate D2E/DX2 analytically  !
 ! R16   R(10,11)                1.0741         calculate D2E/DX2 analytically  !
 ! R17   R(10,12)                1.5215         calculate D2E/DX2 analytically  !
 ! R18   R(12,13)                1.0725         calculate D2E/DX2 analytically  !
 ! R19   R(16,17)                1.2892         calculate D2E/DX2 analytically  !
 ! R20   R(16,18)                1.4316         calculate D2E/DX2 analytically  !
 ! R21   R(17,19)                1.4755         calculate D2E/DX2 analytically  !
 ! R22   R(18,21)                1.2104         calculate D2E/DX2 analytically  !
 ! R23   R(18,23)                1.3775         calculate D2E/DX2 analytically  !
 ! R24   R(19,20)                1.2047         calculate D2E/DX2 analytically  !
 ! R25   R(19,22)                1.3703         calculate D2E/DX2 analytically  !
 ! R26   R(22,28)                1.4588         calculate D2E/DX2 analytically  !
 ! R27   R(23,24)                1.4532         calculate D2E/DX2 analytically  !
 ! R28   R(24,25)                1.0963         calculate D2E/DX2 analytically  !
 ! R29   R(24,26)                1.0945         calculate D2E/DX2 analytically  !
 ! R30   R(24,27)                1.0939         calculate D2E/DX2 analytically  !
 ! R31   R(28,29)                1.0948         calculate D2E/DX2 analytically  !
 ! R32   R(28,30)                1.0943         calculate D2E/DX2 analytically  !
 ! R33   R(28,31)                1.0962         calculate D2E/DX2 analytically  !
 ! A1    A(2,1,4)              102.3068         calculate D2E/DX2 analytically  !
 ! A2    A(2,1,5)              126.6631         calculate D2E/DX2 analytically  !
 ! A3    A(2,1,17)             106.8756         calculate D2E/DX2 analytically  !
 ! A4    A(4,1,5)              120.2251         calculate D2E/DX2 analytically  !
 ! A5    A(4,1,17)             106.8943         calculate D2E/DX2 analytically  !
 ! A6    A(5,1,17)              90.9092         calculate D2E/DX2 analytically  !
 ! A7    A(1,2,7)              105.933          calculate D2E/DX2 analytically  !
 ! A8    A(1,2,10)              70.4799         calculate D2E/DX2 analytically  !
 ! A9    A(1,2,14)             118.4487         calculate D2E/DX2 analytically  !
 ! A10   A(7,2,10)             108.1753         calculate D2E/DX2 analytically  !
 ! A11   A(7,2,14)             119.305          calculate D2E/DX2 analytically  !
 ! A12   A(10,2,14)            123.902          calculate D2E/DX2 analytically  !
 ! A13   A(4,3,7)              109.627          calculate D2E/DX2 analytically  !
 ! A14   A(4,3,15)             122.6425         calculate D2E/DX2 analytically  !
 ! A15   A(7,3,12)             108.1316         calculate D2E/DX2 analytically  !
 ! A16   A(7,3,15)             119.2739         calculate D2E/DX2 analytically  !
 ! A17   A(12,3,15)            123.0477         calculate D2E/DX2 analytically  !
 ! A18   A(1,4,3)              106.5289         calculate D2E/DX2 analytically  !
 ! A19   A(1,4,6)              121.7743         calculate D2E/DX2 analytically  !
 ! A20   A(1,4,12)              95.6779         calculate D2E/DX2 analytically  !
 ! A21   A(3,4,6)              126.0049         calculate D2E/DX2 analytically  !
 ! A22   A(6,4,12)             129.6209         calculate D2E/DX2 analytically  !
 ! A23   A(2,7,3)               99.8779         calculate D2E/DX2 analytically  !
 ! A24   A(2,7,8)              111.507          calculate D2E/DX2 analytically  !
 ! A25   A(2,7,9)              113.6346         calculate D2E/DX2 analytically  !
 ! A26   A(3,7,8)              112.5479         calculate D2E/DX2 analytically  !
 ! A27   A(3,7,9)              113.0162         calculate D2E/DX2 analytically  !
 ! A28   A(8,7,9)              106.3912         calculate D2E/DX2 analytically  !
 ! A29   A(2,10,11)            127.8911         calculate D2E/DX2 analytically  !
 ! A30   A(2,10,12)            107.3651         calculate D2E/DX2 analytically  !
 ! A31   A(11,10,12)           124.6012         calculate D2E/DX2 analytically  !
 ! A32   A(3,12,10)            104.3593         calculate D2E/DX2 analytically  !
 ! A33   A(3,12,13)            126.7399         calculate D2E/DX2 analytically  !
 ! A34   A(4,12,10)             93.3648         calculate D2E/DX2 analytically  !
 ! A35   A(4,12,13)            129.9472         calculate D2E/DX2 analytically  !
 ! A36   A(10,12,13)           123.7264         calculate D2E/DX2 analytically  !
 ! A37   A(17,16,18)           120.1778         calculate D2E/DX2 analytically  !
 ! A38   A(1,17,16)            116.4579         calculate D2E/DX2 analytically  !
 ! A39   A(1,17,19)            108.4961         calculate D2E/DX2 analytically  !
 ! A40   A(16,17,19)           111.7061         calculate D2E/DX2 analytically  !
 ! A41   A(16,18,21)           123.8591         calculate D2E/DX2 analytically  !
 ! A42   A(16,18,23)           112.5886         calculate D2E/DX2 analytically  !
 ! A43   A(21,18,23)           123.3381         calculate D2E/DX2 analytically  !
 ! A44   A(17,19,20)           123.845          calculate D2E/DX2 analytically  !
 ! A45   A(17,19,22)           110.8844         calculate D2E/DX2 analytically  !
 ! A46   A(20,19,22)           124.6696         calculate D2E/DX2 analytically  !
 ! A47   A(19,22,28)           116.5605         calculate D2E/DX2 analytically  !
 ! A48   A(18,23,24)           117.0784         calculate D2E/DX2 analytically  !
 ! A49   A(23,24,25)           102.4353         calculate D2E/DX2 analytically  !
 ! A50   A(23,24,26)           109.7902         calculate D2E/DX2 analytically  !
 ! A51   A(23,24,27)           109.6729         calculate D2E/DX2 analytically  !
 ! A52   A(25,24,26)           111.5637         calculate D2E/DX2 analytically  !
 ! A53   A(25,24,27)           111.8074         calculate D2E/DX2 analytically  !
 ! A54   A(26,24,27)           111.2177         calculate D2E/DX2 analytically  !
 ! A55   A(22,28,29)           109.6495         calculate D2E/DX2 analytically  !
 ! A56   A(22,28,30)           109.6827         calculate D2E/DX2 analytically  !
 ! A57   A(22,28,31)           102.1663         calculate D2E/DX2 analytically  !
 ! A58   A(29,28,30)           111.2736         calculate D2E/DX2 analytically  !
 ! A59   A(29,28,31)           111.7646         calculate D2E/DX2 analytically  !
 ! A60   A(30,28,31)           111.9174         calculate D2E/DX2 analytically  !
 ! D1    D(4,1,2,7)             32.7246         calculate D2E/DX2 analytically  !
 ! D2    D(4,1,2,10)           -71.3369         calculate D2E/DX2 analytically  !
 ! D3    D(4,1,2,14)           169.913          calculate D2E/DX2 analytically  !
 ! D4    D(5,1,2,7)            176.3066         calculate D2E/DX2 analytically  !
 ! D5    D(5,1,2,10)            72.2452         calculate D2E/DX2 analytically  !
 ! D6    D(5,1,2,14)           -46.5049         calculate D2E/DX2 analytically  !
 ! D7    D(17,1,2,7)           -79.4238         calculate D2E/DX2 analytically  !
 ! D8    D(17,1,2,10)          176.5147         calculate D2E/DX2 analytically  !
 ! D9    D(17,1,2,14)           57.7646         calculate D2E/DX2 analytically  !
 ! D10   D(2,1,4,3)            -11.6895         calculate D2E/DX2 analytically  !
 ! D11   D(2,1,4,6)           -166.5277         calculate D2E/DX2 analytically  !
 ! D12   D(2,1,4,12)            48.8444         calculate D2E/DX2 analytically  !
 ! D13   D(5,1,4,3)           -158.2439         calculate D2E/DX2 analytically  !
 ! D14   D(5,1,4,6)             46.9179         calculate D2E/DX2 analytically  !
 ! D15   D(5,1,4,12)           -97.71           calculate D2E/DX2 analytically  !
 ! D16   D(17,1,4,3)           100.445          calculate D2E/DX2 analytically  !
 ! D17   D(17,1,4,6)           -54.3932         calculate D2E/DX2 analytically  !
 ! D18   D(17,1,4,12)          160.9788         calculate D2E/DX2 analytically  !
 ! D19   D(2,1,17,16)           53.8361         calculate D2E/DX2 analytically  !
 ! D20   D(2,1,17,19)          -73.184          calculate D2E/DX2 analytically  !
 ! D21   D(4,1,17,16)          -55.1246         calculate D2E/DX2 analytically  !
 ! D22   D(4,1,17,19)          177.8553         calculate D2E/DX2 analytically  !
 ! D23   D(5,1,17,16)         -177.197          calculate D2E/DX2 analytically  !
 ! D24   D(5,1,17,19)           55.7829         calculate D2E/DX2 analytically  !
 ! D25   D(1,2,7,3)            -39.5973         calculate D2E/DX2 analytically  !
 ! D26   D(1,2,7,8)           -158.739          calculate D2E/DX2 analytically  !
 ! D27   D(1,2,7,9)             81.0275         calculate D2E/DX2 analytically  !
 ! D28   D(10,2,7,3)            34.6189         calculate D2E/DX2 analytically  !
 ! D29   D(10,2,7,8)           -84.5228         calculate D2E/DX2 analytically  !
 ! D30   D(10,2,7,9)           155.2436         calculate D2E/DX2 analytically  !
 ! D31   D(14,2,7,3)          -176.3448         calculate D2E/DX2 analytically  !
 ! D32   D(14,2,7,8)            64.5135         calculate D2E/DX2 analytically  !
 ! D33   D(14,2,7,9)           -55.7201         calculate D2E/DX2 analytically  !
 ! D34   D(1,2,10,11)         -108.8077         calculate D2E/DX2 analytically  !
 ! D35   D(1,2,10,12)           75.4162         calculate D2E/DX2 analytically  !
 ! D36   D(7,2,10,11)          150.2302         calculate D2E/DX2 analytically  !
 ! D37   D(7,2,10,12)          -25.5459         calculate D2E/DX2 analytically  !
 ! D38   D(14,2,10,11)           2.9514         calculate D2E/DX2 analytically  !
 ! D39   D(14,2,10,12)        -172.8247         calculate D2E/DX2 analytically  !
 ! D40   D(7,3,4,1)            -13.0523         calculate D2E/DX2 analytically  !
 ! D41   D(7,3,4,6)            140.4085         calculate D2E/DX2 analytically  !
 ! D42   D(15,3,4,1)          -160.7203         calculate D2E/DX2 analytically  !
 ! D43   D(15,3,4,6)            -7.2595         calculate D2E/DX2 analytically  !
 ! D44   D(4,3,7,2)             32.7457         calculate D2E/DX2 analytically  !
 ! D45   D(4,3,7,8)            151.1201         calculate D2E/DX2 analytically  !
 ! D46   D(4,3,7,9)            -88.3255         calculate D2E/DX2 analytically  !
 ! D47   D(12,3,7,2)           -31.0484         calculate D2E/DX2 analytically  !
 ! D48   D(12,3,7,8)            87.326          calculate D2E/DX2 analytically  !
 ! D49   D(12,3,7,9)          -152.1197         calculate D2E/DX2 analytically  !
 ! D50   D(15,3,7,2)          -178.3376         calculate D2E/DX2 analytically  !
 ! D51   D(15,3,7,8)           -59.9632         calculate D2E/DX2 analytically  !
 ! D52   D(15,3,7,9)            60.5912         calculate D2E/DX2 analytically  !
 ! D53   D(7,3,12,10)           17.1765         calculate D2E/DX2 analytically  !
 ! D54   D(7,3,12,13)         -137.8217         calculate D2E/DX2 analytically  !
 ! D55   D(15,3,12,10)         162.9568         calculate D2E/DX2 analytically  !
 ! D56   D(15,3,12,13)           7.9586         calculate D2E/DX2 analytically  !
 ! D57   D(1,4,12,10)           -1.1496         calculate D2E/DX2 analytically  !
 ! D58   D(1,4,12,13)          139.6311         calculate D2E/DX2 analytically  !
 ! D59   D(6,4,12,10)         -141.4404         calculate D2E/DX2 analytically  !
 ! D60   D(6,4,12,13)           -0.6597         calculate D2E/DX2 analytically  !
 ! D61   D(2,10,12,3)            5.017          calculate D2E/DX2 analytically  !
 ! D62   D(2,10,12,4)          -54.6636         calculate D2E/DX2 analytically  !
 ! D63   D(2,10,12,13)         160.9861         calculate D2E/DX2 analytically  !
 ! D64   D(11,10,12,3)        -170.9336         calculate D2E/DX2 analytically  !
 ! D65   D(11,10,12,4)         129.3859         calculate D2E/DX2 analytically  !
 ! D66   D(11,10,12,13)        -14.9645         calculate D2E/DX2 analytically  !
 ! D67   D(18,16,17,1)          70.3929         calculate D2E/DX2 analytically  !
 ! D68   D(18,16,17,19)       -164.1914         calculate D2E/DX2 analytically  !
 ! D69   D(17,16,18,21)       -151.2757         calculate D2E/DX2 analytically  !
 ! D70   D(17,16,18,23)         33.8948         calculate D2E/DX2 analytically  !
 ! D71   D(1,17,19,20)        -151.5698         calculate D2E/DX2 analytically  !
 ! D72   D(1,17,19,22)          19.8947         calculate D2E/DX2 analytically  !
 ! D73   D(16,17,19,20)         78.7259         calculate D2E/DX2 analytically  !
 ! D74   D(16,17,19,22)       -109.8096         calculate D2E/DX2 analytically  !
 ! D75   D(16,18,23,24)        174.4268         calculate D2E/DX2 analytically  !
 ! D76   D(21,18,23,24)         -0.434          calculate D2E/DX2 analytically  !
 ! D77   D(17,19,22,28)       -171.6413         calculate D2E/DX2 analytically  !
 ! D78   D(20,19,22,28)         -0.2615         calculate D2E/DX2 analytically  !
 ! D79   D(19,22,28,29)        -60.6478         calculate D2E/DX2 analytically  !
 ! D80   D(19,22,28,30)         61.8241         calculate D2E/DX2 analytically  !
 ! D81   D(19,22,28,31)       -179.3166         calculate D2E/DX2 analytically  !
 ! D82   D(18,23,24,25)       -179.1682         calculate D2E/DX2 analytically  !
 ! D83   D(18,23,24,26)        -60.5262         calculate D2E/DX2 analytically  !
 ! D84   D(18,23,24,27)         61.9614         calculate D2E/DX2 analytically  !
 --------------------------------------------------------------------------------
 Trust Radius=3.00D-01 FncErr=1.00D-07 GrdErr=1.00D-06
 Number of steps in this run=    186 maximum allowed number of steps=    186.
 Search for a saddle point of order  1.
 GradGradGradGradGradGradGradGradGradGradGradGradGradGradGradGradGradGrad

                          Input orientation:                          
 ---------------------------------------------------------------------
 Center     Atomic      Atomic             Coordinates (Angstroms)
 Number     Number       Type             X           Y           Z
 ---------------------------------------------------------------------
      1          6           0        0.489886    0.852633   -0.733148
      2          6           0        0.888957    1.657974    0.606043
      3          6           0       -1.419366    1.999892    0.336342
      4          6           0       -0.977739    1.282775   -0.951030
      5          1           0        1.138154    0.650144   -1.591888
      6          1           0       -1.622638    0.767488   -1.640976
      7          6           0       -0.395220    1.741892    1.446396
      8          1           0       -0.346955    2.567079    2.177864
      9          1           0       -0.607003    0.823936    2.025131
     10          6           0        0.765269    2.601896   -0.517280
     11          1           0        1.550888    3.130330   -1.024429
     12          6           0       -0.719661    2.793654   -0.787897
     13          1           0       -1.123098    3.624030   -1.333702
     14          1           0        1.833452    1.415700    1.096470
     15          1           0       -2.459816    2.140607    0.598568
     16          7           0       -0.271599   -1.235542    0.702069
     17          7           0        0.464378   -0.901452   -0.302250
     18          6           0       -1.698444   -1.188173    0.595946
     19          6           0        1.855946   -1.363008   -0.136489
     20          8           0        2.215371   -2.495593   -0.335102
     21          8           0       -2.438140   -0.989527    1.533150
     22          8           0        2.698543   -0.305089    0.083574
     23          8           0       -2.145871   -1.505658   -0.667576
     24          6           0       -3.583379   -1.609644   -0.853597
     25          1           0       -3.665415   -1.879578   -1.912946
     26          1           0       -3.984978   -2.395337   -0.205995
     27          1           0       -4.052797   -0.644331   -0.642673
     28          6           0        4.127807   -0.597307    0.077570
     29          1           0        4.359443   -1.318546    0.868031
     30          1           0        4.422163   -0.977458   -0.905480
     31          1           0        4.565592    0.386329    0.283785
 ---------------------------------------------------------------------
                    Distance matrix (angstroms):
                    1          2          3          4          5
     1  C    0.000000
     2  C    1.612844   0.000000
     3  C    2.470881   2.349043   0.000000
     4  C    1.544803   2.459635   1.538382   0.000000
     5  H    1.094846   2.430786   3.475744   2.299549   0.000000
     6  H    2.300904   3.485709   2.338787   1.075844   2.763721
     7  C    2.514877   1.536993   1.532207   2.509535   3.574118
     8  H    3.480462   2.196491   2.205214   3.440538   4.482323
     9  H    2.968517   2.224259   2.212423   3.034059   4.019776
    10  C    1.783916   1.472461   2.421510   2.228519   2.259018
    11  H    2.529520   2.294433   3.457166   3.132539   2.577534
    12  C    2.287698   2.412569   1.543878   1.541419   2.948307
    13  H    3.262365   3.417068   2.348328   2.376771   3.744852
    14  H    2.338742   1.091461   3.391150   3.480333   2.880414
    15  H    3.483258   3.383382   1.082173   2.309477   4.468217
    16  N    2.645786   3.119062   3.452413   3.094073   3.287165
    17  N    1.806416   2.748804   3.517682   2.696565   2.127108
    18  C    3.274167   3.846466   3.210769   3.003021   4.026452
    19  C    2.670428   3.257722   4.718086   3.961492   2.585767
    20  O    3.787658   4.460633   5.819926   4.985116   3.554655
    21  O    4.135577   4.351823   3.377407   3.669779   5.024367
    22  O    2.624028   2.720513   4.725887   4.136033   2.480818
    23  O    3.537379   4.565178   3.718137   3.036484   4.035673
    24  C    4.761177   5.727972   4.373518   3.894219   5.286264
    25  H    5.111108   6.293003   5.015408   4.260207   5.438460
    26  H    5.554422   6.390929   5.118059   4.809061   6.118998
    27  H    4.783833   5.592927   3.858153   3.642088   5.433475
    28  C    3.999257   3.981925   6.130541   5.537086   3.644345
    29  H    4.717125   4.579583   6.685010   6.209780   4.505957
    30  H    4.340707   4.659801   6.673095   5.854030   3.728935
    31  H    4.226461   3.903662   6.198877   5.749513   3.916003
                    6          7          8          9         10
     6  H    0.000000
     7  C    3.462352   0.000000
     8  H    4.410151   1.103770   0.000000
     9  H    3.804608   1.105635   1.769039   0.000000
    10  C    3.214008   2.437697   2.915828   3.392363   0.000000
    11  H    4.004300   3.438033   3.764803   4.390417   1.074076
    12  C    2.376649   2.490689   2.997663   3.435929   1.521520
    13  H    2.916126   3.435287   3.748418   4.403253   2.297223
    14  H    4.456271   2.279436   2.692445   2.677390   2.269860
    15  H    2.757151   2.267232   2.672122   2.683584   3.443701
    16  N    3.365605   3.071550   4.079654   2.470716   4.157865
    17  N    2.988843   3.283891   4.340499   3.088936   3.522814
    18  C    2.972234   3.317671   4.293123   2.698591   4.655510
    19  C    4.347763   4.148937   5.065036   3.939726   4.129775
    20  O    5.204163   5.286322   6.205736   4.955378   5.302865
    21  O    3.718497   3.411993   4.175902   2.623691   5.231100
    22  O    4.774631   3.952061   4.680861   3.996370   3.542476
    23  O    2.527543   4.252086   5.283920   3.878891   5.036797
    24  C    3.180445   5.165958   6.091733   4.802937   6.063078
    25  H    3.354678   5.924053   6.893451   5.671977   6.454646
    26  H    4.200391   5.721313   6.598755   5.172268   6.901745
    27  H    2.982535   4.841089   5.657018   4.598530   5.810979
    28  C    6.154972   5.272884   5.869248   5.313318   4.679253
    29  H    6.814099   5.683978   6.242109   5.531247   5.496093
    30  H    6.334462   6.011103   6.694419   6.093112   5.131798
    31  H    6.491855   5.272463   5.698800   5.475356   4.471342
                   11         12         13         14         15
    11  H    0.000000
    12  C    2.307529   0.000000
    13  H    2.736712   1.072469   0.000000
    14  H    2.741899   3.459477   4.418557   0.000000
    15  H    4.438403   2.318813   2.778673   4.382413   0.000000
    16  N    5.036178   4.319164   5.337120   3.408207   4.024598
    17  N    4.237607   3.910449   4.905503   3.033146   4.314685
    18  C    5.642096   4.327584   5.216499   4.416443   3.414743
    19  C    4.590380   4.933145   5.931153   3.040051   5.607266
    20  O    5.706813   6.065935   7.042185   4.182520   6.650072
    21  O    6.279074   4.759505   5.588657   4.921616   3.266749
    22  O    3.787728   4.695294   5.661412   2.176110   5.731956
    23  O    5.940181   4.531295   5.272901   5.242252   3.872587
    24  C    6.989795   5.253021   5.803002   6.503655   4.175591
    25  H    7.286869   5.637579   6.090041   7.081877   4.891120
    26  H    7.864391   6.158452   6.759797   7.076337   4.852652
    27  H    6.767207   4.790681   5.222984   6.474278   3.440080
    28  C    4.663710   5.978762   6.883559   3.217828   7.152929
    29  H    5.591233   6.741631   7.702918   3.729466   7.651186
    30  H    5.013212   6.377575   7.218517   4.054187   7.703644
    31  H    4.281286   5.905727   6.742415   3.030619   7.247961
                   16         17         18         19         20
    16  N    0.000000
    17  N    1.289161   0.000000
    18  C    1.431570   2.359399   0.000000
    19  C    2.290387   1.475457   3.633279   0.000000
    20  O    2.974638   2.368194   4.230147   1.204733   0.000000
    21  O    2.333478   3.435267   1.210356   4.622376   5.235816
    22  O    3.173330   2.344355   4.513962   1.370252   2.281897
    23  O    2.337046   2.704058   1.377489   4.039423   4.484522
    24  C    3.678034   4.146065   2.414910   5.491933   5.888909
    25  H    4.332560   4.539412   3.262140   5.823064   6.119862
    26  H    3.994858   4.694436   2.707137   5.931857   6.202503
    27  H    4.056516   4.537276   2.715312   5.973773   6.543065
    28  C    4.489111   3.695603   5.879034   2.406963   2.726023
    29  H    4.634758   4.088405   6.065395   2.697876   2.725805
    30  H    4.968121   4.004213   6.305594   2.706560   2.738612
    31  H    5.118969   4.338407   6.466425   3.252536   3.769885
                   21         22         23         24         25
    21  O    0.000000
    22  O    5.381007   0.000000
    23  O    2.279256   5.047171   0.000000
    24  C    2.718948   6.484034   1.453219   0.000000
    25  H    3.764834   6.853107   1.999944   1.096273   0.000000
    26  H    2.719124   7.008740   2.094493   1.094524   1.811577
    27  H    2.731389   6.798758   2.092575   1.093925   1.813696
    28  C    6.736780   1.458843   6.382741   7.832898   8.144979
    29  H    6.837965   2.097870   6.686719   8.132476   8.511577
    30  H    7.280853   2.097897   6.593532   8.030632   8.199861
    31  H    7.246113   2.001004   7.037644   8.466598   8.815296
                   26         27         28         29         30
    26  H    0.000000
    27  H    1.805909   0.000000
    28  C    8.314481   8.212384   0.000000
    29  H    8.481885   8.573364   1.094838   0.000000
    30  H    8.554512   8.485575   1.094325   1.807102   0.000000
    31  H    9.004987   8.729102   1.096230   1.813957   1.815169
                   31
    31  H    0.000000
 Stoichiometry    C11H14N2O4
 Framework group  C1[X(C11H14N2O4)]
 Deg. of freedom    87
 Full point group                 C1      NOp   1
 Largest Abelian subgroup         C1      NOp   1
 Largest concise Abelian subgroup C1      NOp   1
                         Standard orientation:                         
 ---------------------------------------------------------------------
 Center     Atomic      Atomic             Coordinates (Angstroms)
 Number     Number       Type             X           Y           Z
 ---------------------------------------------------------------------
      1          6           0        0.489886    0.852633   -0.733148
      2          6           0        0.888957    1.657974    0.606043
      3          6           0       -1.419366    1.999892    0.336342
      4          6           0       -0.977739    1.282775   -0.951030
      5          1           0        1.138154    0.650144   -1.591888
      6          1           0       -1.622638    0.767488   -1.640976
      7          6           0       -0.395220    1.741892    1.446396
      8          1           0       -0.346955    2.567079    2.177864
      9          1           0       -0.607003    0.823936    2.025131
     10          6           0        0.765269    2.601896   -0.517280
     11          1           0        1.550888    3.130330   -1.024429
     12          6           0       -0.719661    2.793654   -0.787897
     13          1           0       -1.123098    3.624030   -1.333702
     14          1           0        1.833452    1.415700    1.096470
     15          1           0       -2.459816    2.140607    0.598568
     16          7           0       -0.271599   -1.235542    0.702069
     17          7           0        0.464378   -0.901452   -0.302250
     18          6           0       -1.698444   -1.188173    0.595946
     19          6           0        1.855946   -1.363008   -0.136489
     20          8           0        2.215371   -2.495593   -0.335102
     21          8           0       -2.438140   -0.989527    1.533150
     22          8           0        2.698543   -0.305089    0.083574
     23          8           0       -2.145871   -1.505658   -0.667576
     24          6           0       -3.583379   -1.609644   -0.853597
     25          1           0       -3.665415   -1.879578   -1.912946
     26          1           0       -3.984978   -2.395337   -0.205995
     27          1           0       -4.052797   -0.644331   -0.642673
     28          6           0        4.127807   -0.597307    0.077570
     29          1           0        4.359443   -1.318546    0.868031
     30          1           0        4.422163   -0.977458   -0.905480
     31          1           0        4.565592    0.386329    0.283785
 ---------------------------------------------------------------------
 Rotational constants (GHZ):      0.6457181      0.4431437      0.3118174
 Standard basis: def2SVP (5D, 7F)
 There are   325 symmetry adapted cartesian basis functions of A   symmetry.
 There are   308 symmetry adapted basis functions of A   symmetry.
   308 basis functions,   523 primitive gaussians,   325 cartesian basis functions
    63 alpha electrons       63 beta electrons
       nuclear repulsion energy      1304.9920995995 Hartrees.
 NAtoms=   31 NActive=   31 NUniq=   31 SFac= 1.00D+00 NAtFMM=   60 NAOKFM=F Big=F
 Integral buffers will be    131072 words long.
 Raffenetti 2 integral format.
 Two-electron integral symmetry is turned on.
 Nuclear repulsion after empirical dispersion term =     1304.9903521970 Hartrees.
 Force inversion solution in PCM.
 ------------------------------------------------------------------------------
 Polarizable Continuum Model (PCM)
 =================================
 Model                : C-PCM.
 Atomic radii         : UFF (Universal Force Field).
 Polarization charges : Total charges.
 Charge compensation  : None.
 Solution method      : Matrix inversion.
 Cavity type          : Scaled VdW (van der Waals Surface) (Alpha=1.100).
 Cavity algorithm     : GePol (No added spheres)
                        Default sphere list used, NSphG=   31.
                        Lebedev-Laikov grids with approx.  5.0 points / Ang**2.
                        Smoothing algorithm: Karplus/York (Gamma=1.0000).
                        Polarization charges: spherical gaussians, with
                                              point-specific exponents (IZeta= 3).
                        Self-potential: point-specific (ISelfS= 7).
                        Self-field    : sphere-specific E.n sum rule (ISelfD= 2).
 1st derivatives      : Analytical E(r).r(x)/FMM algorithm (CHGder, D1EAlg=3).
                        Cavity 1st derivative terms included.
 2nd derivatives      : Analytical E(r).r(xy)/FMM algorithm (CHGder, D2EAlg=3).
                        Cavity 2nd derivative terms included.
 Solvent              : Toluene, Eps=   2.374100 Eps(inf)=   2.238315
 ------------------------------------------------------------------------------
 One-electron integrals computed using PRISM.
   1 Symmetry operations used in ECPInt.
 ECPInt:  NShTT=   10440 NPrTT=   37938 LenC2=    9921 LenP2D=   26154.
 LDataN:  DoStor=T MaxTD1= 4 Len=   56
 NBasis=   308 RedAO= T EigKep=  4.17D-04  NBF=   308
 NBsUse=   308 1.00D-06 EigRej= -1.00D+00 NBFU=   308
 ExpMin= 1.22D-01 ExpMax= 2.27D+03 ExpMxC= 3.41D+02 IAcc=1 IRadAn=         1 AccDes= 0.00D+00
 Harris functional with IExCor= 1009 and IRadAn=       1 diagonalized for initial guess.
 HarFok:  IExCor= 1009 AccDes= 0.00D+00 IRadAn=         1 IDoV= 1 UseB2=F ITyADJ=14
 ICtDFT=  3500011 ScaDFX=  1.000000  1.000000  1.000000  1.000000
 FoFCou: FMM=F IPFlag=           0 FMFlag=      100000 FMFlg1=           0
         NFxFlg=           0 DoJE=T BraDBF=F KetDBF=T FulRan=T
         wScrn=  0.000000 ICntrl=     500 IOpCl=  0 I1Cent=   200000004 NGrid=           0
         NMat0=    1 NMatS0=      1 NMatT0=    0 NMatD0=    1 NMtDS0=    0 NMtDT0=    0
 Petite list used in FoFCou.
 Requested convergence on RMS density matrix=1.00D-08 within 128 cycles.
 Requested convergence on MAX density matrix=1.00D-06.
 Requested convergence on             energy=1.00D-06.
 No special actions if energy rises.
 Inv3:  Mode=1 IEnd=    15540528.
 Iteration    1 A*A^-1 deviation from unit magnitude is 5.55D-15 for   1137.
 Iteration    1 A*A^-1 deviation from orthogonality  is 2.31D-15 for   2251    185.
 Iteration    1 A^-1*A deviation from unit magnitude is 5.55D-15 for   2267.
 Iteration    1 A^-1*A deviation from orthogonality  is 1.60D-15 for   2059   1384.
 Error on total polarization charges =  0.00500
 SCF Done:  E(RM062X) =  -836.809991724     A.U. after   17 cycles
            NFock= 17  Conv=0.38D-08     -V/T= 2.0101
 DoSCS=F DFT=T ScalE2(SS,OS)=  1.000000  1.000000
 Range of M.O.s used for correlation:     1   308
 NBasis=   308 NAE=    63 NBE=    63 NFC=     0 NFV=     0
 NROrb=    308 NOA=    63 NOB=    63 NVA=   245 NVB=   245

 **** Warning!!: The largest alpha MO coefficient is  0.11969126D+02

   1 Symmetry operations used in ECPInt.
 ECPInt:  NShTT=   10440 NPrTT=   37938 LenC2=    9921 LenP2D=   26154.
 LDataN:  DoStor=T MaxTD1= 5 Len=  102
 Number of processors reduced to   2 by ecpmxn.
 Symmetrizing basis deriv contribution to polar:
 IMax=3 JMax=2 DiffMx= 0.00D+00
 G2DrvN: will do    16 centers at a time, making    2 passes.
 Calling FoFCou, ICntrl=  3107 FMM=F I1Cent=   0 AccDes= 0.00D+00.
 Calling FoFCou, ICntrl=  3107 FMM=F I1Cent=   0 AccDes= 0.00D+00.
 NEqPCM:  Using equilibrium solvation (IEInf=0, Eps=   2.3741, EpsInf=   2.2383)
 G2PCM: DoFxE=T DoFxN=T DoGrad=T DoDP/DQ/DG/TGxP=FFFF NFrqRd=   0 IEInf=0 SqF1=F DoCFld=F IF1Alg=4.
 End of G2Drv F.D. properties file   721 does not exist.
 End of G2Drv F.D. properties file   722 does not exist.
 End of G2Drv F.D. properties file   788 does not exist.
          IDoAtm=1111111111111111111111111111111
 NEqPCM:  Using equilibrium solvation (IEInf=0, Eps=   2.3741, EpsInf=   2.2383)
          Differentiating once with respect to nuclear coordinates.
 PrRfSu:  requested number of processors reduced to:   3 ShMem   1 Linda.
          There are    96 degrees of freedom in the 1st order CPHF.  IDoFFX=6 NUNeed=     0.
     93 vectors produced by pass  0 Test12= 1.61D-14 1.04D-09 XBig12= 2.23D-01 2.94D-01.
 AX will form    93 AO Fock derivatives at one time.
 PrRfSu:  requested number of processors reduced to:   3 ShMem   1 Linda.
     90 vectors produced by pass  1 Test12= 1.61D-14 1.04D-09 XBig12= 4.39D-02 4.97D-02.
     90 vectors produced by pass  2 Test12= 1.61D-14 1.04D-09 XBig12= 8.75D-04 3.90D-03.
     90 vectors produced by pass  3 Test12= 1.61D-14 1.04D-09 XBig12= 9.78D-06 3.60D-04.
     90 vectors produced by pass  4 Test12= 1.61D-14 1.04D-09 XBig12= 6.16D-08 2.45D-05.
     90 vectors produced by pass  5 Test12= 1.61D-14 1.04D-09 XBig12= 2.53D-10 1.72D-06.
     68 vectors produced by pass  6 Test12= 1.61D-14 1.04D-09 XBig12= 8.31D-13 7.31D-08.
      9 vectors produced by pass  7 Test12= 1.61D-14 1.04D-09 XBig12= 2.69D-15 4.16D-09.
 InvSVY:  IOpt=1 It=  1 EMax= 4.44D-16
 Solved reduced A of dimension   620 with    96 vectors.
 End of Minotr F.D. properties file   721 does not exist.
 End of Minotr F.D. properties file   722 does not exist.
 End of Minotr F.D. properties file   788 does not exist.

 **********************************************************************

            Population analysis using the SCF density.

 **********************************************************************

 Orbital symmetries:
       Occupied  (A) (A) (A) (A) (A) (A) (A) (A) (A) (A) (A) (A)
                 (A) (A) (A) (A) (A) (A) (A) (A) (A) (A) (A) (A)
                 (A) (A) (A) (A) (A) (A) (A) (A) (A) (A) (A) (A)
                 (A) (A) (A) (A) (A) (A) (A) (A) (A) (A) (A) (A)
                 (A) (A) (A) (A) (A) (A) (A) (A) (A) (A) (A) (A)
                 (A) (A) (A)
       Virtual   (A) (A) (A) (A) (A) (A) (A) (A) (A) (A) (A) (A)
                 (A) (A) (A) (A) (A) (A) (A) (A) (A) (A) (A) (A)
                 (A) (A) (A) (A) (A) (A) (A) (A) (A) (A) (A) (A)
                 (A) (A) (A) (A) (A) (A) (A) (A) (A) (A) (A) (A)
                 (A) (A) (A) (A) (A) (A) (A) (A) (A) (A) (A) (A)
                 (A) (A) (A) (A) (A) (A) (A) (A) (A) (A) (A) (A)
                 (A) (A) (A) (A) (A) (A) (A) (A) (A) (A) (A) (A)
                 (A) (A) (A) (A) (A) (A) (A) (A) (A) (A) (A) (A)
                 (A) (A) (A) (A) (A) (A) (A) (A) (A) (A) (A) (A)
                 (A) (A) (A) (A) (A) (A) (A) (A) (A) (A) (A) (A)
                 (A) (A) (A) (A) (A) (A) (A) (A) (A) (A) (A) (A)
                 (A) (A) (A) (A) (A) (A) (A) (A) (A) (A) (A) (A)
                 (A) (A) (A) (A) (A) (A) (A) (A) (A) (A) (A) (A)
                 (A) (A) (A) (A) (A) (A) (A) (A) (A) (A) (A) (A)
                 (A) (A) (A) (A) (A) (A) (A) (A) (A) (A) (A) (A)
                 (A) (A) (A) (A) (A) (A) (A) (A) (A) (A) (A) (A)
                 (A) (A) (A) (A) (A) (A) (A) (A) (A) (A) (A) (A)
                 (A) (A) (A) (A) (A) (A) (A) (A) (A) (A) (A) (A)
                 (A) (A) (A) (A) (A) (A) (A) (A) (A) (A) (A) (A)
                 (A) (A) (A) (A) (A) (A) (A) (A) (A) (A) (A) (A)
                 (A) (A) (A) (A) (A)
 The electronic state is 1-A.
 Alpha  occ. eigenvalues --  -19.69002 -19.65976 -19.64039 -19.61393 -14.83907
 Alpha  occ. eigenvalues --  -14.76843 -10.72290 -10.69415 -10.61967 -10.61543
 Alpha  occ. eigenvalues --  -10.60353 -10.60333 -10.60043 -10.58503 -10.58474
 Alpha  occ. eigenvalues --  -10.58151 -10.56472  -1.22866  -1.19975  -1.13842
 Alpha  occ. eigenvalues --   -1.10888  -1.10328  -1.04917  -0.88539  -0.86788
 Alpha  occ. eigenvalues --   -0.83065  -0.81162  -0.78098  -0.76359  -0.67283
 Alpha  occ. eigenvalues --   -0.66191  -0.64967  -0.64180  -0.62761  -0.62303
 Alpha  occ. eigenvalues --   -0.61388  -0.57938  -0.56782  -0.55801  -0.54807
 Alpha  occ. eigenvalues --   -0.54117  -0.53242  -0.52446  -0.51166  -0.49953
 Alpha  occ. eigenvalues --   -0.48584  -0.47890  -0.47213  -0.46147  -0.45085
 Alpha  occ. eigenvalues --   -0.44123  -0.43910  -0.42521  -0.42170  -0.39235
 Alpha  occ. eigenvalues --   -0.38777  -0.37874  -0.37056  -0.36244  -0.35300
 Alpha  occ. eigenvalues --   -0.35156  -0.30232  -0.22572
 Alpha virt. eigenvalues --   -0.05333   0.04636   0.07915   0.08459   0.10162
 Alpha virt. eigenvalues --    0.11808   0.12485   0.13554   0.14081   0.14544
 Alpha virt. eigenvalues --    0.14939   0.15340   0.15841   0.16356   0.16836
 Alpha virt. eigenvalues --    0.17622   0.17634   0.18365   0.19371   0.20024
 Alpha virt. eigenvalues --    0.20168   0.20883   0.22092   0.22518   0.24655
 Alpha virt. eigenvalues --    0.25645   0.27125   0.29458   0.30845   0.33326
 Alpha virt. eigenvalues --    0.35316   0.36001   0.37989   0.38820   0.40994
 Alpha virt. eigenvalues --    0.41828   0.44832   0.46517   0.47841   0.48402
 Alpha virt. eigenvalues --    0.49196   0.49621   0.50118   0.50679   0.52025
 Alpha virt. eigenvalues --    0.52161   0.53580   0.54605   0.55050   0.56578
 Alpha virt. eigenvalues --    0.57249   0.58143   0.59378   0.59967   0.60796
 Alpha virt. eigenvalues --    0.63870   0.65464   0.66411   0.66584   0.67728
 Alpha virt. eigenvalues --    0.67811   0.68274   0.69387   0.69553   0.70063
 Alpha virt. eigenvalues --    0.70360   0.70489   0.70730   0.71580   0.71992
 Alpha virt. eigenvalues --    0.72524   0.72695   0.73394   0.73915   0.74228
 Alpha virt. eigenvalues --    0.74332   0.75404   0.76472   0.77183   0.78439
 Alpha virt. eigenvalues --    0.80200   0.81725   0.84195   0.84715   0.85463
 Alpha virt. eigenvalues --    0.87210   0.88025   0.91045   0.93180   0.94572
 Alpha virt. eigenvalues --    0.95578   0.98328   0.99586   1.01654   1.06041
 Alpha virt. eigenvalues --    1.06927   1.09200   1.10625   1.10883   1.13970
 Alpha virt. eigenvalues --    1.15268   1.17935   1.18163   1.19249   1.20332
 Alpha virt. eigenvalues --    1.21905   1.23955   1.25631   1.26946   1.30200
 Alpha virt. eigenvalues --    1.31764   1.33607   1.37770   1.38827   1.40879
 Alpha virt. eigenvalues --    1.43145   1.45138   1.48340   1.50606   1.50893
 Alpha virt. eigenvalues --    1.54436   1.55057   1.55561   1.55860   1.56900
 Alpha virt. eigenvalues --    1.57995   1.59525   1.60645   1.61686   1.64455
 Alpha virt. eigenvalues --    1.65247   1.66311   1.66384   1.68512   1.69491
 Alpha virt. eigenvalues --    1.71011   1.72045   1.75109   1.75304   1.75888
 Alpha virt. eigenvalues --    1.77042   1.77650   1.78534   1.79887   1.81002
 Alpha virt. eigenvalues --    1.82224   1.82549   1.84539   1.85666   1.86411
 Alpha virt. eigenvalues --    1.87555   1.89085   1.89995   1.90692   1.93431
 Alpha virt. eigenvalues --    1.94139   1.94694   1.95565   1.97062   1.97475
 Alpha virt. eigenvalues --    1.97792   1.98300   1.98554   2.00176   2.01026
 Alpha virt. eigenvalues --    2.02503   2.03674   2.04305   2.06235   2.06463
 Alpha virt. eigenvalues --    2.08716   2.10266   2.11063   2.12406   2.12781
 Alpha virt. eigenvalues --    2.13743   2.14752   2.17557   2.18823   2.19735
 Alpha virt. eigenvalues --    2.22006   2.25136   2.28966   2.32641   2.33942
 Alpha virt. eigenvalues --    2.34150   2.35452   2.36647   2.37852   2.39773
 Alpha virt. eigenvalues --    2.40489   2.42278   2.43083   2.46524   2.49667
 Alpha virt. eigenvalues --    2.51172   2.51679   2.54536   2.57461   2.60859
 Alpha virt. eigenvalues --    2.62154   2.65131   2.67972   2.68539   2.69388
 Alpha virt. eigenvalues --    2.69721   2.70329   2.72365   2.73859   2.74476
 Alpha virt. eigenvalues --    2.75412   2.77508   2.82057   2.83194   2.85606
 Alpha virt. eigenvalues --    2.87523   2.88991   2.89179   2.89942   2.91559
 Alpha virt. eigenvalues --    2.92499   2.92696   2.94865   2.95906   2.98638
 Alpha virt. eigenvalues --    3.00896   3.01158   3.04173   3.04859   3.06339
 Alpha virt. eigenvalues --    3.08929   3.16560   3.18210   3.19823   3.21828
 Alpha virt. eigenvalues --    3.26896   3.30319   3.30463   3.39296   3.43100
 Alpha virt. eigenvalues --    3.49106   3.62681   3.68963   3.69784   3.71072
          Condensed to atoms (all electrons):
               1          2          3          4          5          6
     1  C    5.686214   0.224663   0.011767   0.174010   0.389340  -0.042810
     2  C    0.224663   5.501682  -0.070981  -0.037405  -0.054394   0.004231
     3  C    0.011767  -0.070981   5.450495   0.110974   0.007999  -0.029841
     4  C    0.174010  -0.037405   0.110974   5.453528  -0.021753   0.427627
     5  H    0.389340  -0.054394   0.007999  -0.021753   0.573905  -0.004001
     6  H   -0.042810   0.004231  -0.029841   0.427627  -0.004001   0.587488
     7  C   -0.105929   0.224687   0.296761  -0.025326   0.006233   0.003419
     8  H    0.007512  -0.022941  -0.015108   0.007684  -0.000149  -0.000175
     9  H   -0.003694  -0.012285  -0.017637  -0.011718  -0.000082   0.000382
    10  C   -0.071525   0.003279   0.023901  -0.100765   0.041412   0.009909
    11  H    0.007791  -0.055081   0.007134   0.000982  -0.002880  -0.000125
    12  C   -0.108034   0.104857   0.005897   0.119718  -0.017120  -0.015981
    13  H    0.005216   0.004464  -0.032014  -0.017203   0.000274  -0.003125
    14  H   -0.033470   0.402311   0.004005   0.004270  -0.001031   0.000010
    15  H    0.005941   0.005872   0.410182  -0.028267  -0.000133  -0.004017
    16  N   -0.091263  -0.028548  -0.002897   0.008529   0.004334  -0.002234
    17  N    0.018439  -0.012367  -0.009388  -0.014037  -0.020176   0.004590
    18  C   -0.000576  -0.001628   0.006357   0.000643  -0.000141   0.001310
    19  C   -0.056463  -0.010668  -0.000244   0.004176   0.000522  -0.000076
    20  O    0.001394  -0.000084  -0.000002  -0.000059  -0.000160  -0.000008
    21  O    0.002012   0.000543   0.005798  -0.007601  -0.000011  -0.000178
    22  O   -0.009082  -0.020807  -0.000200   0.001530   0.005494   0.000005
    23  O   -0.004387   0.000514  -0.005138   0.003916  -0.000041   0.009885
    24  C    0.000146  -0.000010  -0.000037  -0.000878   0.000002  -0.000671
    25  H   -0.000018  -0.000001  -0.000005   0.000080   0.000001  -0.000157
    26  H   -0.000038   0.000003  -0.000076   0.000136   0.000000   0.000202
    27  H    0.000204  -0.000038   0.001486  -0.000930   0.000003  -0.000020
    28  C    0.001535   0.000470   0.000002  -0.000011  -0.000245  -0.000001
    29  H   -0.000026  -0.000097  -0.000001   0.000010   0.000074   0.000000
    30  H   -0.000210  -0.000041   0.000001  -0.000008  -0.000155   0.000000
    31  H   -0.000189   0.000124   0.000003  -0.000009  -0.000064   0.000000
               7          8          9         10         11         12
     1  C   -0.105929   0.007512  -0.003694  -0.071525   0.007791  -0.108034
     2  C    0.224687  -0.022941  -0.012285   0.003279  -0.055081   0.104857
     3  C    0.296761  -0.015108  -0.017637   0.023901   0.007134   0.005897
     4  C   -0.025326   0.007684  -0.011718  -0.100765   0.000982   0.119718
     5  H    0.006233  -0.000149  -0.000082   0.041412  -0.002880  -0.017120
     6  H    0.003419  -0.000175   0.000382   0.009909  -0.000125  -0.015981
     7  C    4.776081   0.382029   0.364169  -0.005950   0.004478  -0.087175
     8  H    0.382029   0.612173  -0.020637  -0.004756   0.000052  -0.008761
     9  H    0.364169  -0.020637   0.580540   0.007175  -0.000175   0.009271
    10  C   -0.005950  -0.004756   0.007175   5.570812   0.451018   0.074145
    11  H    0.004478   0.000052  -0.000175   0.451018   0.592648  -0.055428
    12  C   -0.087175  -0.008761   0.009271   0.074145  -0.055428   5.563927
    13  H    0.004395   0.000355  -0.000154  -0.048258  -0.005819   0.446870
    14  H   -0.016863  -0.001467  -0.000927  -0.020328  -0.004771   0.005527
    15  H   -0.019647  -0.002985  -0.001940   0.002402  -0.000018  -0.014403
    16  N    0.016726  -0.000066   0.012256   0.008084  -0.000040  -0.001850
    17  N    0.000832   0.000093  -0.003719   0.010979  -0.000120   0.003921
    18  C   -0.002142   0.000061   0.001022  -0.000540   0.000002   0.000110
    19  C    0.001599  -0.000008  -0.000596   0.002185  -0.000024  -0.000311
    20  O    0.000013   0.000000  -0.000007  -0.000028   0.000000   0.000001
    21  O   -0.008367   0.000078   0.014660  -0.000075   0.000000   0.000241
    22  O    0.000895  -0.000023   0.000310   0.002791   0.000264  -0.000005
    23  O   -0.000284  -0.000003   0.000947  -0.000110   0.000000   0.000870
    24  C    0.000059  -0.000001  -0.000080  -0.000004   0.000000  -0.000064
    25  H   -0.000001   0.000000   0.000002   0.000003   0.000000  -0.000009
    26  H    0.000012   0.000000  -0.000026  -0.000001   0.000000   0.000008
    27  H   -0.000068   0.000003   0.000031   0.000019   0.000000  -0.000224
    28  C   -0.000023   0.000001  -0.000027  -0.000378   0.000013   0.000005
    29  H    0.000021   0.000000  -0.000001   0.000015   0.000002   0.000000
    30  H   -0.000002   0.000000   0.000001   0.000027  -0.000004  -0.000001
    31  H   -0.000018   0.000001   0.000001   0.000095  -0.000003   0.000001
              13         14         15         16         17         18
     1  C    0.005216  -0.033470   0.005941  -0.091263   0.018439  -0.000576
     2  C    0.004464   0.402311   0.005872  -0.028548  -0.012367  -0.001628
     3  C   -0.032014   0.004005   0.410182  -0.002897  -0.009388   0.006357
     4  C   -0.017203   0.004270  -0.028267   0.008529  -0.014037   0.000643
     5  H    0.000274  -0.001031  -0.000133   0.004334  -0.020176  -0.000141
     6  H   -0.003125   0.000010  -0.004017  -0.002234   0.004590   0.001310
     7  C    0.004395  -0.016863  -0.019647   0.016726   0.000832  -0.002142
     8  H    0.000355  -0.001467  -0.002985  -0.000066   0.000093   0.000061
     9  H   -0.000154  -0.000927  -0.001940   0.012256  -0.003719   0.001022
    10  C   -0.048258  -0.020328   0.002402   0.008084   0.010979  -0.000540
    11  H   -0.005819  -0.004771  -0.000018  -0.000040  -0.000120   0.000002
    12  C    0.446870   0.005527  -0.014403  -0.001850   0.003921   0.000110
    13  H    0.600835   0.000017  -0.003590   0.000011  -0.000020   0.000009
    14  H    0.000017   0.559860  -0.000290   0.002902  -0.003051  -0.000032
    15  H   -0.003590  -0.000290   0.582703  -0.000341  -0.000068   0.000236
    16  N    0.000011   0.002902  -0.000341   7.019764   0.222542   0.321365
    17  N   -0.000020  -0.003051  -0.000068   0.222542   6.907667  -0.046774
    18  C    0.000009  -0.000032   0.000236   0.321365  -0.046774   4.413659
    19  C    0.000003   0.001205   0.000001  -0.030739   0.280250   0.002372
    20  O    0.000000   0.000065   0.000000  -0.002696  -0.067234  -0.000260
    21  O   -0.000002  -0.000020   0.001907  -0.084565   0.002283   0.673714
    22  O    0.000001   0.016558   0.000000   0.002359  -0.094458  -0.000225
    23  O   -0.000001   0.000004  -0.000154  -0.100599   0.011396   0.318095
    24  C   -0.000001   0.000000   0.000015   0.005248  -0.000537  -0.024331
    25  H    0.000000   0.000000  -0.000009  -0.000032   0.000027   0.004533
    26  H    0.000000   0.000000  -0.000010   0.000207   0.000003  -0.004155
    27  H    0.000003   0.000000   0.000438   0.000053  -0.000056  -0.001598
    28  C    0.000000  -0.001541   0.000000  -0.000466   0.004857   0.000016
    29  H    0.000000  -0.000082   0.000000   0.000022   0.000104  -0.000001
    30  H    0.000000   0.000264   0.000000  -0.000017   0.000178   0.000001
    31  H    0.000000  -0.000050   0.000000   0.000008  -0.000019   0.000000
              19         20         21         22         23         24
     1  C   -0.056463   0.001394   0.002012  -0.009082  -0.004387   0.000146
     2  C   -0.010668  -0.000084   0.000543  -0.020807   0.000514  -0.000010
     3  C   -0.000244  -0.000002   0.005798  -0.000200  -0.005138  -0.000037
     4  C    0.004176  -0.000059  -0.007601   0.001530   0.003916  -0.000878
     5  H    0.000522  -0.000160  -0.000011   0.005494  -0.000041   0.000002
     6  H   -0.000076  -0.000008  -0.000178   0.000005   0.009885  -0.000671
     7  C    0.001599   0.000013  -0.008367   0.000895  -0.000284   0.000059
     8  H   -0.000008   0.000000   0.000078  -0.000023  -0.000003  -0.000001
     9  H   -0.000596  -0.000007   0.014660   0.000310   0.000947  -0.000080
    10  C    0.002185  -0.000028  -0.000075   0.002791  -0.000110  -0.000004
    11  H   -0.000024   0.000000   0.000000   0.000264   0.000000   0.000000
    12  C   -0.000311   0.000001   0.000241  -0.000005   0.000870  -0.000064
    13  H    0.000003   0.000000  -0.000002   0.000001  -0.000001  -0.000001
    14  H    0.001205   0.000065  -0.000020   0.016558   0.000004   0.000000
    15  H    0.000001   0.000000   0.001907   0.000000  -0.000154   0.000015
    16  N   -0.030739  -0.002696  -0.084565   0.002359  -0.100599   0.005248
    17  N    0.280250  -0.067234   0.002283  -0.094458   0.011396  -0.000537
    18  C    0.002372  -0.000260   0.673714  -0.000225   0.318095  -0.024331
    19  C    4.390351   0.704892  -0.000188   0.322284  -0.000151   0.000004
    20  O    0.704892   7.683090   0.000000  -0.080340   0.000003   0.000000
    21  O   -0.000188   0.000000   7.759490   0.000000  -0.084724   0.002397
    22  O    0.322284  -0.080340   0.000000   8.092221   0.000000   0.000000
    23  O   -0.000151   0.000003  -0.084724   0.000000   8.079326   0.248901
    24  C    0.000004   0.000000   0.002397   0.000000   0.248901   4.427571
    25  H    0.000003   0.000000   0.000645   0.000000  -0.024238   0.401220
    26  H    0.000003   0.000000   0.005382   0.000000  -0.026099   0.408952
    27  H   -0.000001   0.000000   0.005676   0.000000  -0.030978   0.402666
    28  C   -0.024681   0.001720   0.000000   0.238512   0.000000   0.000000
    29  H   -0.003787   0.004522   0.000000  -0.023838   0.000000   0.000000
    30  H   -0.002921   0.005218   0.000000  -0.026057   0.000000   0.000000
    31  H    0.005475   0.000590   0.000000  -0.026124   0.000000   0.000000
              25         26         27         28         29         30
     1  C   -0.000018  -0.000038   0.000204   0.001535  -0.000026  -0.000210
     2  C   -0.000001   0.000003  -0.000038   0.000470  -0.000097  -0.000041
     3  C   -0.000005  -0.000076   0.001486   0.000002  -0.000001   0.000001
     4  C    0.000080   0.000136  -0.000930  -0.000011   0.000010  -0.000008
     5  H    0.000001   0.000000   0.000003  -0.000245   0.000074  -0.000155
     6  H   -0.000157   0.000202  -0.000020  -0.000001   0.000000   0.000000
     7  C   -0.000001   0.000012  -0.000068  -0.000023   0.000021  -0.000002
     8  H    0.000000   0.000000   0.000003   0.000001   0.000000   0.000000
     9  H    0.000002  -0.000026   0.000031  -0.000027  -0.000001   0.000001
    10  C    0.000003  -0.000001   0.000019  -0.000378   0.000015   0.000027
    11  H    0.000000   0.000000   0.000000   0.000013   0.000002  -0.000004
    12  C   -0.000009   0.000008  -0.000224   0.000005   0.000000  -0.000001
    13  H    0.000000   0.000000   0.000003   0.000000   0.000000   0.000000
    14  H    0.000000   0.000000   0.000000  -0.001541  -0.000082   0.000264
    15  H   -0.000009  -0.000010   0.000438   0.000000   0.000000   0.000000
    16  N   -0.000032   0.000207   0.000053  -0.000466   0.000022  -0.000017
    17  N    0.000027   0.000003  -0.000056   0.004857   0.000104   0.000178
    18  C    0.004533  -0.004155  -0.001598   0.000016  -0.000001   0.000001
    19  C    0.000003   0.000003  -0.000001  -0.024681  -0.003787  -0.002921
    20  O    0.000000   0.000000   0.000000   0.001720   0.004522   0.005218
    21  O    0.000645   0.005382   0.005676   0.000000   0.000000   0.000000
    22  O    0.000000   0.000000   0.000000   0.238512  -0.023838  -0.026057
    23  O   -0.024238  -0.026099  -0.030978   0.000000   0.000000   0.000000
    24  C    0.401220   0.408952   0.402666   0.000000   0.000000   0.000000
    25  H    0.596561  -0.021357  -0.021987   0.000000   0.000000   0.000000
    26  H   -0.021357   0.602175  -0.031409   0.000000   0.000000   0.000000
    27  H   -0.021987  -0.031409   0.621828   0.000000   0.000000   0.000000
    28  C    0.000000   0.000000   0.000000   4.435638   0.407192   0.408355
    29  H    0.000000   0.000000   0.000000   0.407192   0.587885  -0.027496
    30  H    0.000000   0.000000   0.000000   0.408355  -0.027496   0.591667
    31  H    0.000000   0.000000   0.000000   0.401009  -0.020602  -0.021743
              31
     1  C   -0.000189
     2  C    0.000124
     3  C    0.000003
     4  C   -0.000009
     5  H   -0.000064
     6  H    0.000000
     7  C   -0.000018
     8  H    0.000001
     9  H    0.000001
    10  C    0.000095
    11  H   -0.000003
    12  C    0.000001
    13  H    0.000000
    14  H   -0.000050
    15  H    0.000000
    16  N    0.000008
    17  N   -0.000019
    18  C    0.000000
    19  C    0.005475
    20  O    0.000590
    21  O    0.000000
    22  O   -0.026124
    23  O    0.000000
    24  C    0.000000
    25  H    0.000000
    26  H    0.000000
    27  H    0.000000
    28  C    0.401009
    29  H   -0.020602
    30  H   -0.021743
    31  H    0.591483
 Mulliken charges:
               1
     1  C   -0.008468
     2  C   -0.150323
     3  C   -0.159194
     4  C   -0.051845
     5  H    0.092940
     6  H    0.054361
     7  C    0.189386
     8  H    0.067040
     9  H    0.082938
    10  C    0.044468
    11  H    0.060102
    12  C   -0.026001
    13  H    0.047733
    14  H    0.086929
    15  H    0.066173
    16  N   -0.278057
    17  N   -0.196138
    18  C    0.338900
    19  C    0.415533
    20  O   -0.250633
    21  O   -0.289094
    22  O   -0.402065
    23  O   -0.396948
    24  C    0.129431
    25  H    0.064739
    26  H    0.066089
    27  H    0.054897
    28  C    0.128046
    29  H    0.076086
    30  H    0.072945
    31  H    0.070031
 Sum of Mulliken charges =   0.00000
 Mulliken charges with hydrogens summed into heavy atoms:
               1
     1  C    0.084472
     2  C   -0.063394
     3  C   -0.093021
     4  C    0.002516
     7  C    0.339364
    10  C    0.104570
    12  C    0.021732
    16  N   -0.278057
    17  N   -0.196138
    18  C    0.338900
    19  C    0.415533
    20  O   -0.250633
    21  O   -0.289094
    22  O   -0.402065
    23  O   -0.396948
    24  C    0.315156
    28  C    0.347108
 APT charges:
               1
     1  C   -0.161103
     2  C   -0.391837
     3  C   -0.566788
     4  C   -0.245462
     5  H    0.394399
     6  H    0.338268
     7  C   -0.518453
     8  H    0.619789
     9  H    0.128373
    10  C   -0.695319
    11  H    0.679105
    12  C   -0.919533
    13  H    0.798352
    14  H    0.395117
    15  H    0.572463
    16  N   -0.342815
    17  N   -0.207772
    18  C   -0.503867
    19  C   -0.657127
    20  O    0.668529
    21  O    0.394481
    22  O   -0.380189
    23  O   -0.309334
    24  C   -0.854288
    25  H    0.484797
    26  H    0.583632
    27  H    0.217301
    28  C   -0.904448
    29  H    0.486175
    30  H    0.469711
    31  H    0.427843
 Sum of APT charges =   0.00000
 APT charges with hydrogens summed into heavy atoms:
               1
     1  C    0.233297
     2  C    0.003280
     3  C    0.005675
     4  C    0.092806
     7  C    0.229708
    10  C   -0.016214
    12  C   -0.121181
    16  N   -0.342815
    17  N   -0.207772
    18  C   -0.503867
    19  C   -0.657127
    20  O    0.668529
    21  O    0.394481
    22  O   -0.380189
    23  O   -0.309334
    24  C    0.431442
    28  C    0.479282
 Electronic spatial extent (au):  <R**2>=           3721.8147
 Charge=              0.0000 electrons
 Dipole moment (field-independent basis, Debye):
    X=              2.5124    Y=              6.6432    Z=             -3.1800  Tot=              7.7817
 Quadrupole moment (field-independent basis, Debye-Ang):
   XX=            -78.0777   YY=           -100.7698   ZZ=           -100.6352
   XY=              5.0260   XZ=              8.3463   YZ=              0.6663
 Traceless Quadrupole moment (field-independent basis, Debye-Ang):
   XX=             15.0832   YY=             -7.6089   ZZ=             -7.4743
   XY=              5.0260   XZ=              8.3463   YZ=              0.6663
 Octapole moment (field-independent basis, Debye-Ang**2):
  XXX=             46.7025  YYY=             21.1041  ZZZ=            -10.1258  XYY=            -22.0223
  XXY=             -7.8310  XXZ=            -23.0123  XZZ=             13.4825  YZZ=              3.6295
  YYZ=             -5.2707  XYZ=            -12.6142
 Hexadecapole moment (field-independent basis, Debye-Ang**3):
 XXXX=          -2137.5020 YYYY=          -1709.8926 ZZZZ=           -497.3512 XXXY=             35.7027
 XXXZ=             85.4907 YYYX=             79.9491 YYYZ=            -40.3791 ZZZX=             19.3324
 ZZZY=             26.3128 XXYY=           -689.3042 XXZZ=           -512.5168 YYZZ=           -352.8428
 XXYZ=             19.7934 YYXZ=             13.1099 ZZXY=             -8.4756
 N-N= 1.304990352197D+03 E-N=-4.561365408505D+03  KE= 8.284675141926D+02
  Exact polarizability:   0.000   0.000   0.000   0.000   0.000   0.000
 Approx polarizability: 176.799  27.881 285.280 -19.090 -30.833 161.667
   1 Symmetry operations used in ECPInt.
 ECPInt:  NShTT=   10440 NPrTT=   37938 LenC2=    9921 LenP2D=   26154.
 LDataN:  DoStor=T MaxTD1= 6 Len=  172
 D2PCM: C-PCM CHGder 2nd derivatives, FixD1E=F FixD2E=F DoIter=F DoCFld=F I1PDM=0
 Calling FoFJK, ICntrl=    100147 FMM=F ISym2X=0 I1Cent= 0 IOpClX= 0 NMat=1 NMatS=1 NMatT=0.
 ***** Axes restored to original set *****
 -------------------------------------------------------------------
 Center     Atomic                   Forces (Hartrees/Bohr)
 Number     Number              X              Y              Z
 -------------------------------------------------------------------
      1        6          -0.002537774    0.016258604    0.008220688
      2        6          -0.015450774    0.012975276   -0.018006453
      3        6           0.031332382   -0.003238291   -0.012810389
      4        6           0.011145501    0.018146100    0.019394341
      5        1          -0.000673403    0.008712843    0.005480439
      6        1          -0.007368468   -0.002070813   -0.005415256
      7        6          -0.003215317   -0.007759693   -0.007126836
      8        1           0.003245903    0.000853858   -0.004752095
      9        1           0.000788224    0.000884181   -0.006270014
     10        6          -0.020810406   -0.004584518    0.024338613
     11        1           0.010306296    0.000040338   -0.006125534
     12        6           0.007901410   -0.029419234    0.019221234
     13        1          -0.006891919    0.005883658   -0.007895308
     14        1          -0.001253220    0.001224491   -0.006903635
     15        1          -0.006360728    0.000733479   -0.005227188
     16        7          -0.018034142    0.004646453    0.024740245
     17        7           0.005500217   -0.023861173    0.003144742
     18        6           0.009940178   -0.010589014   -0.027731369
     19        6           0.006575285    0.015989544   -0.012309163
     20        8          -0.011159391    0.022952371    0.010379092
     21        8           0.012289472   -0.001738961   -0.012518246
     22        8           0.000538941   -0.035568163   -0.006018498
     23        8          -0.007892879    0.004248774    0.020566676
     24        6           0.030062269    0.001251300   -0.000414736
     25        1          -0.006123842    0.000328856    0.001777420
     26        1          -0.002415047   -0.000040265    0.001260204
     27        1          -0.003362786    0.001445624    0.000701357
     28        6          -0.023828077    0.008414566    0.001960400
     29        1           0.001328316   -0.001014297   -0.000262520
     30        1           0.001473259   -0.001232872   -0.000657112
     31        1           0.004950519   -0.003873018   -0.000741096
 -------------------------------------------------------------------
 Cartesian Forces:  Max     0.035568163 RMS     0.012149388
 FormGI is forming the generalized inverse of G from B-inverse, IUseBI=4.

 GradGradGradGradGradGradGradGradGradGradGradGradGradGradGradGradGradGrad
 Berny optimization.
 Internal  Forces:  Max     0.036186926 RMS     0.008391914
 Search for a saddle point.
 Step number   1 out of a maximum of  186
 All quantities printed in internal units (Hartrees-Bohrs-Radians)
 Swapping is turned off.
 Second derivative matrix not updated -- analytic derivatives used.
 ITU=  0
     Eigenvalues ---   -0.07211  -0.00958   0.00014   0.00060   0.00733
     Eigenvalues ---    0.00865   0.00947   0.01088   0.01336   0.01462
     Eigenvalues ---    0.01536   0.01643   0.01716   0.01912   0.02181
     Eigenvalues ---    0.02842   0.03194   0.03355   0.03578   0.03811
     Eigenvalues ---    0.04100   0.04575   0.04793   0.04895   0.05354
     Eigenvalues ---    0.05494   0.05688   0.06335   0.07177   0.07581
     Eigenvalues ---    0.07784   0.07874   0.08085   0.08117   0.09012
     Eigenvalues ---    0.09459   0.11055   0.11389   0.12663   0.12903
     Eigenvalues ---    0.12951   0.14081   0.15960   0.16940   0.17940
     Eigenvalues ---    0.18284   0.18305   0.18333   0.18794   0.18875
     Eigenvalues ---    0.18975   0.19796   0.20500   0.21424   0.21698
     Eigenvalues ---    0.22248   0.22953   0.23408   0.24317   0.25793
     Eigenvalues ---    0.27037   0.27609   0.30532   0.32044   0.33335
     Eigenvalues ---    0.33431   0.33820   0.34218   0.35459   0.35503
     Eigenvalues ---    0.35602   0.35630   0.35669   0.36189   0.36438
     Eigenvalues ---    0.36574   0.38168   0.38419   0.39319   0.39847
     Eigenvalues ---    0.40464   0.40592   0.41250   0.63656   0.73341
     Eigenvalues ---    0.87880   0.89907
 Eigenvectors required to have negative eigenvalues:
                          R4        R1        R19       D6        A8
   1                   -0.73941   0.19238   0.16415  -0.15156   0.13655
                          R20       D5        D1        D14       D15
   1                   -0.13107  -0.12829   0.11560   0.11298   0.10934
 RFO step:  Lambda0=4.391245761D-04 Lambda=-3.90740643D-02.
 Linear search not attempted -- option 19 set.
 Maximum step size (   0.300) exceeded in Quadratic search.
    -- Step size scaled by   0.829
 Iteration  1 RMS(Cart)=  0.14593155 RMS(Int)=  0.02280311
 Iteration  2 RMS(Cart)=  0.06221690 RMS(Int)=  0.00303843
 Iteration  3 RMS(Cart)=  0.00406095 RMS(Int)=  0.00021173
 Iteration  4 RMS(Cart)=  0.00002130 RMS(Int)=  0.00021155
 Iteration  5 RMS(Cart)=  0.00000000 RMS(Int)=  0.00021155
 Variable       Old X    -DE/DX   Delta X   Delta X   Delta X     New X
                                 (Linear)    (Quad)   (Total)
    R1        3.04783  -0.01503   0.00000  -0.05445  -0.05461   2.99323
    R2        2.91926  -0.01133   0.00000  -0.03236  -0.03228   2.88698
    R3        2.06896  -0.00631   0.00000  -0.01485  -0.01485   2.05411
    R4        3.41363   0.01900   0.00000   0.07270   0.07270   3.48633
    R5        2.90449  -0.01264   0.00000  -0.02537  -0.02534   2.87915
    R6        2.78255  -0.01873   0.00000  -0.04513  -0.04506   2.73749
    R7        2.06256  -0.00445   0.00000  -0.00257  -0.00257   2.05999
    R8        2.90712  -0.01963   0.00000  -0.05784  -0.05769   2.84943
    R9        2.89545  -0.01355   0.00000  -0.02998  -0.02999   2.86547
   R10        2.91751  -0.01621   0.00000  -0.04900  -0.04891   2.86860
   R11        2.04501   0.00494   0.00000   0.00948   0.00948   2.05449
   R12        2.03305   0.00888   0.00000   0.01595   0.01595   2.04900
   R13        2.91286  -0.01276   0.00000  -0.03406  -0.03422   2.87864
   R14        2.08582  -0.00237   0.00000  -0.00543  -0.00543   2.08040
   R15        2.08935  -0.00416   0.00000  -0.01145  -0.01145   2.07790
   R16        2.02971   0.01045   0.00000   0.01947   0.01947   2.04918
   R17        2.87526  -0.01032   0.00000  -0.02715  -0.02723   2.84802
   R18        2.02667   0.01116   0.00000   0.02031   0.02031   2.04699
   R19        2.43616  -0.00162   0.00000   0.00977   0.00977   2.44593
   R20        2.70528  -0.03133   0.00000  -0.06358  -0.06358   2.64170
   R21        2.78821  -0.02162   0.00000  -0.10241  -0.10241   2.68580
   R22        2.28724  -0.01749   0.00000  -0.00262  -0.00262   2.28462
   R23        2.60308  -0.02692   0.00000  -0.04912  -0.04912   2.55396
   R24        2.27662  -0.02662   0.00000  -0.00998  -0.00998   2.26664
   R25        2.58940  -0.03619   0.00000  -0.04737  -0.04737   2.54203
   R26        2.75681  -0.01621   0.00000  -0.04929  -0.04929   2.70752
   R27        2.74619  -0.01859   0.00000  -0.05500  -0.05500   2.69119
   R28        2.07166  -0.00134   0.00000  -0.00179  -0.00179   2.06987
   R29        2.06835   0.00166   0.00000   0.00487   0.00487   2.07322
   R30        2.06722   0.00286   0.00000   0.00835   0.00835   2.07557
   R31        2.06894   0.00075   0.00000   0.00269   0.00269   2.07164
   R32        2.06797   0.00143   0.00000   0.00446   0.00446   2.07243
   R33        2.07157  -0.00164   0.00000  -0.00323  -0.00323   2.06834
    A1        1.78559   0.00084   0.00000   0.00666   0.00671   1.79230
    A2        2.21069  -0.00174   0.00000  -0.01347  -0.01320   2.19749
    A3        1.86533   0.00156   0.00000  -0.05130  -0.05123   1.81410
    A4        2.09832  -0.00092   0.00000   0.00400   0.00364   2.10196
    A5        1.86566  -0.00498   0.00000   0.01669   0.01662   1.88228
    A6        1.58666   0.00518   0.00000   0.03580   0.03530   1.62196
    A7        1.84888  -0.00323   0.00000  -0.00796  -0.00803   1.84085
    A8        1.23011   0.00308   0.00000   0.00827   0.00829   1.23840
    A9        2.06732  -0.00137   0.00000  -0.03234  -0.03221   2.03511
   A10        1.88802  -0.00017   0.00000   0.00623   0.00622   1.89424
   A11        2.08226   0.00275   0.00000   0.03221   0.03213   2.11439
   A12        2.16250  -0.00182   0.00000  -0.02217  -0.02257   2.13993
   A13        1.91335   0.00064   0.00000   0.00442   0.00427   1.91762
   A14        2.14051  -0.00484   0.00000  -0.03626  -0.03639   2.10412
   A15        1.88725  -0.00039   0.00000   0.01133   0.01137   1.89862
   A16        2.08172   0.00409   0.00000   0.02982   0.03000   2.11172
   A17        2.14759  -0.00307   0.00000  -0.03056  -0.03095   2.11664
   A18        1.85928  -0.00082   0.00000  -0.00687  -0.00692   1.85236
   A19        2.12536   0.00207   0.00000   0.02283   0.02286   2.14822
   A20        1.66990  -0.00094   0.00000  -0.00604  -0.00606   1.66384
   A21        2.19920  -0.00095   0.00000  -0.00874  -0.00884   2.19036
   A22        2.26231  -0.00068   0.00000  -0.01604  -0.01606   2.24625
   A23        1.74320   0.00034   0.00000  -0.01039  -0.01043   1.73277
   A24        1.94617  -0.00281   0.00000  -0.01964  -0.01960   1.92657
   A25        1.98330  -0.00006   0.00000   0.00042   0.00035   1.98365
   A26        1.96433   0.00034   0.00000   0.00463   0.00445   1.96878
   A27        1.97250  -0.00086   0.00000  -0.00371  -0.00384   1.96867
   A28        1.85688   0.00272   0.00000   0.02556   0.02558   1.88246
   A29        2.23212  -0.00370   0.00000  -0.02181  -0.02217   2.20995
   A30        1.87387   0.00058   0.00000  -0.00040  -0.00041   1.87346
   A31        2.17470   0.00334   0.00000   0.02475   0.02447   2.19917
   A32        1.82141  -0.00043   0.00000  -0.00306  -0.00308   1.81833
   A33        2.21203  -0.00022   0.00000  -0.00151  -0.00171   2.21032
   A34        1.62952   0.00182   0.00000   0.00630   0.00624   1.63577
   A35        2.26801  -0.00248   0.00000  -0.02354  -0.02345   2.24456
   A36        2.15943   0.00152   0.00000   0.01421   0.01416   2.17359
   A37        2.09750  -0.03550   0.00000  -0.08394  -0.08394   2.01356
   A38        2.03257  -0.01158   0.00000  -0.02944  -0.02972   2.00286
   A39        1.89362   0.02293   0.00000   0.01755   0.01765   1.91127
   A40        1.94964  -0.00561   0.00000   0.02894   0.02914   1.97878
   A41        2.16175  -0.00613   0.00000  -0.02094  -0.02113   2.14062
   A42        1.96504   0.00807   0.00000   0.03520   0.03501   2.00006
   A43        2.15266  -0.00164   0.00000  -0.01138  -0.01157   2.14108
   A44        2.16150  -0.01488   0.00000  -0.02583  -0.02583   2.13568
   A45        1.93530   0.02555   0.00000   0.04550   0.04551   1.98081
   A46        2.17590  -0.00996   0.00000  -0.02012  -0.02011   2.15578
   A47        2.03436  -0.01351   0.00000  -0.03805  -0.03805   1.99631
   A48        2.04340  -0.01367   0.00000  -0.02982  -0.02982   2.01359
   A49        1.78783   0.00984   0.00000   0.04794   0.04748   1.83531
   A50        1.91620   0.00050   0.00000   0.00968   0.00940   1.92560
   A51        1.91415   0.00137   0.00000   0.01092   0.01064   1.92479
   A52        1.94715  -0.00310   0.00000  -0.01367  -0.01415   1.93301
   A53        1.95141  -0.00365   0.00000  -0.01804  -0.01851   1.93290
   A54        1.94111  -0.00377   0.00000  -0.02964  -0.02978   1.91134
   A55        1.91375   0.00015   0.00000   0.00682   0.00652   1.92027
   A56        1.91432  -0.00004   0.00000   0.00023   0.00000   1.91433
   A57        1.78314   0.00989   0.00000   0.05181   0.05140   1.83454
   A58        1.94209  -0.00284   0.00000  -0.02917  -0.02932   1.91277
   A59        1.95066  -0.00293   0.00000  -0.00954  -0.01004   1.94062
   A60        1.95333  -0.00314   0.00000  -0.01294  -0.01329   1.94004
    D1        0.57115   0.00210   0.00000   0.00910   0.00906   0.58022
    D2       -1.24506   0.00070   0.00000  -0.00168  -0.00163  -1.24669
    D3        2.96554   0.00133   0.00000   0.01668   0.01683   2.98238
    D4        3.07713  -0.00071   0.00000   0.00831   0.00804   3.08517
    D5        1.26092  -0.00211   0.00000  -0.00247  -0.00265   1.25826
    D6       -0.81166  -0.00148   0.00000   0.01590   0.01581  -0.79585
    D7       -1.38621   0.00670   0.00000   0.00630   0.00629  -1.37992
    D8        3.08076   0.00530   0.00000  -0.00448  -0.00441   3.07636
    D9        1.00818   0.00592   0.00000   0.01388   0.01406   1.02224
   D10       -0.20402  -0.00167   0.00000   0.00217   0.00221  -0.20181
   D11       -2.90646  -0.00192   0.00000  -0.00911  -0.00918  -2.91563
   D12        0.85250  -0.00189   0.00000  -0.00041  -0.00036   0.85214
   D13       -2.76188   0.00134   0.00000   0.01104   0.01101  -2.75087
   D14        0.81887   0.00110   0.00000  -0.00024  -0.00037   0.81850
   D15       -1.70536   0.00113   0.00000   0.00845   0.00845  -1.69692
   D16        1.75310  -0.00139   0.00000  -0.04575  -0.04576   1.70733
   D17       -0.94934  -0.00164   0.00000  -0.05703  -0.05715  -1.00649
   D18        2.80961  -0.00161   0.00000  -0.04833  -0.04833   2.76128
   D19        0.93962  -0.00283   0.00000   0.02745   0.02736   0.96698
   D20       -1.27730  -0.00602   0.00000  -0.00419  -0.00405  -1.28135
   D21       -0.96211  -0.00232   0.00000   0.03466   0.03496  -0.92714
   D22        3.10416  -0.00551   0.00000   0.00301   0.00355   3.10771
   D23       -3.09267  -0.00220   0.00000   0.01373   0.01317  -3.07950
   D24        0.97360  -0.00540   0.00000  -0.01792  -0.01825   0.95535
   D25       -0.69110  -0.00207   0.00000  -0.01347  -0.01338  -0.70449
   D26       -2.77052  -0.00147   0.00000  -0.00487  -0.00503  -2.77555
   D27        1.41420  -0.00291   0.00000  -0.02402  -0.02408   1.39012
   D28        0.60421   0.00036   0.00000  -0.00541  -0.00539   0.59883
   D29       -1.47520   0.00095   0.00000   0.00319   0.00297  -1.47224
   D30        2.70951  -0.00048   0.00000  -0.01596  -0.01608   2.69343
   D31       -3.07780   0.00087   0.00000   0.01232   0.01274  -3.06506
   D32        1.12597   0.00146   0.00000   0.02091   0.02109   1.14706
   D33       -0.97250   0.00002   0.00000   0.00176   0.00204  -0.97046
   D34       -1.89905   0.00040   0.00000   0.02751   0.02684  -1.87222
   D35        1.31626  -0.00308   0.00000  -0.01129  -0.01126   1.30500
[...]
 Alpha virt. eigenvalues --    1.76606   1.78354   1.79088   1.80603   1.82167
 Alpha virt. eigenvalues --    1.83128   1.84284   1.85807   1.86562   1.87501
 Alpha virt. eigenvalues --    1.88946   1.90083   1.90508   1.91616   1.92975
 Alpha virt. eigenvalues --    1.93125   1.94594   1.95443   1.96204   1.97123
 Alpha virt. eigenvalues --    1.98105   1.99072   1.99920   2.00507   2.02514
 Alpha virt. eigenvalues --    2.03347   2.04787   2.07600   2.07904   2.09292
 Alpha virt. eigenvalues --    2.09972   2.10647   2.11309   2.12667   2.14285
 Alpha virt. eigenvalues --    2.16742   2.18678   2.20055   2.21496   2.22303
 Alpha virt. eigenvalues --    2.24623   2.25924   2.28674   2.32376   2.33764
 Alpha virt. eigenvalues --    2.34353   2.35360   2.38929   2.39152   2.39780
 Alpha virt. eigenvalues --    2.42587   2.43073   2.45072   2.47240   2.50073
 Alpha virt. eigenvalues --    2.53030   2.54869   2.57132   2.57490   2.59770
 Alpha virt. eigenvalues --    2.62384   2.67035   2.67969   2.68876   2.69416
 Alpha virt. eigenvalues --    2.71275   2.71948   2.73624   2.73784   2.75081
 Alpha virt. eigenvalues --    2.77476   2.78798   2.82576   2.84375   2.84842
 Alpha virt. eigenvalues --    2.88851   2.89625   2.90805   2.91549   2.93397
 Alpha virt. eigenvalues --    2.94933   2.97014   2.97278   2.98180   3.00820
 Alpha virt. eigenvalues --    3.02118   3.03810   3.06580   3.06717   3.08119
 Alpha virt. eigenvalues --    3.10544   3.17854   3.19324   3.23688   3.29066
 Alpha virt. eigenvalues --    3.29471   3.29701   3.32026   3.38322   3.50875
 Alpha virt. eigenvalues --    3.51815   3.69801   3.71274   3.77143   3.80418
          Condensed to atoms (all electrons):
               1          2          3          4          5          6
     1  C    5.631634   0.182764   0.004393   0.150050   0.395715  -0.030729
     2  C    0.182764   5.444638  -0.034856  -0.014153  -0.052717   0.005877
     3  C    0.004393  -0.034856   5.486138   0.087076   0.009485  -0.028601
     4  C    0.150050  -0.014153   0.087076   5.536612  -0.026842   0.411654
     5  H    0.395715  -0.052717   0.009485  -0.026842   0.558811  -0.003519
     6  H   -0.030729   0.005877  -0.028601   0.411654  -0.003519   0.559455
     7  C   -0.094679   0.257586   0.262164  -0.053173   0.006138   0.003015
     8  H    0.008316  -0.023519  -0.018310   0.008392  -0.000198  -0.000157
     9  H   -0.002623  -0.020396  -0.011341  -0.013328   0.000064   0.000442
    10  C    0.010990   0.118777   0.002406  -0.082731   0.038470   0.002950
    11  H    0.016661  -0.056021   0.008203  -0.006158  -0.002786  -0.000013
    12  C   -0.134694   0.039654   0.010526   0.118848  -0.016095  -0.004656
    13  H    0.005089   0.005278  -0.035741  -0.015905   0.000236  -0.004076
    14  H   -0.036537   0.395772   0.003815   0.007620  -0.001859  -0.000045
    15  H    0.004334   0.003797   0.406712  -0.013896  -0.000133  -0.003959
    16  N   -0.090784  -0.016305  -0.007052   0.041198   0.002561  -0.005767
    17  N    0.072436  -0.024061  -0.012856  -0.034821  -0.009833  -0.001042
    18  C   -0.000193   0.001062   0.003100   0.002020  -0.000265   0.006694
    19  C   -0.060201   0.006152  -0.001166   0.006319  -0.002901  -0.000134
    20  O   -0.002220  -0.001782   0.000078   0.000094   0.000148   0.000002
    21  O    0.000707   0.000017   0.000446  -0.004914  -0.000004  -0.000933
    22  O   -0.006417  -0.006126  -0.000024   0.001406   0.006925   0.000007
    23  O    0.001527   0.000180  -0.000320  -0.007081   0.000710   0.011929
    24  C   -0.000116  -0.000002  -0.000016  -0.000495  -0.000009   0.000279
    25  H    0.000010  -0.000001  -0.000006   0.000034  -0.000009  -0.000238
    26  H   -0.000027   0.000002  -0.000001   0.000047   0.000003   0.000253
    27  H    0.000107  -0.000008   0.000102   0.000029   0.000008  -0.000502
    28  C   -0.000071  -0.001487  -0.000004  -0.000017   0.000017   0.000000
    29  H   -0.000052  -0.000439  -0.000006  -0.000005   0.000111   0.000000
    30  H   -0.000032   0.000003  -0.000001   0.000010   0.000012   0.000000
    31  H    0.000015   0.000064   0.000001  -0.000008  -0.000104   0.000000
               7          8          9         10         11         12
     1  C   -0.094679   0.008316  -0.002623   0.010990   0.016661  -0.134694
     2  C    0.257586  -0.023519  -0.020396   0.118777  -0.056021   0.039654
     3  C    0.262164  -0.018310  -0.011341   0.002406   0.008203   0.010526
     4  C   -0.053173   0.008392  -0.013328  -0.082731  -0.006158   0.118848
     5  H    0.006138  -0.000198   0.000064   0.038470  -0.002786  -0.016095
     6  H    0.003015  -0.000157   0.000442   0.002950  -0.000013  -0.004656
     7  C    4.717458   0.385262   0.373329  -0.038152   0.005108  -0.041064
     8  H    0.385262   0.607830  -0.017848  -0.003805   0.000038  -0.008847
     9  H    0.373329  -0.017848   0.564194   0.008796  -0.000186   0.008214
    10  C   -0.038152  -0.003805   0.008796   5.317188   0.437461   0.156539
    11  H    0.005108   0.000038  -0.000186   0.437461   0.565944  -0.045738
    12  C   -0.041064  -0.008847   0.008214   0.156539  -0.045738   5.508859
    13  H    0.004135   0.000261  -0.000173  -0.050330  -0.004324   0.450535
    14  H   -0.013265  -0.002390  -0.001312  -0.029802  -0.004894   0.007829
    15  H   -0.015751  -0.002240  -0.001925   0.005970  -0.000071  -0.026285
    16  N   -0.000562   0.000064   0.029526   0.004016  -0.000017   0.003225
    17  N    0.008287   0.000068  -0.011390   0.003141  -0.000032   0.008869
    18  C   -0.001198  -0.000010  -0.000233   0.000055   0.000003  -0.001491
    19  C    0.000016  -0.000179  -0.000497  -0.000374  -0.000065   0.000434
    20  O   -0.002489   0.000037   0.008685   0.000112  -0.000001  -0.000006
    21  O   -0.000112  -0.000001   0.000027  -0.000005   0.000000  -0.000096
    22  O   -0.000039  -0.000025   0.000264   0.000587   0.000070  -0.000106
    23  O    0.000015   0.000001   0.000097  -0.000072  -0.000001   0.000599
    24  C    0.000002   0.000000  -0.000003   0.000004   0.000000  -0.000023
    25  H    0.000000   0.000000   0.000001   0.000001   0.000000   0.000000
    26  H    0.000000   0.000000  -0.000001   0.000000   0.000000   0.000005
    27  H   -0.000004   0.000000   0.000000   0.000007   0.000000  -0.000130
    28  C    0.000106  -0.000001  -0.000023   0.000064  -0.000002   0.000003
    29  H    0.000072   0.000016   0.000026  -0.000067  -0.000005   0.000005
    30  H    0.000013  -0.000001  -0.000018   0.000003   0.000000   0.000000
    31  H   -0.000007   0.000000   0.000000   0.000003   0.000001   0.000000
              13         14         15         16         17         18
     1  C    0.005089  -0.036537   0.004334  -0.090784   0.072436  -0.000193
     2  C    0.005278   0.395772   0.003797  -0.016305  -0.024061   0.001062
     3  C   -0.035741   0.003815   0.406712  -0.007052  -0.012856   0.003100
     4  C   -0.015905   0.007620  -0.013896   0.041198  -0.034821   0.002020
     5  H    0.000236  -0.001859  -0.000133   0.002561  -0.009833  -0.000265
     6  H   -0.004076  -0.000045  -0.003959  -0.005767  -0.001042   0.006694
     7  C    0.004135  -0.013265  -0.015751  -0.000562   0.008287  -0.001198
     8  H    0.000261  -0.002390  -0.002240   0.000064   0.000068  -0.000010
     9  H   -0.000173  -0.001312  -0.001925   0.029526  -0.011390  -0.000233
    10  C   -0.050330  -0.029802   0.005970   0.004016   0.003141   0.000055
    11  H   -0.004324  -0.004894  -0.000071  -0.000017  -0.000032   0.000003
    12  C    0.450535   0.007829  -0.026285   0.003225   0.008869  -0.001491
    13  H    0.583127   0.000001  -0.003894   0.000038  -0.000039  -0.000008
    14  H    0.000001   0.589261  -0.000231   0.000782  -0.005334  -0.000060
    15  H   -0.003894  -0.000231   0.571992  -0.001358   0.000114   0.000404
    16  N    0.000038   0.000782  -0.001358   6.944780   0.227711   0.340146
    17  N   -0.000039  -0.005334   0.000114   0.227711   6.922340  -0.053168
    18  C   -0.000008  -0.000060   0.000404   0.340146  -0.053168   4.422171
    19  C    0.000001   0.008208  -0.000005  -0.055323   0.281695   0.004083
    20  O    0.000000  -0.000029  -0.000002   0.002671  -0.089060  -0.000360
    21  O   -0.000001   0.000000   0.000600  -0.094078   0.003254   0.710197
    22  O    0.000000   0.007681   0.000001   0.003222  -0.103823  -0.000169
    23  O   -0.000001  -0.000001  -0.000016  -0.106877   0.002927   0.321250
    24  C    0.000000   0.000000  -0.000003   0.004955   0.000043  -0.031256
    25  H    0.000000   0.000000   0.000000   0.000034   0.000029   0.004938
    26  H    0.000000   0.000000  -0.000002   0.000500  -0.000089  -0.006302
    27  H   -0.000001   0.000000   0.000014   0.000041  -0.000074  -0.001145
    28  C    0.000000   0.001125   0.000000  -0.000122   0.005541   0.000006
    29  H    0.000000   0.000689   0.000000  -0.000005   0.000099   0.000001
    30  H    0.000000   0.000215   0.000000  -0.000018   0.000366   0.000000
    31  H    0.000000  -0.000382   0.000000   0.000004   0.000013   0.000000
              19         20         21         22         23         24
     1  C   -0.060201  -0.002220   0.000707  -0.006417   0.001527  -0.000116
     2  C    0.006152  -0.001782   0.000017  -0.006126   0.000180  -0.000002
     3  C   -0.001166   0.000078   0.000446  -0.000024  -0.000320  -0.000016
     4  C    0.006319   0.000094  -0.004914   0.001406  -0.007081  -0.000495
     5  H   -0.002901   0.000148  -0.000004   0.006925   0.000710  -0.000009
     6  H   -0.000134   0.000002  -0.000933   0.000007   0.011929   0.000279
     7  C    0.000016  -0.002489  -0.000112  -0.000039   0.000015   0.000002
     8  H   -0.000179   0.000037  -0.000001  -0.000025   0.000001   0.000000
     9  H   -0.000497   0.008685   0.000027   0.000264   0.000097  -0.000003
    10  C   -0.000374   0.000112  -0.000005   0.000587  -0.000072   0.000004
    11  H   -0.000065  -0.000001   0.000000   0.000070  -0.000001   0.000000
    12  C    0.000434  -0.000006  -0.000096  -0.000106   0.000599  -0.000023
    13  H    0.000001   0.000000  -0.000001   0.000000  -0.000001   0.000000
    14  H    0.008208  -0.000029   0.000000   0.007681  -0.000001   0.000000
    15  H   -0.000005  -0.000002   0.000600   0.000001  -0.000016  -0.000003
    16  N   -0.055323   0.002671  -0.094078   0.003222  -0.106877   0.004955
    17  N    0.281695  -0.089060   0.003254  -0.103823   0.002927   0.000043
    18  C    0.004083  -0.000360   0.710197  -0.000169   0.321250  -0.031256
    19  C    4.444342   0.707256  -0.000157   0.362743  -0.000825   0.000049
    20  O    0.707256   7.693816   0.000002  -0.084321  -0.000001   0.000000
    21  O   -0.000157   0.000002   7.763025   0.000000  -0.095143  -0.001492
    22  O    0.362743  -0.084321   0.000000   7.994044   0.000004   0.000000
    23  O   -0.000825  -0.000001  -0.095143   0.000004   8.054612   0.270692
    24  C    0.000049   0.000000  -0.001492   0.000000   0.270692   4.414857
    25  H   -0.000001   0.000000   0.000945   0.000000  -0.024031   0.398759
    26  H    0.000009   0.000000   0.008357   0.000000  -0.027484   0.409349
    27  H    0.000000   0.000000   0.007255   0.000000  -0.033848   0.402200
    28  C   -0.032345  -0.002366   0.000000   0.266084   0.000000   0.000000
    29  H   -0.001063   0.007355   0.000000  -0.032697   0.000000   0.000000
    30  H   -0.005376   0.005820   0.000000  -0.025812   0.000000   0.000000
    31  H    0.004976   0.000798   0.000000  -0.022957   0.000000   0.000000
              25         26         27         28         29         30
     1  C    0.000010  -0.000027   0.000107  -0.000071  -0.000052  -0.000032
     2  C   -0.000001   0.000002  -0.000008  -0.001487  -0.000439   0.000003
     3  C   -0.000006  -0.000001   0.000102  -0.000004  -0.000006  -0.000001
     4  C    0.000034   0.000047   0.000029  -0.000017  -0.000005   0.000010
     5  H   -0.000009   0.000003   0.000008   0.000017   0.000111   0.000012
     6  H   -0.000238   0.000253  -0.000502   0.000000   0.000000   0.000000
     7  C    0.000000   0.000000  -0.000004   0.000106   0.000072   0.000013
     8  H    0.000000   0.000000   0.000000  -0.000001   0.000016  -0.000001
     9  H    0.000001  -0.000001   0.000000  -0.000023   0.000026  -0.000018
    10  C    0.000001   0.000000   0.000007   0.000064  -0.000067   0.000003
    11  H    0.000000   0.000000   0.000000  -0.000002  -0.000005   0.000000
    12  C    0.000000   0.000005  -0.000130   0.000003   0.000005   0.000000
    13  H    0.000000   0.000000  -0.000001   0.000000   0.000000   0.000000
    14  H    0.000000   0.000000   0.000000   0.001125   0.000689   0.000215
    15  H    0.000000  -0.000002   0.000014   0.000000   0.000000   0.000000
    16  N    0.000034   0.000500   0.000041  -0.000122  -0.000005  -0.000018
    17  N    0.000029  -0.000089  -0.000074   0.005541   0.000099   0.000366
    18  C    0.004938  -0.006302  -0.001145   0.000006   0.000001   0.000000
    19  C   -0.000001   0.000009   0.000000  -0.032345  -0.001063  -0.005376
    20  O    0.000000   0.000000   0.000000  -0.002366   0.007355   0.005820
    21  O    0.000945   0.008357   0.007255   0.000000   0.000000   0.000000
    22  O    0.000000   0.000000   0.000000   0.266084  -0.032697  -0.025812
    23  O   -0.024031  -0.027484  -0.033848   0.000000   0.000000   0.000000
    24  C    0.398759   0.409349   0.402200   0.000000   0.000000   0.000000
    25  H    0.611847  -0.023467  -0.025040   0.000000   0.000000   0.000000
    26  H   -0.023467   0.617323  -0.034432   0.000000   0.000000   0.000000
    27  H   -0.025040  -0.034432   0.638836   0.000000   0.000000   0.000000
    28  C    0.000000   0.000000   0.000000   4.424576   0.402202   0.410636
    29  H    0.000000   0.000000   0.000000   0.402202   0.620302  -0.032484
    30  H    0.000000   0.000000   0.000000   0.410636  -0.032484   0.602752
    31  H    0.000000   0.000000   0.000000   0.400952  -0.022742  -0.021834
              31
     1  C    0.000015
     2  C    0.000064
     3  C    0.000001
     4  C   -0.000008
     5  H   -0.000104
     6  H    0.000000
     7  C   -0.000007
     8  H    0.000000
     9  H    0.000000
    10  C    0.000003
    11  H    0.000001
    12  C    0.000000
    13  H    0.000000
    14  H   -0.000382
    15  H    0.000000
    16  N    0.000004
    17  N    0.000013
    18  C    0.000000
    19  C    0.004976
    20  O    0.000798
    21  O    0.000000
    22  O   -0.022957
    23  O    0.000000
    24  C    0.000000
    25  H    0.000000
    26  H    0.000000
    27  H    0.000000
    28  C    0.400952
    29  H   -0.022742
    30  H   -0.021834
    31  H    0.595242
 Mulliken charges:
               1
     1  C   -0.025373
     2  C   -0.209749
     3  C   -0.134343
     4  C   -0.097879
     5  H    0.097860
     6  H    0.081814
     7  C    0.237787
     8  H    0.067244
     9  H    0.087633
    10  C    0.097799
    11  H    0.086823
    12  C   -0.034914
    13  H    0.065792
    14  H    0.073143
    15  H    0.075835
    16  N   -0.227204
    17  N   -0.191315
    18  C    0.279729
    19  C    0.334327
    20  O   -0.244238
    21  O   -0.297895
    22  O   -0.360523
    23  O   -0.368842
    24  C    0.132225
    25  H    0.056196
    26  H    0.055958
    27  H    0.046584
    28  C    0.125126
    29  H    0.058687
    30  H    0.065747
    31  H    0.065967
 Sum of Mulliken charges =   0.00000
 Mulliken charges with hydrogens summed into heavy atoms:
               1
     1  C    0.072487
     2  C   -0.136606
     3  C   -0.058507
     4  C   -0.016065
     7  C    0.392664
    10  C    0.184622
    12  C    0.030877
    16  N   -0.227204
    17  N   -0.191315
    18  C    0.279729
    19  C    0.334327
    20  O   -0.244238
    21  O   -0.297895
    22  O   -0.360523
    23  O   -0.368842
    24  C    0.290963
    28  C    0.315527
 Electronic spatial extent (au):  <R**2>=           3646.6648
 Charge=              0.0000 electrons
 Dipole moment (field-independent basis, Debye):
    X=              4.0766    Y=              6.0888    Z=             -6.0347  Tot=              9.4926
 Quadrupole moment (field-independent basis, Debye-Ang):
   XX=            -87.1217   YY=            -88.7468   ZZ=           -103.5619
   XY=             -2.0960   XZ=              4.4408   YZ=              4.3324
 Traceless Quadrupole moment (field-independent basis, Debye-Ang):
   XX=              6.0218   YY=              4.3966   ZZ=            -10.4184
   XY=             -2.0960   XZ=              4.4408   YZ=              4.3324
 Octapole moment (field-independent basis, Debye-Ang**2):
  XXX=             38.6652  YYY=             -0.5382  ZZZ=            -18.7371  XYY=              0.0922
  XXY=            -17.3969  XXZ=            -49.3861  XZZ=              6.6518  YZZ=             14.2609
  YYZ=            -16.9363  XYZ=             -3.0081
 Hexadecapole moment (field-independent basis, Debye-Ang**3):
 XXXX=          -2192.2700 YYYY=          -1581.1199 ZZZZ=           -582.3329 XXXY=            -61.3643
 XXXZ=             76.7334 YYYX=            -35.4997 YYYZ=            -16.5963 ZZZX=              5.3188
 ZZZY=             18.8364 XXYY=           -613.8018 XXZZ=           -510.9910 YYZZ=           -371.8236
 XXYZ=             54.3015 YYXZ=            -24.5064 ZZXY=             12.6968
 N-N= 1.319726349452D+03 E-N=-4.591264010763D+03  KE= 8.292007149851D+02
 1\1\GINC-D8S4B1\FTS\RM062X\def2SVP\C11H14N2O4\CHMKSH\07-Sep-2020\0\\# 
 opt=(calcfc,ts,noeigentest) scrf=(cpcm,solvent=toluene) geom=connectiv
 ity def2svp m062x empiricaldispersion=gd3\\Title Card Required\\0,1\C,
 0.2899663123,0.9659376163,-0.6794266283\C,1.1005842619,1.8035671192,0.
 3600920572\C,-1.1023413036,2.0942613989,0.9396991103\C,-1.1362831129,1
 .4142492309,-0.4004101189\H,0.6604892637,0.7684429248,-1.6823759405\H,
 -2.0154337029,0.9702201983,-0.8605914081\C,0.2315131713,1.8200291232,1
 .610704303\H,0.5395865471,2.6232552456,2.2941659344\H,0.2326252859,0.8
 535234564,2.1316399324\C,0.5702267491,2.7675901437,-0.579098746\H,1.10
 1018406,3.173184129,-1.4384634177\C,-0.8783919708,2.9210123629,-0.2913
 351485\H,-1.529629336,3.6953667566,-0.6875811549\H,2.1720542105,1.6009
 483815,0.3909644976\H,-2.0318428967,2.1903907807,1.4980918301\N,-0.651
 6450656,-1.0036065141,0.8076074581\N,0.2815340529,-0.8309047686,-0.071
 1016904\C,-1.8902886076,-1.3392734469,0.2697469953\C,1.5924798512,-0.9
 815615116,0.456177305\O,1.8792631959,-1.3692107417,1.5534221096\O,-2.8
 672798502,-1.5118912052,0.9589193572\O,2.4903272364,-0.7021007519,-0.4
 95679788\O,-1.9238837554,-1.480639758,-1.0726862056\C,-3.1808568927,-1
 .851869269,-1.6075930626\H,-3.0375893326,-1.9632590888,-2.6874092211\H
 ,-3.5289335661,-2.7973889952,-1.1703537067\H,-3.9369063232,-1.07929803
 41,-1.403862106\C,3.848258572,-0.8951235308,-0.1272319193\H,4.11274620
 27,-0.260400899,0.7301955311\H,4.0273138264,-1.9437382884,0.1446527541
 \H,4.4450485712,-0.6215960646,-1.0023979131\\Version=ES64L-G09RevD.01\
 State=1-A\HF=-836.8415614\RMSD=9.204e-09\RMSF=7.347e-06\Dipole=1.25495
 78,2.8418221,-2.0729084\Quadrupole=4.3691263,2.1235834,-6.4927097,-1.7
 875045,3.7982802,4.3091217\PG=C01 [X(C11H14N2O4)]\\@


            THE IRISH PIG
 'TWAS AN EVENING IN NOVEMBER,
 AS I VERY WELL REMEMBER
 I WAS STROLLING DOWN THE STREET IN DRUNKEN PRIDE,
 BUT MY KNEES WERE ALL A'FLUTTER
 SO I LANDED IN THE GUTTER,
 AND A PIG CAME UP AND LAY DOWN BY MY SIDE.

 YES, I LAY THERE IN THE GUTTER
 THINKING THOUGHTS I COULD NOT UTTER
 WHEN A COLLEEN PASSING BY DID SOFTLY SAY,
 'YE CAN TELL A MAN THAT BOOZES
 BY THE COMPANY THAT HE CHOOSES.' -
 AT THAT, THE PIG GOT UP AND WALKED AWAY!
     -- THE ECONOMIST, AUGUST 23, 1986
 Job cpu time:       0 days 11 hours 14 minutes 57.9 seconds.
 File lengths (MBytes):  RWF=    394 Int=      0 D2E=      0 Chk=     15 Scr=      1
 Normal termination of Gaussian 09 at Mon Sep  7 14:33:32 2020.
