 Entering Gaussian System, Link 0=g09
 Input=m062x_dmad_cycloaddition_PM6_toluene.com
 Output=m062x_dmad_cycloaddition_PM6_toluene.log
 Initial command:
 /apps/applications/gaussian/G09.D01/2/default/g09/l1.exe "/local/726098.1.40core-192G.q/Gau-355873.inp" -scrdir="/local/726098.1.40core-192G.q/"
 Entering Link 1 = /apps/applications/gaussian/G09.D01/2/default/g09/l1.exe PID=    355876.
  
 Copyright (c) 1988,1990,1992,1993,1995,1998,2003,2009,2013,
            Gaussian, Inc.  All Rights Reserved.
  
 This is part of the Gaussian(R) 09 program.  It is based on
 the Gaussian(R) 03 system (copyright 2003, Gaussian, Inc.),
 the Gaussian(R) 98 system (copyright 1998, Gaussian, Inc.),
 the Gaussian(R) 94 system (copyright 1995, Gaussian, Inc.),
 the Gaussian 92(TM) system (copyright 1992, Gaussian, Inc.),
 the Gaussian 90(TM) system (copyright 1990, Gaussian, Inc.),
 the Gaussian 88(TM) system (copyright 1988, Gaussian, Inc.),
 the Gaussian 86(TM) system (copyright 1986, Carnegie Mellon
 University), and the Gaussian 82(TM) system (copyright 1983,
 Carnegie Mellon University). Gaussian is a federally registered
 trademark of Gaussian, Inc.
  
 This software contains proprietary and confidential information,
 including trade secrets, belonging to Gaussian, Inc.
  
 This software is provided under written license and may be
 used, copied, transmitted, or stored only in accord with that
 written license.
  
 The following legend is applicable only to US Government
 contracts under FAR:
  
                    RESTRICTED RIGHTS LEGEND
  
 Use, reproduction and disclosure by the US Government is
 subject to restrictions as set forth in subparagraphs (a)
 and (c) of the Commercial Computer Software - Restricted
 Rights clause in FAR 52.227-19.
  
 Gaussian, Inc.
 340 Quinnipiac St., Bldg. 40, Wallingford CT 06492
  
  
 ---------------------------------------------------------------
 Warning -- This program may not be used in any manner that
 competes with the business of Gaussian, Inc. or will provide
 assistance to any competitor of Gaussian, Inc.  The licensee
 of this program is prohibited from giving any competitor of
 Gaussian, Inc. access to this program.  By using this program,
 the user acknowledges that Gaussian, Inc. is engaged in the
 business of creating and licensing software in the field of
 computational chemistry and represents and warrants to the
 licensee that it is not a competitor of Gaussian, Inc. and that
 it will not use this program in any manner prohibited above.
 ---------------------------------------------------------------
  

 Cite this work as:
 Gaussian 09, Revision D.01,
 M. J. Frisch, G. W. Trucks, H. B. Schlegel, G. E. Scuseria, 
 M. A. Robb, J. R. Cheeseman, G. Scalmani, V. Barone, B. Mennucci, 
 G. A. Petersson, H. Nakatsuji, M. Caricato, X. Li, H. P. Hratchian, 
 A. F. Izmaylov, J. Bloino, G. Zheng, J. L. Sonnenberg, M. Hada, 
 M. Ehara, K. Toyota, R. Fukuda, J. Hasegawa, M. Ishida, T. Nakajima, 
 Y. Honda, O. Kitao, H. Nakai, T. Vreven, J. A. Montgomery, Jr., 
 J. E. Peralta, F. Ogliaro, M. Bearpark, J. J. Heyd, E. Brothers, 
 K. N. Kudin, V. N. Staroverov, T. Keith, R. Kobayashi, J. Normand, 
 K. Raghavachari, A. Rendell, J. C. Burant, S. S. Iyengar, J. Tomasi, 
 M. Cossi, N. Rega, J. M. Millam, M. Klene, J. E. Knox, J. B. Cross, 
 V. Bakken, C. Adamo, J. Jaramillo, R. Gomperts, R. E. Stratmann, 
 O. Yazyev, A. J. Austin, R. Cammi, C. Pomelli, J. W. Ochterski, 
 R. L. Martin, K. Morokuma, V. G. Zakrzewski, G. A. Voth, 
 P. Salvador, J. J. Dannenberg, S. Dapprich, A. D. Daniels, 
 O. Farkas, J. B. Foresman, J. V. Ortiz, J. Cioslowski, 
 and D. J. Fox, Gaussian, Inc., Wallingford CT, 2013.
 
 ******************************************
 Gaussian 09:  ES64L-G09RevD.01 24-Apr-2013
                 7-Sep-2020 
 ******************************************
 %nprocshared=4
 Will use up to    4 processors via shared memory.
 %chk=m062x_dmad_cycloaddition_PM6_toluene.chk
 ----------------------------------------------------------------------
 # opt freq scrf=(cpcm,solvent=toluene) geom=connectivity def2svp m062x
  empiricaldispersion=gd3
 ----------------------------------------------------------------------
 1/14=-1,18=20,19=15,26=3,38=1,57=2/1,3;
 2/9=110,12=2,17=6,18=5,40=1/2;
 3/5=43,7=101,11=2,16=1,25=1,30=1,70=2101,71=1,72=13,74=-55,124=31/1,2,3;
 4//1;
 5/5=2,38=5,53=13/2;
 6/7=2,8=2,9=2,10=2,28=1/1;
 7//1,2,3,16;
 1/14=-1,18=20,19=15,26=3/3(2);
 2/9=110/2;
 99//99;
 2/9=110/2;
 3/5=43,7=101,11=2,16=1,25=1,30=1,70=2105,71=1,72=13,74=-55,124=31/1,2,3;
 4/5=5,16=3,69=1/1;
 5/5=2,38=5,53=13/2;
 7//1,2,3,16;
 1/14=-1,18=20,19=15,26=3/3(-5);
 2/9=110/2;
 6/7=2,8=2,9=2,10=2,19=2,28=1/1;
 99/9=1/99;
 -------------------
 Title Card Required
 -------------------
 Symbolic Z-matrix:
 Charge =  0 Multiplicity = 1
 N                    -0.38933   0.22912   0.41757 
 N                     0.38934  -0.22904  -0.41765 
 C                    -1.78967   0.50382   0.05885 
 C                     1.78967  -0.50381  -0.05892 
 O                     2.24247  -1.61061   0.06235 
 O                    -2.24251   1.6106   -0.06245 
 O                     2.46657   0.6757   -0.06084 
 O                    -2.46655  -0.6757    0.06091 
 C                    -3.92195  -0.59269  -0.04624 
 H                    -4.20454  -1.65399  -0.05068 
 H                    -4.32579  -0.06842   0.82555 
 H                    -4.19815  -0.09498  -0.98129 
 C                     3.92196   0.59264   0.04638 
 H                     4.20457   1.65394   0.05092 
 H                     4.19809   0.09485   0.98141 
 H                     4.32584   0.06844  -0.82543 
 

 GradGradGradGradGradGradGradGradGradGradGradGradGradGradGradGradGradGrad
 Berny optimization.
 Initialization pass.
                           ----------------------------
                           !    Initial Parameters    !
                           ! (Angstroms and Degrees)  !
 --------------------------                            --------------------------
 ! Name  Definition              Value          Derivative Info.                !
 --------------------------------------------------------------------------------
 ! R1    R(1,2)                  1.2304         estimate D2E/DX2                !
 ! R2    R(1,3)                  1.4714         estimate D2E/DX2                !
 ! R3    R(2,4)                  1.4714         estimate D2E/DX2                !
 ! R4    R(3,6)                  1.202          estimate D2E/DX2                !
 ! R5    R(3,8)                  1.3599         estimate D2E/DX2                !
 ! R6    R(4,5)                  1.202          estimate D2E/DX2                !
 ! R7    R(4,7)                  1.3599         estimate D2E/DX2                !
 ! R8    R(7,13)                 1.4617         estimate D2E/DX2                !
 ! R9    R(8,9)                  1.4617         estimate D2E/DX2                !
 ! R10   R(9,10)                 1.0983         estimate D2E/DX2                !
 ! R11   R(9,11)                 1.0945         estimate D2E/DX2                !
 ! R12   R(9,12)                 1.0947         estimate D2E/DX2                !
 ! R13   R(13,14)                1.0983         estimate D2E/DX2                !
 ! R14   R(13,15)                1.0947         estimate D2E/DX2                !
 ! R15   R(13,16)                1.0945         estimate D2E/DX2                !
 ! A1    A(2,1,3)              120.4195         estimate D2E/DX2                !
 ! A2    A(1,2,4)              120.4195         estimate D2E/DX2                !
 ! A3    A(1,3,6)              123.7144         estimate D2E/DX2                !
 ! A4    A(1,3,8)              108.1431         estimate D2E/DX2                !
 ! A5    A(6,3,8)              127.6819         estimate D2E/DX2                !
 ! A6    A(2,4,5)              123.7148         estimate D2E/DX2                !
 ! A7    A(2,4,7)              108.1429         estimate D2E/DX2                !
 ! A8    A(5,4,7)              127.6821         estimate D2E/DX2                !
 ! A9    A(4,7,13)             116.5007         estimate D2E/DX2                !
 ! A10   A(3,8,9)              116.5009         estimate D2E/DX2                !
 ! A11   A(8,9,10)             101.631          estimate D2E/DX2                !
 ! A12   A(8,9,11)             109.6454         estimate D2E/DX2                !
 ! A13   A(8,9,12)             109.8564         estimate D2E/DX2                !
 ! A14   A(10,9,11)            111.7862         estimate D2E/DX2                !
 ! A15   A(10,9,12)            111.7757         estimate D2E/DX2                !
 ! A16   A(11,9,12)            111.684          estimate D2E/DX2                !
 ! A17   A(7,13,14)            101.6308         estimate D2E/DX2                !
 ! A18   A(7,13,15)            109.8564         estimate D2E/DX2                !
 ! A19   A(7,13,16)            109.6454         estimate D2E/DX2                !
 ! A20   A(14,13,15)           111.7757         estimate D2E/DX2                !
 ! A21   A(14,13,16)           111.7863         estimate D2E/DX2                !
 ! A22   A(15,13,16)           111.684          estimate D2E/DX2                !
 ! D1    D(3,1,2,4)           -179.9968         estimate D2E/DX2                !
 ! D2    D(2,1,3,6)           -108.8513         estimate D2E/DX2                !
 ! D3    D(2,1,3,8)             78.4116         estimate D2E/DX2                !
 ! D4    D(1,2,4,5)            108.8517         estimate D2E/DX2                !
 ! D5    D(1,2,4,7)            -78.408          estimate D2E/DX2                !
 ! D6    D(1,3,8,9)            169.8473         estimate D2E/DX2                !
 ! D7    D(6,3,8,9)             -2.5168         estimate D2E/DX2                !
 ! D8    D(2,4,7,13)          -169.849          estimate D2E/DX2                !
 ! D9    D(5,4,7,13)             2.5186         estimate D2E/DX2                !
 ! D10   D(4,7,13,14)         -178.4324         estimate D2E/DX2                !
 ! D11   D(4,7,13,15)          -59.9411         estimate D2E/DX2                !
 ! D12   D(4,7,13,16)           63.1547         estimate D2E/DX2                !
 ! D13   D(3,8,9,10)           178.4324         estimate D2E/DX2                !
 ! D14   D(3,8,9,11)           -63.1547         estimate D2E/DX2                !
 ! D15   D(3,8,9,12)            59.941          estimate D2E/DX2                !
 --------------------------------------------------------------------------------
 Trust Radius=3.00D-01 FncErr=1.00D-07 GrdErr=1.00D-06
 Number of steps in this run=     62 maximum allowed number of steps=    100.
 GradGradGradGradGradGradGradGradGradGradGradGradGradGradGradGradGradGrad

                          Input orientation:                          
 ---------------------------------------------------------------------
 Center     Atomic      Atomic             Coordinates (Angstroms)
 Number     Number       Type             X           Y           Z
 ---------------------------------------------------------------------
      1          7           0       -0.389329    0.229118    0.417565
      2          7           0        0.389344   -0.229043   -0.417653
      3          6           0       -1.789670    0.503817    0.058851
      4          6           0        1.789666   -0.503808   -0.058920
      5          8           0        2.242472   -1.610606    0.062345
      6          8           0       -2.242510    1.610596   -0.062448
      7          8           0        2.466567    0.675698   -0.060842
      8          8           0       -2.466549   -0.675704    0.060907
      9          6           0       -3.921945   -0.592689   -0.046240
     10          1           0       -4.204536   -1.653993   -0.050680
     11          1           0       -4.325790   -0.068424    0.825554
     12          1           0       -4.198149   -0.094983   -0.981292
     13          6           0        3.921955    0.592641    0.046382
     14          1           0        4.204567    1.653939    0.050924
     15          1           0        4.198093    0.094854    0.981410
     16          1           0        4.325838    0.068437   -0.825431
 ---------------------------------------------------------------------
                    Distance matrix (angstroms):
                    1          2          3          4          5
     1  N    0.000000
     2  N    1.230379   0.000000
     3  C    1.471425   2.347816   0.000000
     4  C    2.347816   1.471423   3.720326   0.000000
     5  O    3.230657   2.360762   4.552907   1.201973   0.000000
     6  O    2.360757   3.230650   1.201972   4.552929   5.523294
     7  O    2.929923   2.293627   4.261387   1.359939   2.300561
     8  O    2.293633   2.929957   1.359941   4.261370   4.800929
     9  C    3.656482   4.342511   2.399993   5.712317   6.248839
    10  H    4.280323   4.823783   3.240327   6.103561   6.448145
    11  H    3.968717   4.878919   2.710572   6.194405   6.789910
    12  H    4.070498   4.623933   2.690953   6.072218   6.698350
    13  C    4.342476   3.656478   5.712329   2.399989   2.770418
    14  H    4.823735   4.280317   6.103583   3.240322   3.808832
    15  H    4.623893   4.070486   6.072205   2.690948   2.752767
    16  H    4.878899   3.968723   6.194429   2.710567   2.819175
                    6          7          8          9         10
     6  O    0.000000
     7  O    4.800984   0.000000
     8  O    2.300560   5.116321   0.000000
     9  C    2.770420   6.513225   1.461694   0.000000
    10  H    3.808835   7.066200   1.997523   1.098291   0.000000
    11  H    2.819169   6.890249   2.100060   1.094518   1.815631
    12  H    2.752780   6.771973   2.102821   1.094679   1.815652
    13  C    6.248896   1.461694   6.513209   7.933496   8.431882
    14  H    6.448219   1.997521   7.066196   8.431902   9.036910
    15  H    6.698394   2.102820   6.771893   8.213635   8.644527
    16  H    6.789963   2.100060   6.890273   8.310845   8.736949
                   11         12         13         14         15
    11  H    0.000000
    12  H    1.811544   0.000000
    13  C    8.310801   8.213710   0.000000
    14  H    8.736909   8.644642   1.098291   0.000000
    15  H    8.526871   8.624681   1.094679   1.815652   0.000000
    16  H    8.808811   8.526978   1.094518   1.815632   1.811544
                   16
    16  H    0.000000
 Stoichiometry    C4H6N2O4
 Framework group  C1[X(C4H6N2O4)]
 Deg. of freedom    42
 Full point group                 C1      NOp   1
 Largest Abelian subgroup         C1      NOp   1
 Largest concise Abelian subgroup C1      NOp   1
                         Standard orientation:                         
 ---------------------------------------------------------------------
 Center     Atomic      Atomic             Coordinates (Angstroms)
 Number     Number       Type             X           Y           Z
 ---------------------------------------------------------------------
      1          7           0        0.389329   -0.229118    0.417565
      2          7           0       -0.389344    0.229043   -0.417653
      3          6           0        1.789670   -0.503817    0.058851
      4          6           0       -1.789666    0.503808   -0.058920
      5          8           0       -2.242472    1.610606    0.062345
      6          8           0        2.242510   -1.610596   -0.062448
      7          8           0       -2.466567   -0.675698   -0.060842
      8          8           0        2.466549    0.675704    0.060907
      9          6           0        3.921945    0.592689   -0.046240
     10          1           0        4.204536    1.653993   -0.050680
     11          1           0        4.325790    0.068424    0.825554
     12          1           0        4.198149    0.094983   -0.981292
     13          6           0       -3.921955   -0.592641    0.046382
     14          1           0       -4.204567   -1.653939    0.050924
     15          1           0       -4.198093   -0.094854    0.981410
     16          1           0       -4.325838   -0.068437   -0.825431
 ---------------------------------------------------------------------
 Rotational constants (GHZ):      3.9664861      0.5472349      0.4888705
 Standard basis: def2SVP (5D, 7F)
 There are   180 symmetry adapted cartesian basis functions of A   symmetry.
 There are   170 symmetry adapted basis functions of A   symmetry.
   170 basis functions,   292 primitive gaussians,   180 cartesian basis functions
    38 alpha electrons       38 beta electrons
       nuclear repulsion energy       510.1395806824 Hartrees.
 NAtoms=   16 NActive=   16 NUniq=   16 SFac= 1.00D+00 NAtFMM=   60 NAOKFM=F Big=F
 Integral buffers will be    131072 words long.
 Raffenetti 2 integral format.
 Two-electron integral symmetry is turned on.
 Nuclear repulsion after empirical dispersion term =      510.1391948736 Hartrees.
 ------------------------------------------------------------------------------
 Polarizable Continuum Model (PCM)
 =================================
 Model                : C-PCM.
 Atomic radii         : UFF (Universal Force Field).
 Polarization charges : Total charges.
 Charge compensation  : None.
 Solution method      : On-the-fly selection.
 Cavity type          : Scaled VdW (van der Waals Surface) (Alpha=1.100).
 Cavity algorithm     : GePol (No added spheres)
                        Default sphere list used, NSphG=   16.
                        Lebedev-Laikov grids with approx.  5.0 points / Ang**2.
                        Smoothing algorithm: Karplus/York (Gamma=1.0000).
                        Polarization charges: spherical gaussians, with
                                              point-specific exponents (IZeta= 3).
                        Self-potential: point-specific (ISelfS= 7).
                        Self-field    : sphere-specific E.n sum rule (ISelfD= 2).
 1st derivatives      : Analytical E(r).r(x)/FMM algorithm (CHGder, D1EAlg=3).
                        Cavity 1st derivative terms included.
 Solvent              : Toluene, Eps=   2.374100 Eps(inf)=   2.238315
 ------------------------------------------------------------------------------
 Spheres list:
 ISph  on   Nord     Re0    Alpha      Xe            Ye            Ze
    1   N      1    1.8300  1.100      0.389329     -0.229118      0.417565
    2   N      2    1.8300  1.100     -0.389344      0.229043     -0.417653
    3   C      3    1.9255  1.100      1.789670     -0.503817      0.058851
    4   C      4    1.9255  1.100     -1.789666      0.503808     -0.058920
    5   O      5    1.7500  1.100     -2.242472      1.610606      0.062345
    6   O      6    1.7500  1.100      2.242510     -1.610596     -0.062448
    7   O      7    1.7500  1.100     -2.466567     -0.675698     -0.060842
    8   O      8    1.7500  1.100      2.466549      0.675704      0.060907
    9   C      9    1.9255  1.100      3.921945      0.592689     -0.046240
   10   H     10    1.4430  1.100      4.204536      1.653993     -0.050680
   11   H     11    1.4430  1.100      4.325790      0.068424      0.825554
   12   H     12    1.4430  1.100      4.198149      0.094983     -0.981292
   13   C     13    1.9255  1.100     -3.921955     -0.592641      0.046382
   14   H     14    1.4430  1.100     -4.204567     -1.653939      0.050924
   15   H     15    1.4430  1.100     -4.198093     -0.094854      0.981410
   16   H     16    1.4430  1.100     -4.325838     -0.068437     -0.825431
 ------------------------------------------------------------------------------
 One-electron integrals computed using PRISM.
   1 Symmetry operations used in ECPInt.
 ECPInt:  NShTT=    3081 NPrTT=   11473 LenC2=    2821 LenP2D=    7720.
 LDataN:  DoStor=T MaxTD1= 4 Len=   56
 NBasis=   170 RedAO= T EigKep=  4.78D-03  NBF=   170
 NBsUse=   170 1.00D-06 EigRej= -1.00D+00 NBFU=   170
 ExpMin= 1.22D-01 ExpMax= 2.27D+03 ExpMxC= 3.41D+02 IAcc=1 IRadAn=         1 AccDes= 0.00D+00
 Harris functional with IExCor= 1009 and IRadAn=       1 diagonalized for initial guess.
 HarFok:  IExCor= 1009 AccDes= 0.00D+00 IRadAn=         1 IDoV= 1 UseB2=F ITyADJ=14
 ICtDFT=  3500011 ScaDFX=  1.000000  1.000000  1.000000  1.000000
 FoFCou: FMM=F IPFlag=           0 FMFlag=      100000 FMFlg1=           0
         NFxFlg=           0 DoJE=T BraDBF=F KetDBF=T FulRan=T
         wScrn=  0.000000 ICntrl=     500 IOpCl=  0 I1Cent=   200000004 NGrid=           0
         NMat0=    1 NMatS0=      1 NMatT0=    0 NMatD0=    1 NMtDS0=    0 NMtDT0=    0
 Petite list used in FoFCou.
 Requested convergence on RMS density matrix=1.00D-08 within 128 cycles.
 Requested convergence on MAX density matrix=1.00D-06.
 Requested convergence on             energy=1.00D-06.
 No special actions if energy rises.
 Inv3:  Mode=1 IEnd=     7699212.
 Iteration    1 A*A^-1 deviation from unit magnitude is 6.00D-15 for   1589.
 Iteration    1 A*A^-1 deviation from orthogonality  is 2.03D-15 for   1564    394.
 Iteration    1 A^-1*A deviation from unit magnitude is 5.77D-15 for   1589.
 Iteration    1 A^-1*A deviation from orthogonality  is 1.18D-15 for   1361   1200.
 Error on total polarization charges =  0.00328
 SCF Done:  E(RM062X) =  -565.719154848     A.U. after   13 cycles
            NFock= 13  Conv=0.75D-08     -V/T= 2.0088

 **********************************************************************

            Population analysis using the SCF density.

 **********************************************************************

 Orbital symmetries:
       Occupied  (A) (A) (A) (A) (A) (A) (A) (A) (A) (A) (A) (A)
                 (A) (A) (A) (A) (A) (A) (A) (A) (A) (A) (A) (A)
                 (A) (A) (A) (A) (A) (A) (A) (A) (A) (A) (A) (A)
                 (A) (A)
       Virtual   (A) (A) (A) (A) (A) (A) (A) (A) (A) (A) (A) (A)
                 (A) (A) (A) (A) (A) (A) (A) (A) (A) (A) (A) (A)
                 (A) (A) (A) (A) (A) (A) (A) (A) (A) (A) (A) (A)
                 (A) (A) (A) (A) (A) (A) (A) (A) (A) (A) (A) (A)
                 (A) (A) (A) (A) (A) (A) (A) (A) (A) (A) (A) (A)
                 (A) (A) (A) (A) (A) (A) (A) (A) (A) (A) (A) (A)
                 (A) (A) (A) (A) (A) (A) (A) (A) (A) (A) (A) (A)
                 (A) (A) (A) (A) (A) (A) (A) (A) (A) (A) (A) (A)
                 (A) (A) (A) (A) (A) (A) (A) (A) (A) (A) (A) (A)
                 (A) (A) (A) (A) (A) (A) (A) (A) (A) (A) (A) (A)
                 (A) (A) (A) (A) (A) (A) (A) (A) (A) (A) (A) (A)
 The electronic state is 1-A.
 Alpha  occ. eigenvalues --  -19.69912 -19.69911 -19.65657 -19.65654 -14.86190
 Alpha  occ. eigenvalues --  -14.86116 -10.73759 -10.73756 -10.62395 -10.62395
 Alpha  occ. eigenvalues --   -1.24894  -1.23722  -1.16539  -1.15308  -1.15256
 Alpha  occ. eigenvalues --   -0.89967  -0.83268  -0.79319  -0.70414  -0.65082
 Alpha  occ. eigenvalues --   -0.64146  -0.60359  -0.58783  -0.57941  -0.57563
 Alpha  occ. eigenvalues --   -0.54833  -0.52527  -0.52185  -0.49123  -0.48798
 Alpha  occ. eigenvalues --   -0.47472  -0.45625  -0.45357  -0.40607  -0.39979
 Alpha  occ. eigenvalues --   -0.39689  -0.39636  -0.31732
 Alpha virt. eigenvalues --   -0.04400   0.03883   0.03983   0.10800   0.10956
 Alpha virt. eigenvalues --    0.14289   0.15181   0.15919   0.16092   0.17389
 Alpha virt. eigenvalues --    0.17488   0.22359   0.23602   0.29847   0.35535
 Alpha virt. eigenvalues --    0.36723   0.36959   0.42648   0.47008   0.47180
 Alpha virt. eigenvalues --    0.47812   0.48232   0.48255   0.51471   0.52356
 Alpha virt. eigenvalues --    0.53110   0.53377   0.53725   0.61715   0.64435
 Alpha virt. eigenvalues --    0.68099   0.68204   0.68954   0.70087   0.70262
 Alpha virt. eigenvalues --    0.70296   0.71287   0.71294   0.75225   0.79460
 Alpha virt. eigenvalues --    0.80900   0.82949   0.86035   0.86657   0.92334
 Alpha virt. eigenvalues --    0.94514   0.96830   0.98006   0.99195   1.02675
 Alpha virt. eigenvalues --    1.05607   1.08386   1.12460   1.15801   1.16763
 Alpha virt. eigenvalues --    1.16790   1.22987   1.25789   1.31364   1.31793
 Alpha virt. eigenvalues --    1.34284   1.35179   1.42973   1.45198   1.53694
 Alpha virt. eigenvalues --    1.53917   1.54275   1.54299   1.60322   1.61505
 Alpha virt. eigenvalues --    1.65452   1.66551   1.70886   1.72986   1.75260
 Alpha virt. eigenvalues --    1.75317   1.78386   1.78975   1.80457   1.83562
 Alpha virt. eigenvalues --    1.84711   1.86659   1.88527   1.94258   1.94903
 Alpha virt. eigenvalues --    1.94999   1.96768   1.96779   2.02543   2.06513
 Alpha virt. eigenvalues --    2.11590   2.12165   2.16826   2.25064   2.33714
 Alpha virt. eigenvalues --    2.34824   2.35040   2.37913   2.39225   2.45208
 Alpha virt. eigenvalues --    2.54121   2.59424   2.67248   2.67314   2.67453
 Alpha virt. eigenvalues --    2.68055   2.70349   2.71997   2.80934   2.81771
 Alpha virt. eigenvalues --    2.82640   2.84247   2.89413   2.89787   2.89835
 Alpha virt. eigenvalues --    2.91794   2.95925   2.97379   3.03070   3.03890
 Alpha virt. eigenvalues --    3.16223   3.16909   3.20745   3.24907   3.31451
 Alpha virt. eigenvalues --    3.35375   3.40991   3.41538   3.60789   3.63464
 Alpha virt. eigenvalues --    3.67654   3.68804
          Condensed to atoms (all electrons):
               1          2          3          4          5          6
     1  N    6.712483   0.360466   0.256943  -0.040918   0.000570  -0.068444
     2  N    0.360466   6.712484  -0.040917   0.256944  -0.068442   0.000570
     3  C    0.256943  -0.040917   4.348584   0.001073  -0.000186   0.694150
     4  C   -0.040918   0.256944   0.001073   4.348585   0.694152  -0.000186
     5  O    0.000570  -0.068442  -0.000186   0.694152   7.679877   0.000000
     6  O   -0.068444   0.000570   0.694150  -0.000186   0.000000   7.679881
     7  O    0.003197  -0.095593  -0.000321   0.374295  -0.073415   0.000004
     8  O   -0.095590   0.003196   0.374296  -0.000321   0.000004  -0.073415
     9  C    0.004775  -0.000352  -0.026698   0.000012   0.000000   0.000925
    10  H   -0.000033  -0.000004   0.004645   0.000000   0.000000   0.000458
    11  H    0.000032   0.000005  -0.002913   0.000001   0.000000   0.003996
    12  H    0.000236  -0.000055  -0.003719  -0.000001   0.000000   0.004732
    13  C   -0.000352   0.004776   0.000012  -0.026697   0.000924   0.000000
    14  H   -0.000004  -0.000033   0.000000   0.004645   0.000458   0.000000
    15  H   -0.000055   0.000236  -0.000001  -0.003719   0.004732   0.000000
    16  H    0.000005   0.000032   0.000001  -0.002913   0.003995   0.000000
               7          8          9         10         11         12
     1  N    0.003197  -0.095590   0.004775  -0.000033   0.000032   0.000236
     2  N   -0.095593   0.003196  -0.000352  -0.000004   0.000005  -0.000055
     3  C   -0.000321   0.374296  -0.026698   0.004645  -0.002913  -0.003719
     4  C    0.374295  -0.000321   0.000012   0.000000   0.000001  -0.000001
     5  O   -0.073415   0.000004   0.000000   0.000000   0.000000   0.000000
     6  O    0.000004  -0.073415   0.000925   0.000458   0.003996   0.004732
     7  O    8.003320   0.000000   0.000000   0.000000   0.000000   0.000000
     8  O    0.000000   8.003318   0.240586  -0.022649  -0.026149  -0.025008
     9  C    0.000000   0.240586   4.443705   0.402981   0.408773   0.407448
    10  H    0.000000  -0.022649   0.402981   0.570210  -0.018851  -0.019202
    11  H    0.000000  -0.026149   0.408773  -0.018851   0.583181  -0.027417
    12  H    0.000000  -0.025008   0.407448  -0.019202  -0.027417   0.583421
    13  C    0.240585   0.000000   0.000000   0.000000   0.000000   0.000000
    14  H   -0.022650   0.000000   0.000000   0.000000   0.000000   0.000000
    15  H   -0.025008   0.000000   0.000000   0.000000   0.000000   0.000000
    16  H   -0.026148   0.000000   0.000000   0.000000   0.000000   0.000000
              13         14         15         16
     1  N   -0.000352  -0.000004  -0.000055   0.000005
     2  N    0.004776  -0.000033   0.000236   0.000032
     3  C    0.000012   0.000000  -0.000001   0.000001
     4  C   -0.026697   0.004645  -0.003719  -0.002913
     5  O    0.000924   0.000458   0.004732   0.003995
     6  O    0.000000   0.000000   0.000000   0.000000
     7  O    0.240585  -0.022650  -0.025008  -0.026148
     8  O    0.000000   0.000000   0.000000   0.000000
     9  C    0.000000   0.000000   0.000000   0.000000
    10  H    0.000000   0.000000   0.000000   0.000000
    11  H    0.000000   0.000000   0.000000   0.000000
    12  H    0.000000   0.000000   0.000000   0.000000
    13  C    4.443705   0.402981   0.407448   0.408773
    14  H    0.402981   0.570210  -0.019202  -0.018851
    15  H    0.407448  -0.019202   0.583420  -0.027417
    16  H    0.408773  -0.018851  -0.027417   0.583181
 Mulliken charges:
               1
     1  N   -0.133311
     2  N   -0.133312
     3  C    0.395051
     4  C    0.395049
     5  O   -0.242669
     6  O   -0.242671
     7  O   -0.378266
     8  O   -0.378268
     9  C    0.117846
    10  H    0.082446
    11  H    0.079341
    12  H    0.079565
    13  C    0.117846
    14  H    0.082446
    15  H    0.079565
    16  H    0.079341
 Sum of Mulliken charges =   0.00000
 Mulliken charges with hydrogens summed into heavy atoms:
               1
     1  N   -0.133311
     2  N   -0.133312
     3  C    0.395051
     4  C    0.395049
     5  O   -0.242669
     6  O   -0.242671
     7  O   -0.378266
     8  O   -0.378268
     9  C    0.359198
    13  C    0.359198
 Electronic spatial extent (au):  <R**2>=           2181.0135
 Charge=              0.0000 electrons
 Dipole moment (field-independent basis, Debye):
    X=             -0.0001    Y=              0.0001    Z=              0.0002  Tot=              0.0002
 Quadrupole moment (field-independent basis, Debye-Ang):
   XX=            -30.2997   YY=            -65.1439   ZZ=            -56.0828
   XY=             11.8611   XZ=              0.1611   YZ=             -0.1361
 Traceless Quadrupole moment (field-independent basis, Debye-Ang):
   XX=             20.2091   YY=            -14.6351   ZZ=             -5.5740
   XY=             11.8611   XZ=              0.1611   YZ=             -0.1361
 Octapole moment (field-independent basis, Debye-Ang**2):
  XXX=             -0.0014  YYY=              0.0000  ZZZ=              0.0002  XYY=              0.0002
  XXY=              0.0016  XXZ=              0.0030  XZZ=             -0.0002  YZZ=              0.0001
  YYZ=              0.0008  XYZ=             -0.0003
 Hexadecapole moment (field-independent basis, Debye-Ang**3):
 XXXX=          -1740.0322 YYYY=           -327.4293 ZZZZ=            -74.3533 XXXY=            135.0406
 XXXZ=              0.3399 YYYX=             46.3847 YYYZ=             -0.5197 ZZZX=             -1.1883
 ZZZY=              1.8116 XXYY=           -459.7971 XXZZ=           -375.4404 YYZZ=            -64.3243
 XXYZ=             -6.3486 YYXZ=              1.5515 ZZXY=             -7.5350
 N-N= 5.101391948736D+02 E-N=-2.344604626693D+03  KE= 5.607974407943D+02
   1 Symmetry operations used in ECPInt.
 ECPInt:  NShTT=    3081 NPrTT=   11473 LenC2=    2821 LenP2D=    7720.
 LDataN:  DoStor=T MaxTD1= 5 Len=  102
 D1PCM: C-PCM CHGder 1st derivatives, ID1Alg=3 FixD1E=F DoIter=F DoCFld=F I1PDM=0.
 Calling FoFJK, ICntrl=      2127 FMM=F ISym2X=0 I1Cent= 0 IOpClX= 0 NMat=1 NMatS=1 NMatT=0.
 ***** Axes restored to original set *****
 -------------------------------------------------------------------
 Center     Atomic                   Forces (Hartrees/Bohr)
 Number     Number              X              Y              Z
 -------------------------------------------------------------------
      1        7           0.009677421    0.001732418    0.004059526
      2        7          -0.009679525   -0.001741365   -0.004060947
      3        6          -0.008242193   -0.019631879   -0.005179110
      4        6           0.008242951    0.019636432    0.005188697
      5        8          -0.011871080    0.024596624   -0.002702643
      6        8           0.011868941   -0.024593376    0.002700099
      7        8          -0.005108928   -0.035406329    0.000931057
      8        8           0.005111749    0.035406193   -0.000935866
      9        6           0.023631036   -0.009618588    0.000700908
     10        1          -0.005479370    0.005085476   -0.000396322
     11        1          -0.001148962    0.001214433    0.000109051
     12        1          -0.000991669    0.001012820   -0.000017671
     13        6          -0.023630973    0.009620020   -0.000701578
     14        1           0.005479726   -0.005085716    0.000396161
     15        1           0.000991690   -0.001012905    0.000017725
     16        1           0.001149187   -0.001214257   -0.000109088
 -------------------------------------------------------------------
 Cartesian Forces:  Max     0.035406329 RMS     0.011796003

 GradGradGradGradGradGradGradGradGradGradGradGradGradGradGradGradGradGrad
 Berny optimization.
 FormGI is forming the generalized inverse of G from B-inverse, IUseBI=4.
 Internal  Forces:  Max     0.039249819 RMS     0.013419328
 Search for a local minimum.
 Step number   1 out of a maximum of   62
 All quantities printed in internal units (Hartrees-Bohrs-Radians)
 Mixed Optimization -- RFO/linear search
 Second derivative matrix not updated -- first step.
 ITU=  0
     Eigenvalues ---    0.00747   0.00747   0.00876   0.00876   0.01641
     Eigenvalues ---    0.01641   0.02222   0.02222   0.03539   0.10156
     Eigenvalues ---    0.10156   0.10967   0.10967   0.16000   0.16000
     Eigenvalues ---    0.16000   0.16000   0.16000   0.16000   0.24896
     Eigenvalues ---    0.24896   0.25000   0.25000   0.25000   0.25000
     Eigenvalues ---    0.25000   0.25000   0.33872   0.33872   0.34277
     Eigenvalues ---    0.34278   0.34296   0.34296   0.35570   0.35570
     Eigenvalues ---    0.36753   0.36753   0.52959   0.52960   0.90929
     Eigenvalues ---    1.03838   1.03838
 RFO step:  Lambda=-2.20311141D-02 EMin= 7.46970506D-03
 Linear search not attempted -- first point.
 Iteration  1 RMS(Cart)=  0.12621028 RMS(Int)=  0.00308619
 Iteration  2 RMS(Cart)=  0.00514682 RMS(Int)=  0.00018826
 Iteration  3 RMS(Cart)=  0.00000958 RMS(Int)=  0.00018806
 Iteration  4 RMS(Cart)=  0.00000000 RMS(Int)=  0.00018806
 Variable       Old X    -DE/DX   Delta X   Delta X   Delta X     New X
                                 (Linear)    (Quad)   (Total)
    R1        2.32508  -0.02455   0.00000  -0.02636  -0.02636   2.29872
    R2        2.78059  -0.02489   0.00000  -0.06590  -0.06590   2.71469
    R3        2.78059  -0.02489   0.00000  -0.06589  -0.06589   2.71469
    R4        2.27140  -0.02739   0.00000  -0.02583  -0.02583   2.24557
    R5        2.56992  -0.03925   0.00000  -0.07115  -0.07115   2.49876
    R6        2.27140  -0.02739   0.00000  -0.02583  -0.02583   2.24557
    R7        2.56991  -0.03925   0.00000  -0.07115  -0.07115   2.49876
    R8        2.76220  -0.01610   0.00000  -0.04132  -0.04132   2.72088
    R9        2.76220  -0.01610   0.00000  -0.04132  -0.04132   2.72088
   R10        2.07547  -0.00351   0.00000  -0.00973  -0.00973   2.06574
   R11        2.06834   0.00110   0.00000   0.00302   0.00302   2.07136
   R12        2.06864   0.00072   0.00000   0.00198   0.00198   2.07062
   R13        2.07547  -0.00351   0.00000  -0.00973  -0.00973   2.06574
   R14        2.06864   0.00072   0.00000   0.00198   0.00198   2.07062
   R15        2.06834   0.00110   0.00000   0.00302   0.00302   2.07136
    A1        2.10172  -0.03011   0.00000  -0.11070  -0.11070   1.99102
    A2        2.10172  -0.03012   0.00000  -0.11071  -0.11071   1.99101
    A3        2.15922  -0.00408   0.00000  -0.01350  -0.01383   2.14540
    A4        1.88745   0.00474   0.00000   0.01898   0.01866   1.90611
    A5        2.22847  -0.00044   0.00000   0.00003  -0.00028   2.22819
    A6        2.15923  -0.00408   0.00000  -0.01353  -0.01385   2.14538
    A7        1.88745   0.00474   0.00000   0.01899   0.01867   1.90612
    A8        2.22847  -0.00044   0.00000   0.00003  -0.00028   2.22819
    A9        2.03332  -0.00944   0.00000  -0.03471  -0.03471   1.99861
   A10        2.03332  -0.00944   0.00000  -0.03471  -0.03471   1.99861
   A11        1.77379   0.01110   0.00000   0.06461   0.06428   1.83808
   A12        1.91367  -0.00068   0.00000  -0.00585  -0.00613   1.90755
   A13        1.91736  -0.00073   0.00000  -0.00601  -0.00629   1.91107
   A14        1.95104  -0.00294   0.00000  -0.01225  -0.01259   1.93844
   A15        1.95085  -0.00287   0.00000  -0.01169  -0.01204   1.93882
   A16        1.94925  -0.00268   0.00000  -0.02141  -0.02165   1.92760
   A17        1.77379   0.01110   0.00000   0.06461   0.06428   1.83808
   A18        1.91736  -0.00073   0.00000  -0.00601  -0.00629   1.91107
   A19        1.91367  -0.00068   0.00000  -0.00585  -0.00613   1.90755
   A20        1.95085  -0.00287   0.00000  -0.01169  -0.01204   1.93882
   A21        1.95104  -0.00294   0.00000  -0.01225  -0.01260   1.93844
   A22        1.94925  -0.00268   0.00000  -0.02141  -0.02165   1.92760
    D1       -3.14154  -0.00001   0.00000  -0.00010  -0.00010   3.14155
    D2       -1.89981   0.00104   0.00000   0.02654   0.02645  -1.87336
    D3        1.36854  -0.00076   0.00000  -0.01699  -0.01690   1.35164
    D4        1.89982  -0.00104   0.00000  -0.02650  -0.02640   1.87342
    D5       -1.36848   0.00076   0.00000   0.01692   0.01682  -1.35165
    D6        2.96440   0.00170   0.00000   0.04293   0.04304   3.00743
    D7       -0.04393   0.00012   0.00000  -0.00166  -0.00177  -0.04570
    D8       -2.96442  -0.00170   0.00000  -0.04286  -0.04297  -3.00740
    D9        0.04396  -0.00013   0.00000   0.00159   0.00171   0.04566
   D10       -3.11423  -0.00013   0.00000  -0.00343  -0.00343  -3.11767
   D11       -1.04617   0.00206   0.00000   0.01434   0.01443  -1.03174
   D12        1.10226  -0.00222   0.00000  -0.02033  -0.02042   1.08184
   D13        3.11423   0.00013   0.00000   0.00343   0.00344   3.11767
   D14       -1.10226   0.00222   0.00000   0.02033   0.02042  -1.08184
   D15        1.04617  -0.00206   0.00000  -0.01433  -0.01443   1.03174
         Item               Value     Threshold  Converged?
 Maximum Force            0.039250     0.000450     NO 
 RMS     Force            0.013419     0.000300     NO 
 Maximum Displacement     0.362097     0.001800     NO 
 RMS     Displacement     0.129249     0.001200     NO 
 Predicted change in Energy=-1.178123D-02
 GradGradGradGradGradGradGradGradGradGradGradGradGradGradGradGradGradGrad

                          Input orientation:                          
 ---------------------------------------------------------------------
 Center     Atomic      Atomic             Coordinates (Angstroms)
 Number     Number       Type             X           Y           Z
 ---------------------------------------------------------------------
      1          7           0       -0.335524    0.225148    0.454633
      2          7           0        0.335523   -0.225248   -0.454513
      3          6           0       -1.711610    0.452401    0.110493
      4          6           0        1.711618   -0.452445   -0.110376
      5          8           0        2.166872   -1.538588    0.048069
      6          8           0       -2.166828    1.538556   -0.047983
      7          8           0        2.356805    0.701756   -0.111870
      8          8           0       -2.356820   -0.701786    0.111942
      9          6           0       -3.783302   -0.588921   -0.047779
     10          1           0       -4.155749   -1.616656   -0.050254
     11          1           0       -4.198159   -0.021563    0.793333
     12          1           0       -4.006536   -0.086444   -0.995567
     13          6           0        3.783297    0.588928    0.047798
     14          1           0        4.155721    1.616672    0.050242
     15          1           0        4.006579    0.086472    0.995584
     16          1           0        4.198136    0.021567   -0.793321
 ---------------------------------------------------------------------
                    Distance matrix (angstroms):
                    1          2          3          4          5
     1  N    0.000000
     2  N    1.216432   0.000000
     3  C    1.436554   2.229168   0.000000
     4  C    2.229161   1.436553   3.547678   0.000000
     5  O    3.088373   2.308959   4.360110   1.188305   0.000000
     6  O    2.308968   3.088370   1.188306   4.360083   5.315919
     7  O    2.792261   2.249960   4.082110   1.322289   2.254062
     8  O    2.249951   2.792252   1.322288   4.082130   4.600882
     9  C    3.578030   4.154806   2.324072   5.496971   6.026245
    10  H    4.270980   4.719213   3.206346   5.982057   6.323868
    11  H    3.885297   4.706685   2.621801   5.993982   6.585621
    12  H    3.959355   4.377840   2.603922   5.797827   6.427197
    13  C    4.154821   3.578036   5.496960   2.324076   2.671920
    14  H    4.719232   4.270990   5.982033   3.206350   3.729771
    15  H    4.377867   3.959368   5.797842   2.603924   2.631183
    16  H    4.706688   3.885291   5.993963   2.621807   2.695933
                    6          7          8          9         10
     6  O    0.000000
     7  O    4.600823   0.000000
     8  O    2.254064   4.923240   0.000000
     9  C    2.671918   6.274621   1.439826   0.000000
    10  H    3.729769   6.913190   2.024708   1.093144   0.000000
    11  H    2.695939   6.656586   2.077866   1.096117   1.804927
    12  H    2.631172   6.472580   2.080092   1.095727   1.804835
    13  C    6.026189   1.439827   6.274639   7.658321   8.240308
    14  H    6.323794   2.024709   6.913193   8.240287   8.918803
    15  H    6.427171   2.080092   6.472636   7.888409   8.403453
    16  H    6.585556   2.077867   6.656590   8.039396   8.545369
                   11         12         13         14         15
    11  H    0.000000
    12  H    1.800303   0.000000
    13  C    8.039413   7.888360   0.000000
    14  H    8.545367   8.403377   1.093144   0.000000
    15  H    8.207941   8.258607   1.095727   1.804835   0.000000
    16  H    8.545005   8.207875   1.096117   1.804926   1.800303
                   16
    16  H    0.000000
 Stoichiometry    C4H6N2O4
 Framework group  C1[X(C4H6N2O4)]
 Deg. of freedom    42
 Full point group                 C1      NOp   1
 Largest Abelian subgroup         C1      NOp   1
 Largest concise Abelian subgroup C1      NOp   1
                         Standard orientation:                         
 ---------------------------------------------------------------------
 Center     Atomic      Atomic             Coordinates (Angstroms)
 Number     Number       Type             X           Y           Z
 ---------------------------------------------------------------------
      1          7           0        0.336406   -0.230505    0.451257
      2          7           0       -0.336398    0.230568   -0.451214
      3          6           0        1.708075   -0.468594    0.096961
      4          6           0       -1.708077    0.468602   -0.096921
      5          8           0       -2.152305    1.558051    0.069901
      6          8           0        2.152267   -1.558054   -0.069892
      7          8           0       -2.363820   -0.679632   -0.099907
      8          8           0        2.363841    0.679626    0.099901
      9          6           0        3.788156    0.554531   -0.069746
     10          1           0        4.169991    1.578818   -0.069564
     11          1           0        4.203269   -0.020815    0.765796
     12          1           0        4.000583    0.054803   -1.021462
     13          6           0       -3.788145   -0.554574    0.069686
     14          1           0       -4.169957   -1.578870    0.069474
     15          1           0       -4.000621   -0.054866    1.021402
     16          1           0       -4.203240    0.020775   -0.765863
 ---------------------------------------------------------------------
 Rotational constants (GHZ):      4.1707949      0.5893606      0.5269523
 Standard basis: def2SVP (5D, 7F)
 There are   180 symmetry adapted cartesian basis functions of A   symmetry.
 There are   170 symmetry adapted basis functions of A   symmetry.
   170 basis functions,   292 primitive gaussians,   180 cartesian basis functions
    38 alpha electrons       38 beta electrons
       nuclear repulsion energy       524.2370357102 Hartrees.
 NAtoms=   16 NActive=   16 NUniq=   16 SFac= 1.00D+00 NAtFMM=   60 NAOKFM=F Big=F
 Integral buffers will be    131072 words long.
 Raffenetti 2 integral format.
 Two-electron integral symmetry is turned on.
 Nuclear repulsion after empirical dispersion term =      524.2366553738 Hartrees.
 ------------------------------------------------------------------------------
 Polarizable Continuum Model (PCM)
 =================================
 Model                : C-PCM.
 Atomic radii         : UFF (Universal Force Field).
 Polarization charges : Total charges.
 Charge compensation  : None.
 Solution method      : On-the-fly selection.
 Cavity type          : Scaled VdW (van der Waals Surface) (Alpha=1.100).
 Cavity algorithm     : GePol (No added spheres)
                        Default sphere list used, NSphG=   16.
                        Lebedev-Laikov grids with approx.  5.0 points / Ang**2.
                        Smoothing algorithm: Karplus/York (Gamma=1.0000).
                        Polarization charges: spherical gaussians, with
                                              point-specific exponents (IZeta= 3).
                        Self-potential: point-specific (ISelfS= 7).
                        Self-field    : sphere-specific E.n sum rule (ISelfD= 2).
 1st derivatives      : Analytical E(r).r(x)/FMM algorithm (CHGder, D1EAlg=3).
                        Cavity 1st derivative terms included.
 Solvent              : Toluene, Eps=   2.374100 Eps(inf)=   2.238315
 ------------------------------------------------------------------------------
 Spheres list:
 ISph  on   Nord     Re0    Alpha      Xe            Ye            Ze
    1   N      1    1.8300  1.100      0.336406     -0.230505      0.451257
    2   N      2    1.8300  1.100     -0.336398      0.230568     -0.451214
    3   C      3    1.9255  1.100      1.708075     -0.468594      0.096961
    4   C      4    1.9255  1.100     -1.708077      0.468602     -0.096921
    5   O      5    1.7500  1.100     -2.152305      1.558051      0.069901
    6   O      6    1.7500  1.100      2.152267     -1.558054     -0.069892
    7   O      7    1.7500  1.100     -2.363820     -0.679632     -0.099907
    8   O      8    1.7500  1.100      2.363841      0.679626      0.099901
    9   C      9    1.9255  1.100      3.788156      0.554531     -0.069746
   10   H     10    1.4430  1.100      4.169991      1.578818     -0.069564
   11   H     11    1.4430  1.100      4.203269     -0.020815      0.765796
   12   H     12    1.4430  1.100      4.000583      0.054803     -1.021462
   13   C     13    1.9255  1.100     -3.788145     -0.554574      0.069686
   14   H     14    1.4430  1.100     -4.169957     -1.578870      0.069474
   15   H     15    1.4430  1.100     -4.000621     -0.054866      1.021402
   16   H     16    1.4430  1.100     -4.203240      0.020775     -0.765863
 ------------------------------------------------------------------------------
 One-electron integrals computed using PRISM.
   1 Symmetry operations used in ECPInt.
 ECPInt:  NShTT=    3081 NPrTT=   11473 LenC2=    2856 LenP2D=    7859.
 LDataN:  DoStor=T MaxTD1= 4 Len=   56
 NBasis=   170 RedAO= T EigKep=  4.21D-03  NBF=   170
 NBsUse=   170 1.00D-06 EigRej= -1.00D+00 NBFU=   170
 Initial guess from the checkpoint file:  "m062x_dmad_cycloaddition_PM6_toluene.chk"
 B after Tr=     0.000000    0.000000    0.000000
         Rot=    0.999999   -0.000792    0.000275    0.001359 Ang=  -0.18 deg.
 ExpMin= 1.22D-01 ExpMax= 2.27D+03 ExpMxC= 3.41D+02 IAcc=1 IRadAn=         1 AccDes= 0.00D+00
 Harris functional with IExCor= 1009 and IRadAn=       1 diagonalized for initial guess.
 HarFok:  IExCor= 1009 AccDes= 0.00D+00 IRadAn=         1 IDoV= 1 UseB2=F ITyADJ=14
 ICtDFT=  3500011 ScaDFX=  1.000000  1.000000  1.000000  1.000000
 FoFCou: FMM=F IPFlag=           0 FMFlag=      100000 FMFlg1=           0
         NFxFlg=           0 DoJE=T BraDBF=F KetDBF=T FulRan=T
         wScrn=  0.000000 ICntrl=     500 IOpCl=  0 I1Cent=   200000004 NGrid=           0
         NMat0=    1 NMatS0=      1 NMatT0=    0 NMatD0=    1 NMtDS0=    0 NMtDT0=    0
 Petite list used in FoFCou.
 Requested convergence on RMS density matrix=1.00D-08 within 128 cycles.
 Requested convergence on MAX density matrix=1.00D-06.
 Requested convergence on             energy=1.00D-06.
 No special actions if energy rises.
 Inv3:  Mode=1 IEnd=     7300800.
 Iteration    1 A*A^-1 deviation from unit magnitude is 4.00D-15 for   1547.
 Iteration    1 A*A^-1 deviation from orthogonality  is 1.89D-15 for   1545    782.
 Iteration    1 A^-1*A deviation from unit magnitude is 4.22D-15 for   1547.
 Iteration    1 A^-1*A deviation from orthogonality  is 1.69D-15 for   1283    488.
 Error on total polarization charges =  0.00330
 SCF Done:  E(RM062X) =  -565.730831115     A.U. after   13 cycles
            NFock= 13  Conv=0.72D-08     -V/T= 2.0077
   1 Symmetry operations used in ECPInt.
 ECPInt:  NShTT=    3081 NPrTT=   11473 LenC2=    2856 LenP2D=    7859.
 LDataN:  DoStor=T MaxTD1= 5 Len=  102
 D1PCM: C-PCM CHGder 1st derivatives, ID1Alg=3 FixD1E=F DoIter=F DoCFld=F I1PDM=0.
 Calling FoFJK, ICntrl=      2127 FMM=F ISym2X=0 I1Cent= 0 IOpClX= 0 NMat=1 NMatS=1 NMatT=0.
 ***** Axes restored to original set *****
 -------------------------------------------------------------------
 Center     Atomic                   Forces (Hartrees/Bohr)
 Number     Number              X              Y              Z
 -------------------------------------------------------------------
      1        7          -0.004971353    0.008919576    0.014391632
      2        7           0.004971219   -0.008911487   -0.014388710
      3        6          -0.000371964   -0.014137395    0.002497302
      4        6           0.000373312    0.014131372   -0.002507198
      5        8           0.001667445   -0.006592694    0.001110032
      6        8          -0.001664668    0.006590419   -0.001105633
      7        8           0.005820388   -0.007386351    0.000989145
      8        8          -0.005823240    0.007387375   -0.000987022
      9        6           0.007693575   -0.003865317    0.000032849
     10        1          -0.001094668    0.000554317   -0.000021877
     11        1          -0.001276482    0.000663105   -0.000420651
     12        1          -0.001436313    0.000400295    0.000064238
     13        6          -0.007694364    0.003864615   -0.000032205
     14        1           0.001094409   -0.000554264    0.000021892
     15        1           0.001436487   -0.000400342   -0.000064282
     16        1           0.001276219   -0.000663223    0.000420488
 -------------------------------------------------------------------
 Cartesian Forces:  Max     0.014391632 RMS     0.005531956

 GradGradGradGradGradGradGradGradGradGradGradGradGradGradGradGradGradGrad
 Berny optimization.
 Using GEDIIS/GDIIS optimizer.
 FormGI is forming the generalized inverse of G from B-inverse, IUseBI=4.
 Internal  Forces:  Max     0.018088799 RMS     0.003574785
 Search for a local minimum.
 Step number   2 out of a maximum of   62
 All quantities printed in internal units (Hartrees-Bohrs-Radians)
 Mixed Optimization -- RFO/linear search
 Update second derivatives using D2CorX and points    1    2
 DE= -1.17D-02 DEPred=-1.18D-02 R= 9.91D-01
 TightC=F SS=  1.41D+00  RLast= 2.63D-01 DXNew= 5.0454D-01 7.9019D-01
 Trust test= 9.91D-01 RLast= 2.63D-01 DXMaxT set to 5.05D-01
 ITU=  1  0
 Use linear search instead of GDIIS.
     Eigenvalues ---    0.00747   0.00747   0.00875   0.00876   0.01565
     Eigenvalues ---    0.01579   0.02208   0.02222   0.03539   0.10224
     Eigenvalues ---    0.10232   0.10632   0.10632   0.15553   0.16000
     Eigenvalues ---    0.16000   0.16000   0.16000   0.16130   0.22943
     Eigenvalues ---    0.24956   0.24957   0.25000   0.25000   0.25000
     Eigenvalues ---    0.25000   0.26922   0.33863   0.33872   0.34265
     Eigenvalues ---    0.34277   0.34288   0.34296   0.35570   0.35852
     Eigenvalues ---    0.36753   0.37704   0.51061   0.52960   0.95023
     Eigenvalues ---    1.03838   1.10324
 RFO step:  Lambda=-2.07146790D-03 EMin= 7.46949329D-03
 Quartic linear search produced a step of  0.01798.
 Iteration  1 RMS(Cart)=  0.06343743 RMS(Int)=  0.00201790
 Iteration  2 RMS(Cart)=  0.00476745 RMS(Int)=  0.00072236
 Iteration  3 RMS(Cart)=  0.00000181 RMS(Int)=  0.00072236
 Iteration  4 RMS(Cart)=  0.00000000 RMS(Int)=  0.00072236
 Variable       Old X    -DE/DX   Delta X   Delta X   Delta X     New X
                                 (Linear)    (Quad)   (Total)
    R1        2.29872   0.01809  -0.00047   0.01862   0.01814   2.31687
    R2        2.71469   0.00341  -0.00118   0.00596   0.00477   2.71946
    R3        2.71469   0.00341  -0.00118   0.00596   0.00477   2.71947
    R4        2.24557   0.00681  -0.00046   0.00513   0.00466   2.25024
    R5        2.49876  -0.00351  -0.00128  -0.01082  -0.01210   2.48666
    R6        2.24557   0.00681  -0.00046   0.00513   0.00467   2.25024
    R7        2.49876  -0.00351  -0.00128  -0.01082  -0.01210   2.48666
    R8        2.72088  -0.00400  -0.00074  -0.01333  -0.01408   2.70680
    R9        2.72088  -0.00399  -0.00074  -0.01333  -0.01407   2.70681
   R10        2.06574  -0.00014  -0.00017  -0.00097  -0.00114   2.06460
   R11        2.07136   0.00050   0.00005   0.00163   0.00169   2.07305
   R12        2.07062   0.00042   0.00004   0.00135   0.00138   2.07200
   R13        2.06574  -0.00014  -0.00017  -0.00097  -0.00114   2.06460
   R14        2.07062   0.00042   0.00004   0.00135   0.00138   2.07200
   R15        2.07136   0.00050   0.00005   0.00163   0.00169   2.07305
    A1        1.99102  -0.00156  -0.00199  -0.01241  -0.01440   1.97662
    A2        1.99101  -0.00155  -0.00199  -0.01239  -0.01438   1.97663
    A3        2.14540  -0.00338  -0.00025  -0.01168  -0.01403   2.13137
    A4        1.90611   0.00484   0.00034   0.02333   0.02156   1.92767
    A5        2.22819  -0.00130   0.00000  -0.00233  -0.00445   2.22375
    A6        2.14538  -0.00337  -0.00025  -0.01164  -0.01401   2.13137
    A7        1.90612   0.00484   0.00034   0.02333   0.02154   1.92766
    A8        2.22819  -0.00129  -0.00001  -0.00231  -0.00445   2.22374
    A9        1.99861   0.00489  -0.00062   0.01777   0.01715   2.01577
   A10        1.99861   0.00489  -0.00062   0.01778   0.01716   2.01577
   A11        1.83808   0.00150   0.00116   0.01342   0.01450   1.85257
   A12        1.90755   0.00125  -0.00011   0.00713   0.00696   1.91451
   A13        1.91107   0.00145  -0.00011   0.00844   0.00827   1.91934
   A14        1.93844  -0.00102  -0.00023  -0.00643  -0.00673   1.93171
   A15        1.93882  -0.00107  -0.00022  -0.00660  -0.00690   1.93191
   A16        1.92760  -0.00187  -0.00039  -0.01412  -0.01454   1.91306
   A17        1.83808   0.00150   0.00116   0.01342   0.01449   1.85257
   A18        1.91107   0.00145  -0.00011   0.00845   0.00827   1.91934
   A19        1.90755   0.00125  -0.00011   0.00712   0.00696   1.91451
   A20        1.93882  -0.00107  -0.00022  -0.00660  -0.00690   1.93191
   A21        1.93844  -0.00102  -0.00023  -0.00642  -0.00673   1.93171
   A22        1.92760  -0.00187  -0.00039  -0.01412  -0.01454   1.91306
    D1        3.14155   0.00000   0.00000   0.00013   0.00013  -3.14151
    D2       -1.87336   0.00113   0.00048   0.06846   0.06875  -1.80462
    D3        1.35164  -0.00088  -0.00030  -0.04293  -0.04304   1.30860
    D4        1.87342  -0.00113  -0.00047  -0.06863  -0.06891   1.80451
    D5       -1.35165   0.00089   0.00030   0.04316   0.04327  -1.30838
    D6        3.00743   0.00223   0.00077   0.11008   0.11097   3.11841
    D7       -0.04570   0.00021  -0.00003  -0.00759  -0.00775  -0.05344
    D8       -3.00740  -0.00224  -0.00077  -0.11029  -0.11119  -3.11858
    D9        0.04566  -0.00020   0.00003   0.00780   0.00795   0.05362
   D10       -3.11767  -0.00030  -0.00006  -0.02602  -0.02608   3.13943
   D11       -1.03174   0.00004   0.00026  -0.02190  -0.02160  -1.05334
   D12        1.08184  -0.00057  -0.00037  -0.02956  -0.02997   1.05187
   D13        3.11767   0.00030   0.00006   0.02602   0.02609  -3.13943
   D14       -1.08184   0.00057   0.00037   0.02956   0.02997  -1.05186
   D15        1.03174  -0.00004  -0.00026   0.02191   0.02160   1.05334
         Item               Value     Threshold  Converged?
 Maximum Force            0.018089     0.000450     NO 
 RMS     Force            0.003575     0.000300     NO 
 Maximum Displacement     0.176290     0.001800     NO 
 RMS     Displacement     0.064118     0.001200     NO 
 Predicted change in Energy=-1.108255D-03
 GradGradGradGradGradGradGradGradGradGradGradGradGradGradGradGradGradGrad

                          Input orientation:                          
 ---------------------------------------------------------------------
 Center     Atomic      Atomic             Coordinates (Angstroms)
 Number     Number       Type             X           Y           Z
 ---------------------------------------------------------------------
      1          7           0       -0.307924    0.227176    0.478762
      2          7           0        0.307976   -0.227041   -0.479106
      3          6           0       -1.702681    0.450209    0.203343
      4          6           0        1.702713   -0.450183   -0.203664
      5          8           0        2.141661   -1.538215   -0.000063
      6          8           0       -2.141725    1.538215   -0.000187
      7          8           0        2.355462    0.692180   -0.181796
      8          8           0       -2.355411   -0.692172    0.181800
      9          6           0       -3.764570   -0.592729   -0.055039
     10          1           0       -4.148191   -1.615582   -0.039323
     11          1           0       -4.230820    0.008064    0.735587
     12          1           0       -3.948423   -0.124955   -1.029516
     13          6           0        3.764568    0.592663    0.055323
     14          1           0        4.148216    1.615509    0.039861
     15          1           0        3.948205    0.124719    1.029759
     16          1           0        4.230968   -0.008007   -0.735308
 ---------------------------------------------------------------------
                    Distance matrix (angstroms):
                    1          2          3          4          5
     1  N    0.000000
     2  N    1.226033   0.000000
     3  C    1.439079   2.228709   0.000000
     4  C    2.228717   1.439080   3.545852   0.000000
     5  O    3.057179   2.304574   4.332917   1.190775   0.000000
     6  O    2.304570   3.057209   1.190774   4.332993   5.273691
     7  O    2.783197   2.263970   4.083553   1.315885   2.247977
     8  O    2.263977   2.783303   1.315886   4.083566   4.579576
     9  C    3.592436   4.110863   2.325053   5.471160   5.981683
    10  H    4.290900   4.688164   3.210436   5.968102   6.290450
    11  H    3.937396   4.704405   2.621119   6.024865   6.598536
    12  H    3.956278   4.293053   2.625664   5.720414   6.336102
    13  C    4.110726   3.592431   5.471107   2.325048   2.679093
    14  H    4.687994   4.290893   5.968052   3.210433   3.738160
    15  H    4.292869   3.956220   5.720264   2.625658   2.662609
    16  H    4.704340   3.937446   6.024883   2.621114   2.692086
                    6          7          8          9         10
     6  O    0.000000
     7  O    4.579678   0.000000
     8  O    2.247979   4.923511   0.000000
     9  C    2.679097   6.254747   1.432380   0.000000
    10  H    3.738165   6.902432   2.028705   1.092538   0.000000
    11  H    2.692034   6.684962   2.077058   1.097010   1.800983
    12  H    2.662670   6.412901   2.080074   1.096458   1.800655
    13  C    5.981760   1.432379   6.254674   7.622681   8.215660
    14  H    6.290544   2.028703   6.902370   8.215687   8.903741
    15  H    6.336088   2.080074   6.412638   7.821664   8.350043
    16  H    6.598668   2.077056   6.685025   8.045701   8.560315
                   11         12         13         14         15
    11  H    0.000000
    12  H    1.792492   0.000000
    13  C    8.045542   7.821897   0.000000
    14  H    8.560150   8.350350   1.092538   0.000000
    15  H    8.185145   8.164538   1.096458   1.800655   0.000000
    16  H    8.588693   8.185516   1.097010   1.800983   1.792493
                   16
    16  H    0.000000
 Stoichiometry    C4H6N2O4
 Framework group  C1[X(C4H6N2O4)]
 Deg. of freedom    42
 Full point group                 C1      NOp   1
 Largest Abelian subgroup         C1      NOp   1
 Largest concise Abelian subgroup C1      NOp   1
                         Standard orientation:                         
 ---------------------------------------------------------------------
 Center     Atomic      Atomic             Coordinates (Angstroms)
 Number     Number       Type             X           Y           Z
 ---------------------------------------------------------------------
      1          7           0        0.314129   -0.244058    0.466307
      2          7           0       -0.314177    0.243944   -0.466560
      3          6           0        1.701315   -0.472671    0.159059
      4          6           0       -1.701340    0.472665   -0.159288
      5          8           0       -2.125250    1.558560    0.083768
      6          8           0        2.125322   -1.558543   -0.083925
      7          8           0       -2.365395   -0.663373   -0.158602
      8          8           0        2.365357    0.663376    0.158700
      9          6           0        3.768916    0.557028   -0.106671
     10          1           0        4.163339    1.575164   -0.068334
     11          1           0        4.243075   -0.071131    0.657541
     12          1           0        3.930333    0.116095   -1.097500
     13          6           0       -3.768896   -0.556960    0.107050
     14          1           0       -4.163341   -1.575096    0.068967
     15          1           0       -3.930097   -0.115857    1.097838
     16          1           0       -4.243206    0.071078   -0.657168
 ---------------------------------------------------------------------
 Rotational constants (GHZ):      4.1305079      0.5941881      0.5318101
 Standard basis: def2SVP (5D, 7F)
 There are   180 symmetry adapted cartesian basis functions of A   symmetry.
 There are   170 symmetry adapted basis functions of A   symmetry.
   170 basis functions,   292 primitive gaussians,   180 cartesian basis functions
    38 alpha electrons       38 beta electrons
       nuclear repulsion energy       524.8627447738 Hartrees.
 NAtoms=   16 NActive=   16 NUniq=   16 SFac= 1.00D+00 NAtFMM=   60 NAOKFM=F Big=F
 Integral buffers will be    131072 words long.
 Raffenetti 2 integral format.
 Two-electron integral symmetry is turned on.
 Nuclear repulsion after empirical dispersion term =      524.8623620312 Hartrees.
 ------------------------------------------------------------------------------
 Polarizable Continuum Model (PCM)
 =================================
 Model                : C-PCM.
 Atomic radii         : UFF (Universal Force Field).
 Polarization charges : Total charges.
 Charge compensation  : None.
 Solution method      : On-the-fly selection.
 Cavity type          : Scaled VdW (van der Waals Surface) (Alpha=1.100).
 Cavity algorithm     : GePol (No added spheres)
                        Default sphere list used, NSphG=   16.
                        Lebedev-Laikov grids with approx.  5.0 points / Ang**2.
                        Smoothing algorithm: Karplus/York (Gamma=1.0000).
                        Polarization charges: spherical gaussians, with
                                              point-specific exponents (IZeta= 3).
                        Self-potential: point-specific (ISelfS= 7).
                        Self-field    : sphere-specific E.n sum rule (ISelfD= 2).
 1st derivatives      : Analytical E(r).r(x)/FMM algorithm (CHGder, D1EAlg=3).
                        Cavity 1st derivative terms included.
 Solvent              : Toluene, Eps=   2.374100 Eps(inf)=   2.238315
 ------------------------------------------------------------------------------
 Spheres list:
 ISph  on   Nord     Re0    Alpha      Xe            Ye            Ze
    1   N      1    1.8300  1.100      0.314129     -0.244058      0.466307
    2   N      2    1.8300  1.100     -0.314177      0.243944     -0.466560
    3   C      3    1.9255  1.100      1.701315     -0.472671      0.159059
    4   C      4    1.9255  1.100     -1.701340      0.472665     -0.159288
    5   O      5    1.7500  1.100     -2.125250      1.558560      0.083768
    6   O      6    1.7500  1.100      2.125322     -1.558543     -0.083925
    7   O      7    1.7500  1.100     -2.365395     -0.663373     -0.158602
    8   O      8    1.7500  1.100      2.365357      0.663376      0.158700
    9   C      9    1.9255  1.100      3.768916      0.557028     -0.106671
   10   H     10    1.4430  1.100      4.163339      1.575164     -0.068334
   11   H     11    1.4430  1.100      4.243075     -0.071131      0.657541
   12   H     12    1.4430  1.100      3.930333      0.116095     -1.097500
   13   C     13    1.9255  1.100     -3.768896     -0.556960      0.107050
   14   H     14    1.4430  1.100     -4.163341     -1.575096      0.068967
   15   H     15    1.4430  1.100     -3.930097     -0.115857      1.097838
   16   H     16    1.4430  1.100     -4.243206      0.071078     -0.657168
 ------------------------------------------------------------------------------
 One-electron integrals computed using PRISM.
   1 Symmetry operations used in ECPInt.
 ECPInt:  NShTT=    3081 NPrTT=   11473 LenC2=    2857 LenP2D=    7880.
 LDataN:  DoStor=T MaxTD1= 4 Len=   56
 NBasis=   170 RedAO= T EigKep=  4.41D-03  NBF=   170
 NBsUse=   170 1.00D-06 EigRej= -1.00D+00 NBFU=   170
 Initial guess from the checkpoint file:  "m062x_dmad_cycloaddition_PM6_toluene.chk"
 B after Tr=     0.000000    0.000000    0.000000
         Rot=    0.999986   -0.005059   -0.000230    0.001201 Ang=  -0.60 deg.
 ExpMin= 1.22D-01 ExpMax= 2.27D+03 ExpMxC= 3.41D+02 IAcc=1 IRadAn=         1 AccDes= 0.00D+00
 Harris functional with IExCor= 1009 and IRadAn=       1 diagonalized for initial guess.
 HarFok:  IExCor= 1009 AccDes= 0.00D+00 IRadAn=         1 IDoV= 1 UseB2=F ITyADJ=14
 ICtDFT=  3500011 ScaDFX=  1.000000  1.000000  1.000000  1.000000
 FoFCou: FMM=F IPFlag=           0 FMFlag=      100000 FMFlg1=           0
         NFxFlg=           0 DoJE=T BraDBF=F KetDBF=T FulRan=T
         wScrn=  0.000000 ICntrl=     500 IOpCl=  0 I1Cent=   200000004 NGrid=           0
         NMat0=    1 NMatS0=      1 NMatT0=    0 NMatD0=    1 NMtDS0=    0 NMtDT0=    0
 Petite list used in FoFCou.
 Requested convergence on RMS density matrix=1.00D-08 within 128 cycles.
 Requested convergence on MAX density matrix=1.00D-06.
 Requested convergence on             energy=1.00D-06.
 No special actions if energy rises.
 Inv3:  Mode=1 IEnd=     7207500.
 Iteration    1 A*A^-1 deviation from unit magnitude is 6.33D-15 for   1550.
 Iteration    1 A*A^-1 deviation from orthogonality  is 2.96D-15 for   1512   1150.
 Iteration    1 A^-1*A deviation from unit magnitude is 6.33D-15 for   1550.
 Iteration    1 A^-1*A deviation from orthogonality  is 2.92D-15 for   1512   1150.
 Error on total polarization charges =  0.00330
 SCF Done:  E(RM062X) =  -565.730932457     A.U. after   12 cycles
            NFock= 12  Conv=0.66D-08     -V/T= 2.0077
   1 Symmetry operations used in ECPInt.
 ECPInt:  NShTT=    3081 NPrTT=   11473 LenC2=    2857 LenP2D=    7880.
 LDataN:  DoStor=T MaxTD1= 5 Len=  102
 D1PCM: C-PCM CHGder 1st derivatives, ID1Alg=3 FixD1E=F DoIter=F DoCFld=F I1PDM=0.
 Calling FoFJK, ICntrl=      2127 FMM=F ISym2X=0 I1Cent= 0 IOpClX= 0 NMat=1 NMatS=1 NMatT=0.
 ***** Axes restored to original set *****
 -------------------------------------------------------------------
 Center     Atomic                   Forces (Hartrees/Bohr)
 Number     Number              X              Y              Z
 -------------------------------------------------------------------
      1        7           0.002815955    0.002615584    0.007920873
      2        7          -0.002815653   -0.002629457   -0.007935900
      3        6           0.002015301   -0.006996428   -0.013837407
      4        6          -0.002024743    0.007010617    0.013885795
      5        8           0.001426343   -0.004413885   -0.004806173
      6        8          -0.001426352    0.004413636    0.004787166
      7        8           0.002701757   -0.000867717   -0.003248045
      8        8          -0.002693435    0.000866672    0.003234636
      9        6           0.001973921   -0.000077408    0.001072819
     10        1           0.000212958   -0.000363903    0.000160548
     11        1          -0.000587264    0.000188901   -0.000255950
     12        1           0.000023122    0.000300101   -0.000268830
     13        6          -0.001973469    0.000078004   -0.001073851
     14        1          -0.000212930    0.000363935   -0.000160925
     15        1          -0.000023470   -0.000300128    0.000268963
     16        1           0.000587960   -0.000188523    0.000256282
 -------------------------------------------------------------------
 Cartesian Forces:  Max     0.013885795 RMS     0.004040762

 GradGradGradGradGradGradGradGradGradGradGradGradGradGradGradGradGradGrad
 Berny optimization.
 Using GEDIIS/GDIIS optimizer.
 FormGI is forming the generalized inverse of G from B-inverse, IUseBI=4.
 Internal  Forces:  Max     0.005081777 RMS     0.002297050
 Search for a local minimum.
 Step number   3 out of a maximum of   62
 All quantities printed in internal units (Hartrees-Bohrs-Radians)
 Mixed Optimization -- RFO/linear search
 Update second derivatives using D2CorX and points    1    2    3
 DE= -1.01D-04 DEPred=-1.11D-03 R= 9.14D-02
 Trust test= 9.14D-02 RLast= 2.16D-01 DXMaxT set to 2.52D-01
 ITU= -1  1  0
 Use linear search instead of GDIIS.
     Eigenvalues ---    0.00747   0.00747   0.00834   0.00876   0.01538
     Eigenvalues ---    0.01703   0.02222   0.03539   0.06463   0.10036
     Eigenvalues ---    0.10159   0.10508   0.10521   0.11763   0.16000
     Eigenvalues ---    0.16000   0.16000   0.16054   0.16315   0.18357
     Eigenvalues ---    0.24995   0.24998   0.25000   0.25000   0.25000
     Eigenvalues ---    0.25161   0.27233   0.33853   0.33872   0.34144
     Eigenvalues ---    0.34277   0.34289   0.34296   0.34820   0.35570
     Eigenvalues ---    0.36753   0.37711   0.49348   0.52960   0.93909
     Eigenvalues ---    1.03838   1.09269
 RFO step:  Lambda=-2.66254714D-03 EMin= 7.46836645D-03
 Quartic linear search produced a step of -0.47626.
 Iteration  1 RMS(Cart)=  0.05485144 RMS(Int)=  0.00229947
 Iteration  2 RMS(Cart)=  0.00361720 RMS(Int)=  0.00081158
 Iteration  3 RMS(Cart)=  0.00000392 RMS(Int)=  0.00081158
 Iteration  4 RMS(Cart)=  0.00000000 RMS(Int)=  0.00081158
 Variable       Old X    -DE/DX   Delta X   Delta X   Delta X     New X
                                 (Linear)    (Quad)   (Total)
    R1        2.31687   0.00135  -0.00864   0.02826   0.01962   2.33649
    R2        2.71946   0.00117  -0.00227  -0.00138  -0.00365   2.71581
    R3        2.71947   0.00117  -0.00227  -0.00137  -0.00365   2.71582
    R4        2.25024   0.00374  -0.00222   0.00560   0.00338   2.25362
    R5        2.48666  -0.00028   0.00576  -0.03401  -0.02825   2.45841
    R6        2.25024   0.00373  -0.00222   0.00561   0.00338   2.25362
    R7        2.48666  -0.00028   0.00576  -0.03401  -0.02825   2.45841
    R8        2.70680  -0.00172   0.00670  -0.03438  -0.02767   2.67913
    R9        2.70681  -0.00172   0.00670  -0.03437  -0.02767   2.67913
   R10        2.06460   0.00028   0.00054  -0.00329  -0.00274   2.06186
   R11        2.07305   0.00016  -0.00080   0.00374   0.00293   2.07598
   R12        2.07200   0.00036  -0.00066   0.00331   0.00265   2.07466
   R13        2.06460   0.00028   0.00054  -0.00329  -0.00274   2.06186
   R14        2.07200   0.00036  -0.00066   0.00331   0.00265   2.07466
   R15        2.07305   0.00016  -0.00080   0.00374   0.00293   2.07598
    A1        1.97662  -0.00403   0.00686  -0.05276  -0.04590   1.93072
    A2        1.97663  -0.00404   0.00685  -0.05275  -0.04590   1.93072
    A3        2.13137  -0.00165   0.00668  -0.03186  -0.02744   2.10392
    A4        1.92767   0.00115  -0.01027   0.04204   0.02948   1.95715
    A5        2.22375   0.00077   0.00212  -0.00768  -0.00790   2.21585
    A6        2.13137  -0.00166   0.00667  -0.03183  -0.02744   2.10393
    A7        1.92766   0.00116  -0.01026   0.04204   0.02947   1.95713
    A8        2.22374   0.00077   0.00212  -0.00766  -0.00790   2.21584
    A9        2.01577   0.00085  -0.00817   0.02581   0.01764   2.03340
   A10        2.01577   0.00084  -0.00817   0.02581   0.01764   2.03341
   A11        1.85257  -0.00064  -0.00690   0.03420   0.02713   1.87970
   A12        1.91451   0.00107  -0.00332   0.01444   0.01101   1.92552
   A13        1.91934  -0.00026  -0.00394   0.01230   0.00826   1.92760
   A14        1.93171  -0.00004   0.00321  -0.01413  -0.01111   1.92060
   A15        1.93191   0.00023   0.00329  -0.01394  -0.01081   1.92111
   A16        1.91306  -0.00036   0.00693  -0.03036  -0.02348   1.88958
   A17        1.85257  -0.00065  -0.00690   0.03420   0.02713   1.87970
   A18        1.91934  -0.00026  -0.00394   0.01230   0.00826   1.92760
   A19        1.91451   0.00107  -0.00331   0.01444   0.01101   1.92552
   A20        1.93191   0.00023   0.00329  -0.01394  -0.01081   1.92111
   A21        1.93171  -0.00004   0.00321  -0.01413  -0.01111   1.92060
   A22        1.91306  -0.00036   0.00693  -0.03036  -0.02348   1.88958
    D1       -3.14151  -0.00001  -0.00006   0.00008   0.00002  -3.14149
    D2       -1.80462  -0.00493  -0.03274  -0.03782  -0.06995  -1.87456
    D3        1.30860   0.00446   0.02050   0.05051   0.07039   1.37899
    D4        1.80451   0.00495   0.03282   0.03803   0.07023   1.87474
    D5       -1.30838  -0.00448  -0.02061  -0.05068  -0.07066  -1.37905
    D6        3.11841  -0.00490  -0.05285   0.04121  -0.01197   3.10643
    D7       -0.05344   0.00506   0.00369   0.13498   0.13900   0.08556
    D8       -3.11858   0.00492   0.05295  -0.04102   0.01226  -3.10632
    D9        0.05362  -0.00508  -0.00379  -0.13518  -0.13930  -0.08569
   D10        3.13943   0.00004   0.01242  -0.04102  -0.02856   3.11087
   D11       -1.05334  -0.00020   0.01029  -0.03102  -0.02064  -1.07398
   D12        1.05187  -0.00012   0.01427  -0.05165  -0.03750   1.01437
   D13       -3.13943  -0.00004  -0.01242   0.04101   0.02856  -3.11087
   D14       -1.05186   0.00012  -0.01427   0.05165   0.03750  -1.01437
   D15        1.05334   0.00020  -0.01029   0.03102   0.02064   1.07398
         Item               Value     Threshold  Converged?
 Maximum Force            0.005082     0.000450     NO 
 RMS     Force            0.002297     0.000300     NO 
 Maximum Displacement     0.163403     0.001800     NO 
 RMS     Displacement     0.054747     0.001200     NO 
 Predicted change in Energy=-1.873940D-03
 GradGradGradGradGradGradGradGradGradGradGradGradGradGradGradGradGradGrad

                          Input orientation:                          
 ---------------------------------------------------------------------
 Center     Atomic      Atomic             Coordinates (Angstroms)
 Number     Number       Type             X           Y           Z
 ---------------------------------------------------------------------
      1          7           0       -0.304289    0.206458    0.497067
      2          7           0        0.304261   -0.206246   -0.496949
      3          6           0       -1.692999    0.413551    0.190496
      4          6           0        1.692948   -0.413473   -0.190347
      5          8           0        2.132538   -1.517175   -0.086352
      6          8           0       -2.132645    1.517208    0.086281
      7          8           0        2.365869    0.699903   -0.188030
      8          8           0       -2.365836   -0.699877    0.188187
      9          6           0       -3.757810   -0.597475   -0.060612
     10          1           0       -4.180587   -1.601413    0.001360
     11          1           0       -4.231344    0.057068    0.683819
     12          1           0       -3.939097   -0.173143   -1.056793
     13          6           0        3.757852    0.597375    0.060654
     14          1           0        4.180701    1.601283   -0.001293
     15          1           0        3.939186    0.172969    1.056796
     16          1           0        4.231275   -0.057161   -0.683854
 ---------------------------------------------------------------------
                    Distance matrix (angstroms):
                    1          2          3          4          5
     1  N    0.000000
     2  N    1.236416   0.000000
     3  C    1.437147   2.201313   0.000000
     4  C    2.201320   1.437150   3.506230   0.000000
     5  O    3.041285   2.286858   4.294075   1.192565   0.000000
     6  O    2.286853   3.041210   1.192563   4.294091   5.237277
     7  O    2.800462   2.273052   4.086525   1.300936   2.231640
     8  O    2.273066   2.800447   1.300937   4.086447   4.580253
     9  C    3.589446   4.104128   2.312720   5.455406   5.961771
    10  H    4.305788   4.723205   3.206859   5.995529   6.314296
    11  H    3.934331   4.694173   2.610296   6.006897   6.600788
    12  H    3.971198   4.280259   2.635317   5.703369   6.293881
    13  C    4.104176   3.589431   5.455495   2.312713   2.671063
    14  H    4.723244   4.305766   5.995652   3.206852   3.731888
    15  H    4.280362   3.971222   5.703496   2.635311   2.725317
    16  H    4.694188   3.934284   6.006919   2.610289   2.625517
                    6          7          8          9         10
     6  O    0.000000
     7  O    4.580378   0.000000
     8  O    2.231642   4.948733   0.000000
     9  C    2.671071   6.260900   1.417737   0.000000
    10  H    3.731899   6.941758   2.034942   1.091087   0.000000
    11  H    2.625566   6.685550   2.073339   1.098562   1.794125
    12  H    2.725284   6.424139   2.074265   1.097861   1.793867
    13  C    5.961938   1.417735   6.260885   7.611014   8.237535
    14  H    6.314513   2.034938   6.941786   8.237597   8.953681
    15  H    6.294125   2.074265   6.424146   7.815749   8.378131
    16  H    6.600850   2.073337   6.685462   8.031552   8.579839
                   11         12         13         14         15
    11  H    0.000000
    12  H    1.779925   0.000000
    13  C    8.031657   7.815716   0.000000
    14  H    8.580005   8.378174   1.091087   0.000000
    15  H    8.179860   8.164214   1.097862   1.793868   0.000000
    16  H    8.573184   8.179701   1.098562   1.794125   1.779926
                   16
    16  H    0.000000
 Stoichiometry    C4H6N2O4
 Framework group  C1[X(C4H6N2O4)]
 Deg. of freedom    42
 Full point group                 C1      NOp   1
 Largest Abelian subgroup         C1      NOp   1
 Largest concise Abelian subgroup C1      NOp   1
                         Standard orientation:                         
[...]
   A10        2.01943  -0.00002   0.00000  -0.00004  -0.00004   2.01939
   A11        1.85153  -0.00001   0.00000  -0.00009  -0.00009   1.85144
   A12        1.92004   0.00000   0.00000  -0.00001  -0.00001   1.92003
   A13        1.91843   0.00001   0.00000   0.00010   0.00010   1.91853
   A14        1.93354   0.00000   0.00000  -0.00012  -0.00012   1.93342
   A15        1.93100   0.00001   0.00000   0.00014   0.00014   1.93114
   A16        1.90878   0.00000   0.00000  -0.00002  -0.00002   1.90876
   A17        1.85153  -0.00001   0.00000  -0.00008  -0.00008   1.85146
   A18        1.91843   0.00000   0.00000   0.00009   0.00009   1.91852
   A19        1.92004   0.00000   0.00000  -0.00003  -0.00003   1.92001
   A20        1.93100   0.00001   0.00000   0.00011   0.00011   1.93111
   A21        1.93354   0.00000   0.00000  -0.00009  -0.00009   1.93345
   A22        1.90877   0.00000   0.00000   0.00000   0.00000   1.90877
    D1        3.14157   0.00000   0.00000   0.00006   0.00006  -3.14156
    D2       -1.98408  -0.00001   0.00000  -0.00034  -0.00034  -1.98443
    D3        1.21295   0.00001   0.00000  -0.00024  -0.00024   1.21272
    D4        1.98391   0.00001   0.00000  -0.00109  -0.00109   1.98282
    D5       -1.21319  -0.00001   0.00000  -0.00122  -0.00122  -1.21440
    D6        3.08007  -0.00001   0.00000   0.00031   0.00031   3.08037
    D7       -0.00189   0.00001   0.00000   0.00042   0.00042  -0.00147
    D8       -3.08002   0.00000   0.00000  -0.00017  -0.00017  -3.08019
    D9        0.00186  -0.00001   0.00000  -0.00029  -0.00029   0.00157
   D10        3.08550   0.00000   0.00000   0.00299   0.00299   3.08849
   D11       -1.10946   0.00001   0.00000   0.00312   0.00312  -1.10634
   D12        0.99338   0.00001   0.00000   0.00316   0.00316   0.99653
   D13       -3.08561   0.00000   0.00000  -0.00393  -0.00393  -3.08954
   D14       -0.99349  -0.00001   0.00000  -0.00413  -0.00413  -0.99762
   D15        1.10935  -0.00001   0.00000  -0.00410  -0.00410   1.10525
         Item               Value     Threshold  Converged?
 Maximum Force            0.000025     0.000450     YES
 RMS     Force            0.000012     0.000300     YES
 Maximum Displacement     0.006998     0.001800     NO 
 RMS     Displacement     0.001965     0.001200     NO 
 Predicted change in Energy=-8.969747D-08
 GradGradGradGradGradGradGradGradGradGradGradGradGradGradGradGradGradGrad

 1\1\GINC-D10S10B4\Freq\RM062X\def2SVP\C4H6N2O4\CHMKSH\07-Sep-2020\0\\#
 N Geom=AllCheck Guess=TCheck SCRF=Check GenChk RM062X/def2SVP Freq\\Ti
 tle Card Required\\0,1\N,-0.3029436823,0.2674294964,0.4626234313\N,0.3
 02918515,-0.2674755284,-0.4623442146\C,-1.7031293355,0.4662846937,0.17
 62541352\C,1.7031070637,-0.4662972637,-0.1759819251\O,2.164817873,-1.5
 605432737,-0.0621074637\O,-2.1648570955,1.5605427687,0.06255792\O,2.34
 48528793,0.6805102324,-0.1375903272\O,-2.3448437703,-0.6805292288,0.13
 75608869\C,-3.7573654405,-0.5940376842,-0.0619280708\H,-4.1338529574,-
 1.6187777642,-0.0098426616\H,-4.2098232063,0.027277119,0.7212019621\H,
 -3.9698742449,-0.1534080574,-1.0440548704\C,3.7573880099,0.5940196599,
 0.0618104381\H,4.1339181158,1.618725083,0.0093608215\H,3.9699597873,0.
 1537031722,1.0440643656\H,4.2097514886,-0.0275734248,-0.7211524273\\Ve
 rsion=ES64L-G09RevD.01\State=1-A\HF=-565.7319526\RMSD=2.679e-09\RMSF=1
 .904e-05\ZeroPoint=0.1160857\Thermal=0.1261636\Dipole=0.0000116,-0.000
 0106,-0.0002049\DipoleDeriv=-0.586897,0.0949287,-0.0592211,0.0591317,-
 0.2010443,0.0175629,-0.0571628,0.0211207,-0.0987936,-0.5869513,0.09493
 88,-0.0592167,0.0590972,-0.2010321,0.0175898,-0.057219,0.0211584,-0.09
 87859,2.2627747,-0.0997842,0.0306595,0.4679762,2.1853808,-0.0300694,0.
 1320531,-0.082059,0.4904,2.262843,-0.0997375,0.0305887,0.4680209,2.185
 3534,-0.0304513,0.1318748,-0.0824187,0.4904021,-0.9879363,0.3371144,0.
 0191818,0.0895414,-1.2261121,0.0137666,-0.0436903,0.0700714,-0.4082454
 ,-0.987912,0.3371356,0.0192246,0.0895424,-1.2261205,0.0135919,-0.04370
 56,0.0699318,-0.4082343,-1.6306956,-0.3957204,-0.0551145,-0.6655662,-1
 .1155212,-0.0103002,-0.1079529,-0.0152495,-0.3304578,-1.6306335,-0.395
 7093,-0.0552749,-0.665547,-1.1155346,-0.0105002,-0.108188,-0.0154566,-
 0.3304772,0.9942314,0.1639883,0.0612684,0.0269316,0.2725555,0.0092207,
 0.1013481,0.0189,0.2929106,0.0079943,-0.0110841,-0.0079349,-0.0720369,
 -0.0369658,0.0067441,-0.0089015,0.014827,0.1057829,-0.0282406,-0.03948
 51,-0.0136394,0.0616929,0.0498192,-0.0763123,0.0327162,-0.0602904,-0.0
 101825,-0.0312967,-0.0500042,0.0249148,0.0323129,0.0719065,0.0697561,-
 0.0481417,0.0330206,-0.041408,0.994264,0.1639929,0.0611954,0.0269299,0
 .2725571,0.0092203,0.1012925,0.0188797,0.2928895,0.0079851,-0.0110894,
 -0.0079284,-0.072045,-0.0369592,0.006803,-0.0088709,0.014877,0.1057773
 ,-0.0313015,-0.0499941,0.024928,0.0323047,0.0719378,0.0697143,-0.04814
 83,0.0329949,-0.0414329,-0.028228,-0.0394904,-0.0136311,0.0617133,0.04
 97794,-0.0763362,0.0326962,-0.0603072,-0.0101449\Polar=95.01717,-3.137
 4117,67.8374721,-2.8504412,2.2001358,49.0006818\PG=C01 [X(C4H6N2O4)]\N
 Imag=1\\0.54658287,-0.19707168,0.24029951,-0.22180415,0.26283630,0.541
 89464,-0.24352616,0.17221615,0.25080399,0.54659433,0.17222135,-0.11390
 951,-0.26890961,-0.19707068,0.24029543,0.25080267,-0.26891462,-0.48258
 394,-0.22181254,0.26282260,0.54188996,-0.18020006,0.01621447,-0.018967
 16,-0.04160771,0.00187202,0.01044101,0.68596504,-0.01538450,-0.0658909
 8,-0.00472479,0.02205277,-0.03688178,0.00379678,-0.15648413,1.07195671
 ,-0.06034205,-0.00425120,-0.10182758,0.05670434,0.00402108,0.00439297,
 0.05637436,-0.04021760,0.26379433,-0.04160640,0.00187326,0.01043716,-0
 .18020889,0.01621249,-0.01896715,-0.01888918,0.00979038,-0.00475302,0.
 68597742,0.02205404,-0.03688099,0.00379344,-0.01538539,-0.06588963,-0.
 00472452,0.00979110,0.02503185,-0.01211103,-0.15647014,1.07194892,0.05
 670503,0.00402128,0.00439311,-0.06033747,-0.00425060,-0.10182526,-0.00
 475323,-0.01211178,-0.00052693,0.05637803,-0.04037916,0.26380571,-0.00
 427687,0.01069017,-0.00223765,-0.02630462,0.04778073,-0.01107915,0.007
 19403,-0.00775231,0.00565331,-0.22777382,0.26791681,-0.03665675,0.2255
 9017,-0.00034700,-0.00250918,0.00113263,0.03603559,-0.01694232,0.01004
 942,-0.00372145,0.00164439,-0.00240337,0.26243996,-0.70799228,0.063828
 90,-0.29919604,0.83643169,-0.00856741,0.00027236,-0.00003533,-0.006669
 38,0.01184945,0.02085685,0.00152764,0.00067408,0.00077519,-0.02992694,
 0.06180514,-0.09388251,0.04377794,-0.08005391,0.04472467,-0.02630356,0
 .04778216,-0.01107109,-0.00427900,0.01068986,-0.00223914,-0.22777828,0
 .26792355,-0.03661317,0.00719460,-0.00775187,0.00565315,-0.00206753,0.
 00151976,-0.00083903,0.22559666,0.03603487,-0.01694487,0.01004171,-0.0
 0034391,-0.00250895,0.00113404,0.26244598,-0.70799700,0.06372450,-0.00
 372208,0.00164419,-0.00240316,0.00151983,-0.00052424,0.00052572,-0.299
 20624,0.83644225,-0.00666512,0.01184524,0.02085887,-0.00856740,0.00027
 091,-0.00003487,-0.02988450,0.06170168,-0.09386527,0.00152758,0.000675
 00,0.00077461,-0.00083908,0.00052571,-0.00017315,0.04373172,-0.0799149
 8,0.04470264,-0.00578622,-0.01062377,0.00033068,-0.04903984,-0.0385554
 8,-0.00710415,0.01278549,0.00409202,0.00001136,-0.18596434,-0.10947060
 ,-0.01078267,0.02839866,-0.01301847,0.00107696,-0.00637892,0.00324798,
 -0.00063844,0.51567560,0.00075594,0.00081213,0.00049952,-0.01669514,-0
 .00066268,-0.00496262,0.00394684,-0.00196566,0.00161806,-0.08628523,-0
 .28515202,-0.00420012,-0.01652949,-0.11263515,0.00582793,-0.00165743,0
 .00147634,-0.00039774,0.11827621,0.47590841,-0.00268800,-0.00169119,-0
 .00046923,-0.00742400,-0.00412572,0.01084667,0.00105867,0.00142417,0.0
 0009261,-0.01044385,-0.00863390,-0.07322124,0.00075425,0.00481443,0.03
 205730,-0.00083650,0.00036097,-0.00005676,0.05467860,0.00130374,0.0895
 8270,-0.04904100,-0.03855414,-0.00711773,-0.00578654,-0.01062458,0.000
 33111,-0.18595840,-0.10946389,-0.01080980,0.01278508,0.00409126,0.0000
 1093,-0.00637850,0.00324770,-0.00063889,0.02839898,-0.01301596,0.00107
 299,-0.00425705,-0.00190819,-0.00017130,0.51566824,-0.01669508,-0.0006
 6241,-0.00496570,0.00075710,0.00081277,0.00049905,-0.08628048,-0.28515
 308,-0.00425231,0.00394672,-0.00196577,0.00161828,-0.00165726,0.001476
 13,-0.00039786,-0.01652637,-0.11263933,0.00579653,-0.00190829,-0.00019
 521,-0.00025032,0.11826699,0.47591371,-0.00743040,-0.00413044,0.010843
 22,-0.00268679,-0.00169153,-0.00046864,-0.01046925,-0.00869006,-0.0732
 2212,0.00106004,0.00142438,0.00009284,-0.00083725,0.00036139,-0.000056
 96,0.00074974,0.00478432,0.03205960,-0.00017189,-0.00025048,-0.0000190
 2,0.05473308,0.00139518,0.08958768,0.00432050,-0.00066942,-0.00008138,
 0.00249202,0.00059992,-0.00029394,-0.04934299,-0.04095387,-0.00486920,
 -0.00428079,0.00006224,-0.00025118,0.00179682,-0.00091147,0.00015667,-
 0.00022794,0.02073282,-0.00051709,0.00199502,0.00079854,0.00011121,-0.
 21833322,0.01190981,-0.02124501,0.47509839,-0.00124212,-0.00333067,-0.
 00047113,-0.00052458,-0.00090412,0.00080038,-0.04579487,-0.00508436,-0
 .00570152,0.00028242,0.00088600,-0.00010791,-0.00031552,0.00010044,-0.
 00002280,-0.00357472,0.00063635,-0.00061617,0.00010785,-0.00006635,0.0
 0001283,0.03890544,-0.08631836,0.00540690,0.02096635,0.64853752,0.0023
 1277,0.00102629,0.00774541,-0.00240367,-0.00057448,-0.00014898,-0.0047
 7660,-0.00562075,-0.00148720,-0.00027500,0.00092024,-0.00009899,-0.000
 14431,0.00000133,-0.00001769,0.00164711,0.00255757,-0.00455777,0.00033
 477,-0.00000435,-0.00000892,-0.02336268,0.00178409,-0.07088374,-0.0188
 0924,0.00056898,0.60583955,-0.00073657,-0.00120583,-0.00038112,-0.0002
 8850,-0.00030855,0.00024605,-0.00525938,0.00551128,-0.00059163,0.00072
 183,0.00016073,-0.00000715,-0.00035431,0.00021633,-0.00003464,0.002135
 55,-0.00133458,0.00028100,-0.00022867,-0.00009330,-0.00000729,-0.02745
 369,-0.03776298,-0.00051439,-0.07248136,-0.07898489,0.00513388,0.09434
 386,-0.00006064,0.00013615,0.00001676,-0.00007557,0.00006804,-0.000001
 36,0.00267820,0.00080351,0.00036039,0.00017508,-0.00007163,0.00003395,
 -0.00006537,0.00004538,-0.00000879,-0.00130223,0.00018472,-0.00012456,
 -0.00009415,-0.00002564,-0.00000861,0.00303407,0.00685453,-0.00040257,
 -0.09358461,-0.31541493,0.01394796,0.09698067,0.32530470,0.00013410,-0
 .00023118,0.00020040,-0.00013332,-0.00003242,0.00003434,-0.00129106,0.
 00029932,0.00001458,0.00013167,0.00007754,0.00000427,-0.00007115,0.000
 02908,-0.00001579,0.00014742,-0.00016153,0.00049988,-0.00003622,-0.000
 02620,-0.00000317,-0.00385208,-0.00568574,0.00004168,0.00645462,0.0160
 1353,-0.05292028,-0.00281973,-0.01526782,0.04643120,-0.00091596,-0.000
 41603,-0.00114562,0.00028418,-0.00011620,-0.00005600,0.00257667,0.0109
 6741,0.00173783,0.00057198,-0.00009711,-0.00000539,-0.00020655,0.00012
 512,-0.00002037,0.00176127,-0.00308306,-0.00000646,-0.00026661,-0.0000
 9435,-0.00000756,-0.03461914,0.01524308,0.02301297,-0.08677075,0.05625
 453,0.07233983,0.00614749,-0.00515025,-0.00868079,0.10720507,0.0000648
 9,-0.00031434,-0.00054469,0.00033550,0.00012001,-0.00004689,-0.0026705
 0,0.00135605,0.00101628,-0.00017737,-0.00001019,-0.00004083,0.00008574
 ,-0.00005236,0.00001878,0.00098586,0.00005921,-0.00011910,0.00008716,0
 .00003188,0.00001288,0.00295996,0.00127619,0.00267357,0.06287121,-0.14
 239809,-0.11839842,0.01140326,-0.01093551,-0.02048249,-0.06999612,0.14
 264784,-0.00016830,0.00001997,-0.00065610,0.00011042,0.00015852,0.0000
 0837,0.00007287,-0.00149052,0.00131548,0.00010237,-0.00013098,0.000044
 97,-0.00002457,0.00003420,-0.00000599,-0.00137802,0.00040862,-0.000373
 02,-0.00006950,-0.00000413,-0.00000430,-0.00359342,0.00623457,0.009790
 61,0.08069366,-0.11759330,-0.20281106,-0.00230515,0.00332291,0.0034687
 2,-0.08375292,0.12578363,0.20550621,-0.00037008,-0.00020929,0.00136535
 ,-0.00062742,-0.00020077,-0.00002713,0.00277443,0.00937196,-0.00225959
 ,0.00072731,0.00020332,0.00002116,-0.00036821,0.00017840,-0.00003177,0
 .00108044,-0.00288406,0.00043491,-0.00026696,-0.00013232,-0.00001077,-
 0.02625753,0.01022821,-0.03628662,-0.05381211,0.01389941,-0.03194730,0
 .00339562,-0.00255648,0.01000638,0.00417984,-0.00592987,0.01030312,0.0
 6948317,0.00003957,-0.00005278,0.00056663,-0.00010408,-0.00003586,-0.0
 0002276,-0.00214267,0.00125587,-0.00163766,-0.00013480,0.00012016,-0.0
 0005082,0.00003776,-0.00003515,-0.00000177,0.00137517,0.00011296,0.000
 37203,0.00008453,0.00000873,0.00000715,0.00287598,0.00065225,-0.000904
 94,0.01818467,-0.09666901,0.10378199,0.00541246,-0.00694730,0.02546561
 ,-0.00363901,0.00821796,-0.01673915,-0.02197178,0.09336781,0.00009847,
 -0.00025328,-0.00021429,0.00003897,-0.00010189,-0.00004263,0.00056746,
 0.00404491,0.00062561,0.00014072,0.00004817,-0.00003203,-0.00005669,0.
 00001526,0.00000639,0.00134444,-0.00113761,0.00019829,-0.00004916,-0.0
 0003119,0.00000323,-0.00678194,-0.00170983,0.00224803,-0.04130826,0.10
 170208,-0.28066026,0.00099221,-0.00186874,0.00224011,-0.00342671,0.010
 13101,-0.01628087,0.04842751,-0.11084181,0.29190728,0.00249123,0.00059
 937,-0.00029413,0.00432068,-0.00066867,-0.00008071,-0.00428071,0.00006
 234,-0.00025143,-0.04934622,-0.04095564,-0.00485639,-0.00022859,0.0207
 3279,-0.00052135,0.00179677,-0.00091145,0.00015658,-0.21833375,0.01190
 937,-0.02123569,0.00199499,0.00079851,0.00011151,-0.00075518,0.0000210
 4,-0.00009927,0.00010023,0.00003512,0.00001706,0.00009575,-0.00003217,
 0.00002079,0.00010563,-0.00003018,0.00002053,0.47509562,-0.00052552,-0
 .00090424,0.00079996,-0.00124172,-0.00333033,-0.00046801,0.00028260,0.
 00088615,-0.00010792,-0.04579501,-0.00508403,-0.00569732,-0.00357530,0
 .00063526,-0.00061691,-0.00031564,0.00010051,-0.00002277,0.03890454,-0
 .08631824,0.00540847,0.00010781,-0.00006640,0.00001283,0.00002105,0.00
 002035,0.00000894,0.00000185,-0.00000303,0.00000148,-0.00000085,0.0000
 0306,-0.00000465,-0.00000137,0.00000521,0.00000238,0.02096715,0.648541
 81,-0.00240374,-0.00057379,-0.00014925,0.00231245,0.00102801,0.0077451
 0,-0.00027479,0.00091987,-0.00009892,-0.00476160,-0.00561402,-0.001484
 02,0.00164874,0.00255477,-0.00455781,-0.00014427,0.00000131,-0.0000176
 7,-0.02335924,0.00178653,-0.07088257,0.00033456,-0.00000444,-0.0000089
 1,-0.00009924,0.00000892,0.00000215,0.00001638,0.00000324,0.00000578,0
 .00001948,-0.00000605,-0.00000089,0.00001383,0.00000341,0.00000289,-0.
 01880981,0.00056312,0.60584401,-0.00028851,-0.00030853,0.00024597,-0.0
 0073659,-0.00120594,-0.00038090,0.00072187,0.00016073,-0.00000713,-0.0
 0525942,0.00551167,-0.00059187,0.00213568,-0.00133464,0.00028113,-0.00
 035432,0.00021634,-0.00003461,-0.02745550,-0.03776205,-0.00050057,-0.0
 0022869,-0.00009331,-0.00000732,0.00010023,0.00000186,0.00001639,-0.00
 001327,-0.00000444,-0.00000217,-0.00001412,0.00000407,-0.00000371,-0.0
 0001471,0.00000393,-0.00000253,-0.07248784,-0.07899359,0.00516428,0.09
 435075,-0.00007560,0.00006805,-0.00000135,-0.00006056,0.00013612,0.000
 01687,0.00017509,-0.00007161,0.00003396,0.00267805,0.00080335,0.000360
 11,-0.00130240,0.00018473,-0.00012436,-0.00006538,0.00004538,-0.000008
 80,0.00303466,0.00685439,-0.00040581,-0.00009415,-0.00002564,-0.000008
 62,0.00003512,-0.00000303,0.00000325,-0.00000444,-0.00000144,-0.000000
 89,-0.00000423,0.00000140,-0.00000059,-0.00000516,0.00000105,-0.000001
 27,-0.09359317,-0.31539995,0.01403754,0.09698946,0.32528758,-0.0001332
 7,-0.00003239,0.00003430,0.00013417,-0.00023109,0.00020044,0.00013156,
 0.00007756,0.00000427,-0.00129152,0.00029789,0.00001464,0.00014706,-0.
 00016129,0.00049985,-0.00007110,0.00002904,-0.00001578,-0.00385091,-0.
 00568522,0.00004417,-0.00003618,-0.00002620,-0.00000317,0.00001704,0.0
 0000148,0.00000578,-0.00000217,-0.00000089,-0.00000009,-0.00000198,0.0
 0000047,-0.00000103,-0.00000275,0.00000124,-0.00000061,0.00648962,0.01
 610146,-0.05293134,-0.00285849,-0.01536328,0.04644064,-0.00062742,-0.0
 0020060,-0.00002712,-0.00037012,-0.00020925,0.00136537,0.00072730,0.00
 020328,0.00002120,0.00277422,0.00937156,-0.00226170,0.00108106,-0.0028
 8355,0.00043566,-0.00036821,0.00017841,-0.00003175,-0.02626044,0.01021
 783,-0.03628811,-0.00026696,-0.00013231,-0.00001082,0.00010563,-0.0000
 0137,0.00001384,-0.00001470,-0.00000516,-0.00000275,-0.00001391,0.0000
 0492,-0.00000414,-0.00001551,0.00000486,-0.00000218,-0.05381337,0.0138
 9626,-0.03196574,0.00339776,-0.00255371,0.01000915,0.06948470,-0.00010
 408,-0.00003589,-0.00002278,0.00003960,-0.00005273,0.00056645,-0.00013
 476,0.00012017,-0.00005082,-0.00214273,0.00125633,-0.00163744,0.001376
 69,0.00011385,0.00037249,0.00003775,-0.00003516,-0.00000177,0.00287464
 ,0.00065157,-0.00090368,0.00008449,0.00000871,0.00000716,-0.00003017,0
 .00000521,0.00000341,0.00000392,0.00000105,0.00000124,0.00000359,-0.00
 000161,0.00000004,0.00000486,-0.00000031,0.00000081,0.01817849,-0.0965
 9861,0.10372079,0.00541496,-0.00693983,0.02546894,-0.02196589,0.093291
 24,0.00003906,-0.00010183,-0.00004262,0.00009850,-0.00025329,-0.000214
 53,0.00014068,0.00004810,-0.00003200,0.00056803,0.00404335,0.00062514,
 0.00134383,-0.00113726,0.00019847,-0.00005666,0.00001526,0.00000639,-0
 .00678013,-0.00170969,0.00225285,-0.00004916,-0.00003117,0.00000322,0.
 00002052,0.00000238,0.00000289,-0.00000253,-0.00000127,-0.00000061,-0.
 00000283,0.00000098,-0.00000079,-0.00000218,0.00000081,-0.00000035,-0.
 04132769,0.10164266,-0.28071426,0.00099089,-0.00186513,0.00223194,0.04
 844631,-0.11077727,0.29196354,0.00028421,-0.00011628,-0.00005599,-0.00
 091582,-0.00041623,-0.00114541,0.00057189,-0.00009704,-0.00000538,0.00
 257662,0.01096802,0.00173551,0.00176257,-0.00308304,-0.00000623,-0.000
 20653,0.00012510,-0.00002036,-0.03461648,0.01525276,0.02301092,-0.0002
 6657,-0.00009434,-0.00000760,0.00009574,-0.00000085,0.00001948,-0.0000
 1411,-0.00000423,-0.00000198,-0.00001523,0.00000347,-0.00000347,-0.000
 01390,0.00000359,-0.00000283,-0.08675524,0.05626774,0.07230873,0.00614
 668,-0.00515357,-0.00868025,0.00417997,-0.00364138,-0.00342664,0.10718
 620,0.00033556,0.00012002,-0.00004690,0.00006492,-0.00031446,-0.000544
 81,-0.00017744,-0.00001021,-0.00004085,-0.00267101,0.00135575,0.001016
 63,0.00098598,0.00005881,-0.00011955,0.00008577,-0.00005236,0.00001878
 ,0.00296116,0.00127749,0.00267458,0.00008719,0.00003190,0.00001290,-0.
 00003219,0.00000306,-0.00000605,0.00000407,0.00000140,0.00000047,0.000
 00348,-0.00000148,0.00000086,0.00000492,-0.00000161,0.00000098,0.06288
 711,-0.14248752,-0.11842921,0.01139950,-0.01094054,-0.02047770,-0.0059
 2528,0.00821600,0.01012336,-0.07001373,0.14274377,0.00011034,0.0001584
 7,0.00000840,-0.00016827,0.00002005,-0.00065585,0.00010235,-0.00013097
 ,0.00004498,0.00007349,-0.00149155,0.00131570,-0.00137854,0.00040870,-
 0.00037350,-0.00002458,0.00003421,-0.00000599,-0.00359007,0.00623595,0
 .00978567,-0.00006949,-0.00000412,-0.00000431,0.00002079,-0.00000465,-
 0.00000089,-0.00000371,-0.00000059,-0.00000103,-0.00000347,0.00000086,
 -0.00000031,-0.00000414,0.00000004,-0.00000079,0.08066040,-0.11762372,
 -0.20275431,-0.00230935,0.00332838,0.00347598,0.01030278,-0.01674756,-
 0.01627929,-0.08371851,0.12581651,0.20544554\\-0.00000630,0.00000078,-
 0.00002043,0.00000600,-0.00000661,0.00001829,-0.00000155,0.00001445,0.
 00001812,0.00000158,-0.00000997,-0.00000969,-0.00001109,0.00001223,0.0
 0003482,0.00000901,-0.00001152,-0.00003859,-0.00002470,0.00002510,0.00
 001825,0.00002690,-0.00002406,-0.00002109,-0.00001692,-0.00003090,0.00
 000961,0.00000290,-0.00002016,0.00000822,-0.00000083,-0.00001106,-0.00
 002153,0.00000616,-0.00004595,-0.00001034,0.00001654,0.00003081,-0.000
 00950,-0.00000289,0.00002001,-0.00000816,-0.00000593,0.00004573,0.0000
 1027,0.00000113,0.00001111,0.00002174\\\@


 NO HUMAN INVESTIGATION CAN BECOME REAL SCIENCE
 WITHOUT GOING THROUGH MATHEMATICAL PEOPLE.
 -- LEONARDO DA VINCI, IN "PENSIERI" CA. 1492
 Job cpu time:       0 days  0 hours  8 minutes 43.0 seconds.
 File lengths (MBytes):  RWF=     85 Int=      0 D2E=      0 Chk=      8 Scr=      1
 Normal termination of Gaussian 09 at Mon Sep  7 11:44:18 2020.
