 Entering Gaussian System, Link 0=g09
 Input=m062x_quadricyclane_cycloaddition_PM6_toluene.com
 Output=m062x_quadricyclane_cycloaddition_PM6_toluene.log
 Initial command:
 /apps/applications/gaussian/G09.D01/2/default/g09/l1.exe "/local/726099.1.40core-192G.q/Gau-397046.inp" -scrdir="/local/726099.1.40core-192G.q/"
 Entering Link 1 = /apps/applications/gaussian/G09.D01/2/default/g09/l1.exe PID=    397047.
  
 Copyright (c) 1988,1990,1992,1993,1995,1998,2003,2009,2013,
            Gaussian, Inc.  All Rights Reserved.
  
 This is part of the Gaussian(R) 09 program.  It is based on
 the Gaussian(R) 03 system (copyright 2003, Gaussian, Inc.),
 the Gaussian(R) 98 system (copyright 1998, Gaussian, Inc.),
 the Gaussian(R) 94 system (copyright 1995, Gaussian, Inc.),
 the Gaussian 92(TM) system (copyright 1992, Gaussian, Inc.),
 the Gaussian 90(TM) system (copyright 1990, Gaussian, Inc.),
 the Gaussian 88(TM) system (copyright 1988, Gaussian, Inc.),
 the Gaussian 86(TM) system (copyright 1986, Carnegie Mellon
 University), and the Gaussian 82(TM) system (copyright 1983,
 Carnegie Mellon University). Gaussian is a federally registered
 trademark of Gaussian, Inc.
  
 This software contains proprietary and confidential information,
 including trade secrets, belonging to Gaussian, Inc.
  
 This software is provided under written license and may be
 used, copied, transmitted, or stored only in accord with that
 written license.
  
 The following legend is applicable only to US Government
 contracts under FAR:
  
                    RESTRICTED RIGHTS LEGEND
  
 Use, reproduction and disclosure by the US Government is
 subject to restrictions as set forth in subparagraphs (a)
 and (c) of the Commercial Computer Software - Restricted
 Rights clause in FAR 52.227-19.
  
 Gaussian, Inc.
 340 Quinnipiac St., Bldg. 40, Wallingford CT 06492
  
  
 ---------------------------------------------------------------
 Warning -- This program may not be used in any manner that
 competes with the business of Gaussian, Inc. or will provide
 assistance to any competitor of Gaussian, Inc.  The licensee
 of this program is prohibited from giving any competitor of
 Gaussian, Inc. access to this program.  By using this program,
 the user acknowledges that Gaussian, Inc. is engaged in the
 business of creating and licensing software in the field of
 computational chemistry and represents and warrants to the
 licensee that it is not a competitor of Gaussian, Inc. and that
 it will not use this program in any manner prohibited above.
 ---------------------------------------------------------------
  

 Cite this work as:
 Gaussian 09, Revision D.01,
 M. J. Frisch, G. W. Trucks, H. B. Schlegel, G. E. Scuseria, 
 M. A. Robb, J. R. Cheeseman, G. Scalmani, V. Barone, B. Mennucci, 
 G. A. Petersson, H. Nakatsuji, M. Caricato, X. Li, H. P. Hratchian, 
 A. F. Izmaylov, J. Bloino, G. Zheng, J. L. Sonnenberg, M. Hada, 
 M. Ehara, K. Toyota, R. Fukuda, J. Hasegawa, M. Ishida, T. Nakajima, 
 Y. Honda, O. Kitao, H. Nakai, T. Vreven, J. A. Montgomery, Jr., 
 J. E. Peralta, F. Ogliaro, M. Bearpark, J. J. Heyd, E. Brothers, 
 K. N. Kudin, V. N. Staroverov, T. Keith, R. Kobayashi, J. Normand, 
 K. Raghavachari, A. Rendell, J. C. Burant, S. S. Iyengar, J. Tomasi, 
 M. Cossi, N. Rega, J. M. Millam, M. Klene, J. E. Knox, J. B. Cross, 
 V. Bakken, C. Adamo, J. Jaramillo, R. Gomperts, R. E. Stratmann, 
 O. Yazyev, A. J. Austin, R. Cammi, C. Pomelli, J. W. Ochterski, 
 R. L. Martin, K. Morokuma, V. G. Zakrzewski, G. A. Voth, 
 P. Salvador, J. J. Dannenberg, S. Dapprich, A. D. Daniels, 
 O. Farkas, J. B. Foresman, J. V. Ortiz, J. Cioslowski, 
 and D. J. Fox, Gaussian, Inc., Wallingford CT, 2013.
 
 ******************************************
 Gaussian 09:  ES64L-G09RevD.01 24-Apr-2013
                 7-Sep-2020 
 ******************************************
 %nprocshared=4
 Will use up to    4 processors via shared memory.
 %chk=m062x_quadricyclane_cycloaddition_PM6_toluene.chk
 ----------------------------------------------------------------------
 # opt freq scrf=(cpcm,solvent=toluene) geom=connectivity def2svp m062x
  empiricaldispersion=gd3
 ----------------------------------------------------------------------
 1/14=-1,18=20,19=15,26=3,38=1,57=2/1,3;
 2/9=110,12=2,17=6,18=5,40=1/2;
 3/5=43,7=101,11=2,16=1,25=1,30=1,70=2101,71=1,72=13,74=-55,124=31/1,2,3;
 4//1;
 5/5=2,38=5,53=13/2;
 6/7=2,8=2,9=2,10=2,28=1/1;
 7//1,2,3,16;
 1/14=-1,18=20,19=15,26=3/3(2);
 2/9=110/2;
 99//99;
 2/9=110/2;
 3/5=43,7=101,11=2,16=1,25=1,30=1,70=2105,71=1,72=13,74=-55,124=31/1,2,3;
 4/5=5,16=3,69=1/1;
 5/5=2,38=5,53=13/2;
 7//1,2,3,16;
 1/14=-1,18=20,19=15,26=3/3(-5);
 2/9=110/2;
 6/7=2,8=2,9=2,10=2,19=2,28=1/1;
 99/9=1/99;
 -------------------
 Title Card Required
 -------------------
 Symbolic Z-matrix:
 Charge =  0 Multiplicity = 1
 C                     0.       -1.09357  -0.71623 
 C                     0.82795  -0.83003   0.55627 
 C                    -0.82795   0.83003   0.55627 
 C                    -1.09343   0.00311  -0.71625 
 H                    -0.0775   -2.01562  -1.24805 
 H                    -2.01559  -0.07146  -1.24864 
 C                     0.        0.        1.54123 
 H                     0.62954   0.62784   2.19083 
 H                    -0.62954  -0.62784   2.19083 
 C                     1.09343  -0.00311  -0.71625 
 H                     2.01559   0.07146  -1.24864 
 C                     0.        1.09357  -0.71623 
 H                     0.0775    2.01562  -1.24805 
 H                     1.54127  -1.54566   0.93944 
 H                    -1.54127   1.54566   0.93944 
 

 GradGradGradGradGradGradGradGradGradGradGradGradGradGradGradGradGradGrad
 Berny optimization.
 Initialization pass.
                           ----------------------------
                           !    Initial Parameters    !
                           ! (Angstroms and Degrees)  !
 --------------------------                            --------------------------
 ! Name  Definition              Value          Derivative Info.                !
 --------------------------------------------------------------------------------
 ! R1    R(1,2)                  1.5408         estimate D2E/DX2                !
 ! R2    R(1,4)                  1.5486         estimate D2E/DX2                !
 ! R3    R(1,5)                  1.0673         estimate D2E/DX2                !
 ! R4    R(1,10)                 1.5442         estimate D2E/DX2                !
 ! R5    R(2,7)                  1.5312         estimate D2E/DX2                !
 ! R6    R(2,10)                 1.5406         estimate D2E/DX2                !
 ! R7    R(2,14)                 1.0806         estimate D2E/DX2                !
 ! R8    R(3,4)                  1.5406         estimate D2E/DX2                !
 ! R9    R(3,7)                  1.5312         estimate D2E/DX2                !
 ! R10   R(3,12)                 1.5408         estimate D2E/DX2                !
 ! R11   R(3,15)                 1.0806         estimate D2E/DX2                !
 ! R12   R(4,6)                  1.0674         estimate D2E/DX2                !
 ! R13   R(4,12)                 1.5442         estimate D2E/DX2                !
 ! R14   R(7,8)                  1.1011         estimate D2E/DX2                !
 ! R15   R(7,9)                  1.1011         estimate D2E/DX2                !
 ! R16   R(10,11)                1.0674         estimate D2E/DX2                !
 ! R17   R(10,12)                1.5486         estimate D2E/DX2                !
 ! R18   R(12,13)                1.0673         estimate D2E/DX2                !
 ! A1    A(2,1,4)              104.9682         estimate D2E/DX2                !
 ! A2    A(2,1,5)              126.7495         estimate D2E/DX2                !
 ! A3    A(4,1,5)              124.0924         estimate D2E/DX2                !
 ! A4    A(4,1,10)              89.9929         estimate D2E/DX2                !
 ! A5    A(5,1,10)             131.4132         estimate D2E/DX2                !
 ! A6    A(1,2,7)              109.4751         estimate D2E/DX2                !
 ! A7    A(1,2,14)             122.2931         estimate D2E/DX2                !
 ! A8    A(7,2,10)             109.4834         estimate D2E/DX2                !
 ! A9    A(7,2,14)             119.1972         estimate D2E/DX2                !
 ! A10   A(10,2,14)            122.3147         estimate D2E/DX2                !
 ! A11   A(4,3,7)              109.4834         estimate D2E/DX2                !
 ! A12   A(4,3,15)             122.3147         estimate D2E/DX2                !
 ! A13   A(7,3,12)             109.4751         estimate D2E/DX2                !
 ! A14   A(7,3,15)             119.1972         estimate D2E/DX2                !
 ! A15   A(12,3,15)            122.2931         estimate D2E/DX2                !
 ! A16   A(1,4,3)              104.9758         estimate D2E/DX2                !
 ! A17   A(1,4,6)              124.0916         estimate D2E/DX2                !
 ! A18   A(1,4,12)              90.0071         estimate D2E/DX2                !
 ! A19   A(3,4,6)              126.75           estimate D2E/DX2                !
 ! A20   A(6,4,12)             131.3797         estimate D2E/DX2                !
 ! A21   A(2,7,3)               99.9297         estimate D2E/DX2                !
 ! A22   A(2,7,8)              112.2978         estimate D2E/DX2                !
 ! A23   A(2,7,9)              112.3056         estimate D2E/DX2                !
 ! A24   A(3,7,8)              112.3056         estimate D2E/DX2                !
 ! A25   A(3,7,9)              112.2978         estimate D2E/DX2                !
 ! A26   A(8,7,9)              107.6944         estimate D2E/DX2                !
 ! A27   A(1,10,11)            131.3797         estimate D2E/DX2                !
 ! A28   A(1,10,12)             90.0071         estimate D2E/DX2                !
 ! A29   A(2,10,11)            126.75           estimate D2E/DX2                !
 ! A30   A(2,10,12)            104.9758         estimate D2E/DX2                !
 ! A31   A(11,10,12)           124.0916         estimate D2E/DX2                !
 ! A32   A(3,12,10)            104.9682         estimate D2E/DX2                !
 ! A33   A(3,12,13)            126.7495         estimate D2E/DX2                !
 ! A34   A(4,12,10)             89.9929         estimate D2E/DX2                !
 ! A35   A(4,12,13)            131.4132         estimate D2E/DX2                !
 ! A36   A(10,12,13)           124.0924         estimate D2E/DX2                !
 ! D1    D(4,1,2,7)             20.7444         estimate D2E/DX2                !
 ! D2    D(4,1,2,14)           167.4219         estimate D2E/DX2                !
 ! D3    D(5,1,2,7)           -136.7392         estimate D2E/DX2                !
 ! D4    D(5,1,2,14)             9.9383         estimate D2E/DX2                !
 ! D5    D(2,1,4,3)             -0.0185         estimate D2E/DX2                !
 ! D6    D(2,1,4,6)           -158.2894         estimate D2E/DX2                !
 ! D7    D(2,1,4,12)            58.7415         estimate D2E/DX2                !
 ! D8    D(5,1,4,3)            158.2338         estimate D2E/DX2                !
 ! D9    D(5,1,4,6)             -0.0371         estimate D2E/DX2                !
 ! D10   D(5,1,4,12)          -143.0062         estimate D2E/DX2                !
 ! D11   D(10,1,4,3)           -58.7619         estimate D2E/DX2                !
 ! D12   D(10,1,4,6)           142.9672         estimate D2E/DX2                !
 ! D13   D(10,1,4,12)           -0.0019         estimate D2E/DX2                !
 ! D14   D(4,1,10,11)         -138.3397         estimate D2E/DX2                !
 ! D15   D(4,1,10,12)            0.0019         estimate D2E/DX2                !
 ! D16   D(5,1,10,11)            0.0177         estimate D2E/DX2                !
 ! D17   D(5,1,10,12)          138.3593         estimate D2E/DX2                !
 ! D18   D(1,2,7,3)            -32.1162         estimate D2E/DX2                !
 ! D19   D(1,2,7,8)           -151.3418         estimate D2E/DX2                !
 ! D20   D(1,2,7,9)             87.1037         estimate D2E/DX2                !
 ! D21   D(10,2,7,3)            32.1061         estimate D2E/DX2                !
 ! D22   D(10,2,7,8)           -87.1196         estimate D2E/DX2                !
 ! D23   D(10,2,7,9)           151.326          estimate D2E/DX2                !
 ! D24   D(14,2,7,3)          -179.9775         estimate D2E/DX2                !
 ! D25   D(14,2,7,8)            60.7969         estimate D2E/DX2                !
 ! D26   D(14,2,7,9)           -60.7576         estimate D2E/DX2                !
 ! D27   D(7,2,10,11)          136.789          estimate D2E/DX2                !
 ! D28   D(7,2,10,12)          -20.7135         estimate D2E/DX2                !
 ! D29   D(14,2,10,11)          -9.9372         estimate D2E/DX2                !
 ! D30   D(14,2,10,12)        -167.4397         estimate D2E/DX2                !
 ! D31   D(7,3,4,1)            -20.7135         estimate D2E/DX2                !
 ! D32   D(7,3,4,6)            136.789          estimate D2E/DX2                !
 ! D33   D(15,3,4,1)          -167.4397         estimate D2E/DX2                !
 ! D34   D(15,3,4,6)            -9.9372         estimate D2E/DX2                !
 ! D35   D(4,3,7,2)             32.1061         estimate D2E/DX2                !
 ! D36   D(4,3,7,8)            151.326          estimate D2E/DX2                !
 ! D37   D(4,3,7,9)            -87.1196         estimate D2E/DX2                !
 ! D38   D(12,3,7,2)           -32.1162         estimate D2E/DX2                !
 ! D39   D(12,3,7,8)            87.1037         estimate D2E/DX2                !
 ! D40   D(12,3,7,9)          -151.3418         estimate D2E/DX2                !
 ! D41   D(15,3,7,2)          -179.9775         estimate D2E/DX2                !
 ! D42   D(15,3,7,8)           -60.7576         estimate D2E/DX2                !
 ! D43   D(15,3,7,9)            60.7969         estimate D2E/DX2                !
 ! D44   D(7,3,12,10)           20.7444         estimate D2E/DX2                !
 ! D45   D(7,3,12,13)         -136.7392         estimate D2E/DX2                !
 ! D46   D(15,3,12,10)         167.4219         estimate D2E/DX2                !
 ! D47   D(15,3,12,13)           9.9383         estimate D2E/DX2                !
 ! D48   D(1,4,12,10)            0.0019         estimate D2E/DX2                !
 ! D49   D(1,4,12,13)          138.3593         estimate D2E/DX2                !
 ! D50   D(6,4,12,10)         -138.3397         estimate D2E/DX2                !
 ! D51   D(6,4,12,13)            0.0177         estimate D2E/DX2                !
 ! D52   D(1,10,12,3)           58.7415         estimate D2E/DX2                !
 ! D53   D(1,10,12,4)           -0.0019         estimate D2E/DX2                !
 ! D54   D(1,10,12,13)        -143.0062         estimate D2E/DX2                !
 ! D55   D(2,10,12,3)           -0.0185         estimate D2E/DX2                !
 ! D56   D(2,10,12,4)          -58.7619         estimate D2E/DX2                !
 ! D57   D(2,10,12,13)         158.2338         estimate D2E/DX2                !
 ! D58   D(11,10,12,3)        -158.2894         estimate D2E/DX2                !
 ! D59   D(11,10,12,4)         142.9672         estimate D2E/DX2                !
 ! D60   D(11,10,12,13)         -0.0371         estimate D2E/DX2                !
 --------------------------------------------------------------------------------
 Trust Radius=3.00D-01 FncErr=1.00D-07 GrdErr=1.00D-06
 Number of steps in this run=    100 maximum allowed number of steps=    100.
 GradGradGradGradGradGradGradGradGradGradGradGradGradGradGradGradGradGrad

                          Input orientation:                          
 ---------------------------------------------------------------------
 Center     Atomic      Atomic             Coordinates (Angstroms)
 Number     Number       Type             X           Y           Z
 ---------------------------------------------------------------------
      1          6           0        0.000000   -1.093569   -0.716225
      2          6           0        0.827950   -0.830025    0.556267
      3          6           0       -0.827950    0.830025    0.556267
      4          6           0       -1.093430    0.003106   -0.716251
      5          1           0       -0.077501   -2.015623   -1.248052
      6          1           0       -2.015592   -0.071457   -1.248643
      7          6           0        0.000000    0.000000    1.541226
      8          1           0        0.629543    0.627841    2.190829
      9          1           0       -0.629543   -0.627841    2.190829
     10          6           0        1.093430   -0.003106   -0.716251
     11          1           0        2.015592    0.071457   -1.248643
     12          6           0        0.000000    1.093569   -0.716225
     13          1           0        0.077501    2.015623   -1.248052
     14          1           0        1.541270   -1.545658    0.939438
     15          1           0       -1.541270    1.545658    0.939438
 ---------------------------------------------------------------------
                    Distance matrix (angstroms):
                    1          2          3          4          5
     1  C    0.000000
     2  C    1.540842   0.000000
     3  C    2.450500   2.344733   0.000000
     4  C    1.548640   2.450533   1.540642   0.000000
     5  H    1.067253   2.341164   3.452022   2.321678   0.000000
     6  H    2.321808   3.452370   2.341124   1.067419   2.745174
     7  C    2.508382   1.531204   1.531204   2.508346   3.442211
     8  H    3.436647   2.199212   2.199308   3.436574   4.394737
     9  H    3.010679   2.199308   2.199212   3.010714   3.749212
    10  C    1.544247   1.540642   2.450533   2.186869   2.388329
    11  H    2.388172   2.341124   3.452370   3.155017   2.955832
    12  C    2.187138   2.450500   1.540842   1.544247   3.155301
    13  H    3.155301   3.452022   2.341164   2.388329   4.034225
    14  H    2.306755   1.080637   3.376965   3.475862   2.761594
    15  H    3.475953   3.376965   1.080637   2.306802   4.428369
                    6          7          8          9         10
     6  H    0.000000
     7  C    3.442541   0.000000
     8  H    4.394966   1.101132   0.000000
     9  H    3.749755   1.101132   1.778211   0.000000
    10  C    3.155017   2.508346   3.010714   3.436574   0.000000
    11  H    4.033717   3.442541   3.749755   4.394966   1.067419
    12  C    2.388172   2.508382   3.010679   3.436647   1.548640
    13  H    2.955832   3.442211   3.749212   4.394737   2.321678
    14  H    4.428570   2.264226   2.668581   2.668482   2.306802
    15  H    2.761836   2.264226   2.668482   2.668581   3.475862
                   11         12         13         14         15
    11  H    0.000000
    12  C    2.321808   0.000000
    13  H    2.745174   1.067253   0.000000
    14  H    2.761836   3.475953   4.428369   0.000000
    15  H    4.428570   2.306755   2.761594   4.365580   0.000000
 Stoichiometry    C7H8
 Framework group  C2[C2(C),X(C6H8)]
 Deg. of freedom    20
 Full point group                 C2      NOp   2
 Largest Abelian subgroup         C2      NOp   2
 Largest concise Abelian subgroup C2      NOp   2
                         Standard orientation:                         
 ---------------------------------------------------------------------
 Center     Atomic      Atomic             Coordinates (Angstroms)
 Number     Number       Type             X           Y           Z
 ---------------------------------------------------------------------
      1          6           0        0.000000    1.093569   -0.716225
      2          6           0       -0.827950    0.830025    0.556267
      3          6           0        0.827950   -0.830025    0.556267
      4          6           0        1.093430   -0.003106   -0.716251
      5          1           0        0.077501    2.015623   -1.248052
      6          1           0        2.015592    0.071457   -1.248643
      7          6           0        0.000000    0.000000    1.541226
      8          1           0       -0.629543   -0.627841    2.190829
      9          1           0        0.629543    0.627841    2.190829
     10          6           0       -1.093430    0.003106   -0.716251
     11          1           0       -2.015592   -0.071457   -1.248643
     12          6           0        0.000000   -1.093569   -0.716225
     13          1           0       -0.077501   -2.015623   -1.248052
     14          1           0       -1.541270    1.545658    0.939438
     15          1           0        1.541270   -1.545658    0.939438
 ---------------------------------------------------------------------
 Rotational constants (GHZ):      4.3088565      4.2836067      3.2141012
 Standard basis: def2SVP (5D, 7F)
 There are    74 symmetry adapted cartesian basis functions of A   symmetry.
 There are    71 symmetry adapted cartesian basis functions of B   symmetry.
 There are    70 symmetry adapted basis functions of A   symmetry.
 There are    68 symmetry adapted basis functions of B   symmetry.
   138 basis functions,   231 primitive gaussians,   145 cartesian basis functions
    25 alpha electrons       25 beta electrons
       nuclear repulsion energy       293.8274196588 Hartrees.
 NAtoms=   15 NActive=   15 NUniq=    8 SFac= 3.52D+00 NAtFMM=   60 NAOKFM=F Big=F
 Integral buffers will be    131072 words long.
 Raffenetti 2 integral format.
 Two-electron integral symmetry is turned on.
 Nuclear repulsion after empirical dispersion term =      293.8272509033 Hartrees.
 ------------------------------------------------------------------------------
 Polarizable Continuum Model (PCM)
 =================================
 Model                : C-PCM.
 Atomic radii         : UFF (Universal Force Field).
 Polarization charges : Total charges.
 Charge compensation  : None.
 Solution method      : On-the-fly selection.
 Cavity type          : Scaled VdW (van der Waals Surface) (Alpha=1.100).
 Cavity algorithm     : GePol (No added spheres)
                        Default sphere list used, NSphG=   15.
                        Lebedev-Laikov grids with approx.  5.0 points / Ang**2.
                        Smoothing algorithm: Karplus/York (Gamma=1.0000).
                        Polarization charges: spherical gaussians, with
                                              point-specific exponents (IZeta= 3).
                        Self-potential: point-specific (ISelfS= 7).
                        Self-field    : sphere-specific E.n sum rule (ISelfD= 2).
 1st derivatives      : Analytical E(r).r(x)/FMM algorithm (CHGder, D1EAlg=3).
                        Cavity 1st derivative terms included.
 Solvent              : Toluene, Eps=   2.374100 Eps(inf)=   2.238315
 ------------------------------------------------------------------------------
 Spheres list:
 ISph  on   Nord     Re0    Alpha      Xe            Ye            Ze
    1   C      1    1.9255  1.100      0.000000      1.093569     -0.716225
    2   C      2    1.9255  1.100     -0.827950      0.830025      0.556267
    3   C      3    1.9255  1.100      0.827950     -0.830025      0.556267
    4   C      4    1.9255  1.100      1.093430     -0.003106     -0.716251
    5   H      5    1.4430  1.100      0.077501      2.015623     -1.248052
    6   H      6    1.4430  1.100      2.015592      0.071457     -1.248643
    7   C      7    1.9255  1.100      0.000000      0.000000      1.541226
    8   H      8    1.4430  1.100     -0.629543     -0.627841      2.190829
    9   H      9    1.4430  1.100      0.629543      0.627841      2.190829
   10   C     10    1.9255  1.100     -1.093430      0.003106     -0.716251
   11   H     11    1.4430  1.100     -2.015592     -0.071457     -1.248643
   12   C     12    1.9255  1.100      0.000000     -1.093569     -0.716225
   13   H     13    1.4430  1.100     -0.077501     -2.015623     -1.248052
   14   H     14    1.4430  1.100     -1.541270      1.545658      0.939438
   15   H     15    1.4430  1.100      1.541270     -1.545658      0.939438
 ------------------------------------------------------------------------------
 One-electron integrals computed using PRISM.
   2 Symmetry operations used in ECPInt.
 ECPInt:  NShTT=    2211 NPrTT=    7865 LenC2=    2212 LenP2D=    6765.
 LDataN:  DoStor=T MaxTD1= 4 Len=   56
 NBasis=   138 RedAO= T EigKep=  2.88D-04  NBF=    70    68
 NBsUse=   138 1.00D-06 EigRej= -1.00D+00 NBFU=    70    68
 ExpMin= 1.22D-01 ExpMax= 1.24D+03 ExpMxC= 1.86D+02 IAcc=1 IRadAn=         1 AccDes= 0.00D+00
 Harris functional with IExCor= 1009 and IRadAn=       1 diagonalized for initial guess.
 HarFok:  IExCor= 1009 AccDes= 0.00D+00 IRadAn=         1 IDoV= 1 UseB2=F ITyADJ=14
 ICtDFT=  3500011 ScaDFX=  1.000000  1.000000  1.000000  1.000000
 FoFCou: FMM=F IPFlag=           0 FMFlag=      100000 FMFlg1=           0
         NFxFlg=           0 DoJE=T BraDBF=F KetDBF=T FulRan=T
         wScrn=  0.000000 ICntrl=     500 IOpCl=  0 I1Cent=   200000004 NGrid=           0
         NMat0=    1 NMatS0=      1 NMatT0=    0 NMatD0=    1 NMtDS0=    0 NMtDT0=    0
 Petite list used in FoFCou.
 Initial guess orbital symmetries:
       Occupied  (A) (A) (B) (A) (B) (B) (A) (A) (B) (A) (B) (A)
                 (B) (A) (A) (B) (A) (B) (A) (B) (B) (A) (B) (A)
                 (B)
       Virtual   (B) (B) (A) (A) (B) (A) (A) (B) (B) (A) (B) (A)
                 (B) (A) (A) (B) (B) (A) (A) (A) (B) (B) (B) (A)
                 (B) (A) (B) (A) (B) (A) (B) (B) (A) (A) (B) (B)
                 (A) (A) (B) (A) (B) (A) (A) (B) (B) (A) (B) (A)
                 (A) (A) (B) (B) (A) (A) (A) (B) (B) (A) (A) (B)
                 (A) (B) (A) (B) (B) (A) (A) (B) (B) (B) (A) (B)
                 (A) (B) (A) (A) (A) (B) (B) (B) (B) (A) (B) (A)
                 (B) (A) (A) (B) (A) (B) (B) (A) (A) (B) (A) (B)
                 (A) (B) (B) (A) (A) (B) (B) (A) (A) (A) (B) (A)
                 (B) (B) (A) (B) (A)
 The electronic state of the initial guess is 1-A.
 Requested convergence on RMS density matrix=1.00D-08 within 128 cycles.
 Requested convergence on MAX density matrix=1.00D-06.
 Requested convergence on             energy=1.00D-06.
 No special actions if energy rises.
 Inv3:  Mode=1 IEnd=     4099683.
 Iteration    1 A*A^-1 deviation from unit magnitude is 6.66D-15 for   1152.
 Iteration    1 A*A^-1 deviation from orthogonality  is 1.91D-15 for    926    769.
 Iteration    1 A^-1*A deviation from unit magnitude is 6.66D-15 for   1152.
 Iteration    1 A^-1*A deviation from orthogonality  is 1.76D-15 for   1147    131.
 Error on total polarization charges =  0.00535
 SCF Done:  E(RM062X) =  -271.132741078     A.U. after   11 cycles
            NFock= 11  Conv=0.27D-08     -V/T= 2.0124

 **********************************************************************

            Population analysis using the SCF density.

 **********************************************************************

 Orbital symmetries:
       Occupied  (A) (B) (A) (B) (B) (A) (A) (A) (B) (A) (B) (A)
                 (B) (A) (A) (B) (B) (A) (A) (B) (B) (A) (B) (A)
                 (B)
       Virtual   (A) (B) (A) (B) (B) (B) (A) (A) (B) (B) (A) (A)
                 (B) (A) (A) (B) (A) (B) (A) (A) (B) (B) (A) (B)
                 (B) (B) (A) (B) (A) (A) (B) (B) (A) (B) (A) (A)
                 (B) (B) (A) (A) (B) (A) (A) (B) (B) (B) (A) (A)
                 (A) (A) (B) (B) (A) (A) (A) (B) (B) (A) (A) (B)
                 (B) (A) (B) (A) (B) (A) (A) (B) (B) (B) (A) (B)
                 (A) (A) (B) (A) (B) (A) (B) (B) (B) (A) (B) (A)
                 (A) (A) (B) (B) (A) (B) (B) (A) (A) (B) (A) (B)
                 (A) (B) (B) (A) (A) (B) (B) (A) (A) (A) (B) (A)
                 (B) (B) (A) (B) (A)
 The electronic state is 1-A.
 Alpha  occ. eigenvalues --  -10.55969 -10.55968 -10.55751 -10.55732 -10.55726
 Alpha  occ. eigenvalues --  -10.55707 -10.54805  -1.02825  -0.85651  -0.81378
 Alpha  occ. eigenvalues --   -0.72006  -0.63857  -0.62740  -0.60848  -0.59204
 Alpha  occ. eigenvalues --   -0.50771  -0.49687  -0.49503  -0.46004  -0.40771
 Alpha  occ. eigenvalues --   -0.40222  -0.36787  -0.33672  -0.32609  -0.27360
 Alpha virt. eigenvalues --    0.11003   0.11171   0.14193   0.15282   0.15991
 Alpha virt. eigenvalues --    0.16421   0.17900   0.18032   0.18782   0.18866
 Alpha virt. eigenvalues --    0.22579   0.23312   0.24779   0.27308   0.29084
 Alpha virt. eigenvalues --    0.30962   0.38510   0.38822   0.40907   0.48475
 Alpha virt. eigenvalues --    0.52499   0.52960   0.53843   0.54589   0.56343
 Alpha virt. eigenvalues --    0.59306   0.61150   0.61446   0.62390   0.65245
 Alpha virt. eigenvalues --    0.67452   0.68587   0.69807   0.70467   0.71354
 Alpha virt. eigenvalues --    0.72696   0.73189   0.73941   0.73997   0.74152
 Alpha virt. eigenvalues --    0.75729   0.76260   0.77927   0.79959   0.81233
 Alpha virt. eigenvalues --    0.86592   0.90312   0.91140   0.98820   1.06994
 Alpha virt. eigenvalues --    1.12763   1.17468   1.19449   1.33847   1.48988
 Alpha virt. eigenvalues --    1.49935   1.49992   1.51616   1.56607   1.62420
 Alpha virt. eigenvalues --    1.62961   1.63089   1.66898   1.67705   1.70149
 Alpha virt. eigenvalues --    1.72454   1.73840   1.77010   1.80093   1.82507
 Alpha virt. eigenvalues --    1.86017   1.88216   1.91514   1.92648   1.93689
 Alpha virt. eigenvalues --    1.97100   1.99433   2.00182   2.01282   2.02608
 Alpha virt. eigenvalues --    2.04062   2.05879   2.08858   2.10733   2.12897
 Alpha virt. eigenvalues --    2.13253   2.13278   2.13608   2.20332   2.23692
 Alpha virt. eigenvalues --    2.32914   2.38119   2.38809   2.40150   2.43660
 Alpha virt. eigenvalues --    2.50310   2.51696   2.52578   2.63450   2.68617
 Alpha virt. eigenvalues --    2.70114   2.71217   2.75681   2.79775   2.88235
 Alpha virt. eigenvalues --    2.88366   2.94180   2.94963   2.99221   3.02811
 Alpha virt. eigenvalues --    3.08410   3.21052   3.39501
          Condensed to atoms (all electrons):
               1          2          3          4          5          6
     1  C    5.424124   0.079838   0.031327   0.169684   0.455177  -0.063261
     2  C    0.079838   5.442580  -0.094410   0.031382  -0.034052   0.004825
     3  C    0.031327  -0.094410   5.442580   0.079618   0.004828  -0.034049
     4  C    0.169684   0.031382   0.079618   5.424335  -0.063313   0.455056
     5  H    0.455177  -0.034052   0.004828  -0.063313   0.641820  -0.007479
     6  H   -0.063261   0.004825  -0.034049   0.455056  -0.007479   0.641762
     7  C   -0.055250   0.307064   0.307064  -0.055212   0.003185   0.003184
     8  H    0.009008  -0.020608  -0.020600   0.009009  -0.000202  -0.000202
     9  H   -0.007489  -0.020600  -0.020608  -0.007492   0.000319   0.000319
    10  C    0.155705   0.079618   0.031382  -0.147635  -0.024584   0.012215
    11  H   -0.024556  -0.034049   0.004825   0.012215  -0.002922  -0.000284
    12  C   -0.147577   0.031327   0.079838   0.155705   0.012221  -0.024556
    13  H    0.012221   0.004828  -0.034052  -0.024584  -0.000283  -0.002922
    14  H   -0.023051   0.401566   0.005515   0.005264  -0.004471   0.000003
    15  H    0.005264   0.005515   0.401566  -0.023061   0.000002  -0.004473
               7          8          9         10         11         12
     1  C   -0.055250   0.009008  -0.007489   0.155705  -0.024556  -0.147577
     2  C    0.307064  -0.020608  -0.020600   0.079618  -0.034049   0.031327
     3  C    0.307064  -0.020600  -0.020608   0.031382   0.004825   0.079838
     4  C   -0.055212   0.009009  -0.007492  -0.147635   0.012215   0.155705
     5  H    0.003185  -0.000202   0.000319  -0.024584  -0.002922   0.012221
     6  H    0.003184  -0.000202   0.000319   0.012215  -0.000284  -0.024556
     7  C    4.680163   0.379564   0.379564  -0.055212   0.003184  -0.055250
     8  H    0.379564   0.646769  -0.028589  -0.007492   0.000319  -0.007489
     9  H    0.379564  -0.028589   0.646769   0.009009  -0.000202   0.009008
    10  C   -0.055212  -0.007492   0.009009   5.424335   0.455056   0.169684
    11  H    0.003184   0.000319  -0.000202   0.455056   0.641762  -0.063261
    12  C   -0.055250  -0.007489   0.009008   0.169684  -0.063261   5.424124
    13  H    0.003185   0.000319  -0.000202  -0.063313  -0.007479   0.455177
    14  H   -0.021160  -0.001837  -0.001839  -0.023061  -0.004473   0.005264
    15  H   -0.021160  -0.001839  -0.001837   0.005264   0.000003  -0.023051
              13         14         15
     1  C    0.012221  -0.023051   0.005264
     2  C    0.004828   0.401566   0.005515
     3  C   -0.034052   0.005515   0.401566
     4  C   -0.024584   0.005264  -0.023061
     5  H   -0.000283  -0.004471   0.000002
     6  H   -0.002922   0.000003  -0.004473
     7  C    0.003185  -0.021160  -0.021160
     8  H    0.000319  -0.001837  -0.001839
     9  H   -0.000202  -0.001839  -0.001837
    10  C   -0.063313  -0.023061   0.005264
    11  H   -0.007479  -0.004473   0.000003
    12  C    0.455177   0.005264  -0.023051
    13  H    0.641820   0.000002  -0.004471
    14  H    0.000002   0.617713  -0.000365
    15  H   -0.004471  -0.000365   0.617713
 Mulliken charges:
               1
     1  C   -0.021162
     2  C   -0.184824
     3  C   -0.184824
     4  C   -0.020972
     5  H    0.019754
     6  H    0.019861
     7  C    0.197086
     8  H    0.043870
     9  H    0.043870
    10  C   -0.020972
    11  H    0.019861
    12  C   -0.021162
    13  H    0.019754
    14  H    0.044930
    15  H    0.044930
 Sum of Mulliken charges =   0.00000
 Mulliken charges with hydrogens summed into heavy atoms:
               1
     1  C   -0.001408
     2  C   -0.139894
     3  C   -0.139894
     4  C   -0.001111
     7  C    0.284826
    10  C   -0.001111
    12  C   -0.001408
 Electronic spatial extent (au):  <R**2>=            521.7817
 Charge=              0.0000 electrons
 Dipole moment (field-independent basis, Debye):
    X=              0.0000    Y=              0.0000    Z=              0.0036  Tot=              0.0036
 Quadrupole moment (field-independent basis, Debye-Ang):
   XX=            -40.8467   YY=            -40.8384   ZZ=            -41.5845
   XY=             -1.0691   XZ=              0.0000   YZ=              0.0000
 Traceless Quadrupole moment (field-independent basis, Debye-Ang):
   XX=              0.2431   YY=              0.2515   ZZ=             -0.4946
   XY=             -1.0691   XZ=              0.0000   YZ=              0.0000
 Octapole moment (field-independent basis, Debye-Ang**2):
  XXX=              0.0000  YYY=              0.0000  ZZZ=              3.5473  XYY=              0.0000
  XXY=              0.0000  XXZ=             -2.2197  XZZ=              0.0000  YZZ=              0.0000
  YYZ=             -2.2038  XYZ=             -2.4095
 Hexadecapole moment (field-independent basis, Debye-Ang**3):
 XXXX=           -212.0422 YYYY=           -212.2913 ZZZZ=           -282.7761 XXXY=             24.9072
 XXXZ=              0.0000 YYYX=             24.9007 YYYZ=              0.0000 ZZZX=              0.0000
 ZZZY=              0.0000 XXYY=            -69.5460 XXZZ=            -76.7703 YYZZ=            -76.8421
 XXYZ=              0.0000 YYXZ=              0.0000 ZZXY=             11.4796
 N-N= 2.938272509033D+02 E-N=-1.213959419378D+03  KE= 2.678013824169D+02
 Symmetry A    KE= 1.492437303229D+02
 Symmetry B    KE= 1.185576520941D+02
   2 Symmetry operations used in ECPInt.
 ECPInt:  NShTT=    2211 NPrTT=    7865 LenC2=    2212 LenP2D=    6765.
 LDataN:  DoStor=T MaxTD1= 5 Len=  102
 D1PCM: C-PCM CHGder 1st derivatives, ID1Alg=3 FixD1E=F DoIter=F DoCFld=F I1PDM=0.
 Calling FoFJK, ICntrl=      2127 FMM=F ISym2X=1 I1Cent= 0 IOpClX= 0 NMat=1 NMatS=1 NMatT=0.
 ***** Axes restored to original set *****
 -------------------------------------------------------------------
 Center     Atomic                   Forces (Hartrees/Bohr)
 Number     Number              X              Y              Z
 -------------------------------------------------------------------
      1        6           0.016811661    0.031741160    0.019619991
      2        6          -0.020305419    0.020251082   -0.016015509
      3        6           0.020305419   -0.020251082   -0.016015509
      4        6           0.031590612    0.016713446    0.019495918
      5        1           0.003231899   -0.014649358   -0.007045216
      6        1          -0.014537119    0.003259557   -0.006971066
      7        6           0.000000000    0.000000000   -0.009150060
      8        1           0.000760294    0.000777378   -0.001490886
      9        1          -0.000760294   -0.000777378   -0.001490886
     10        6          -0.031590612   -0.016713446    0.019495918
     11        1           0.014537119   -0.003259557   -0.006971066
     12        6          -0.016811661   -0.031741160    0.019619991
     13        1          -0.003231899    0.014649358   -0.007045216
     14        1           0.006038242   -0.006036419   -0.003018202
     15        1          -0.006038242    0.006036419   -0.003018202
 -------------------------------------------------------------------
 Cartesian Forces:  Max     0.031741160 RMS     0.015031662

 GradGradGradGradGradGradGradGradGradGradGradGradGradGradGradGradGradGrad
 Berny optimization.
 FormGI is forming the generalized inverse of G from B-inverse, IUseBI=4.
 Internal  Forces:  Max     0.017895791 RMS     0.005327567
 Search for a local minimum.
 Step number   1 out of a maximum of  100
 All quantities printed in internal units (Hartrees-Bohrs-Radians)
 Mixed Optimization -- RFO/linear search
 Second derivative matrix not updated -- first step.
 ITU=  0
     Eigenvalues ---    0.00905   0.00996   0.01478   0.01523   0.01599
     Eigenvalues ---    0.01837   0.01933   0.02058   0.04285   0.05617
     Eigenvalues ---    0.05988   0.06188   0.06342   0.07083   0.07263
     Eigenvalues ---    0.07792   0.09495   0.10244   0.10277   0.14713
     Eigenvalues ---    0.15359   0.17759   0.19582   0.21159   0.22279
     Eigenvalues ---    0.25871   0.26447   0.26625   0.27716   0.28266
     Eigenvalues ---    0.28539   0.33557   0.33557   0.35917   0.35917
     Eigenvalues ---    0.37558   0.37558   0.37579   0.37579
 RFO step:  Lambda=-1.11450984D-02 EMin= 9.04852378D-03
 Linear search not attempted -- first point.
 Iteration  1 RMS(Cart)=  0.01819137 RMS(Int)=  0.00030843
 Iteration  2 RMS(Cart)=  0.00030393 RMS(Int)=  0.00010879
 Iteration  3 RMS(Cart)=  0.00000011 RMS(Int)=  0.00010879
 ClnCor:  largest displacement from symmetrization is 3.19D-12 for atom    13.
 Variable       Old X    -DE/DX   Delta X   Delta X   Delta X     New X
                                 (Linear)    (Quad)   (Total)
    R1        2.91177  -0.01604   0.00000  -0.05388  -0.05388   2.85789
    R2        2.92651  -0.00371   0.00000  -0.01329  -0.01333   2.91317
    R3        2.01682   0.01593   0.00000   0.04118   0.04118   2.05799
    R4        2.91820  -0.01790   0.00000  -0.06227  -0.06230   2.85591
    R5        2.89356  -0.01046   0.00000  -0.03374  -0.03367   2.85988
    R6        2.91139  -0.01602   0.00000  -0.05368  -0.05368   2.85771
    R7        2.04211   0.00691   0.00000   0.01867   0.01867   2.06078
    R8        2.91139  -0.01602   0.00000  -0.05368  -0.05368   2.85771
    R9        2.89356  -0.01046   0.00000  -0.03374  -0.03367   2.85988
   R10        2.91177  -0.01604   0.00000  -0.05388  -0.05388   2.85789
   R11        2.04211   0.00691   0.00000   0.01867   0.01867   2.06078
   R12        2.01713   0.01581   0.00000   0.04088   0.04088   2.05801
   R13        2.91820  -0.01790   0.00000  -0.06227  -0.06230   2.85591
   R14        2.08084   0.00000   0.00000   0.00000   0.00000   2.08083
   R15        2.08084   0.00000   0.00000   0.00000   0.00000   2.08083
   R16        2.01713   0.01581   0.00000   0.04088   0.04088   2.05801
   R17        2.92651  -0.00371   0.00000  -0.01329  -0.01333   2.91317
   R18        2.01682   0.01593   0.00000   0.04118   0.04118   2.05799
    A1        1.83204  -0.00117   0.00000  -0.00481  -0.00483   1.82721
    A2        2.21220  -0.00150   0.00000  -0.01603  -0.01618   2.19602
    A3        2.16582   0.00303   0.00000   0.02473   0.02481   2.19063
    A4        1.57067   0.00001   0.00000   0.00009   0.00009   1.57077
    A5        2.29359  -0.00243   0.00000  -0.01952  -0.01960   2.27399
    A6        1.91070   0.00190   0.00000   0.00922   0.00922   1.91992
    A7        2.13442  -0.00336   0.00000  -0.02675  -0.02703   2.10739
    A8        1.91085   0.00190   0.00000   0.00911   0.00910   1.91995
    A9        2.08038   0.00218   0.00000   0.02368   0.02385   2.10423
   A10        2.13479  -0.00337   0.00000  -0.02695  -0.02722   2.10758
   A11        1.91085   0.00190   0.00000   0.00911   0.00910   1.91995
   A12        2.13479  -0.00337   0.00000  -0.02695  -0.02722   2.10758
   A13        1.91070   0.00190   0.00000   0.00922   0.00922   1.91992
   A14        2.08038   0.00218   0.00000   0.02368   0.02385   2.10423
   A15        2.13442  -0.00336   0.00000  -0.02675  -0.02703   2.10739
   A16        1.83217  -0.00119   0.00000  -0.00485  -0.00487   1.82731
   A17        2.16581   0.00304   0.00000   0.02473   0.02481   2.19061
   A18        1.57092  -0.00001   0.00000  -0.00009  -0.00009   1.57083
   A19        2.21221  -0.00149   0.00000  -0.01600  -0.01614   2.19607
   A20        2.29301  -0.00241   0.00000  -0.01928  -0.01936   2.27365
   A21        1.74410  -0.00142   0.00000  -0.00893  -0.00886   1.73524
   A22        1.95997   0.00014   0.00000  -0.00219  -0.00225   1.95771
   A23        1.96010   0.00012   0.00000  -0.00237  -0.00243   1.95767
   A24        1.96010   0.00012   0.00000  -0.00237  -0.00243   1.95767
   A25        1.95997   0.00014   0.00000  -0.00219  -0.00225   1.95771
   A26        1.87962   0.00077   0.00000   0.01588   0.01591   1.89553
   A27        2.29301  -0.00241   0.00000  -0.01928  -0.01936   2.27365
   A28        1.57092  -0.00001   0.00000  -0.00009  -0.00009   1.57083
   A29        2.21221  -0.00149   0.00000  -0.01600  -0.01614   2.19607
   A30        1.83217  -0.00119   0.00000  -0.00485  -0.00487   1.82731
   A31        2.16581   0.00304   0.00000   0.02473   0.02481   2.19061
   A32        1.83204  -0.00117   0.00000  -0.00481  -0.00483   1.82721
   A33        2.21220  -0.00150   0.00000  -0.01603  -0.01618   2.19602
   A34        1.57067   0.00001   0.00000   0.00009   0.00009   1.57077
   A35        2.29359  -0.00243   0.00000  -0.01952  -0.01960   2.27399
   A36        2.16582   0.00303   0.00000   0.02473   0.02481   2.19063
    D1        0.36206   0.00021   0.00000   0.00145   0.00142   0.36348
    D2        2.92206   0.00239   0.00000   0.02129   0.02096   2.94302
    D3       -2.38655  -0.00147   0.00000  -0.01508  -0.01487  -2.40142
    D4        0.17346   0.00071   0.00000   0.00477   0.00466   0.17811
    D5       -0.00032   0.00001   0.00000   0.00026   0.00026  -0.00007
    D6       -2.76267  -0.00034   0.00000  -0.00421  -0.00418  -2.76685
    D7        1.02523   0.00057   0.00000   0.00270   0.00273   1.02796
    D8        2.76170   0.00036   0.00000   0.00471   0.00467   2.76637
    D9       -0.00065   0.00001   0.00000   0.00023   0.00023  -0.00041
   D10       -2.49593   0.00092   0.00000   0.00714   0.00714  -2.48879
   D11       -1.02559  -0.00057   0.00000  -0.00235  -0.00238  -1.02797
   D12        2.49525  -0.00092   0.00000  -0.00682  -0.00681   2.48844
   D13       -0.00003  -0.00001   0.00000   0.00009   0.00009   0.00006
   D14       -2.41448  -0.00264   0.00000  -0.02194  -0.02175  -2.43623
   D15        0.00003   0.00001   0.00000  -0.00009  -0.00009  -0.00005
   D16        0.00031   0.00000   0.00000  -0.00008  -0.00008   0.00023
   D17        2.41483   0.00264   0.00000   0.02178   0.02158   2.43641
   D18       -0.56053  -0.00003   0.00000  -0.00017  -0.00015  -0.56068
   D19       -2.64141   0.00058   0.00000   0.00860   0.00859  -2.63282
   D20        1.52025  -0.00062   0.00000  -0.00880  -0.00876   1.51148
   D21        0.56036   0.00003   0.00000   0.00030   0.00029   0.56065
   D22       -1.52052   0.00064   0.00000   0.00907   0.00903  -1.51149
   D23        2.64114  -0.00056   0.00000  -0.00833  -0.00832   2.63281
   D24       -3.14120  -0.00001   0.00000  -0.00019  -0.00020  -3.14140
   D25        1.06111   0.00060   0.00000   0.00857   0.00855   1.06965
   D26       -1.06042  -0.00060   0.00000  -0.00883  -0.00881  -1.06923
   D27        2.38742   0.00145   0.00000   0.01465   0.01445   2.40187
   D28       -0.36152  -0.00023   0.00000  -0.00188  -0.00185  -0.36337
   D29       -0.17344  -0.00071   0.00000  -0.00470  -0.00459  -0.17803
   D30       -2.92237  -0.00238   0.00000  -0.02123  -0.02089  -2.94327
   D31       -0.36152  -0.00023   0.00000  -0.00188  -0.00185  -0.36337
   D32        2.38742   0.00145   0.00000   0.01465   0.01445   2.40187
   D33       -2.92237  -0.00238   0.00000  -0.02123  -0.02089  -2.94327
   D34       -0.17344  -0.00071   0.00000  -0.00470  -0.00459  -0.17803
   D35        0.56036   0.00003   0.00000   0.00030   0.00029   0.56065
   D36        2.64114  -0.00056   0.00000  -0.00833  -0.00832   2.63281
   D37       -1.52052   0.00064   0.00000   0.00907   0.00903  -1.51149
   D38       -0.56053  -0.00003   0.00000  -0.00017  -0.00015  -0.56068
   D39        1.52025  -0.00062   0.00000  -0.00880  -0.00876   1.51148
   D40       -2.64141   0.00058   0.00000   0.00860   0.00859  -2.63282
   D41       -3.14120  -0.00001   0.00000  -0.00019  -0.00020  -3.14140
   D42       -1.06042  -0.00060   0.00000  -0.00883  -0.00881  -1.06923
   D43        1.06111   0.00060   0.00000   0.00857   0.00855   1.06965
   D44        0.36206   0.00021   0.00000   0.00145   0.00142   0.36348
   D45       -2.38655  -0.00147   0.00000  -0.01508  -0.01487  -2.40142
   D46        2.92206   0.00239   0.00000   0.02129   0.02096   2.94302
   D47        0.17346   0.00071   0.00000   0.00477   0.00466   0.17811
   D48        0.00003   0.00001   0.00000  -0.00009  -0.00009  -0.00005
   D49        2.41483   0.00264   0.00000   0.02178   0.02158   2.43641
   D50       -2.41448  -0.00264   0.00000  -0.02194  -0.02175  -2.43623
   D51        0.00031   0.00000   0.00000  -0.00008  -0.00008   0.00023
   D52        1.02523   0.00057   0.00000   0.00270   0.00273   1.02796
   D53       -0.00003  -0.00001   0.00000   0.00009   0.00009   0.00006
   D54       -2.49593   0.00092   0.00000   0.00714   0.00714  -2.48879
   D55       -0.00032   0.00001   0.00000   0.00026   0.00026  -0.00007
   D56       -1.02559  -0.00057   0.00000  -0.00235  -0.00238  -1.02797
   D57        2.76170   0.00036   0.00000   0.00471   0.00467   2.76637
   D58       -2.76267  -0.00034   0.00000  -0.00421  -0.00418  -2.76685
   D59        2.49525  -0.00092   0.00000  -0.00682  -0.00681   2.48844
   D60       -0.00065   0.00001   0.00000   0.00023   0.00023  -0.00041
         Item               Value     Threshold  Converged?
 Maximum Force            0.017896     0.000450     NO 
 RMS     Force            0.005328     0.000300     NO 
 Maximum Displacement     0.065582     0.001800     NO 
 RMS     Displacement     0.018412     0.001200     NO 
 Predicted change in Energy=-5.814001D-03
 GradGradGradGradGradGradGradGradGradGradGradGradGradGradGradGradGradGrad

                          Input orientation:                          
 ---------------------------------------------------------------------
 Center     Atomic      Atomic             Coordinates (Angstroms)
 Number     Number       Type             X           Y           Z
 ---------------------------------------------------------------------
      1          6           0        0.009184   -1.079382   -0.699606
      2          6           0        0.815166   -0.817399    0.552953
      3          6           0       -0.815166    0.817399    0.552953
      4          6           0       -1.079318    0.012243   -0.699564
      5          1           0       -0.042797   -2.024577   -1.238047
      6          1           0       -2.024523   -0.036864   -1.238272
      7          6           0        0.000000    0.000000    1.531575
      8          1           0        0.633170    0.631478    2.174085
      9          1           0       -0.633170   -0.631478    2.174085
     10          6           0        1.079318   -0.012243   -0.699564
     11          1           0        2.024523    0.036864   -1.238272
     12          6           0       -0.009184    1.079382   -0.699606
     13          1           0        0.042797    2.024577   -1.238047
     14          1           0        1.542491   -1.546976    0.910640
     15          1           0       -1.542491    1.546976    0.910640
 ---------------------------------------------------------------------
                    Distance matrix (angstroms):
                    1          2          3          4          5
     1  C    0.000000
     2  C    1.512332   0.000000
     3  C    2.417899   2.308798   0.000000
     4  C    1.541584   2.417887   1.512234   0.000000
     5  H    1.089043   2.324018   3.446891   2.347973   0.000000
     6  H    2.347971   3.446964   2.323961   1.089050   2.806820
     7  C    2.478572   1.513386   1.513386   2.478519   3.430969
     8  H    3.402131   2.181842   2.181814   3.402047   4.376551
     9  H    2.978479   2.181814   2.181842   2.978470   3.732547
    10  C    1.511282   1.512234   2.417887   2.158775   2.366134
    11  H    2.365958   2.323961   3.446964   3.150340   2.919477
    12  C    2.158842   2.417899   1.512332   1.511282   3.150493
    13  H    3.150493   3.446891   2.324018   2.366134   4.050058
    14  H    2.272129   1.090516   3.358088   3.449320   2.712581
    15  H    3.449398   3.358088   1.090516   2.272156   4.429665
                    6          7          8          9         10
     6  H    0.000000
     7  C    3.431050   0.000000
     8  H    4.376550   1.101130   0.000000
     9  H    3.732775   1.101130   1.788483   0.000000
    10  C    3.150340   2.478519   2.978470   3.402047   0.000000
    11  H    4.049717   3.431050   3.732775   4.376550   1.089050
    12  C    2.365958   2.478572   2.978479   3.402131   1.541584
    13  H    2.919477   3.430969   3.732547   4.376551   2.347973
    14  H    4.429656   2.271117   2.677465   2.677299   2.272156
    15  H    2.712698   2.271117   2.677299   2.677465   3.449320
                   11         12         13         14         15
    11  H    0.000000
    12  C    2.347971   0.000000
    13  H    2.806820   1.089043   0.000000
    14  H    2.712698   3.449398   4.429665   0.000000
    15  H    4.429656   2.272129   2.712581   4.369171   0.000000
 Stoichiometry    C7H8
 Framework group  C2[C2(C),X(C6H8)]
 Deg. of freedom    20
 Full point group                 C2      NOp   2
 Largest Abelian subgroup         C2      NOp   2
 Largest concise Abelian subgroup C2      NOp   2
                         Standard orientation:                         
 ---------------------------------------------------------------------
 Center     Atomic      Atomic             Coordinates (Angstroms)
 Number     Number       Type             X           Y           Z
 ---------------------------------------------------------------------
      1          6           0        0.000000    1.079421   -0.704639
      2          6           0       -0.808183    0.824305    0.547920
      3          6           0        0.808183   -0.824305    0.547920
      4          6           0        1.079175   -0.021426   -0.704598
      5          1           0        0.060020    2.024139   -1.243080
      6          1           0        2.024763    0.019638   -1.243305
      7          6           0        0.000000    0.000000    1.526542
      8          1           0       -0.638519   -0.626068    2.169052
      9          1           0        0.638519    0.626068    2.169052
     10          6           0       -1.079175    0.021426   -0.704598
     11          1           0       -2.024763   -0.019638   -1.243305
     12          6           0        0.000000   -1.079421   -0.704639
     13          1           0       -0.060020   -2.024139   -1.243080
     14          1           0       -1.529274    1.560043    0.905607
     15          1           0        1.529274   -1.560043    0.905607
 ---------------------------------------------------------------------
 Rotational constants (GHZ):      4.4346255      4.3691441      3.2729054
 Standard basis: def2SVP (5D, 7F)
 There are    74 symmetry adapted cartesian basis functions of A   symmetry.
 There are    71 symmetry adapted cartesian basis functions of B   symmetry.
 There are    70 symmetry adapted basis functions of A   symmetry.
 There are    68 symmetry adapted basis functions of B   symmetry.
   138 basis functions,   231 primitive gaussians,   145 cartesian basis functions
    25 alpha electrons       25 beta electrons
       nuclear repulsion energy       296.8554512989 Hartrees.
 NAtoms=   15 NActive=   15 NUniq=    8 SFac= 3.52D+00 NAtFMM=   60 NAOKFM=F Big=F
 Integral buffers will be    131072 words long.
 Raffenetti 2 integral format.
 Two-electron integral symmetry is turned on.
 Nuclear repulsion after empirical dispersion term =      296.8552851033 Hartrees.
 ------------------------------------------------------------------------------
 Polarizable Continuum Model (PCM)
 =================================
 Model                : C-PCM.
 Atomic radii         : UFF (Universal Force Field).
 Polarization charges : Total charges.
 Charge compensation  : None.
 Solution method      : On-the-fly selection.
 Cavity type          : Scaled VdW (van der Waals Surface) (Alpha=1.100).
 Cavity algorithm     : GePol (No added spheres)
                        Default sphere list used, NSphG=   15.
                        Lebedev-Laikov grids with approx.  5.0 points / Ang**2.
                        Smoothing algorithm: Karplus/York (Gamma=1.0000).
                        Polarization charges: spherical gaussians, with
                                              point-specific exponents (IZeta= 3).
                        Self-potential: point-specific (ISelfS= 7).
                        Self-field    : sphere-specific E.n sum rule (ISelfD= 2).
 1st derivatives      : Analytical E(r).r(x)/FMM algorithm (CHGder, D1EAlg=3).
                        Cavity 1st derivative terms included.
 Solvent              : Toluene, Eps=   2.374100 Eps(inf)=   2.238315
 ------------------------------------------------------------------------------
 Spheres list:
 ISph  on   Nord     Re0    Alpha      Xe            Ye            Ze
    1   C      1    1.9255  1.100      0.000000      1.079421     -0.704639
    2   C      2    1.9255  1.100     -0.808183      0.824305      0.547920
    3   C      3    1.9255  1.100      0.808183     -0.824305      0.547920
    4   C      4    1.9255  1.100      1.079175     -0.021426     -0.704598
    5   H      5    1.4430  1.100      0.060020      2.024139     -1.243080
    6   H      6    1.4430  1.100      2.024763      0.019638     -1.243305
    7   C      7    1.9255  1.100      0.000000      0.000000      1.526542
    8   H      8    1.4430  1.100     -0.638519     -0.626068      2.169052
    9   H      9    1.4430  1.100      0.638519      0.626068      2.169052
   10   C     10    1.9255  1.100     -1.079175      0.021426     -0.704598
   11   H     11    1.4430  1.100     -2.024763     -0.019638     -1.243305
   12   C     12    1.9255  1.100      0.000000     -1.079421     -0.704639
   13   H     13    1.4430  1.100     -0.060020     -2.024139     -1.243080
   14   H     14    1.4430  1.100     -1.529274      1.560043      0.905607
   15   H     15    1.4430  1.100      1.529274     -1.560043      0.905607
 ------------------------------------------------------------------------------
 One-electron integrals computed using PRISM.
   2 Symmetry operations used in ECPInt.
 ECPInt:  NShTT=    2211 NPrTT=    7865 LenC2=    2212 LenP2D=    6775.
 LDataN:  DoStor=T MaxTD1= 4 Len=   56
 NBasis=   138 RedAO= T EigKep=  2.49D-04  NBF=    70    68
 NBsUse=   138 1.00D-06 EigRej= -1.00D+00 NBFU=    70    68
 Initial guess from the checkpoint file:  "m062x_quadricyclane_cycloaddition_PM6_toluene.chk"
 B after Tr=     0.000000    0.000000    0.000000
         Rot=    0.999991    0.000000    0.000000    0.004264 Ang=   0.49 deg.
 Initial guess orbital symmetries:
       Occupied  (A) (B) (A) (B) (B) (A) (A) (A) (B) (A) (B) (A)
                 (B) (A) (A) (B) (B) (A) (A) (B) (B) (A) (B) (A)
                 (B)
       Virtual   (A) (A) (A) (A) (A) (A) (A) (A) (A) (A) (A) (A)
                 (A) (A) (A) (A) (A) (A) (A) (A) (A) (A) (A) (A)
                 (A) (A) (A) (A) (A) (A) (A) (A) (A) (A) (A) (A)
                 (A) (A) (A) (A) (A) (A) (A) (A) (A) (A) (A) (A)
                 (A) (A) (A) (A) (A) (A) (A) (A) (A) (B) (B) (B)
                 (B) (B) (B) (B) (B) (B) (B) (B) (B) (B) (B) (B)
                 (B) (B) (B) (B) (B) (B) (B) (B) (B) (B) (B) (B)
                 (B) (B) (B) (B) (B) (B) (B) (B) (B) (B) (B) (B)
                 (B) (B) (B) (B) (B) (B) (B) (B) (B) (B) (B) (B)
                 (B) (B) (B) (B) (B)
 ExpMin= 1.22D-01 ExpMax= 1.24D+03 ExpMxC= 1.86D+02 IAcc=1 IRadAn=         1 AccDes= 0.00D+00
 Harris functional with IExCor= 1009 and IRadAn=       1 diagonalized for initial guess.
 HarFok:  IExCor= 1009 AccDes= 0.00D+00 IRadAn=         1 IDoV= 1 UseB2=F ITyADJ=14
 ICtDFT=  3500011 ScaDFX=  1.000000  1.000000  1.000000  1.000000
 FoFCou: FMM=F IPFlag=           0 FMFlag=      100000 FMFlg1=           0
         NFxFlg=           0 DoJE=T BraDBF=F KetDBF=T FulRan=T
         wScrn=  0.000000 ICntrl=     500 IOpCl=  0 I1Cent=   200000004 NGrid=           0
         NMat0=    1 NMatS0=      1 NMatT0=    0 NMatD0=    1 NMtDS0=    0 NMtDT0=    0
 Petite list used in FoFCou.
 Requested convergence on RMS density matrix=1.00D-08 within 128 cycles.
 Requested convergence on MAX density matrix=1.00D-06.
 Requested convergence on             energy=1.00D-06.
 No special actions if energy rises.
 Inv3:  Mode=1 IEnd=     4071675.
 Iteration    1 A*A^-1 deviation from unit magnitude is 4.00D-15 for   1157.
 Iteration    1 A*A^-1 deviation from orthogonality  is 1.92D-15 for    859    705.
 Iteration    1 A^-1*A deviation from unit magnitude is 4.00D-15 for   1157.
 Iteration    1 A^-1*A deviation from orthogonality  is 1.48D-15 for    871    443.
 DSYEVD-2 returned Info=        2483 IAlg= 4 N=    68 NDim=   138 NE2=      242658 trying  DSYEV.
 Error on total polarization charges =  0.00540
 SCF Done:  E(RM062X) =  -271.139136262     A.U. after   10 cycles
            NFock= 10  Conv=0.47D-08     -V/T= 2.0118
   2 Symmetry operations used in ECPInt.
 ECPInt:  NShTT=    2211 NPrTT=    7865 LenC2=    2212 LenP2D=    6775.
 LDataN:  DoStor=T MaxTD1= 5 Len=  102
 D1PCM: C-PCM CHGder 1st derivatives, ID1Alg=3 FixD1E=F DoIter=F DoCFld=F I1PDM=0.
 Calling FoFJK, ICntrl=      2127 FMM=F ISym2X=1 I1Cent= 0 IOpClX= 0 NMat=1 NMatS=1 NMatT=0.
 ***** Axes restored to original set *****
 -------------------------------------------------------------------
 Center     Atomic                   Forces (Hartrees/Bohr)
 Number     Number              X              Y              Z
 -------------------------------------------------------------------
      1        6           0.002034315    0.001177151    0.000611356
      2        6          -0.003137090    0.003099670   -0.001011987
      3        6           0.003137090   -0.003099670   -0.001011987
      4        6           0.001173386    0.002027564    0.000532603
      5        1           0.002060663   -0.000246940    0.000748030
      6        1          -0.000232152    0.002050081    0.000746213
      7        6           0.000000000    0.000000000    0.002885965
      8        1           0.000075235    0.000094320   -0.000213309
      9        1          -0.000075235   -0.000094320   -0.000213309
     10        6          -0.001173386   -0.002027564    0.000532603
     11        1           0.000232152   -0.002050081    0.000746213
     12        6          -0.002034315   -0.001177151    0.000611356
     13        1          -0.002060663    0.000246940    0.000748030
     14        1           0.000644563   -0.000626466   -0.002855888
     15        1          -0.000644563    0.000626466   -0.002855888
 -------------------------------------------------------------------
 Cartesian Forces:  Max     0.003137090 RMS     0.001563638

 GradGradGradGradGradGradGradGradGradGradGradGradGradGradGradGradGradGrad
 Berny optimization.
 Using GEDIIS/GDIIS optimizer.
 FormGI is forming the generalized inverse of G from B-inverse, IUseBI=4.
 Internal  Forces:  Max     0.002565083 RMS     0.000894947
 Search for a local minimum.
 Step number   2 out of a maximum of  100
 All quantities printed in internal units (Hartrees-Bohrs-Radians)
 Mixed Optimization -- En-DIIS/RFO-DIIS
 Update second derivatives using D2CorX and points    1    2
 DE= -6.40D-03 DEPred=-5.81D-03 R= 1.10D+00
 TightC=F SS=  1.41D+00  RLast= 2.12D-01 DXNew= 5.0454D-01 6.3682D-01
 Trust test= 1.10D+00 RLast= 2.12D-01 DXMaxT set to 5.05D-01
 ITU=  1  0
 Use linear search instead of GDIIS.
     Eigenvalues ---    0.00911   0.00988   0.01432   0.01471   0.01553
     Eigenvalues ---    0.01793   0.01874   0.02012   0.04363   0.05656
     Eigenvalues ---    0.06167   0.06240   0.06348   0.07023   0.07404
     Eigenvalues ---    0.08056   0.09252   0.09525   0.10502   0.14513
     Eigenvalues ---    0.15070   0.17527   0.19556   0.20745   0.22251
     Eigenvalues ---    0.25833   0.26403   0.26559   0.27163   0.27680
     Eigenvalues ---    0.29313   0.33557   0.33557   0.35917   0.36005
     Eigenvalues ---    0.37558   0.37569   0.37579   0.39943
 RFO step:  Lambda=-5.10519505D-04 EMin= 9.11453794D-03
 Quartic linear search produced a step of  0.15742.
 Iteration  1 RMS(Cart)=  0.00931631 RMS(Int)=  0.00010247
 Iteration  2 RMS(Cart)=  0.00007978 RMS(Int)=  0.00006340
 Iteration  3 RMS(Cart)=  0.00000001 RMS(Int)=  0.00006340
 ClnCor:  largest displacement from symmetrization is 2.85D-12 for atom     9.
 Variable       Old X    -DE/DX   Delta X   Delta X   Delta X     New X
                                 (Linear)    (Quad)   (Total)
    R1        2.85789  -0.00196  -0.00848  -0.00161  -0.01008   2.84781
    R2        2.91317   0.00078  -0.00210   0.00438   0.00226   2.91543
    R3        2.05799  -0.00025   0.00648  -0.00579   0.00069   2.05868
    R4        2.85591  -0.00257  -0.00981  -0.00246  -0.01230   2.84361
    R5        2.85988   0.00033  -0.00530   0.00620   0.00093   2.86082
    R6        2.85771  -0.00194  -0.00845  -0.00148  -0.00992   2.84779
    R7        2.06078  -0.00009   0.00294  -0.00256   0.00038   2.06115
    R8        2.85771  -0.00194  -0.00845  -0.00148  -0.00992   2.84779
    R9        2.85988   0.00033  -0.00530   0.00620   0.00093   2.86082
   R10        2.85789  -0.00196  -0.00848  -0.00161  -0.01008   2.84781
   R11        2.06078  -0.00009   0.00294  -0.00256   0.00038   2.06115
   R12        2.05801  -0.00026   0.00643  -0.00577   0.00066   2.05867
   R13        2.85591  -0.00257  -0.00981  -0.00246  -0.01230   2.84361
   R14        2.08083  -0.00003   0.00000  -0.00009  -0.00009   2.08074
   R15        2.08083  -0.00003   0.00000  -0.00009  -0.00009   2.08074
   R16        2.05801  -0.00026   0.00643  -0.00577   0.00066   2.05867
   R17        2.91317   0.00078  -0.00210   0.00438   0.00226   2.91543
   R18        2.05799  -0.00025   0.00648  -0.00579   0.00069   2.05868
    A1        1.82721  -0.00043  -0.00076  -0.00204  -0.00281   1.82441
    A2        2.19602  -0.00089  -0.00255  -0.00930  -0.01191   2.18411
    A3        2.19063   0.00153   0.00390   0.01222   0.01616   2.20679
    A4        1.57077   0.00000   0.00001  -0.00014  -0.00012   1.57064
    A5        2.27399  -0.00119  -0.00309  -0.00725  -0.01040   2.26359
    A6        1.91992   0.00119   0.00145   0.00618   0.00762   1.92754
    A7        2.10739  -0.00182  -0.00425  -0.01462  -0.01903   2.08836
    A8        1.91995   0.00119   0.00143   0.00640   0.00782   1.92777
    A9        2.10423   0.00091   0.00375   0.01076   0.01463   2.11886
   A10        2.10758  -0.00182  -0.00428  -0.01478  -0.01922   2.08835
   A11        1.91995   0.00119   0.00143   0.00640   0.00782   1.92777
   A12        2.10758  -0.00182  -0.00428  -0.01478  -0.01922   2.08835
   A13        1.91992   0.00119   0.00145   0.00618   0.00762   1.92754
   A14        2.10423   0.00091   0.00375   0.01076   0.01463   2.11886
   A15        2.10739  -0.00182  -0.00425  -0.01462  -0.01903   2.08836
   A16        1.82731  -0.00044  -0.00077  -0.00229  -0.00306   1.82425
   A17        2.19061   0.00153   0.00390   0.01223   0.01617   2.20679
   A18        1.57083   0.00000  -0.00001   0.00014   0.00012   1.57095
   A19        2.19607  -0.00089  -0.00254  -0.00920  -0.01180   2.18427
   A20        2.27365  -0.00119  -0.00305  -0.00727  -0.01039   2.26326
   A21        1.73524  -0.00169  -0.00139  -0.00964  -0.01100   1.72424
   A22        1.95771   0.00046  -0.00035   0.00186   0.00147   1.95919
   A23        1.95767   0.00045  -0.00038   0.00166   0.00125   1.95892
   A24        1.95767   0.00045  -0.00038   0.00166   0.00125   1.95892
   A25        1.95771   0.00046  -0.00035   0.00186   0.00147   1.95919
   A26        1.89553  -0.00017   0.00250   0.00196   0.00447   1.89999
   A27        2.27365  -0.00119  -0.00305  -0.00727  -0.01039   2.26326
   A28        1.57083   0.00000  -0.00001   0.00014   0.00012   1.57095
   A29        2.19607  -0.00089  -0.00254  -0.00920  -0.01180   2.18427
   A30        1.82731  -0.00044  -0.00077  -0.00229  -0.00306   1.82425
   A31        2.19061   0.00153   0.00390   0.01223   0.01617   2.20679
   A32        1.82721  -0.00043  -0.00076  -0.00204  -0.00281   1.82441
   A33        2.19602  -0.00089  -0.00255  -0.00930  -0.01191   2.18411
   A34        1.57077   0.00000   0.00001  -0.00014  -0.00012   1.57064
   A35        2.27399  -0.00119  -0.00309  -0.00725  -0.01040   2.26359
   A36        2.19063   0.00153   0.00390   0.01222   0.01616   2.20679
    D1        0.36348   0.00042   0.00022   0.00311   0.00333   0.36681
    D2        2.94302   0.00131   0.00330   0.01133   0.01444   2.95746
    D3       -2.40142  -0.00049  -0.00234  -0.00242  -0.00465  -2.40608
    D4        0.17811   0.00040   0.00073   0.00580   0.00645   0.18457
    D5       -0.00007   0.00000   0.00004  -0.00050  -0.00045  -0.00052
    D6       -2.76685  -0.00022  -0.00066   0.00041  -0.00020  -2.76705
    D7        1.02796   0.00019   0.00043   0.00006   0.00050   1.02846
    D8        2.76637   0.00022   0.00073  -0.00107  -0.00038   2.76599
    D9       -0.00041   0.00000   0.00004  -0.00016  -0.00012  -0.00053
   D10       -2.48879   0.00041   0.00112  -0.00051   0.00058  -2.48821
   D11       -1.02797  -0.00020  -0.00037  -0.00101  -0.00140  -1.02937
   D12        2.48844  -0.00042  -0.00107  -0.00010  -0.00114   2.48729
   D13        0.00006  -0.00001   0.00001  -0.00045  -0.00044  -0.00039
   D14       -2.43623  -0.00132  -0.00342  -0.01263  -0.01593  -2.45216
   D15       -0.00005   0.00001  -0.00001   0.00044   0.00043   0.00038
   D16        0.00023   0.00000  -0.00001   0.00009   0.00008   0.00031
   D17        2.43641   0.00133   0.00340   0.01316   0.01644   2.45285
   D18       -0.56068  -0.00014  -0.00002  -0.00138  -0.00141  -0.56209
   D19       -2.63282   0.00009   0.00135   0.00129   0.00263  -2.63019
   D20        1.51148  -0.00036  -0.00138  -0.00390  -0.00528   1.50621
   D21        0.56065   0.00014   0.00005   0.00110   0.00115   0.56180
   D22       -1.51149   0.00037   0.00142   0.00377   0.00519  -1.50630
   D23        2.63281  -0.00008  -0.00131  -0.00142  -0.00272   2.63010
   D24       -3.14140  -0.00001  -0.00003  -0.00012  -0.00015  -3.14154
   D25        1.06965   0.00022   0.00135   0.00255   0.00389   1.07354
   D26       -1.06923  -0.00022  -0.00139  -0.00264  -0.00402  -1.07325
   D27        2.40187   0.00048   0.00227   0.00288   0.00505   2.40692
   D28       -0.36337  -0.00042  -0.00029  -0.00228  -0.00257  -0.36594
   D29       -0.17803  -0.00039  -0.00072  -0.00544  -0.00608  -0.18411
   D30       -2.94327  -0.00130  -0.00329  -0.01060  -0.01370  -2.95697
   D31       -0.36337  -0.00042  -0.00029  -0.00228  -0.00257  -0.36594
   D32        2.40187   0.00048   0.00227   0.00288   0.00505   2.40692
   D33       -2.94327  -0.00130  -0.00329  -0.01060  -0.01370  -2.95697
   D34       -0.17803  -0.00039  -0.00072  -0.00544  -0.00608  -0.18411
   D35        0.56065   0.00014   0.00005   0.00110   0.00115   0.56180
   D36        2.63281  -0.00008  -0.00131  -0.00142  -0.00272   2.63010
   D37       -1.51149   0.00037   0.00142   0.00377   0.00519  -1.50630
   D38       -0.56068  -0.00014  -0.00002  -0.00138  -0.00141  -0.56209
   D39        1.51148  -0.00036  -0.00138  -0.00390  -0.00528   1.50621
   D40       -2.63282   0.00009   0.00135   0.00129   0.00263  -2.63019
   D41       -3.14140  -0.00001  -0.00003  -0.00012  -0.00015  -3.14154
   D42       -1.06923  -0.00022  -0.00139  -0.00264  -0.00402  -1.07325
   D43        1.06965   0.00022   0.00135   0.00255   0.00389   1.07354
   D44        0.36348   0.00042   0.00022   0.00311   0.00333   0.36681
   D45       -2.40142  -0.00049  -0.00234  -0.00242  -0.00465  -2.40608
   D46        2.94302   0.00131   0.00330   0.01133   0.01444   2.95746
   D47        0.17811   0.00040   0.00073   0.00580   0.00645   0.18457
   D48       -0.00005   0.00001  -0.00001   0.00044   0.00043   0.00038
   D49        2.43641   0.00133   0.00340   0.01316   0.01644   2.45285
   D50       -2.43623  -0.00132  -0.00342  -0.01263  -0.01593  -2.45216
   D51        0.00023   0.00000  -0.00001   0.00009   0.00008   0.00031
   D52        1.02796   0.00019   0.00043   0.00006   0.00050   1.02846
   D53        0.00006  -0.00001   0.00001  -0.00045  -0.00044  -0.00039
   D54       -2.48879   0.00041   0.00112  -0.00051   0.00058  -2.48821
   D55       -0.00007   0.00000   0.00004  -0.00050  -0.00045  -0.00052
   D56       -1.02797  -0.00020  -0.00037  -0.00101  -0.00140  -1.02937
   D57        2.76637   0.00022   0.00073  -0.00107  -0.00038   2.76599
   D58       -2.76685  -0.00022  -0.00066   0.00041  -0.00020  -2.76705
   D59        2.48844  -0.00042  -0.00107  -0.00010  -0.00114   2.48729
   D60       -0.00041   0.00000   0.00004  -0.00016  -0.00012  -0.00053
         Item               Value     Threshold  Converged?
 Maximum Force            0.002565     0.000450     NO 
 RMS     Force            0.000895     0.000300     NO 
 Maximum Displacement     0.041482     0.001800     NO 
 RMS     Displacement     0.009346     0.001200     NO 
 Predicted change in Energy=-3.872472D-04
 GradGradGradGradGradGradGradGradGradGradGradGradGradGradGradGradGradGrad

                          Input orientation:                          
 ---------------------------------------------------------------------
 Center     Atomic      Atomic             Coordinates (Angstroms)
 Number     Number       Type             X           Y           Z
 ---------------------------------------------------------------------
      1          6           0        0.011821   -1.077575   -0.697939
      2          6           0        0.811671   -0.813791    0.551742
      3          6           0       -0.811671    0.813791    0.551742
      4          6           0       -1.077367    0.015053   -0.698229
      5          1           0       -0.024051   -2.027150   -1.230697
      6          1           0       -2.026699   -0.017768   -1.231598
      7          6           0        0.000000    0.000000    1.537017
      8          1           0        0.634010    0.632606    2.177500
      9          1           0       -0.634010   -0.632606    2.177500
     10          6           0        1.077367   -0.015053   -0.698229
     11          1           0        2.026699    0.017768   -1.231598
     12          6           0       -0.011821    1.077575   -0.697939
     13          1           0        0.024051    2.027150   -1.230697
     14          1           0        1.544210   -1.548308    0.888689
     15          1           0       -1.544210    1.548308    0.888689
 ---------------------------------------------------------------------
                    Distance matrix (angstroms):
                    1          2          3          4          5
     1  C    0.000000
     2  C    1.506998   0.000000
     3  C    2.411868   2.298753   0.000000
     4  C    1.542779   2.412027   1.506985   0.000000
     5  H    1.089409   2.312522   3.445052   2.358727   0.000000
     6  H    2.358718   3.445330   2.312593   1.089400   2.836939
     7  C    2.481196   1.513880   1.513880   2.481384   3.430767
     8  H    3.402938   2.183282   2.183097   3.402940   4.373004
     9  H    2.980477   2.183097   2.183282   2.980913   3.732641
    10  C    1.504773   1.506985   2.412027   2.154944   2.354820
    11  H    2.354634   2.312593   3.445330   3.149558   2.896078
    12  C    2.155280   2.411868   1.506998   1.504773   3.150127
    13  H    3.150127   3.445052   2.312522   2.354820   4.054586
    14  H    2.255481   1.090716   3.353092   3.440214   2.679651
    15  H    3.440041   3.353092   1.090716   2.255464   4.425674
                    6          7          8          9         10
     6  H    0.000000
     7  C    3.431189   0.000000
     8  H    4.373135   1.101081   0.000000
     9  H    3.733572   1.101081   1.791268   0.000000
    10  C    3.149558   2.481384   2.980913   3.402940   0.000000
    11  H    4.053555   3.431189   3.733572   4.373135   1.089400
    12  C    2.354634   2.481196   2.980477   3.402938   1.542779
    13  H    2.896078   3.430767   3.732641   4.373004   2.358727
    14  H    4.426010   2.280827   2.691819   2.691503   2.255464
    15  H    2.679740   2.280827   2.691503   2.691819   3.440214
                   11         12         13         14         15
    11  H    0.000000
    12  C    2.358718   0.000000
    13  H    2.836939   1.089409   0.000000
    14  H    2.679740   3.440041   4.425674   0.000000
    15  H    4.426010   2.255481   2.679651   4.373485   0.000000
 Stoichiometry    C7H8
 Framework group  C2[C2(C),X(C6H8)]
 Deg. of freedom    20
 Full point group                 C2      NOp   2
 Largest Abelian subgroup         C2      NOp   2
 Largest concise Abelian subgroup C2      NOp   2
                         Standard orientation:                         
 ---------------------------------------------------------------------
 Center     Atomic      Atomic             Coordinates (Angstroms)
 Number     Number       Type             X           Y           Z
 ---------------------------------------------------------------------
      1          6           0        0.000000    1.077640   -0.703874
      2          6           0       -0.802695    0.822646    0.545806
      3          6           0        0.802695   -0.822646    0.545806
      4          6           0        1.077137   -0.026870   -0.704164
      5          1           0        0.046286    2.026765   -1.236633
      6          1           0        2.026772   -0.004465   -1.237534
      7          6           0        0.000000    0.000000    1.531081
      8          1           0       -0.640911   -0.625614    2.171564
      9          1           0        0.640911    0.625614    2.171564
     10          6           0       -1.077137    0.026870   -0.704164
     11          1           0       -2.026772    0.004465   -1.237534
     12          6           0        0.000000   -1.077640   -0.703874
     13          1           0       -0.046286   -2.026765   -1.236633
     14          1           0       -1.527133    1.565154    0.882753
     15          1           0        1.527133   -1.565154    0.882753
 ---------------------------------------------------------------------
 Rotational constants (GHZ):      4.4509589      4.3847183      3.2748916
 Standard basis: def2SVP (5D, 7F)
 There are    74 symmetry adapted cartesian basis functions of A   symmetry.
 There are    71 symmetry adapted cartesian basis functions of B   symmetry.
 There are    70 symmetry adapted basis functions of A   symmetry.
 There are    68 symmetry adapted basis functions of B   symmetry.
   138 basis functions,   231 primitive gaussians,   145 cartesian basis functions
    25 alpha electrons       25 beta electrons
       nuclear repulsion energy       297.2887876007 Hartrees.
 NAtoms=   15 NActive=   15 NUniq=    8 SFac= 3.52D+00 NAtFMM=   60 NAOKFM=F Big=F
 Integral buffers will be    131072 words long.
 Raffenetti 2 integral format.
 Two-electron integral symmetry is turned on.
 Nuclear repulsion after empirical dispersion term =      297.2886216667 Hartrees.
 ------------------------------------------------------------------------------
 Polarizable Continuum Model (PCM)
 =================================
 Model                : C-PCM.
 Atomic radii         : UFF (Universal Force Field).
 Polarization charges : Total charges.
 Charge compensation  : None.
 Solution method      : On-the-fly selection.
 Cavity type          : Scaled VdW (van der Waals Surface) (Alpha=1.100).
 Cavity algorithm     : GePol (No added spheres)
                        Default sphere list used, NSphG=   15.
                        Lebedev-Laikov grids with approx.  5.0 points / Ang**2.
                        Smoothing algorithm: Karplus/York (Gamma=1.0000).
                        Polarization charges: spherical gaussians, with
                                              point-specific exponents (IZeta= 3).
                        Self-potential: point-specific (ISelfS= 7).
                        Self-field    : sphere-specific E.n sum rule (ISelfD= 2).
 1st derivatives      : Analytical E(r).r(x)/FMM algorithm (CHGder, D1EAlg=3).
                        Cavity 1st derivative terms included.
 Solvent              : Toluene, Eps=   2.374100 Eps(inf)=   2.238315
 ------------------------------------------------------------------------------
 Spheres list:
 ISph  on   Nord     Re0    Alpha      Xe            Ye            Ze
    1   C      1    1.9255  1.100      0.000000      1.077640     -0.703874
    2   C      2    1.9255  1.100     -0.802695      0.822646      0.545806
    3   C      3    1.9255  1.100      0.802695     -0.822646      0.545806
    4   C      4    1.9255  1.100      1.077137     -0.026870     -0.704164
    5   H      5    1.4430  1.100      0.046286      2.026765     -1.236633
    6   H      6    1.4430  1.100      2.026772     -0.004465     -1.237534
    7   C      7    1.9255  1.100      0.000000      0.000000      1.531081
    8   H      8    1.4430  1.100     -0.640911     -0.625614      2.171564
    9   H      9    1.4430  1.100      0.640911      0.625614      2.171564
   10   C     10    1.9255  1.100     -1.077137      0.026870     -0.704164
   11   H     11    1.4430  1.100     -2.026772      0.004465     -1.237534
   12   C     12    1.9255  1.100      0.000000     -1.077640     -0.703874
   13   H     13    1.4430  1.100     -0.046286     -2.026765     -1.236633
   14   H     14    1.4430  1.100     -1.527133      1.565154      0.882753
   15   H     15    1.4430  1.100      1.527133     -1.565154      0.882753
 ------------------------------------------------------------------------------
 One-electron integrals computed using PRISM.
   2 Symmetry operations used in ECPInt.
 ECPInt:  NShTT=    2211 NPrTT=    7865 LenC2=    2212 LenP2D=    6779.
 LDataN:  DoStor=T MaxTD1= 4 Len=   56
[...]
 ! D9    D(5,1,4,6)             -0.0017         -DE/DX =    0.0                 !
 ! D10   D(5,1,4,12)          -142.6789         -DE/DX =    0.0                 !
 ! D11   D(10,1,4,3)           -58.9479         -DE/DX =    0.0                 !
 ! D12   D(10,1,4,6)           142.6868         -DE/DX =    0.0                 !
 ! D13   D(10,1,4,12)            0.0095         -DE/DX =    0.0                 !
 ! D14   D(4,1,10,11)         -141.2846         -DE/DX =    0.0                 !
 ! D15   D(4,1,10,12)           -0.0093         -DE/DX =    0.0                 !
 ! D16   D(5,1,10,11)            0.0004         -DE/DX =    0.0                 !
 ! D17   D(5,1,10,12)          141.2756         -DE/DX =    0.0                 !
 ! D18   D(1,2,7,3)            -32.2491         -DE/DX =    0.0                 !
 ! D19   D(1,2,7,8)           -150.632          -DE/DX =    0.0                 !
 ! D20   D(1,2,7,9)             86.139          -DE/DX =    0.0                 !
 ! D21   D(10,2,7,3)            32.2551         -DE/DX =    0.0                 !
 ! D22   D(10,2,7,8)           -86.1279         -DE/DX =    0.0                 !
 ! D23   D(10,2,7,9)           150.6431         -DE/DX =    0.0                 !
 ! D24   D(14,2,7,3)          -179.996          -DE/DX =    0.0                 !
 ! D25   D(14,2,7,8)            61.621          -DE/DX =    0.0                 !
 ! D26   D(14,2,7,9)           -61.608          -DE/DX =    0.0                 !
 ! D27   D(7,2,10,11)          137.9916         -DE/DX =    0.0                 !
 ! D28   D(7,2,10,12)          -21.0783         -DE/DX =    0.0                 !
 ! D29   D(14,2,10,11)         -10.9354         -DE/DX =    0.0                 !
 ! D30   D(14,2,10,12)        -170.0053         -DE/DX =    0.0                 !
 ! D31   D(7,3,4,1)            -21.0783         -DE/DX =    0.0                 !
 ! D32   D(7,3,4,6)            137.9916         -DE/DX =    0.0                 !
 ! D33   D(15,3,4,1)          -170.0053         -DE/DX =    0.0                 !
 ! D34   D(15,3,4,6)           -10.9354         -DE/DX =    0.0                 !
 ! D35   D(4,3,7,2)             32.2551         -DE/DX =    0.0                 !
 ! D36   D(4,3,7,8)            150.6431         -DE/DX =    0.0                 !
 ! D37   D(4,3,7,9)            -86.1279         -DE/DX =    0.0                 !
 ! D38   D(12,3,7,2)           -32.2491         -DE/DX =    0.0                 !
 ! D39   D(12,3,7,8)            86.139          -DE/DX =    0.0                 !
 ! D40   D(12,3,7,9)          -150.632          -DE/DX =    0.0                 !
 ! D41   D(15,3,7,2)          -179.996          -DE/DX =    0.0                 !
 ! D42   D(15,3,7,8)           -61.608          -DE/DX =    0.0                 !
 ! D43   D(15,3,7,9)            61.621          -DE/DX =    0.0                 !
 ! D44   D(7,3,12,10)           21.0598         -DE/DX =    0.0                 !
 ! D45   D(7,3,12,13)         -137.9977         -DE/DX =    0.0                 !
 ! D46   D(15,3,12,10)         169.9869         -DE/DX =    0.0                 !
 ! D47   D(15,3,12,13)          10.9294         -DE/DX =    0.0                 !
 ! D48   D(1,4,12,10)           -0.0093         -DE/DX =    0.0                 !
 ! D49   D(1,4,12,13)          141.2756         -DE/DX =    0.0                 !
 ! D50   D(6,4,12,10)         -141.2846         -DE/DX =    0.0                 !
 ! D51   D(6,4,12,13)            0.0004         -DE/DX =    0.0                 !
 ! D52   D(1,10,12,3)           58.9685         -DE/DX =    0.0                 !
 ! D53   D(1,10,12,4)            0.0095         -DE/DX =    0.0                 !
 ! D54   D(1,10,12,13)        -142.6789         -DE/DX =    0.0                 !
 ! D55   D(2,10,12,3)            0.0111         -DE/DX =    0.0                 !
 ! D56   D(2,10,12,4)          -58.9479         -DE/DX =    0.0                 !
 ! D57   D(2,10,12,13)         158.3637         -DE/DX =    0.0                 !
 ! D58   D(11,10,12,3)        -158.3542         -DE/DX =    0.0                 !
 ! D59   D(11,10,12,4)         142.6868         -DE/DX =    0.0                 !
 ! D60   D(11,10,12,13)         -0.0017         -DE/DX =    0.0                 !
 --------------------------------------------------------------------------------
 GradGradGradGradGradGradGradGradGradGradGradGradGradGradGradGradGradGrad

 1\1\GINC-D8S4B1\Freq\RM062X\def2SVP\C7H8\CHMKSH\07-Sep-2020\0\\#N Geom
 =AllCheck Guess=TCheck SCRF=Check GenChk RM062X/def2SVP Freq\\Title Ca
 rd Required\\0,1\C,0.0112281513,-1.0782681849,-0.6991588004\C,0.810155
 2852,-0.8125565946,0.5527763403\C,-0.8101552852,0.8125565946,0.5527763
 403\C,-1.0782779226,0.0142602621,-0.6990332218\H,-0.0141519877,-2.0306
 801252,-1.2255398673\H,-2.0308034124,-0.0084112052,-1.2253264776\C,0.,
 0.,1.5405275869\H,0.6345571861,0.6327951459,2.1794955844\H,-0.63455718
 61,-0.6327951459,2.1794955844\C,1.0782779226,-0.0142602621,-0.69903322
 18\H,2.0308034124,0.0084112052,-1.2253264776\C,-0.0112281513,1.0782681
 849,-0.6991588004\H,0.0141519877,2.0306801252,-1.2255398673\H,1.545864
 7986,-1.5505371287,0.8744986489\H,-1.5458647986,1.5505371287,0.8744986
 489\\Version=ES64L-G09RevD.01\State=1-A\HF=-271.1396382\RMSD=1.901e-09
 \RMSF=3.047e-05\ZeroPoint=0.129212\Thermal=0.1337839\Dipole=0.,0.,-0.0
 104481\DipoleDeriv=-0.1509022,-0.1122841,-0.0525439,-0.0891551,0.02767
 72,-0.0816159,-0.0469647,-0.1113518,-0.0226183,0.0404273,0.0633173,-0.
 0297733,0.0633128,0.0401355,0.0299113,-0.0605083,0.0607071,-0.0841483,
 0.0404273,0.0633173,0.0297733,0.0633128,0.0401355,-0.0299113,0.0605083
 ,-0.0607071,-0.0841483,0.0270319,-0.0896415,-0.0817289,-0.1127951,-0.1
 504549,-0.0522654,-0.1113953,-0.0465587,-0.0226021,0.0672741,0.0278962
 ,-0.017953,0.0069331,-0.0471219,-0.0868488,-0.0370305,-0.078539,0.0674
 162,-0.0470418,0.0072595,-0.0868909,0.0282317,0.0671904,-0.0177073,-0.
 0786653,-0.0368284,0.0674015,0.0723677,0.1090736,0.,0.1091056,0.071722
 1,0.,0.,0.,0.0542225,-0.0058215,-0.0670347,-0.1026771,-0.0670425,-0.00
 5438,-0.1024103,-0.05798,-0.0578119,-0.0682187,-0.0058216,-0.0670346,0
 .1026771,-0.0670425,-0.005438,0.1024102,0.05798,0.0578119,-0.0682187,0
 .027032,-0.0896415,0.0817289,-0.1127951,-0.1504549,0.0522654,0.1113953
 ,0.0465588,-0.0226021,-0.0470418,0.0072595,0.0868909,0.0282317,0.06719
 04,0.0177073,0.0786653,0.0368283,0.0674016,-0.1509023,-0.1122841,0.052
 5439,-0.0891551,0.0276771,0.0816159,0.0469647,0.1113518,-0.0226183,0.0
 672741,0.0278962,0.017953,0.0069331,-0.0471219,0.0868488,0.0370305,0.0
 78539,0.0674162,0.0328484,0.1159505,-0.031106,0.1159623,0.0321507,0.03
 1217,-0.0225855,0.0226632,0.0356584,0.0328484,0.1159505,0.031106,0.115
 9623,0.0321507,-0.031217,0.0225855,-0.0226632,0.0356584\Polar=70.30573
 27,-2.1946765,70.3200319,0.,0.,74.1479864\PG=C02 [C2(C1),X(C6H8)]\NIma
 g=0\\0.42173709,0.01301997,0.66228744,0.08235029,0.21562176,0.38314090
 ,-0.08856352,0.00065368,-0.06187689,0.48384008,0.00550374,-0.05875990,
 -0.03094031,-0.23246527,0.48523347,-0.09508779,-0.05491770,-0.15872417
 ,0.05626516,-0.05647021,0.55149774,-0.00223864,0.00352179,0.01333532,-
 0.02450964,0.02735675,-0.00344377,0.48384008,0.01361487,-0.01916548,-0
 .02236832,0.02735675,-0.02467032,0.00345299,-0.23246527,0.48523347,0.0
 1362206,-0.00812413,-0.00027547,0.00344377,-0.00345299,0.00967674,-0.0
 5626516,0.05647021,0.55149774,-0.11549048,0.06644634,-0.01211955,-0.01
 912310,0.00357291,-0.00809283,-0.05875547,0.00055642,-0.05520655,0.662
 39063,0.09127780,-0.11593583,-0.01696098,0.01366850,-0.00229435,0.0136
 4711,0.00540507,-0.08859460,-0.09494555,0.01234655,0.42167257,-0.01698
 588,-0.01208230,-0.06587728,-0.02233726,0.01339859,-0.00027834,-0.0311
 3618,-0.06180202,-0.15871015,0.21584869,0.08173806,0.38312342,-0.04759
 215,0.00035167,-0.00521291,-0.00430245,-0.00808007,-0.00192565,-0.0024
 7170,0.00251292,-0.00008524,0.00763638,0.01069264,0.01427215,0.0405114
 4,-0.00115419,-0.27894695,-0.13769880,-0.00248084,0.00633999,0.0042245
 2,0.00025609,-0.00057428,0.00197086,-0.00447421,-0.00484506,-0.0037214
 3,0.00345366,0.28733134,-0.00522725,-0.13620102,-0.10527805,0.00365353
 ,-0.02157066,-0.00583256,0.00004523,-0.00003638,-0.00222442,-0.0001376
 2,0.00483961,-0.00011344,0.00737030,0.14235579,0.10832699,-0.00482724,
 -0.00444025,-0.00368025,-0.00056685,0.00024999,0.00196982,0.00630667,-
 0.00251112,0.00421762,-0.27897466,-0.00049624,-0.13769654,0.00079596,0
 .00010620,-0.00008784,0.28738031,0.01072763,0.00761806,0.01428222,0.00
 250746,-0.00247957,-0.00009014,-0.00811316,-0.00427256,-0.00193859,0.0
 0101139,-0.04758953,-0.00482216,-0.00088200,0.00079843,-0.00074810,0.0
 0275277,0.04049303,0.00483973,-0.00014941,-0.00011391,-0.00003616,0.00
 004601,-0.00222449,-0.02156040,0.00371618,-0.00583223,-0.13620588,-0.0
 0484356,-0.10525990,-0.00074821,-0.00008577,0.00042487,0.14236254,0.00
 696780,0.10830651,0.00774766,-0.00966214,-0.01152886,-0.11263743,0.044
 19892,0.05089989,-0.11263743,0.04419892,-0.05089989,-0.00870600,0.0041
 3527,-0.01944311,-0.00124583,0.00128173,-0.00310732,0.00100839,0.00022
 240,-0.00237432,0.51636992,0.00408517,-0.00868752,-0.01940220,0.044198
 93,-0.11289162,-0.05105144,0.04419893,-0.11289162,0.05105144,-0.009613
 14,0.00776145,-0.01147761,0.00022894,0.00100437,-0.00236486,0.00127449
 ,-0.00125024,-0.00310033,0.10172369,0.51580897,0.00222835,-0.00567728,
 -0.02446502,0.04535838,-0.04549247,-0.12984066,-0.04535838,0.04549247,
 -0.12984066,-0.00567484,0.00224152,-0.02447349,0.00055864,0.00095575,-
 0.00083847,0.00095709,0.00055583,-0.00083870,0.,0.,0.60551651,-0.00187
 051,0.00349077,0.00274707,0.01286804,0.01071957,0.01272219,-0.00972357
 ,-0.01126383,-0.01020274,-0.00209344,0.00258638,-0.00074597,0.00030861
 ,-0.00040857,0.00084611,0.00040545,-0.00012496,-0.00072097,-0.13895315
 ,-0.09446523,-0.08989015,0.14566091,0.00258558,-0.00211150,-0.00075185
 ,-0.01132811,-0.00971971,-0.01023715,0.01078521,0.01286815,0.01275082,
 0.00349107,-0.00188708,0.00274999,-0.00012465,0.00040709,-0.00072334,-
 0.00040864,0.00031015,0.00084817,-0.09446697,-0.13842221,-0.08964069,0
 .09865361,0.14510426,-0.00001254,-0.00220603,-0.00197607,-0.01086865,-
 0.00747793,-0.00994123,-0.00751400,-0.01084695,-0.00994459,-0.00220673
 ,-0.00000578,-0.00197689,0.00007597,0.00035855,-0.00088375,0.00035866,
 0.00007485,-0.00088406,-0.08832747,-0.08808217,-0.13439503,0.09776973,
 0.09749150,0.14573069,0.00150160,0.00038494,-0.00020402,-0.00972357,-0
 .01126383,0.01020274,0.01286804,0.01071957,-0.01272219,0.00057972,-0.0
 0052074,0.00177490,0.00019945,-0.00003761,0.00027264,-0.00004772,-0.00
 001465,0.00001844,-0.13895315,-0.09446523,0.08989015,-0.00911823,-0.00
 879212,0.01014905,0.14566091,-0.00052311,0.00057973,0.00177476,0.01078
 521,0.01286815,-0.01275082,-0.01132811,-0.00971971,0.01023715,0.000388
 06,0.00150236,-0.00020990,-0.00001543,-0.00004756,0.00001765,-0.000036
 94,0.00019960,0.00027275,-0.09446697,-0.13842221,0.08964069,-0.0087921
 2,-0.00906722,0.01011931,0.09865361,0.14510426,-0.00043154,0.00029278,
 0.00113414,0.00751400,0.01084695,-0.00994459,0.01086865,0.00747793,-0.
 00994123,0.00029169,-0.00043270,0.00113493,0.00001764,-0.00007818,0.00
 004596,-0.00007811,0.00001795,0.00004596,0.08832747,0.08808217,-0.1343
 9503,-0.01014905,-0.01011931,0.01131617,-0.09776973,-0.09749150,0.1457
 3069,-0.13192200,-0.09075543,-0.00551005,-0.05875547,0.00055642,0.0552
 0655,-0.01912310,0.00357291,0.00809283,-0.06365114,0.00142455,0.015873
 34,0.00221352,0.00400933,-0.00482532,-0.00385029,0.00026452,0.00306757
 ,-0.00870600,-0.00961314,0.00567485,0.00057972,0.00038806,-0.00029169,
 -0.00209344,0.00349107,0.00220673,0.66239063,-0.11876793,-0.13132700,-
 0.02955518,0.00540507,-0.08859460,0.09494555,0.01366850,-0.00229435,-0
 .01364711,0.00142455,-0.01953230,-0.00268665,-0.01081704,-0.00840273,0
 .01083020,-0.00060811,-0.00042682,0.00065259,0.00413527,0.00776145,-0.
 00224152,-0.00052074,0.00150236,0.00043270,0.00258638,-0.00188708,0.00
 000578,0.01234655,0.42167257,0.02954734,0.00540508,-0.03567121,0.03113
 618,0.06180202,-0.15871015,0.02233726,-0.01339859,-0.00027834,-0.01587
 334,0.00268665,0.00971960,-0.01498122,-0.00744029,0.00456753,-0.000343
 22,-0.00112210,0.00014845,0.01944311,0.01147761,-0.02447349,-0.0017749
 0,0.00020990,0.00113493,0.00074597,-0.00274999,-0.00197689,-0.21584869
 ,-0.08173806,0.38312342,-0.00842150,0.00403993,0.00748316,0.00630667,-
 0.00251112,-0.00421762,-0.00056685,0.00024999,-0.00196982,-0.00385029,
 -0.00060811,0.00034322,0.00186031,0.00084681,-0.00080866,-0.00067804,0
 .00011669,0.00076697,0.00100839,0.00127449,-0.00095709,-0.00004772,-0.
 00003694,0.00007811,0.00040545,-0.00040864,-0.00035866,-0.27897466,-0.
 00049624,0.13769654,0.28738031,-0.01078743,0.00223153,0.01496084,-0.00
 811316,-0.00427256,0.00193859,0.00250746,-0.00247957,0.00009014,0.0002
 6452,-0.00042682,0.00112210,0.00104151,0.00185530,-0.00160896,0.000116
 69,0.00052302,-0.00016720,0.00022240,-0.00125024,-0.00055583,-0.000014
 65,0.00019960,-0.00001795,-0.00012496,0.00031015,-0.00007485,0.0010113
 9,-0.04758953,0.00482216,0.00275277,0.04049303,-0.01081848,0.00485771,
 0.00457011,0.02156040,-0.00371618,-0.00583223,0.00003616,-0.00004601,-
 0.00222449,-0.00306757,-0.00065259,0.00014845,0.00161151,0.00080430,-0
 .00008416,-0.00076697,0.00016720,0.00038959,0.00237432,0.00310032,-0.0
 0083870,-0.00001844,-0.00027275,0.00004596,0.00072097,-0.00084817,-0.0
 0088406,0.13620588,0.00484356,-0.10525990,-0.14236254,-0.00696780,0.10
 830651,-0.01953044,0.00130369,-0.00264448,-0.00223864,0.01361487,-0.01
 362206,-0.08856352,0.00550374,0.09508779,-0.13192200,-0.11876793,-0.02
 954734,-0.00042843,-0.00061879,0.00066174,-0.00842150,-0.01078743,0.01
 081848,0.00774766,0.00408517,-0.00222835,0.00150160,-0.00052311,0.0004
 3154,-0.00187051,0.00258558,0.00001254,-0.11549048,0.09127780,0.016985
 88,-0.00482724,0.01072763,-0.00483973,0.42173709,0.00130369,-0.0636747
 2,0.01588783,0.00352179,-0.01916548,0.00812413,0.00065368,-0.05875990,
 0.05491770,-0.09075543,-0.13132700,-0.00540508,0.00025420,-0.00384911,
 0.00306356,0.00403993,0.00223153,-0.00485771,-0.00966214,-0.00868752,0
 .00567728,0.00038494,0.00057973,-0.00029278,0.00349077,-0.00211150,0.0
 0220603,0.06644634,-0.11593583,0.01208230,-0.00444025,0.00761806,0.000
 14941,0.01301997,0.66228744,0.00264448,-0.01588783,0.00972354,-0.01333
 532,0.02236832,-0.00027547,0.06187689,0.03094031,-0.15872417,0.0055100
 5,0.02955518,-0.03567121,-0.00112344,-0.00033950,0.00014823,-0.0074831
 6,-0.01496084,0.00457011,0.01152886,0.01940220,-0.02446502,0.00020402,
 -0.00177476,0.00113414,-0.00274707,0.00075185,-0.00197607,0.01211955,0
 .01696098,-0.06587728,0.00368025,-0.01428222,-0.00011391,-0.08235029,-
 0.21562176,0.38314090,-0.00042843,0.00025420,0.00112344,-0.00247170,0.
 00251292,0.00008524,-0.00430245,-0.00808007,0.00192565,0.00221352,-0.0
 1081704,0.01498122,0.00052394,0.00011338,-0.00016500,0.00186031,0.0010
 4151,-0.00161151,-0.00124583,0.00022894,-0.00055864,0.00019945,-0.0000
 1543,-0.00001764,0.00030861,-0.00012465,-0.00007597,0.00763638,0.01069
 264,-0.01427215,0.00079596,-0.00088200,0.00074821,-0.04759215,0.000351
 67,0.00521291,0.04051144,-0.00061879,-0.00384911,0.00033950,0.00025609
 ,-0.00057428,-0.00197086,-0.00248084,0.00633999,-0.00422452,0.00400933
 ,-0.00840273,0.00744029,0.00011338,-0.00067892,0.00076729,0.00084681,0
 .00185530,-0.00080430,0.00128173,0.00100437,-0.00095575,-0.00003761,-0
 .00004756,0.00007818,-0.00040857,0.00040709,-0.00035855,-0.00447421,-0
 .00484506,0.00372143,0.00010620,0.00079843,0.00008577,-0.00115419,-0.2
 7894695,0.13769880,0.00345366,0.28733134,-0.00066174,-0.00306356,0.000
 14823,-0.00004523,0.00003638,-0.00222442,-0.00365353,0.02157066,-0.005
 83256,0.00482532,-0.01083020,0.00456753,0.00016500,-0.00076729,0.00038
 917,0.00080866,0.00160896,-0.00008416,0.00310732,0.00236486,-0.0008384
 7,-0.00027264,-0.00001765,0.00004596,-0.00084611,0.00072334,-0.0008837
 5,0.00013762,-0.00483961,-0.00011344,0.00008784,0.00074810,0.00042487,
 0.00522725,0.13620102,-0.10527805,-0.00737030,-0.14235579,0.10832699,-
 0.01052462,0.01293025,-0.00144186,-0.17796526,0.14575339,-0.05992839,-
 0.00215716,0.00028080,0.00103348,-0.00140930,0.00074653,-0.00201891,0.
 00104389,-0.00065997,0.00156479,-0.00004738,0.00093590,-0.00024853,-0.
 00539861,0.00342900,-0.00634999,0.00020536,0.00008387,0.00031146,0.000
 07747,-0.00029143,-0.00006418,0.01115563,-0.01107325,0.00318233,-0.000
 34340,0.00034194,-0.00163227,0.00042319,-0.00153941,0.00282041,0.00094
 706,-0.00023302,0.00005533,0.18390846,-0.01100703,0.01114747,-0.003178
 91,0.14575339,-0.17886081,0.06011905,0.00028049,-0.00215841,-0.0010364
 1,-0.00153406,0.00042657,-0.00281386,0.00033735,-0.00034257,0.00162750
 ,-0.00023007,0.00094469,-0.00005465,0.00342895,-0.00541872,0.00636711,
 -0.00029175,0.00007801,0.00006313,0.00008418,0.00020592,-0.00031137,0.
 01286569,-0.01052766,0.00142802,-0.00065551,0.00104490,-0.00155942,0.0
 0074004,-0.00140622,0.00201037,0.00093293,-0.00004934,0.00024828,-0.15
 130642,0.18483480,-0.00707531,0.01201696,-0.00387359,-0.05757707,0.057
 75914,-0.07397019,0.00285485,-0.00286335,-0.00337596,0.00011615,0.0010
 6840,-0.00246261,-0.00044288,-0.00067730,0.00139194,0.00013990,0.00044
 809,-0.00003982,0.01235476,-0.01239159,0.01209312,-0.00090831,0.000396
 49,0.00029682,-0.00039406,0.00090941,0.00029697,-0.01199300,0.00710519
 ,-0.00387063,0.00067821,0.00044096,0.00139179,-0.00106829,-0.00011497,
 -0.00246215,-0.00044833,-0.00013878,-0.00003984,0.06323985,-0.06343376
 ,0.07333741,0.00042319,-0.00153941,-0.00282041,-0.00215716,0.00028080,
 -0.00103348,-0.17796526,0.14575339,0.05992839,0.01115563,-0.01107325,-
 0.00318233,0.00094706,-0.00023302,-0.00005533,-0.00034340,0.00034194,0
 .00163227,-0.00539861,0.00342900,0.00634998,0.00007747,-0.00029143,0.0
 0006418,0.00020536,0.00008387,-0.00031146,-0.00140930,0.00074653,0.002
 01891,-0.00004738,0.00093590,0.00024853,-0.01052462,0.01293025,0.00144
 186,0.00104389,-0.00065997,-0.00156479,0.00008469,0.00060182,0.0005235
 2,0.18390846,0.00074004,-0.00140622,-0.00201037,0.00028049,-0.00215841
 ,0.00103641,0.14575339,-0.17886081,-0.06011905,0.01286569,-0.01052766,
 -0.00142802,0.00093293,-0.00004934,-0.00024828,-0.00065551,0.00104490,
 0.00155942,0.00342895,-0.00541872,-0.00636711,0.00008418,0.00020592,0.
 00031137,-0.00029175,0.00007801,-0.00006313,-0.00153406,0.00042657,0.0
 0281386,-0.00023007,0.00094469,0.00005465,-0.01100703,0.01114747,0.003
 17891,0.00033735,-0.00034257,-0.00162750,0.00060182,0.00008138,-0.0005
 2491,-0.15130642,0.18483480,0.00106829,0.00011497,-0.00246215,-0.00285
 485,0.00286335,-0.00337596,0.05757707,-0.05775914,-0.07397019,0.011993
 00,-0.00710519,-0.00387063,0.00044833,0.00013878,-0.00003984,-0.000678
 21,-0.00044096,0.00139179,-0.01235476,0.01239159,0.01209312,0.00039406
 ,-0.00090941,0.00029697,0.00090831,-0.00039649,0.00029682,-0.00011615,
 -0.00106840,-0.00246261,-0.00013990,-0.00044809,-0.00003982,0.00707531
 ,-0.01201696,-0.00387359,0.00044288,0.00067730,0.00139194,-0.00052352,
 0.00052491,0.00128674,-0.06323985,0.06343376,0.07333741\\0.00000137,-0
 .00000469,-0.00003717,0.00005739,-0.00007268,-0.00003619,-0.00005739,0
 .00007268,-0.00003619,-0.00000975,-0.00002028,0.00002134,0.00000344,0.
 00002169,-0.00000735,0.00002207,0.00000375,-0.00000316,0.,0.,0.0001106
 1,-0.00000262,0.00001066,-0.00001762,0.00000262,-0.00001066,-0.0000176
 2,0.00000975,0.00002028,0.00002134,-0.00002207,-0.00000375,-0.00000316
 ,-0.00000137,0.00000469,-0.00003717,-0.00000344,-0.00002169,-0.0000073
 5,-0.00001917,0.00000748,0.00002484,0.00001917,-0.00000748,0.00002484\
 \\@


 A SLIP OF THE FOOT YOU MAY SOON RECOVER, BUT A SLIP OF THE TONGUE
 YOU MAY NEVER GET OVER. -- BEN FRANKLIN
 Job cpu time:       0 days  0 hours  5 minutes 46.0 seconds.
 File lengths (MBytes):  RWF=     40 Int=      0 D2E=      0 Chk=      7 Scr=      1
 Normal termination of Gaussian 09 at Mon Sep  7 11:42:05 2020.
