 Entering Gaussian System, Link 0=g09
 Input=product_step1_cycloaddition_m062x_toluene_3_radical_2.com
 Output=product_step1_cycloaddition_m062x_toluene_3_radical_2.log
 Initial command:
 /apps/applications/gaussian/G09.D01/2/default/g09/l1.exe "/local/2608121.1.40core-192G.q/Gau-92068.inp" -scrdir="/local/2608121.1.40core-192G.q/"
 Entering Link 1 = /apps/applications/gaussian/G09.D01/2/default/g09/l1.exe PID=     92069.
  
 Copyright (c) 1988,1990,1992,1993,1995,1998,2003,2009,2013,
            Gaussian, Inc.  All Rights Reserved.
  
 This is part of the Gaussian(R) 09 program.  It is based on
 the Gaussian(R) 03 system (copyright 2003, Gaussian, Inc.),
 the Gaussian(R) 98 system (copyright 1998, Gaussian, Inc.),
 the Gaussian(R) 94 system (copyright 1995, Gaussian, Inc.),
 the Gaussian 92(TM) system (copyright 1992, Gaussian, Inc.),
 the Gaussian 90(TM) system (copyright 1990, Gaussian, Inc.),
 the Gaussian 88(TM) system (copyright 1988, Gaussian, Inc.),
 the Gaussian 86(TM) system (copyright 1986, Carnegie Mellon
 University), and the Gaussian 82(TM) system (copyright 1983,
 Carnegie Mellon University). Gaussian is a federally registered
 trademark of Gaussian, Inc.
  
 This software contains proprietary and confidential information,
 including trade secrets, belonging to Gaussian, Inc.
  
 This software is provided under written license and may be
 used, copied, transmitted, or stored only in accord with that
 written license.
  
 The following legend is applicable only to US Government
 contracts under FAR:
  
                    RESTRICTED RIGHTS LEGEND
  
 Use, reproduction and disclosure by the US Government is
 subject to restrictions as set forth in subparagraphs (a)
 and (c) of the Commercial Computer Software - Restricted
 Rights clause in FAR 52.227-19.
  
 Gaussian, Inc.
 340 Quinnipiac St., Bldg. 40, Wallingford CT 06492
  
  
 ---------------------------------------------------------------
 Warning -- This program may not be used in any manner that
 competes with the business of Gaussian, Inc. or will provide
 assistance to any competitor of Gaussian, Inc.  The licensee
 of this program is prohibited from giving any competitor of
 Gaussian, Inc. access to this program.  By using this program,
 the user acknowledges that Gaussian, Inc. is engaged in the
 business of creating and licensing software in the field of
 computational chemistry and represents and warrants to the
 licensee that it is not a competitor of Gaussian, Inc. and that
 it will not use this program in any manner prohibited above.
 ---------------------------------------------------------------
  

 Cite this work as:
 Gaussian 09, Revision D.01,
 M. J. Frisch, G. W. Trucks, H. B. Schlegel, G. E. Scuseria, 
 M. A. Robb, J. R. Cheeseman, G. Scalmani, V. Barone, B. Mennucci, 
 G. A. Petersson, H. Nakatsuji, M. Caricato, X. Li, H. P. Hratchian, 
 A. F. Izmaylov, J. Bloino, G. Zheng, J. L. Sonnenberg, M. Hada, 
 M. Ehara, K. Toyota, R. Fukuda, J. Hasegawa, M. Ishida, T. Nakajima, 
 Y. Honda, O. Kitao, H. Nakai, T. Vreven, J. A. Montgomery, Jr., 
 J. E. Peralta, F. Ogliaro, M. Bearpark, J. J. Heyd, E. Brothers, 
 K. N. Kudin, V. N. Staroverov, T. Keith, R. Kobayashi, J. Normand, 
 K. Raghavachari, A. Rendell, J. C. Burant, S. S. Iyengar, J. Tomasi, 
 M. Cossi, N. Rega, J. M. Millam, M. Klene, J. E. Knox, J. B. Cross, 
 V. Bakken, C. Adamo, J. Jaramillo, R. Gomperts, R. E. Stratmann, 
 O. Yazyev, A. J. Austin, R. Cammi, C. Pomelli, J. W. Ochterski, 
 R. L. Martin, K. Morokuma, V. G. Zakrzewski, G. A. Voth, 
 P. Salvador, J. J. Dannenberg, S. Dapprich, A. D. Daniels, 
 O. Farkas, J. B. Foresman, J. V. Ortiz, J. Cioslowski, 
 and D. J. Fox, Gaussian, Inc., Wallingford CT, 2013.
 
 ******************************************
 Gaussian 09:  ES64L-G09RevD.01 24-Apr-2013
                11-Jul-2021 
 ******************************************
 %nprocshared=4
 Will use up to    4 processors via shared memory.
 %chk=product_cycloaddition_m062x_toluene_2.chk
 ----------------------------------------------------------------------
 # opt freq scrf=(cpcm,solvent=toluene) geom=connectivity def2svp empir
 icaldispersion=gd3 m062x
 ----------------------------------------------------------------------
 1/14=-1,18=20,19=15,26=3,38=1,57=2/1,3;
 2/9=110,12=2,17=6,18=5,40=1/2;
 3/5=43,7=101,11=2,16=1,25=1,30=1,70=2101,71=1,72=13,74=-55,124=31/1,2,3;
 4//1;
 5/5=2,38=5,53=13/2;
 6/7=2,8=2,9=2,10=2,28=1/1;
 7//1,2,3,16;
 1/14=-1,18=20,19=15,26=3/3(2);
 2/9=110/2;
 99//99;
 2/9=110/2;
 3/5=43,7=101,11=2,16=1,25=1,30=1,70=2105,71=1,72=13,74=-55,124=31/1,2,3;
 4/5=5,16=3,69=1/1;
 5/5=2,38=5,53=13/2;
 7//1,2,3,16;
 1/14=-1,18=20,19=15,26=3/3(-5);
 2/9=110/2;
 6/7=2,8=2,9=2,10=2,19=2,28=1/1;
 99/9=1/99;
 -------------------
 Title Card Required
 -------------------
 Symbolic Z-matrix:
 Charge =  0 Multiplicity = 3
 C                     0.35291   0.71495  -0.56825 
 C                     0.7068    1.87505   0.41683 
 C                    -1.59154   1.75049   0.47607 
 C                    -1.10344   1.09099  -0.78261 
 H                     0.94137   0.78097  -1.48908 
 H                    -1.75484   0.56615  -1.47585 
 C                    -0.42939   1.7427    1.46402 
 H                    -0.44993   2.60679   2.14264 
 H                    -0.38198   0.81613   2.05511 
 C                     0.22772   3.04956  -0.38839 
 H                     0.75279   3.95521  -0.67307 
 C                    -1.14656   2.61922  -0.69456 
 H                    -1.85838   3.18113  -1.29554 
 H                     1.73745   1.87976   0.78318 
 H                    -2.63451   1.68212   0.7822 
 N                    -0.21006  -1.28933   0.79808 
 N                     0.61853  -0.61721   0.02585 
 C                    -1.56201  -1.3565    0.48414 
 C                     1.96347  -1.05412   0.12558 
 O                     2.30148  -2.04103   0.68409 
 O                    -2.43784  -1.22792   1.2957 
 O                     2.77555  -0.21633  -0.50891 
 O                    -1.76334  -1.72892  -0.78759 
 C                    -3.1226   -1.92674  -1.15347 
 H                    -3.11363  -2.27755  -2.18975 
 H                    -3.59222  -2.67145  -0.49812 
 H                    -3.68188  -0.98332  -1.07299 
 C                     4.15169  -0.58445  -0.50729 
 H                     4.67234   0.18872  -1.07891 
 H                     4.53188  -0.62488   0.52136 
 H                     4.28301  -1.56735  -0.97733 
 

 GradGradGradGradGradGradGradGradGradGradGradGradGradGradGradGradGradGrad
 Berny optimization.
 Initialization pass.
                           ----------------------------
                           !    Initial Parameters    !
                           ! (Angstroms and Degrees)  !
 --------------------------                            --------------------------
 ! Name  Definition              Value          Derivative Info.                !
 --------------------------------------------------------------------------------
 ! R1    R(1,2)                  1.5625         estimate D2E/DX2                !
 ! R2    R(1,4)                  1.5193         estimate D2E/DX2                !
 ! R3    R(1,5)                  1.0948         estimate D2E/DX2                !
 ! R4    R(1,17)                 1.4826         estimate D2E/DX2                !
 ! R5    R(2,7)                  1.5508         estimate D2E/DX2                !
 ! R6    R(2,10)                 1.5025         estimate D2E/DX2                !
 ! R7    R(2,14)                 1.0938         estimate D2E/DX2                !
 ! R8    R(3,4)                  1.5025         estimate D2E/DX2                !
 ! R9    R(3,7)                  1.5254         estimate D2E/DX2                !
 ! R10   R(3,12)                 1.5242         estimate D2E/DX2                !
 ! R11   R(3,15)                 1.0891         estimate D2E/DX2                !
 ! R12   R(4,6)                  1.0864         estimate D2E/DX2                !
 ! R13   R(4,12)                 1.5314         estimate D2E/DX2                !
 ! R14   R(7,8)                  1.0989         estimate D2E/DX2                !
 ! R15   R(7,9)                  1.1001         estimate D2E/DX2                !
 ! R16   R(10,11)                1.0849         estimate D2E/DX2                !
 ! R17   R(10,12)                1.4723         estimate D2E/DX2                !
 ! R18   R(12,13)                1.0879         estimate D2E/DX2                !
 ! R19   R(16,17)                1.3171         estimate D2E/DX2                !
 ! R20   R(16,18)                1.3895         estimate D2E/DX2                !
 ! R21   R(17,19)                1.4176         estimate D2E/DX2                !
 ! R22   R(18,21)                1.2009         estimate D2E/DX2                !
 ! R23   R(18,23)                1.3403         estimate D2E/DX2                !
 ! R24   R(19,20)                1.1833         estimate D2E/DX2                !
 ! R25   R(19,22)                1.3281         estimate D2E/DX2                !
 ! R26   R(22,28)                1.4245         estimate D2E/DX2                !
 ! R27   R(23,24)                1.4215         estimate D2E/DX2                !
 ! R28   R(24,25)                1.0941         estimate D2E/DX2                !
 ! R29   R(24,26)                1.0976         estimate D2E/DX2                !
 ! R30   R(24,27)                1.0997         estimate D2E/DX2                !
 ! R31   R(28,29)                1.0934         estimate D2E/DX2                !
 ! R32   R(28,30)                1.0974         estimate D2E/DX2                !
 ! R33   R(28,31)                1.0974         estimate D2E/DX2                !
 ! A1    A(2,1,4)               97.0239         estimate D2E/DX2                !
 ! A2    A(2,1,5)              111.3313         estimate D2E/DX2                !
 ! A3    A(2,1,17)             111.9571         estimate D2E/DX2                !
 ! A4    A(4,1,5)              112.4349         estimate D2E/DX2                !
 ! A5    A(4,1,17)             116.7858         estimate D2E/DX2                !
 ! A6    A(5,1,17)             107.1528         estimate D2E/DX2                !
 ! A7    A(1,2,7)              101.3273         estimate D2E/DX2                !
 ! A8    A(1,2,10)              99.8055         estimate D2E/DX2                !
 ! A9    A(1,2,14)             115.3248         estimate D2E/DX2                !
 ! A10   A(7,2,10)             101.2444         estimate D2E/DX2                !
 ! A11   A(7,2,14)             117.6797         estimate D2E/DX2                !
 ! A12   A(10,2,14)            118.4618         estimate D2E/DX2                !
 ! A13   A(4,3,7)              107.0274         estimate D2E/DX2                !
 ! A14   A(4,3,15)             121.2663         estimate D2E/DX2                !
 ! A15   A(7,3,12)             106.1369         estimate D2E/DX2                !
 ! A16   A(7,3,15)             123.1775         estimate D2E/DX2                !
 ! A17   A(12,3,15)            122.0897         estimate D2E/DX2                !
 ! A18   A(1,4,3)              107.5688         estimate D2E/DX2                !
 ! A19   A(1,4,6)              123.0371         estimate D2E/DX2                !
 ! A20   A(1,4,12)             105.4196         estimate D2E/DX2                !
 ! A21   A(3,4,6)              123.491          estimate D2E/DX2                !
 ! A22   A(6,4,12)             120.125          estimate D2E/DX2                !
 ! A23   A(2,7,3)               96.9153         estimate D2E/DX2                !
 ! A24   A(2,7,8)              111.3204         estimate D2E/DX2                !
 ! A25   A(2,7,9)              113.7744         estimate D2E/DX2                !
 ! A26   A(3,7,8)              112.4395         estimate D2E/DX2                !
 ! A27   A(3,7,9)              112.653          estimate D2E/DX2                !
 ! A28   A(8,7,9)              109.3471         estimate D2E/DX2                !
 ! A29   A(2,10,11)            129.7091         estimate D2E/DX2                !
 ! A30   A(2,10,12)            100.4042         estimate D2E/DX2                !
 ! A31   A(11,10,12)           129.8835         estimate D2E/DX2                !
 ! A32   A(3,12,10)            106.2244         estimate D2E/DX2                !
 ! A33   A(3,12,13)            121.8466         estimate D2E/DX2                !
 ! A34   A(4,12,10)            106.1033         estimate D2E/DX2                !
 ! A35   A(4,12,13)            120.1393         estimate D2E/DX2                !
 ! A36   A(10,12,13)           125.0739         estimate D2E/DX2                !
 ! A37   A(17,16,18)           120.2846         estimate D2E/DX2                !
 ! A38   A(1,17,16)            125.505          estimate D2E/DX2                !
 ! A39   A(1,17,19)            118.3644         estimate D2E/DX2                !
 ! A40   A(16,17,19)           113.4735         estimate D2E/DX2                !
 ! A41   A(16,18,21)           123.4843         estimate D2E/DX2                !
 ! A42   A(16,18,23)           111.9583         estimate D2E/DX2                !
 ! A43   A(21,18,23)           124.1517         estimate D2E/DX2                !
 ! A44   A(17,19,20)           124.1423         estimate D2E/DX2                !
 ! A45   A(17,19,22)           110.6138         estimate D2E/DX2                !
 ! A46   A(20,19,22)           125.2361         estimate D2E/DX2                !
 ! A47   A(19,22,28)           115.2852         estimate D2E/DX2                !
 ! A48   A(18,23,24)           115.2468         estimate D2E/DX2                !
 ! A49   A(23,24,25)           106.2952         estimate D2E/DX2                !
 ! A50   A(23,24,26)           110.4804         estimate D2E/DX2                !
 ! A51   A(23,24,27)           110.3709         estimate D2E/DX2                !
 ! A52   A(25,24,26)           110.579          estimate D2E/DX2                !
 ! A53   A(25,24,27)           110.3999         estimate D2E/DX2                !
 ! A54   A(26,24,27)           108.7101         estimate D2E/DX2                !
 ! A55   A(22,28,29)           106.0612         estimate D2E/DX2                !
 ! A56   A(22,28,30)           110.1976         estimate D2E/DX2                !
 ! A57   A(22,28,31)           110.2769         estimate D2E/DX2                !
 ! A58   A(29,28,30)           110.5556         estimate D2E/DX2                !
 ! A59   A(29,28,31)           110.6358         estimate D2E/DX2                !
 ! A60   A(30,28,31)           109.0892         estimate D2E/DX2                !
 ! D1    D(4,1,2,7)             51.1917         estimate D2E/DX2                !
 ! D2    D(4,1,2,10)           -52.4846         estimate D2E/DX2                !
 ! D3    D(4,1,2,14)           179.4292         estimate D2E/DX2                !
 ! D4    D(5,1,2,7)            168.6377         estimate D2E/DX2                !
 ! D5    D(5,1,2,10)            64.9614         estimate D2E/DX2                !
 ! D6    D(5,1,2,14)           -63.1248         estimate D2E/DX2                !
 ! D7    D(17,1,2,7)           -71.4408         estimate D2E/DX2                !
 ! D8    D(17,1,2,10)         -175.1171         estimate D2E/DX2                !
 ! D9    D(17,1,2,14)           56.7966         estimate D2E/DX2                !
 ! D10   D(2,1,4,3)            -30.2488         estimate D2E/DX2                !
 ! D11   D(2,1,4,6)            176.0699         estimate D2E/DX2                !
 ! D12   D(2,1,4,12)            32.9007         estimate D2E/DX2                !
 ! D13   D(5,1,4,3)           -146.8254         estimate D2E/DX2                !
 ! D14   D(5,1,4,6)             59.4934         estimate D2E/DX2                !
 ! D15   D(5,1,4,12)           -83.6758         estimate D2E/DX2                !
 ! D16   D(17,1,4,3)            88.7128         estimate D2E/DX2                !
 ! D17   D(17,1,4,6)           -64.9685         estimate D2E/DX2                !
 ! D18   D(17,1,4,12)          151.8623         estimate D2E/DX2                !
 ! D19   D(2,1,17,16)           85.0288         estimate D2E/DX2                !
 ! D20   D(2,1,17,19)          -75.2314         estimate D2E/DX2                !
 ! D21   D(4,1,17,16)          -25.5331         estimate D2E/DX2                !
 ! D22   D(4,1,17,19)          174.2067         estimate D2E/DX2                !
 ! D23   D(5,1,17,16)         -152.634          estimate D2E/DX2                !
 ! D24   D(5,1,17,19)           47.1058         estimate D2E/DX2                !
 ! D25   D(1,2,7,3)            -51.8906         estimate D2E/DX2                !
 ! D26   D(1,2,7,8)           -169.2835         estimate D2E/DX2                !
 ! D27   D(1,2,7,9)             66.6236         estimate D2E/DX2                !
 ! D28   D(10,2,7,3)            50.6371         estimate D2E/DX2                !
 ! D29   D(10,2,7,8)           -66.7558         estimate D2E/DX2                !
 ! D30   D(10,2,7,9)           169.1513         estimate D2E/DX2                !
 ! D31   D(14,2,7,3)          -178.5961         estimate D2E/DX2                !
 ! D32   D(14,2,7,8)            64.011          estimate D2E/DX2                !
 ! D33   D(14,2,7,9)           -60.0819         estimate D2E/DX2                !
 ! D34   D(1,2,10,11)         -126.9024         estimate D2E/DX2                !
 ! D35   D(1,2,10,12)           52.4785         estimate D2E/DX2                !
 ! D36   D(7,2,10,11)          129.3535         estimate D2E/DX2                !
 ! D37   D(7,2,10,12)          -51.2656         estimate D2E/DX2                !
 ! D38   D(14,2,10,11)          -0.9254         estimate D2E/DX2                !
 ! D39   D(14,2,10,12)         178.4555         estimate D2E/DX2                !
 ! D40   D(7,3,4,1)             -1.233          estimate D2E/DX2                !
 ! D41   D(7,3,4,6)            152.3006         estimate D2E/DX2                !
 ! D42   D(15,3,4,1)          -150.0509         estimate D2E/DX2                !
 ! D43   D(15,3,4,6)             3.4826         estimate D2E/DX2                !
 ! D44   D(4,3,7,2)             32.3955         estimate D2E/DX2                !
 ! D45   D(4,3,7,8)            148.9044         estimate D2E/DX2                !
 ! D46   D(4,3,7,9)            -86.9882         estimate D2E/DX2                !
 ! D47   D(12,3,7,2)           -31.3228         estimate D2E/DX2                !
 ! D48   D(12,3,7,8)            85.1862         estimate D2E/DX2                !
 ! D49   D(12,3,7,9)          -150.7064         estimate D2E/DX2                !
 ! D50   D(15,3,7,2)          -179.5263         estimate D2E/DX2                !
 ! D51   D(15,3,7,8)           -63.0173         estimate D2E/DX2                !
 ! D52   D(15,3,7,9)            61.0901         estimate D2E/DX2                !
 ! D53   D(7,3,12,10)            1.4904         estimate D2E/DX2                !
 ! D54   D(7,3,12,13)         -150.7944         estimate D2E/DX2                !
 ! D55   D(15,3,12,10)         150.1222         estimate D2E/DX2                !
 ! D56   D(15,3,12,13)          -2.1626         estimate D2E/DX2                !
 ! D57   D(1,4,12,10)           -2.1965         estimate D2E/DX2                !
 ! D58   D(1,4,12,13)          147.0322         estimate D2E/DX2                !
 ! D59   D(6,4,12,10)         -146.675          estimate D2E/DX2                !
 ! D60   D(6,4,12,13)            2.5537         estimate D2E/DX2                !
 ! D61   D(2,10,12,3)           30.3996         estimate D2E/DX2                !
 ! D62   D(2,10,12,4)          -31.1893         estimate D2E/DX2                !
 ! D63   D(2,10,12,13)        -178.4637         estimate D2E/DX2                !
 ! D64   D(11,10,12,3)        -150.2211         estimate D2E/DX2                !
 ! D65   D(11,10,12,4)         148.1901         estimate D2E/DX2                !
 ! D66   D(11,10,12,13)          0.9156         estimate D2E/DX2                !
 ! D67   D(18,16,17,1)          42.9799         estimate D2E/DX2                !
 ! D68   D(18,16,17,19)       -155.926          estimate D2E/DX2                !
 ! D69   D(17,16,18,21)       -136.4703         estimate D2E/DX2                !
 ! D70   D(17,16,18,23)         50.5773         estimate D2E/DX2                !
 ! D71   D(1,17,19,20)         173.1432         estimate D2E/DX2                !
 ! D72   D(1,17,19,22)          -7.8261         estimate D2E/DX2                !
 ! D73   D(16,17,19,20)         10.5862         estimate D2E/DX2                !
 ! D74   D(16,17,19,22)       -170.3832         estimate D2E/DX2                !
 ! D75   D(16,18,23,24)        175.0622         estimate D2E/DX2                !
 ! D76   D(21,18,23,24)          2.1654         estimate D2E/DX2                !
 ! D77   D(17,19,22,28)       -178.1054         estimate D2E/DX2                !
 ! D78   D(20,19,22,28)          0.9123         estimate D2E/DX2                !
 ! D79   D(19,22,28,29)        178.951          estimate D2E/DX2                !
 ! D80   D(19,22,28,30)        -61.364          estimate D2E/DX2                !
 ! D81   D(19,22,28,31)         59.1271         estimate D2E/DX2                !
 ! D82   D(18,23,24,25)       -176.886          estimate D2E/DX2                !
 ! D83   D(18,23,24,26)        -56.8793         estimate D2E/DX2                !
 ! D84   D(18,23,24,27)         63.3826         estimate D2E/DX2                !
 --------------------------------------------------------------------------------
 Trust Radius=3.00D-01 FncErr=1.00D-07 GrdErr=1.00D-06
 Number of steps in this run=    186 maximum allowed number of steps=    186.
 GradGradGradGradGradGradGradGradGradGradGradGradGradGradGradGradGradGrad

                          Input orientation:                          
 ---------------------------------------------------------------------
 Center     Atomic      Atomic             Coordinates (Angstroms)
 Number     Number       Type             X           Y           Z
 ---------------------------------------------------------------------
      1          6           0        0.352913    0.714951   -0.568248
      2          6           0        0.706799    1.875047    0.416829
      3          6           0       -1.591541    1.750492    0.476069
      4          6           0       -1.103435    1.090994   -0.782606
      5          1           0        0.941367    0.780969   -1.489079
      6          1           0       -1.754836    0.566154   -1.475852
      7          6           0       -0.429385    1.742695    1.464020
      8          1           0       -0.449929    2.606787    2.142639
      9          1           0       -0.381981    0.816127    2.055109
     10          6           0        0.227718    3.049564   -0.388391
     11          1           0        0.752793    3.955210   -0.673070
     12          6           0       -1.146564    2.619215   -0.694560
     13          1           0       -1.858375    3.181131   -1.295540
     14          1           0        1.737450    1.879759    0.783175
     15          1           0       -2.634514    1.682118    0.782201
     16          7           0       -0.210055   -1.289334    0.798075
     17          7           0        0.618530   -0.617205    0.025845
     18          6           0       -1.562009   -1.356499    0.484139
     19          6           0        1.963474   -1.054115    0.125580
     20          8           0        2.301476   -2.041034    0.684085
     21          8           0       -2.437835   -1.227916    1.295695
     22          8           0        2.775545   -0.216332   -0.508908
     23          8           0       -1.763335   -1.728919   -0.787589
     24          6           0       -3.122596   -1.926739   -1.153472
     25          1           0       -3.113633   -2.277554   -2.189748
     26          1           0       -3.592220   -2.671447   -0.498115
     27          1           0       -3.681879   -0.983321   -1.072987
     28          6           0        4.151693   -0.584447   -0.507288
     29          1           0        4.672335    0.188716   -1.078910
     30          1           0        4.531877   -0.624876    0.521362
     31          1           0        4.283007   -1.567350   -0.977334
 ---------------------------------------------------------------------
                    Distance matrix (angstroms):
                    1          2          3          4          5
     1  C    0.000000
     2  C    1.562509   0.000000
     3  C    2.438000   2.302475   0.000000
     4  C    1.519311   2.308751   1.502481   0.000000
     5  H    1.094790   2.210094   3.349239   2.185506   0.000000
     6  H    2.299672   3.369731   2.288956   1.086448   2.704779
     7  C    2.407979   1.550819   1.525357   2.434417   3.394801
     8  H    3.401839   2.202699   2.194077   3.358833   4.296358
     9  H    2.726226   2.233991   2.197599   2.940863   3.783352
    10  C    2.344875   1.502461   2.396786   2.400702   2.620560
    11  H    3.266523   2.348845   3.417192   3.414867   3.282870
    12  C    2.427057   2.285591   1.524158   1.531363   2.893072
    13  H    3.391282   3.349355   2.292712   2.280725   3.692802
    14  H    2.258332   1.093834   3.345625   3.338330   2.646550
    15  H    3.418164   3.366763   1.089121   2.267653   4.331017
    16  N    2.490167   3.316516   3.354509   2.993767   3.292871
    17  N    1.482612   2.524278   3.270031   2.556697   2.086650
    18  C    3.010872   3.949039   3.107142   2.793771   3.837871
    19  C    2.490963   3.200632   4.541673   3.851263   2.649407
    20  O    3.600096   4.236757   5.438246   4.853267   3.812642
    21  O    3.877794   4.504388   3.202954   3.387817   4.817633
    22  O    2.596142   3.083920   4.889787   4.102499   2.306416
    23  O    3.240234   4.532191   3.705758   2.896101   3.755934
    24  C    4.404563   5.619937   4.303668   3.649831   4.894907
    25  H    4.858116   6.215629   5.064435   4.167500   5.127234
    26  H    5.199681   6.323709   4.950282   4.520061   5.783995
    27  H    4.406635   5.445210   3.773966   3.321969   4.965909
    28  C    4.015331   4.332482   6.277234   5.522615   3.624151
    29  H    4.381222   4.561406   6.640275   5.853326   3.799885
    30  H    4.521739   4.570751   6.568156   6.033348   4.348567
    31  H    4.563101   5.155875   6.901505   6.009864   4.116193
                    6          7          8          9         10
     6  H    0.000000
     7  C    3.432771   0.000000
     8  H    4.354359   1.098909   0.000000
     9  H    3.796696   1.100073   1.794085   0.000000
    10  C    3.358633   2.360321   2.657324   3.366105   0.000000
    11  H    4.291662   3.295439   3.345594   4.310976   1.084869
    12  C    2.279358   2.437642   2.921498   3.375854   1.472274
    13  H    2.623230   3.424366   3.759610   4.358880   2.278599
    14  H    4.361745   2.275414   2.676068   2.690932   2.240603
    15  H    2.667960   2.308926   2.734633   2.728395   3.381208
    16  N    3.316614   3.112039   4.128577   2.458182   4.519445
    17  N    3.047671   2.955605   4.002068   2.678316   3.710730
    18  C    2.752334   3.442093   4.437903   2.929286   4.835062
    19  C    4.360698   3.916547   4.826515   3.566798   4.485220
    20  O    5.283600   4.731015   5.594627   4.152592   5.600434
    21  O    3.371446   3.589810   4.401594   2.996891   5.313958
    22  O    4.698044   4.242854   5.040276   4.196442   4.143914
    23  O    2.396067   4.347559   5.395333   4.057873   5.192066
    24  C    2.861680   5.250657   6.209698   5.032820   6.047607
    25  H    3.231509   6.059506   7.051360   5.920439   6.541231
    26  H    3.848897   5.773920   6.686354   5.384028   6.879966
    27  H    2.505328   4.944318   5.802984   4.890023   5.658426
    28  C    6.095005   5.503446   6.195241   5.392744   5.349556
    29  H    6.450469   5.908375   6.516367   5.980120   5.330655
    30  H    6.702998   5.577465   6.155532   5.345547   5.731923
    31  H    6.423076   6.254858   7.039768   6.052998   6.173177
                   11         12         13         14         15
    11  H    0.000000
    12  C    2.322262   0.000000
    13  H    2.793719   1.087934   0.000000
    14  H    2.719871   3.323858   4.352537   0.000000
    15  H    4.331121   2.296295   2.677021   4.376429   0.000000
    16  N    5.531418   4.287396   5.204348   3.719697   3.835072
    17  N    4.627471   3.756189   4.723185   2.839077   4.054782
    18  C    5.908612   4.167521   4.883152   4.631330   3.236094
    19  C    5.215067   4.882450   5.879066   3.015151   5.390697
    20  O    6.339971   5.958822   6.963784   3.962393   6.183485
    21  O    6.396948   4.519835   5.146841   5.230041   2.961529
    22  O    4.638991   4.843318   5.799548   2.672212   5.877058
    23  O    6.217181   4.392645   4.937169   5.267386   3.854655
    24  C    7.060223   4.978052   5.263912   6.469936   4.124185
    25  H    7.489787   5.484824   5.672083   7.046597   4.974036
    26  H    7.926054   5.831889   6.155873   7.124645   4.637881
    27  H    6.649461   4.421458   4.551632   6.404037   3.412222
    28  C    5.673490   6.194356   7.135954   3.683229   7.269987
    29  H    5.451054   6.317803   7.186908   3.865299   7.686613
    30  H    6.056842   6.651863   7.656510   3.761724   7.533088
    31  H    6.561529   6.862035   7.769550   4.632690   7.842646
                   16         17         18         19         20
    16  N    0.000000
    17  N    1.317061   0.000000
    18  C    1.389549   2.347624   0.000000
    19  C    2.287314   1.417643   3.556548   0.000000
    20  O    2.624087   2.300625   3.928751   1.183293   0.000000
    21  O    2.283506   3.365539   1.200928   4.557510   4.847298
    22  O    3.431231   2.258179   4.593528   1.328124   2.231034
    23  O    2.262796   2.751520   1.340344   3.895939   4.334274
    24  C    3.563385   4.135419   2.332890   5.316536   5.728022
    25  H    4.281872   4.647005   3.225764   5.712667   6.135003
    26  H    3.876775   4.714325   2.610683   5.819836   6.044061
    27  H    3.955765   4.453649   2.656643   5.771619   6.325077
    28  C    4.607134   3.573310   5.850246   2.325814   2.638999
    29  H    5.435571   4.278239   6.610435   3.214553   3.701474
    30  H    4.796248   3.944601   6.137761   2.633929   2.647012
    31  H    4.839109   3.916317   6.028646   2.619172   2.628908
                   21         22         23         24         25
    21  O    0.000000
    22  O    5.608852   0.000000
    23  O    2.246336   4.792391   0.000000
    24  C    2.637360   6.174870   1.421476   0.000000
    25  H    3.702264   6.461910   2.022463   1.094084   0.000000
    26  H    2.575683   6.824671   2.077733   1.097556   1.801616
    27  H    2.686657   6.527234   2.078023   1.099688   1.801415
    28  C    6.861973   1.424533   6.031247   7.425266   7.647368
    29  H    7.628900   2.021578   6.721610   8.077231   8.242436
    30  H    7.038475   2.076792   6.523953   7.942976   8.278604
    31  H    7.102929   2.077767   6.051476   7.416410   7.528919
                   26         27         28         29         30
    26  H    0.000000
    27  H    1.785577   0.000000
    28  C    8.020215   7.864093   0.000000
    29  H    8.764743   8.436030   1.093435   0.000000
    30  H    8.439712   8.374737   1.097404   1.800703   0.000000
    31  H    7.966673   7.986842   1.097399   1.801572   1.787815
                   31
    31  H    0.000000
 Stoichiometry    C11H14N2O4(3)
 Framework group  C1[X(C11H14N2O4)]
 Deg. of freedom    87
 Full point group                 C1      NOp   1
 Largest Abelian subgroup         C1      NOp   1
 Largest concise Abelian subgroup C1      NOp   1
                         Standard orientation:                         
 ---------------------------------------------------------------------
 Center     Atomic      Atomic             Coordinates (Angstroms)
 Number     Number       Type             X           Y           Z
 ---------------------------------------------------------------------
      1          6           0        0.352913    0.714951   -0.568248
      2          6           0        0.706799    1.875047    0.416829
      3          6           0       -1.591541    1.750492    0.476069
      4          6           0       -1.103435    1.090994   -0.782606
      5          1           0        0.941367    0.780969   -1.489079
      6          1           0       -1.754836    0.566154   -1.475852
      7          6           0       -0.429385    1.742695    1.464020
      8          1           0       -0.449929    2.606787    2.142639
      9          1           0       -0.381981    0.816127    2.055109
     10          6           0        0.227718    3.049564   -0.388391
     11          1           0        0.752793    3.955210   -0.673070
     12          6           0       -1.146564    2.619215   -0.694560
     13          1           0       -1.858375    3.181131   -1.295540
     14          1           0        1.737450    1.879759    0.783175
     15          1           0       -2.634514    1.682118    0.782201
     16          7           0       -0.210055   -1.289334    0.798075
     17          7           0        0.618530   -0.617205    0.025845
     18          6           0       -1.562009   -1.356499    0.484139
     19          6           0        1.963474   -1.054115    0.125580
     20          8           0        2.301476   -2.041034    0.684085
     21          8           0       -2.437835   -1.227916    1.295695
     22          8           0        2.775545   -0.216332   -0.508908
     23          8           0       -1.763335   -1.728919   -0.787589
     24          6           0       -3.122596   -1.926739   -1.153472
     25          1           0       -3.113633   -2.277554   -2.189748
     26          1           0       -3.592220   -2.671447   -0.498115
     27          1           0       -3.681879   -0.983321   -1.072987
     28          6           0        4.151693   -0.584447   -0.507288
     29          1           0        4.672335    0.188716   -1.078910
     30          1           0        4.531877   -0.624876    0.521362
     31          1           0        4.283007   -1.567350   -0.977334
 ---------------------------------------------------------------------
 Rotational constants (GHZ):      0.6377229      0.4597766      0.3190271
 Standard basis: def2SVP (5D, 7F)
 There are   325 symmetry adapted cartesian basis functions of A   symmetry.
 There are   308 symmetry adapted basis functions of A   symmetry.
   308 basis functions,   523 primitive gaussians,   325 cartesian basis functions
    64 alpha electrons       62 beta electrons
       nuclear repulsion energy      1322.8364219449 Hartrees.
 NAtoms=   31 NActive=   31 NUniq=   31 SFac= 1.00D+00 NAtFMM=   60 NAOKFM=F Big=F
 Integral buffers will be    131072 words long.
 Raffenetti 2 integral format.
 Two-electron integral symmetry is turned on.
 Nuclear repulsion after empirical dispersion term =     1322.8346917366 Hartrees.
 ------------------------------------------------------------------------------
 Polarizable Continuum Model (PCM)
 =================================
 Model                : C-PCM.
 Atomic radii         : UFF (Universal Force Field).
 Polarization charges : Total charges.
 Charge compensation  : None.
 Solution method      : On-the-fly selection.
 Cavity type          : Scaled VdW (van der Waals Surface) (Alpha=1.100).
 Cavity algorithm     : GePol (No added spheres)
                        Default sphere list used, NSphG=   31.
                        Lebedev-Laikov grids with approx.  5.0 points / Ang**2.
                        Smoothing algorithm: Karplus/York (Gamma=1.0000).
                        Polarization charges: spherical gaussians, with
                                              point-specific exponents (IZeta= 3).
                        Self-potential: point-specific (ISelfS= 7).
                        Self-field    : sphere-specific E.n sum rule (ISelfD= 2).
 1st derivatives      : Analytical E(r).r(x)/FMM algorithm (CHGder, D1EAlg=3).
                        Cavity 1st derivative terms included.
 Solvent              : Toluene, Eps=   2.374100 Eps(inf)=   2.238315
 ------------------------------------------------------------------------------
 One-electron integrals computed using PRISM.
   1 Symmetry operations used in ECPInt.
 ECPInt:  NShTT=   10440 NPrTT=   37938 LenC2=    9929 LenP2D=   26196.
 LDataN:  DoStor=T MaxTD1= 4 Len=   56
 NBasis=   308 RedAO= T EigKep=  4.49D-04  NBF=   308
 NBsUse=   308 1.00D-06 EigRej= -1.00D+00 NBFU=   308
 ExpMin= 1.22D-01 ExpMax= 2.27D+03 ExpMxC= 3.41D+02 IAcc=1 IRadAn=         1 AccDes= 0.00D+00
 Harris functional with IExCor= 1009 and IRadAn=       1 diagonalized for initial guess.
 HarFok:  IExCor= 1009 AccDes= 0.00D+00 IRadAn=         1 IDoV= 1 UseB2=F ITyADJ=14
 ICtDFT=  3500011 ScaDFX=  1.000000  1.000000  1.000000  1.000000
 FoFCou: FMM=F IPFlag=           0 FMFlag=      100000 FMFlg1=           0
         NFxFlg=           0 DoJE=T BraDBF=F KetDBF=T FulRan=T
         wScrn=  0.000000 ICntrl=     500 IOpCl=  0 I1Cent=   200000004 NGrid=           0
         NMat0=    1 NMatS0=      1 NMatT0=    0 NMatD0=    1 NMtDS0=    0 NMtDT0=    0
 Petite list used in FoFCou.
 Initial guess <Sx>= 0.0000 <Sy>= 0.0000 <Sz>= 1.0000 <S**2>= 2.0000 S= 1.0000
 Requested convergence on RMS density matrix=1.00D-08 within 128 cycles.
 Requested convergence on MAX density matrix=1.00D-06.
 Requested convergence on             energy=1.00D-06.
 No special actions if energy rises.
 Inv3:  Mode=1 IEnd=    14985675.
 Iteration    1 A*A^-1 deviation from unit magnitude is 5.11D-15 for    551.
 Iteration    1 A*A^-1 deviation from orthogonality  is 3.06D-15 for   2226   2175.
 Iteration    1 A^-1*A deviation from unit magnitude is 5.11D-15 for    551.
 Iteration    1 A^-1*A deviation from orthogonality  is 2.59D-15 for   2230   2139.
 Error on total polarization charges =  0.00527
 SCF Done:  E(UM062X) =  -836.899527820     A.U. after   18 cycles
            NFock= 18  Conv=0.41D-08     -V/T= 2.0092
 <Sx>= 0.0000 <Sy>= 0.0000 <Sz>= 1.0000 <S**2>= 2.0093 S= 1.0031
 <L.S>= 0.000000000000E+00
 Annihilation of the first spin contaminant:
 S**2 before annihilation     2.0093,   after     2.0001

 **********************************************************************

            Population analysis using the SCF density.

 **********************************************************************

 Orbital symmetries:
 Alpha Orbitals:
       Occupied  (A) (A) (A) (A) (A) (A) (A) (A) (A) (A) (A) (A)
                 (A) (A) (A) (A) (A) (A) (A) (A) (A) (A) (A) (A)
                 (A) (A) (A) (A) (A) (A) (A) (A) (A) (A) (A) (A)
                 (A) (A) (A) (A) (A) (A) (A) (A) (A) (A) (A) (A)
                 (A) (A) (A) (A) (A) (A) (A) (A) (A) (A) (A) (A)
                 (A) (A) (A) (A)
       Virtual   (A) (A) (A) (A) (A) (A) (A) (A) (A) (A) (A) (A)
                 (A) (A) (A) (A) (A) (A) (A) (A) (A) (A) (A) (A)
                 (A) (A) (A) (A) (A) (A) (A) (A) (A) (A) (A) (A)
                 (A) (A) (A) (A) (A) (A) (A) (A) (A) (A) (A) (A)
                 (A) (A) (A) (A) (A) (A) (A) (A) (A) (A) (A) (A)
                 (A) (A) (A) (A) (A) (A) (A) (A) (A) (A) (A) (A)
                 (A) (A) (A) (A) (A) (A) (A) (A) (A) (A) (A) (A)
                 (A) (A) (A) (A) (A) (A) (A) (A) (A) (A) (A) (A)
                 (A) (A) (A) (A) (A) (A) (A) (A) (A) (A) (A) (A)
                 (A) (A) (A) (A) (A) (A) (A) (A) (A) (A) (A) (A)
                 (A) (A) (A) (A) (A) (A) (A) (A) (A) (A) (A) (A)
                 (A) (A) (A) (A) (A) (A) (A) (A) (A) (A) (A) (A)
                 (A) (A) (A) (A) (A) (A) (A) (A) (A) (A) (A) (A)
                 (A) (A) (A) (A) (A) (A) (A) (A) (A) (A) (A) (A)
                 (A) (A) (A) (A) (A) (A) (A) (A) (A) (A) (A) (A)
                 (A) (A) (A) (A) (A) (A) (A) (A) (A) (A) (A) (A)
                 (A) (A) (A) (A) (A) (A) (A) (A) (A) (A) (A) (A)
                 (A) (A) (A) (A) (A) (A) (A) (A) (A) (A) (A) (A)
                 (A) (A) (A) (A) (A) (A) (A) (A) (A) (A) (A) (A)
                 (A) (A) (A) (A) (A) (A) (A) (A) (A) (A) (A) (A)
                 (A) (A) (A) (A)
 Beta  Orbitals:
       Occupied  (A) (A) (A) (A) (A) (A) (A) (A) (A) (A) (A) (A)
                 (A) (A) (A) (A) (A) (A) (A) (A) (A) (A) (A) (A)
                 (A) (A) (A) (A) (A) (A) (A) (A) (A) (A) (A) (A)
                 (A) (A) (A) (A) (A) (A) (A) (A) (A) (A) (A) (A)
                 (A) (A) (A) (A) (A) (A) (A) (A) (A) (A) (A) (A)
                 (A) (A)
       Virtual   (A) (A) (A) (A) (A) (A) (A) (A) (A) (A) (A) (A)
                 (A) (A) (A) (A) (A) (A) (A) (A) (A) (A) (A) (A)
                 (A) (A) (A) (A) (A) (A) (A) (A) (A) (A) (A) (A)
                 (A) (A) (A) (A) (A) (A) (A) (A) (A) (A) (A) (A)
                 (A) (A) (A) (A) (A) (A) (A) (A) (A) (A) (A) (A)
                 (A) (A) (A) (A) (A) (A) (A) (A) (A) (A) (A) (A)
                 (A) (A) (A) (A) (A) (A) (A) (A) (A) (A) (A) (A)
                 (A) (A) (A) (A) (A) (A) (A) (A) (A) (A) (A) (A)
                 (A) (A) (A) (A) (A) (A) (A) (A) (A) (A) (A) (A)
                 (A) (A) (A) (A) (A) (A) (A) (A) (A) (A) (A) (A)
                 (A) (A) (A) (A) (A) (A) (A) (A) (A) (A) (A) (A)
                 (A) (A) (A) (A) (A) (A) (A) (A) (A) (A) (A) (A)
                 (A) (A) (A) (A) (A) (A) (A) (A) (A) (A) (A) (A)
                 (A) (A) (A) (A) (A) (A) (A) (A) (A) (A) (A) (A)
                 (A) (A) (A) (A) (A) (A) (A) (A) (A) (A) (A) (A)
                 (A) (A) (A) (A) (A) (A) (A) (A) (A) (A) (A) (A)
                 (A) (A) (A) (A) (A) (A) (A) (A) (A) (A) (A) (A)
                 (A) (A) (A) (A) (A) (A) (A) (A) (A) (A) (A) (A)
                 (A) (A) (A) (A) (A) (A) (A) (A) (A) (A) (A) (A)
                 (A) (A) (A) (A) (A) (A) (A) (A) (A) (A) (A) (A)
                 (A) (A) (A) (A) (A) (A)
 The electronic state is 3-A.
 Alpha  occ. eigenvalues --  -19.69469 -19.68061 -19.63242 -19.61999 -14.86408
 Alpha  occ. eigenvalues --  -14.80639 -10.72285 -10.70897 -10.61902 -10.61373
 Alpha  occ. eigenvalues --  -10.61110 -10.57337 -10.57201 -10.57090 -10.56930
 Alpha  occ. eigenvalues --  -10.56542 -10.55815  -1.25965  -1.23753  -1.16165
 Alpha  occ. eigenvalues --   -1.13974  -1.13156  -1.03877  -0.94410  -0.85766
 Alpha  occ. eigenvalues --   -0.83410  -0.82947  -0.80331  -0.79028  -0.69836
 Alpha  occ. eigenvalues --   -0.68352  -0.65143  -0.64544  -0.64061  -0.62782
 Alpha  occ. eigenvalues --   -0.62502  -0.60350  -0.58853  -0.57324  -0.56874
 Alpha  occ. eigenvalues --   -0.56802  -0.54952  -0.52332  -0.51598  -0.51047
 Alpha  occ. eigenvalues --   -0.50396  -0.48480  -0.46844  -0.45952  -0.45232
 Alpha  occ. eigenvalues --   -0.44325  -0.43828  -0.43563  -0.41903  -0.41369
 Alpha  occ. eigenvalues --   -0.39261  -0.38909  -0.38071  -0.37951  -0.36542
 Alpha  occ. eigenvalues --   -0.35588  -0.34873  -0.28449  -0.23668
 Alpha virt. eigenvalues --    0.06550   0.07662   0.09114   0.10220   0.12547
 Alpha virt. eigenvalues --    0.13528   0.14921   0.15160   0.15337   0.15814
 Alpha virt. eigenvalues --    0.16096   0.16683   0.16986   0.17414   0.17664
 Alpha virt. eigenvalues --    0.18241   0.18643   0.19414   0.19835   0.20873
 Alpha virt. eigenvalues --    0.21470   0.23404   0.24921   0.25905   0.27369
 Alpha virt. eigenvalues --    0.28060   0.30637   0.31082   0.32355   0.33707
 Alpha virt. eigenvalues --    0.34843   0.38724   0.38973   0.42697   0.43369
 Alpha virt. eigenvalues --    0.44736   0.46056   0.47230   0.48104   0.48660
 Alpha virt. eigenvalues --    0.49459   0.50439   0.50852   0.51769   0.52460
 Alpha virt. eigenvalues --    0.53167   0.55690   0.55858   0.57356   0.58629
 Alpha virt. eigenvalues --    0.60104   0.61166   0.62077   0.62895   0.65070
 Alpha virt. eigenvalues --    0.65168   0.66639   0.66937   0.67750   0.68334
 Alpha virt. eigenvalues --    0.68545   0.68957   0.69643   0.70298   0.70752
 Alpha virt. eigenvalues --    0.71009   0.71816   0.71905   0.72134   0.72669
 Alpha virt. eigenvalues --    0.72799   0.73320   0.74828   0.75120   0.75323
 Alpha virt. eigenvalues --    0.76175   0.76661   0.77103   0.79420   0.80221
 Alpha virt. eigenvalues --    0.81264   0.83238   0.84094   0.85291   0.86724
 Alpha virt. eigenvalues --    0.87452   0.89545   0.93510   0.95052   0.97476
 Alpha virt. eigenvalues --    0.99663   1.01322   1.04465   1.05539   1.07064
 Alpha virt. eigenvalues --    1.09308   1.09541   1.10691   1.12449   1.13905
 Alpha virt. eigenvalues --    1.15429   1.19908   1.20850   1.21208   1.23094
 Alpha virt. eigenvalues --    1.25156   1.26966   1.28457   1.31355   1.32988
 Alpha virt. eigenvalues --    1.34548   1.36954   1.38860   1.40409   1.41802
 Alpha virt. eigenvalues --    1.43787   1.44823   1.46823   1.48827   1.51226
 Alpha virt. eigenvalues --    1.54308   1.55491   1.55659   1.57573   1.59139
 Alpha virt. eigenvalues --    1.61115   1.62273   1.62379   1.64125   1.64784
 Alpha virt. eigenvalues --    1.65722   1.67249   1.69140   1.70921   1.72488
 Alpha virt. eigenvalues --    1.73265   1.73926   1.76048   1.77101   1.77584
 Alpha virt. eigenvalues --    1.78419   1.78715   1.80945   1.82358   1.82863
 Alpha virt. eigenvalues --    1.82938   1.85339   1.85573   1.86673   1.88655
 Alpha virt. eigenvalues --    1.89058   1.89892   1.91488   1.92283   1.93632
 Alpha virt. eigenvalues --    1.94041   1.94582   1.95202   1.96123   1.97964
 Alpha virt. eigenvalues --    1.98834   2.01319   2.01476   2.03493   2.04036
 Alpha virt. eigenvalues --    2.05035   2.06210   2.06993   2.07757   2.09075
 Alpha virt. eigenvalues --    2.10736   2.12343   2.13395   2.15863   2.16749
 Alpha virt. eigenvalues --    2.17298   2.18071   2.21145   2.22112   2.23436
 Alpha virt. eigenvalues --    2.25981   2.29330   2.30023   2.33416   2.34447
 Alpha virt. eigenvalues --    2.35021   2.36574   2.38938   2.40845   2.42517
 Alpha virt. eigenvalues --    2.43857   2.45643   2.47291   2.50453   2.54819
 Alpha virt. eigenvalues --    2.56029   2.57817   2.60317   2.62584   2.65027
 Alpha virt. eigenvalues --    2.67882   2.68214   2.68590   2.69450   2.70941
 Alpha virt. eigenvalues --    2.72084   2.73027   2.74787   2.75803   2.77574
 Alpha virt. eigenvalues --    2.79455   2.82462   2.83193   2.84445   2.86206
 Alpha virt. eigenvalues --    2.88668   2.89643   2.91086   2.92197   2.92850
 Alpha virt. eigenvalues --    2.94013   2.95800   2.96474   2.99769   3.01972
 Alpha virt. eigenvalues --    3.03918   3.04970   3.08879   3.09944   3.10191
 Alpha virt. eigenvalues --    3.15334   3.18621   3.22676   3.29444   3.30208
 Alpha virt. eigenvalues --    3.31245   3.32406   3.38334   3.49758   3.50614
 Alpha virt. eigenvalues --    3.69049   3.72264   3.74923   3.77889
  Beta  occ. eigenvalues --  -19.69434 -19.67988 -19.63136 -19.61916 -14.85959
  Beta  occ. eigenvalues --  -14.79732 -10.72309 -10.70926 -10.61903 -10.61319
  Beta  occ. eigenvalues --  -10.61104 -10.57252 -10.57240 -10.57173 -10.56848
  Beta  occ. eigenvalues --  -10.55828 -10.55755  -1.25650  -1.23416  -1.15571
  Beta  occ. eigenvalues --   -1.13107  -1.12368  -1.03109  -0.92588  -0.85204
  Beta  occ. eigenvalues --   -0.83121  -0.82322  -0.78777  -0.78168  -0.68987
  Beta  occ. eigenvalues --   -0.67493  -0.64884  -0.63993  -0.63570  -0.62291
  Beta  occ. eigenvalues --   -0.61521  -0.59271  -0.58226  -0.56663  -0.56571
  Beta  occ. eigenvalues --   -0.56308  -0.54153  -0.52071  -0.51155  -0.49967
  Beta  occ. eigenvalues --   -0.49730  -0.47748  -0.46068  -0.45111  -0.44148
  Beta  occ. eigenvalues --   -0.43966  -0.43610  -0.42366  -0.40995  -0.39476
  Beta  occ. eigenvalues --   -0.38525  -0.38162  -0.37742  -0.37108  -0.35359
  Beta  occ. eigenvalues --   -0.34637  -0.33453
  Beta virt. eigenvalues --   -0.06550  -0.00501   0.07176   0.08703   0.09723
  Beta virt. eigenvalues --    0.10285   0.12627   0.13526   0.15061   0.15165
  Beta virt. eigenvalues --    0.15417   0.16066   0.16237   0.16818   0.17074
  Beta virt. eigenvalues --    0.17443   0.17845   0.18480   0.18866   0.19614
  Beta virt. eigenvalues --    0.20384   0.21253   0.22094   0.23796   0.25288
  Beta virt. eigenvalues --    0.26081   0.28399   0.29012   0.31266   0.31614
  Beta virt. eigenvalues --    0.32937   0.34498   0.35490   0.39131   0.39563
  Beta virt. eigenvalues --    0.43181   0.43754   0.45328   0.46253   0.47556
  Beta virt. eigenvalues --    0.48428   0.48875   0.49682   0.50965   0.51330
  Beta virt. eigenvalues --    0.52138   0.53033   0.53609   0.56195   0.56590
  Beta virt. eigenvalues --    0.58219   0.60172   0.61041   0.61596   0.62606
  Beta virt. eigenvalues --    0.63427   0.65219   0.65739   0.66984   0.67567
  Beta virt. eigenvalues --    0.68047   0.68451   0.68831   0.69136   0.69714
  Beta virt. eigenvalues --    0.70427   0.70914   0.71732   0.72054   0.72241
  Beta virt. eigenvalues --    0.72596   0.72952   0.73141   0.73443   0.75108
  Beta virt. eigenvalues --    0.75521   0.75845   0.76550   0.77241   0.77493
  Beta virt. eigenvalues --    0.79776   0.80559   0.82201   0.83409   0.84334
  Beta virt. eigenvalues --    0.85553   0.87107   0.87872   0.90926   0.93915
  Beta virt. eigenvalues --    0.95665   0.97837   1.00949   1.01746   1.04753
  Beta virt. eigenvalues --    1.05849   1.08062   1.09615   1.10205   1.11060
  Beta virt. eigenvalues --    1.12765   1.14324   1.15864   1.20424   1.21315
  Beta virt. eigenvalues --    1.21502   1.23584   1.25790   1.27368   1.28801
  Beta virt. eigenvalues --    1.31736   1.33264   1.34842   1.37363   1.39565
  Beta virt. eigenvalues --    1.41241   1.42479   1.44643   1.45640   1.47440
  Beta virt. eigenvalues --    1.49066   1.52279   1.54788   1.55495   1.55789
  Beta virt. eigenvalues --    1.57936   1.59566   1.61576   1.62652   1.63420
  Beta virt. eigenvalues --    1.64459   1.65174   1.66090   1.67564   1.69469
  Beta virt. eigenvalues --    1.71361   1.73049   1.74176   1.74469   1.76452
  Beta virt. eigenvalues --    1.77309   1.78052   1.78585   1.79172   1.81695
  Beta virt. eigenvalues --    1.82475   1.83040   1.83216   1.85633   1.86250
  Beta virt. eigenvalues --    1.86879   1.88824   1.89181   1.90251   1.92092
  Beta virt. eigenvalues --    1.92832   1.93961   1.94461   1.94892   1.95452
  Beta virt. eigenvalues --    1.96744   1.98153   1.99533   2.01592   2.02920
  Beta virt. eigenvalues --    2.03971   2.04833   2.05539   2.07289   2.08061
  Beta virt. eigenvalues --    2.08488   2.10914   2.11488   2.13279   2.14544
  Beta virt. eigenvalues --    2.16308   2.17151   2.17627   2.18475   2.22117
  Beta virt. eigenvalues --    2.22927   2.24145   2.26787   2.30076   2.30481
  Beta virt. eigenvalues --    2.33687   2.34755   2.35492   2.37489   2.39451
  Beta virt. eigenvalues --    2.41295   2.43470   2.45599   2.46475   2.48349
  Beta virt. eigenvalues --    2.51529   2.55717   2.57466   2.58730   2.61060
  Beta virt. eigenvalues --    2.63424   2.66359   2.68230   2.68568   2.69329
  Beta virt. eigenvalues --    2.70418   2.71518   2.72607   2.73692   2.75227
  Beta virt. eigenvalues --    2.76188   2.78079   2.80684   2.83235   2.83860
  Beta virt. eigenvalues --    2.84599   2.87087   2.89599   2.90024   2.92157
  Beta virt. eigenvalues --    2.92894   2.93503   2.95828   2.96384   2.97099
  Beta virt. eigenvalues --    3.00377   3.02158   3.04244   3.05394   3.09227
  Beta virt. eigenvalues --    3.10339   3.10943   3.15704   3.18953   3.23095
  Beta virt. eigenvalues --    3.29705   3.31635   3.32872   3.33512   3.38943
  Beta virt. eigenvalues --    3.50001   3.50795   3.69365   3.72370   3.75184
  Beta virt. eigenvalues --    3.78162
          Condensed to atoms (all electrons):
               1          2          3          4          5          6
     1  C    5.149377   0.289496  -0.024198   0.251584   0.363975  -0.022973
     2  C    0.289496   5.417874  -0.126537  -0.122248  -0.034589   0.006066
     3  C   -0.024198  -0.126537   5.480735   0.109817   0.010890  -0.026553
     4  C    0.251584  -0.122248   0.109817   5.639033  -0.013549   0.398402
     5  H    0.363975  -0.034589   0.010890  -0.013549   0.617800  -0.003993
     6  H   -0.022973   0.006066  -0.026553   0.398402  -0.003993   0.593923
     7  C   -0.124499   0.323200   0.370897  -0.055515   0.010513   0.005273
     8  H    0.008344  -0.026057  -0.012210   0.014052  -0.000283  -0.000261
     9  H    0.010288  -0.016873  -0.024841  -0.023270  -0.000529   0.000316
    10  C   -0.072522   0.149261  -0.004806  -0.019153   0.022288   0.002420
    11  H    0.002960  -0.052436   0.008516   0.007176   0.000666  -0.000025
    12  C   -0.083477   0.120561   0.020239  -0.005225  -0.020988  -0.005776
    13  H    0.005665   0.003202  -0.023879  -0.018683   0.000279  -0.005382
    14  H   -0.016752   0.383417   0.005081   0.007227  -0.004294  -0.000184
    15  H    0.004109   0.005439   0.401283  -0.022726  -0.000232  -0.004308
    16  N   -0.042029  -0.005537  -0.005420  -0.005028   0.004187  -0.002141
    17  N    0.186283  -0.056194  -0.009934  -0.033025  -0.017804   0.000453
    18  C   -0.003531  -0.002161   0.008982   0.002938   0.000086   0.003136
    19  C   -0.061947  -0.004612  -0.000551   0.006031  -0.005925  -0.000285
    20  O    0.000876   0.000000  -0.000003  -0.000090   0.000282  -0.000002
    21  O    0.001970   0.000251   0.006515  -0.012510  -0.000020  -0.000602
    22  O   -0.001945  -0.002388  -0.000097   0.000843   0.011028   0.000006
    23  O   -0.005181   0.000651  -0.006067   0.003073  -0.000165   0.006103
    24  C    0.000229  -0.000019   0.000028  -0.002820   0.000011   0.000865
    25  H   -0.000017   0.000000  -0.000037   0.000086  -0.000002  -0.000461
    26  H   -0.000072   0.000003  -0.000066   0.000261   0.000001   0.000268
    27  H    0.000609  -0.000047   0.001924  -0.002076   0.000011   0.001355
    28  C    0.000265  -0.000124   0.000000   0.000016   0.000077   0.000000
    29  H   -0.000121   0.000063   0.000001  -0.000008  -0.000221   0.000000
    30  H   -0.000125   0.000059  -0.000001   0.000006   0.000168   0.000000
    31  H    0.000108  -0.000023   0.000000   0.000009  -0.000106   0.000000
               7          8          9         10         11         12
     1  C   -0.124499   0.008344   0.010288  -0.072522   0.002960  -0.083477
     2  C    0.323200  -0.026057  -0.016873   0.149261  -0.052436   0.120561
     3  C    0.370897  -0.012210  -0.024841  -0.004806   0.008516   0.020239
     4  C   -0.055515   0.014052  -0.023270  -0.019153   0.007176  -0.005225
     5  H    0.010513  -0.000283  -0.000529   0.022288   0.000666  -0.020988
     6  H    0.005273  -0.000261   0.000316   0.002420  -0.000025  -0.005776
     7  C    4.728971   0.370200   0.373947  -0.063094   0.001824  -0.084603
     8  H    0.370200   0.629182  -0.023442   0.016799   0.000671  -0.023250
     9  H    0.373947  -0.023442   0.618726   0.002920  -0.000239   0.016796
    10  C   -0.063094   0.016799   0.002920   5.394598   0.467584   0.092388
    11  H    0.001824   0.000671  -0.000239   0.467584   0.618320  -0.077038
    12  C   -0.084603  -0.023250   0.016796   0.092388  -0.077038   5.658912
    13  H    0.005513   0.000205  -0.000183  -0.033542  -0.004573   0.419232
    14  H   -0.019704  -0.002681  -0.001490  -0.023725  -0.004303   0.009856
    15  H   -0.021729  -0.001723  -0.001672   0.002655  -0.000035  -0.010909
    16  N    0.008574   0.000169   0.008431   0.000180   0.000004  -0.000789
    17  N    0.002330  -0.000311  -0.005405   0.008193  -0.000127   0.010347
    18  C   -0.002118   0.000096   0.001811   0.000063  -0.000001  -0.000686
    19  C    0.001563  -0.000026  -0.001587  -0.000328  -0.000019   0.000206
    20  O    0.000012   0.000001  -0.000083  -0.000007   0.000000   0.000002
    21  O   -0.004489  -0.000014   0.005771  -0.000024   0.000000   0.000387
    22  O    0.000239  -0.000009   0.000082  -0.000392   0.000001   0.000084
    23  O    0.000130   0.000000   0.000463  -0.000072   0.000000   0.001179
    24  C    0.000010  -0.000001  -0.000018   0.000001   0.000000  -0.000095
    25  H    0.000001   0.000000   0.000000   0.000000   0.000000  -0.000002
    26  H    0.000007   0.000000  -0.000010   0.000000   0.000000   0.000011
    27  H   -0.000083   0.000001   0.000011   0.000018   0.000000  -0.000540
    28  C    0.000011   0.000000  -0.000002   0.000011   0.000000  -0.000002
    29  H   -0.000003   0.000000   0.000000   0.000007  -0.000001   0.000000
    30  H    0.000003   0.000000  -0.000003  -0.000011   0.000000   0.000001
    31  H    0.000001   0.000000   0.000000   0.000002   0.000000   0.000000
              13         14         15         16         17         18
     1  C    0.005665  -0.016752   0.004109  -0.042029   0.186283  -0.003531
     2  C    0.003202   0.383417   0.005439  -0.005537  -0.056194  -0.002161
     3  C   -0.023879   0.005081   0.401283  -0.005420  -0.009934   0.008982
     4  C   -0.018683   0.007227  -0.022726  -0.005028  -0.033025   0.002938
     5  H    0.000279  -0.004294  -0.000232   0.004187  -0.017804   0.000086
     6  H   -0.005382  -0.000184  -0.004308  -0.002141   0.000453   0.003136
     7  C    0.005513  -0.019704  -0.021729   0.008574   0.002330  -0.002118
     8  H    0.000205  -0.002681  -0.001723   0.000169  -0.000311   0.000096
     9  H   -0.000183  -0.001490  -0.001672   0.008431  -0.005405   0.001811
    10  C   -0.033542  -0.023725   0.002655   0.000180   0.008193   0.000063
    11  H   -0.004573  -0.004303  -0.000035   0.000004  -0.000127  -0.000001
    12  C    0.419232   0.009856  -0.010909  -0.000789   0.010347  -0.000686
    13  H    0.609688  -0.000177  -0.004836  -0.000008  -0.000103   0.000030
    14  H   -0.000177   0.614543  -0.000193  -0.000298  -0.004631  -0.000006
    15  H   -0.004836  -0.000193   0.593307   0.000074   0.000284   0.000773
    16  N   -0.000008  -0.000298   0.000074   6.889690   0.204762   0.319802
    17  N   -0.000103  -0.004631   0.000284   0.204762   6.933399  -0.036801
    18  C    0.000030  -0.000006   0.000773   0.319802  -0.036801   4.399168
    19  C    0.000001   0.004014   0.000007  -0.041920   0.243509   0.004017
    20  O    0.000000  -0.000147   0.000000   0.000851  -0.095702   0.000207
    21  O   -0.000001   0.000000   0.003420  -0.092135   0.002555   0.698818
    22  O    0.000000   0.006188   0.000000   0.002416  -0.108778  -0.000075
    23  O   -0.000007   0.000001  -0.000098  -0.112134   0.007344   0.345155
    24  C    0.000004   0.000000  -0.000018   0.005594  -0.000196  -0.029793
    25  H    0.000000   0.000000   0.000001  -0.000002  -0.000021   0.004537
    26  H    0.000000   0.000000  -0.000024   0.000310   0.000016  -0.006268
    27  H    0.000011   0.000000   0.000457   0.000202  -0.000135   0.000999
    28  C    0.000000  -0.000277   0.000000  -0.000148   0.004677   0.000004
    29  H    0.000000  -0.000119   0.000000   0.000004   0.000067   0.000000
    30  H    0.000000  -0.000162   0.000000   0.000006   0.000142   0.000001
    31  H    0.000000   0.000096   0.000000  -0.000018   0.000314  -0.000002
              19         20         21         22         23         24
     1  C   -0.061947   0.000876   0.001970  -0.001945  -0.005181   0.000229
     2  C   -0.004612   0.000000   0.000251  -0.002388   0.000651  -0.000019
     3  C   -0.000551  -0.000003   0.006515  -0.000097  -0.006067   0.000028
     4  C    0.006031  -0.000090  -0.012510   0.000843   0.003073  -0.002820
     5  H   -0.005925   0.000282  -0.000020   0.011028  -0.000165   0.000011
     6  H   -0.000285  -0.000002  -0.000602   0.000006   0.006103   0.000865
     7  C    0.001563   0.000012  -0.004489   0.000239   0.000130   0.000010
     8  H   -0.000026   0.000001  -0.000014  -0.000009   0.000000  -0.000001
     9  H   -0.001587  -0.000083   0.005771   0.000082   0.000463  -0.000018
    10  C   -0.000328  -0.000007  -0.000024  -0.000392  -0.000072   0.000001
    11  H   -0.000019   0.000000   0.000000   0.000001   0.000000   0.000000
    12  C    0.000206   0.000002   0.000387   0.000084   0.001179  -0.000095
    13  H    0.000001   0.000000  -0.000001   0.000000  -0.000007   0.000004
    14  H    0.004014  -0.000147   0.000000   0.006188   0.000001   0.000000
    15  H    0.000007   0.000000   0.003420   0.000000  -0.000098  -0.000018
    16  N   -0.041920   0.000851  -0.092135   0.002416  -0.112134   0.005594
    17  N    0.243509  -0.095702   0.002555  -0.108778   0.007344  -0.000196
    18  C    0.004017   0.000207   0.698818  -0.000075   0.345155  -0.029793
    19  C    4.392455   0.745155  -0.000209   0.364028  -0.000200   0.000019
    20  O    0.745155   7.657938   0.000000  -0.082544  -0.000007   0.000000
    21  O   -0.000209   0.000000   7.735832   0.000000  -0.088397  -0.001384
    22  O    0.364028  -0.082544   0.000000   7.995665   0.000001   0.000000
    23  O   -0.000200  -0.000007  -0.088397   0.000001   8.026881   0.260153
    24  C    0.000019   0.000000  -0.001384   0.000000   0.260153   4.430772
    25  H    0.000002   0.000000   0.000781   0.000000  -0.021905   0.400835
    26  H    0.000003   0.000000   0.008315   0.000000  -0.025715   0.410966
    27  H    0.000002   0.000000   0.005283   0.000000  -0.034109   0.402289
    28  C   -0.027971  -0.002146   0.000000   0.260357   0.000000   0.000000
    29  H    0.005023   0.000784   0.000000  -0.022815   0.000000   0.000000
    30  H   -0.003464   0.005707   0.000000  -0.027240   0.000000   0.000000
    31  H   -0.003995   0.005604   0.000000  -0.026121   0.000000   0.000000
              25         26         27         28         29         30
     1  C   -0.000017  -0.000072   0.000609   0.000265  -0.000121  -0.000125
     2  C    0.000000   0.000003  -0.000047  -0.000124   0.000063   0.000059
     3  C   -0.000037  -0.000066   0.001924   0.000000   0.000001  -0.000001
     4  C    0.000086   0.000261  -0.002076   0.000016  -0.000008   0.000006
     5  H   -0.000002   0.000001   0.000011   0.000077  -0.000221   0.000168
     6  H   -0.000461   0.000268   0.001355   0.000000   0.000000   0.000000
     7  C    0.000001   0.000007  -0.000083   0.000011  -0.000003   0.000003
     8  H    0.000000   0.000000   0.000001   0.000000   0.000000   0.000000
     9  H    0.000000  -0.000010   0.000011  -0.000002   0.000000  -0.000003
    10  C    0.000000   0.000000   0.000018   0.000011   0.000007  -0.000011
    11  H    0.000000   0.000000   0.000000   0.000000  -0.000001   0.000000
    12  C   -0.000002   0.000011  -0.000540  -0.000002   0.000000   0.000001
    13  H    0.000000   0.000000   0.000011   0.000000   0.000000   0.000000
    14  H    0.000000   0.000000   0.000000  -0.000277  -0.000119  -0.000162
    15  H    0.000001  -0.000024   0.000457   0.000000   0.000000   0.000000
    16  N   -0.000002   0.000310   0.000202  -0.000148   0.000004   0.000006
    17  N   -0.000021   0.000016  -0.000135   0.004677   0.000067   0.000142
    18  C    0.004537  -0.006268   0.000999   0.000004   0.000000   0.000001
    19  C    0.000002   0.000003   0.000002  -0.027971   0.005023  -0.003464
    20  O    0.000000   0.000000   0.000000  -0.002146   0.000784   0.005707
    21  O    0.000781   0.008315   0.005283   0.000000   0.000000   0.000000
    22  O    0.000000   0.000000   0.000000   0.260357  -0.022815  -0.027240
    23  O   -0.021905  -0.025715  -0.034109   0.000000   0.000000   0.000000
    24  C    0.400835   0.410966   0.402289   0.000000   0.000000   0.000000
    25  H    0.592254  -0.020755  -0.023520   0.000000   0.000000   0.000000
    26  H   -0.020755   0.596288  -0.032039   0.000000   0.000000   0.000000
    27  H   -0.023520  -0.032039   0.622759   0.000000   0.000000   0.000000
    28  C    0.000000   0.000000   0.000000   4.415057   0.401513   0.408599
    29  H    0.000000   0.000000   0.000000   0.401513   0.588349  -0.021921
    30  H    0.000000   0.000000   0.000000   0.408599  -0.021921   0.599219
    31  H    0.000000   0.000000   0.000000   0.408498  -0.021851  -0.029119
              31
     1  C    0.000108
     2  C   -0.000023
     3  C    0.000000
     4  C    0.000009
     5  H   -0.000106
     6  H    0.000000
     7  C    0.000001
     8  H    0.000000
     9  H    0.000000
    10  C    0.000002
    11  H    0.000000
    12  C    0.000000
    13  H    0.000000
    14  H    0.000096
    15  H    0.000000
    16  N   -0.000018
    17  N    0.000314
    18  C   -0.000002
    19  C   -0.003995
    20  O    0.005604
    21  O    0.000000
    22  O   -0.026121
    23  O    0.000000
    24  C    0.000000
    25  H    0.000000
    26  H    0.000000
    27  H    0.000000
    28  C    0.408498
    29  H   -0.021851
    30  H   -0.029119
    31  H    0.598505
          Atomic-Atomic Spin Densities.
               1          2          3          4          5          6
     1  C    0.091763  -0.003796  -0.013288   0.021627  -0.005930  -0.000172
     2  C   -0.003796  -0.033560  -0.009411   0.004072  -0.002570   0.000282
     3  C   -0.013288  -0.009411   0.200771  -0.105780   0.002397   0.002070
     4  C    0.021627   0.004072  -0.105780   0.188765  -0.004352  -0.004903
     5  H   -0.005930  -0.002570   0.002397  -0.004352  -0.001351   0.000451
     6  H   -0.000172   0.000282   0.002070  -0.004903   0.000451  -0.000901
     7  C   -0.020527   0.018958   0.011411  -0.007090   0.000718   0.000320
     8  H    0.001263  -0.000428  -0.005999   0.001342  -0.000073  -0.000007
     9  H    0.002815   0.001764   0.001463   0.000656  -0.000110  -0.000018
    10  C   -0.037566  -0.047672  -0.024392  -0.041846   0.011926   0.000990
    11  H    0.000204  -0.000895  -0.000620  -0.000079  -0.000137   0.000011
    12  C    0.006634  -0.001736   0.016047   0.018509  -0.000867   0.000199
    13  H   -0.000118   0.000115  -0.000412  -0.000177   0.000004   0.000021
    14  H   -0.000714   0.004286  -0.000129  -0.000142   0.000034   0.000006
    15  H    0.000351  -0.000291  -0.007005   0.003818  -0.000030  -0.000324
    16  N    0.004741   0.004868  -0.006443  -0.000815  -0.000610   0.000052
    17  N   -0.018314  -0.008010   0.005977  -0.002383   0.001369   0.000464
    18  C    0.000855  -0.000134   0.000532   0.000761   0.000175   0.000008
    19  C   -0.002305   0.001905  -0.000149  -0.000323  -0.001015   0.000054
    20  O    0.000165   0.000026  -0.000002   0.000000  -0.000007   0.000000
    21  O   -0.000205  -0.000085   0.001337  -0.000301   0.000008  -0.000093
    22  O   -0.000832   0.000222   0.000000   0.000036   0.000667  -0.000001
    23  O   -0.000006   0.000036  -0.000152  -0.000943  -0.000083  -0.000450
    24  C    0.000008  -0.000009   0.000112  -0.000001   0.000010  -0.000120
    25  H   -0.000001   0.000001  -0.000012   0.000007  -0.000002   0.000050
    26  H    0.000004   0.000000   0.000008  -0.000019   0.000000  -0.000017
    27  H   -0.000005   0.000005  -0.000112   0.000088  -0.000001   0.000217
    28  C   -0.000008   0.000004   0.000000  -0.000001   0.000017   0.000000
    29  H   -0.000014  -0.000002   0.000000   0.000000   0.000010   0.000000
    30  H    0.000008  -0.000013   0.000000   0.000000   0.000002   0.000000
    31  H   -0.000016   0.000006   0.000000   0.000000   0.000001   0.000000
               7          8          9         10         11         12
     1  C   -0.020527   0.001263   0.002815  -0.037566   0.000204   0.006634
     2  C    0.018958  -0.000428   0.001764  -0.047672  -0.000895  -0.001736
     3  C    0.011411  -0.005999   0.001463  -0.024392  -0.000620   0.016047
     4  C   -0.007090   0.001342   0.000656  -0.041846  -0.000079   0.018509
     5  H    0.000718  -0.000073  -0.000110   0.011926  -0.000137  -0.000867
     6  H    0.000320  -0.000007  -0.000018   0.000990   0.000011   0.000199
     7  C    0.075946  -0.003495  -0.005592  -0.036391   0.000473   0.004252
     8  H   -0.003495  -0.001217   0.002358   0.004937   0.000019   0.000145
     9  H   -0.005592   0.002358  -0.006903   0.001085   0.000027  -0.000634
    10  C   -0.036391   0.004937   0.001085   1.292970   0.006516  -0.072031
    11  H    0.000473   0.000019   0.000027   0.006516  -0.052613  -0.000221
    12  C    0.004252   0.000145  -0.000634  -0.072031  -0.000221  -0.088651
    13  H   -0.000118   0.000008  -0.000002  -0.002077   0.000063   0.002982
    14  H   -0.000091   0.000032   0.000015  -0.002880   0.000151   0.000288
    15  H    0.000653   0.000381   0.000308   0.001250   0.000004  -0.000178
    16  N   -0.001967   0.000350   0.003369  -0.000603   0.000003   0.000349
    17  N    0.000234  -0.000468  -0.003101   0.003654  -0.000007  -0.000678
    18  C   -0.000120   0.000018  -0.000463   0.000061   0.000000  -0.000023
    19  C    0.000183  -0.000007  -0.000034  -0.000144   0.000003   0.000044
    20  O   -0.000010   0.000001   0.000043  -0.000001   0.000000   0.000000
    21  O    0.000118  -0.000035  -0.000568   0.000009   0.000000  -0.000039
    22  O    0.000048   0.000001   0.000006   0.000063   0.000001  -0.000003
    23  O   -0.000004   0.000001   0.000027  -0.000008   0.000000  -0.000017
    24  C   -0.000002   0.000000  -0.000003   0.000002   0.000000  -0.000012
    25  H    0.000000   0.000000   0.000000   0.000000   0.000000   0.000001
    26  H   -0.000001   0.000000   0.000000   0.000000   0.000000   0.000000
    27  H    0.000006   0.000000   0.000001  -0.000001   0.000000   0.000028
    28  C    0.000000   0.000000  -0.000001   0.000002   0.000000   0.000000
    29  H    0.000000   0.000000   0.000000   0.000004   0.000000   0.000000
    30  H    0.000000   0.000000   0.000000   0.000002   0.000000   0.000000
    31  H    0.000000   0.000000   0.000000   0.000000   0.000000   0.000000
              13         14         15         16         17         18
     1  C   -0.000118  -0.000714   0.000351   0.004741  -0.018314   0.000855
     2  C    0.000115   0.004286  -0.000291   0.004868  -0.008010  -0.000134
     3  C   -0.000412  -0.000129  -0.007005  -0.006443   0.005977   0.000532
     4  C   -0.000177  -0.000142   0.003818  -0.000815  -0.002383   0.000761
     5  H    0.000004   0.000034  -0.000030  -0.000610   0.001369   0.000175
     6  H    0.000021   0.000006  -0.000324   0.000052   0.000464   0.000008
     7  C   -0.000118  -0.000091   0.000653  -0.001967   0.000234  -0.000120
     8  H    0.000008   0.000032   0.000381   0.000350  -0.000468   0.000018
     9  H   -0.000002   0.000015   0.000308   0.003369  -0.003101  -0.000463
    10  C   -0.002077  -0.002880   0.001250  -0.000603   0.003654   0.000061
    11  H    0.000063   0.000151   0.000004   0.000003  -0.000007   0.000000
    12  C    0.002982   0.000288  -0.000178   0.000349  -0.000678  -0.000023
    13  H    0.000672   0.000000   0.000077   0.000000   0.000000   0.000001
    14  H    0.000000  -0.001616   0.000002   0.000037  -0.000136   0.000000
    15  H    0.000077   0.000002  -0.000017  -0.000040  -0.000024  -0.000024
    16  N    0.000000   0.000037  -0.000040   0.828050  -0.174066   0.013371
    17  N    0.000000  -0.000136  -0.000024  -0.174066   0.410115  -0.002380
    18  C    0.000001   0.000000  -0.000024   0.013371  -0.002380  -0.008103
    19  C    0.000000   0.000127  -0.000002  -0.005407   0.020934  -0.001429
    20  O    0.000000   0.000008   0.000000   0.003194  -0.004251   0.000054
    21  O    0.000000   0.000000  -0.000057  -0.010517   0.000750  -0.002260
    22  O    0.000000  -0.000050   0.000000   0.000147  -0.002739   0.000021
    23  O    0.000000   0.000000   0.000017  -0.012674   0.003552  -0.014951
    24  C    0.000000   0.000000   0.000000   0.000238  -0.000208   0.001724
    25  H    0.000000   0.000000  -0.000001  -0.000054   0.000032  -0.000265
    26  H    0.000000   0.000000   0.000003   0.000025  -0.000005   0.000041
    27  H    0.000000   0.000000  -0.000029   0.000006   0.000019  -0.000156
    28  C    0.000000  -0.000006   0.000000  -0.000006  -0.000098   0.000000
    29  H    0.000000  -0.000001   0.000000   0.000000   0.000003   0.000000
    30  H    0.000000   0.000008   0.000000  -0.000004   0.000040   0.000000
    31  H    0.000000  -0.000002   0.000000   0.000000   0.000008   0.000000
              19         20         21         22         23         24
     1  C   -0.002305   0.000165  -0.000205  -0.000832  -0.000006   0.000008
     2  C    0.001905   0.000026  -0.000085   0.000222   0.000036  -0.000009
     3  C   -0.000149  -0.000002   0.001337   0.000000  -0.000152   0.000112
     4  C   -0.000323   0.000000  -0.000301   0.000036  -0.000943  -0.000001
     5  H   -0.001015  -0.000007   0.000008   0.000667  -0.000083   0.000010
     6  H    0.000054   0.000000  -0.000093  -0.000001  -0.000450  -0.000120
     7  C    0.000183  -0.000010   0.000118   0.000048  -0.000004  -0.000002
     8  H   -0.000007   0.000001  -0.000035   0.000001   0.000001   0.000000
     9  H   -0.000034   0.000043  -0.000568   0.000006   0.000027  -0.000003
    10  C   -0.000144  -0.000001   0.000009   0.000063  -0.000008   0.000002
    11  H    0.000003   0.000000   0.000000   0.000001   0.000000   0.000000
    12  C    0.000044   0.000000  -0.000039  -0.000003  -0.000017  -0.000012
    13  H    0.000000   0.000000   0.000000   0.000000   0.000000   0.000000
    14  H    0.000127   0.000008   0.000000  -0.000050   0.000000   0.000000
    15  H   -0.000002   0.000000  -0.000057   0.000000   0.000017   0.000000
    16  N   -0.005407   0.003194  -0.010517   0.000147  -0.012674   0.000238
    17  N    0.020934  -0.004251   0.000750  -0.002739   0.003552  -0.000208
    18  C   -0.001429   0.000054  -0.002260   0.000021  -0.014951   0.001724
    19  C   -0.002950  -0.011504  -0.000030  -0.002280   0.000301  -0.000011
    20  O   -0.011504   0.064084   0.000000   0.001354  -0.000007   0.000000
    21  O   -0.000030   0.000000   0.047515   0.000000  -0.001275   0.000150
    22  O   -0.002280   0.001354   0.000000   0.015370  -0.000001   0.000000
    23  O    0.000301  -0.000007  -0.001275  -0.000001   0.045996  -0.001899
    24  C   -0.000011   0.000000   0.000150   0.000000  -0.001899   0.002691
    25  H    0.000002   0.000000  -0.000008   0.000000   0.000114  -0.000448
    26  H   -0.000001   0.000000  -0.000271   0.000000  -0.000234   0.000696
    27  H    0.000001   0.000000  -0.000094   0.000000   0.000277  -0.000263
    28  C    0.000169  -0.000059   0.000000  -0.000320   0.000000   0.000000
    29  H   -0.000008  -0.000004   0.000000   0.000001   0.000000   0.000000
    30  H   -0.000008  -0.000174   0.000000  -0.000022   0.000000   0.000000
    31  H    0.000059  -0.000193   0.000000  -0.000080   0.000000   0.000000
              25         26         27         28         29         30
     1  C   -0.000001   0.000004  -0.000005  -0.000008  -0.000014   0.000008
     2  C    0.000001   0.000000   0.000005   0.000004  -0.000002  -0.000013
     3  C   -0.000012   0.000008  -0.000112   0.000000   0.000000   0.000000
     4  C    0.000007  -0.000019   0.000088  -0.000001   0.000000   0.000000
     5  H   -0.000002   0.000000  -0.000001   0.000017   0.000010   0.000002
     6  H    0.000050  -0.000017   0.000217   0.000000   0.000000   0.000000
     7  C    0.000000  -0.000001   0.000006   0.000000   0.000000   0.000000
     8  H    0.000000   0.000000   0.000000   0.000000   0.000000   0.000000
     9  H    0.000000   0.000000   0.000001  -0.000001   0.000000   0.000000
    10  C    0.000000   0.000000  -0.000001   0.000002   0.000004   0.000002
    11  H    0.000000   0.000000   0.000000   0.000000   0.000000   0.000000
    12  C    0.000001   0.000000   0.000028   0.000000   0.000000   0.000000
    13  H    0.000000   0.000000   0.000000   0.000000   0.000000   0.000000
    14  H    0.000000   0.000000   0.000000  -0.000006  -0.000001   0.000008
    15  H   -0.000001   0.000003  -0.000029   0.000000   0.000000   0.000000
    16  N   -0.000054   0.000025   0.000006  -0.000006   0.000000  -0.000004
    17  N    0.000032  -0.000005   0.000019  -0.000098   0.000003   0.000040
    18  C   -0.000265   0.000041  -0.000156   0.000000   0.000000   0.000000
    19  C    0.000002  -0.000001   0.000001   0.000169  -0.000008  -0.000008
    20  O    0.000000   0.000000   0.000000  -0.000059  -0.000004  -0.000174
    21  O   -0.000008  -0.000271  -0.000094   0.000000   0.000000   0.000000
    22  O    0.000000   0.000000   0.000000  -0.000320   0.000001  -0.000022
    23  O    0.000114  -0.000234   0.000277   0.000000   0.000000   0.000000
    24  C   -0.000448   0.000696  -0.000263   0.000000   0.000000   0.000000
    25  H    0.001578  -0.000364   0.000415   0.000000   0.000000   0.000000
    26  H   -0.000364   0.000563  -0.000013   0.000000   0.000000   0.000000
    27  H    0.000415  -0.000013   0.000174   0.000000   0.000000   0.000000
    28  C    0.000000   0.000000   0.000000  -0.001897   0.000068   0.000212
    29  H    0.000000   0.000000   0.000000   0.000068  -0.000019   0.000018
    30  H    0.000000   0.000000   0.000000   0.000212   0.000018   0.000697
    31  H    0.000000   0.000000   0.000000   0.000216  -0.000037   0.000018
              31
     1  C   -0.000016
     2  C    0.000006
     3  C    0.000000
     4  C    0.000000
     5  H    0.000001
     6  H    0.000000
     7  C    0.000000
     8  H    0.000000
     9  H    0.000000
    10  C    0.000000
    11  H    0.000000
    12  C    0.000000
    13  H    0.000000
    14  H   -0.000002
    15  H    0.000000
    16  N    0.000000
    17  N    0.000008
    18  C    0.000000
    19  C    0.000059
    20  O   -0.000193
    21  O    0.000000
    22  O   -0.000080
    23  O    0.000000
    24  C    0.000000
    25  H    0.000000
    26  H    0.000000
    27  H    0.000000
    28  C    0.000216
    29  H   -0.000037
    30  H    0.000018
    31  H    0.000926
 Mulliken charges and spin densities:
               1          2
     1  C    0.183251   0.026621
     2  C   -0.249696  -0.072063
     3  C   -0.159706   0.068220
     4  C   -0.104628   0.070527
     5  H    0.060438   0.000652
     6  H    0.054360  -0.001812
     7  C    0.172618   0.037914
     8  H    0.050546  -0.000871
     9  H    0.060082  -0.003492
    10  C    0.058288   1.057857
    11  H    0.031076  -0.047097
    12  C   -0.036819  -0.115613
    13  H    0.047543   0.001038
    14  H    0.048718  -0.000775
    15  H    0.056695  -0.001158
    16  N   -0.137647   0.645594
    17  N   -0.235509   0.230286
    18  C    0.290819  -0.012685
    19  C    0.387003  -0.003822
    20  O   -0.236690   0.052716
    21  O   -0.270110   0.034048
    22  O   -0.368535   0.011608
    23  O   -0.357078   0.017618
    24  C    0.122567   0.002657
    25  H    0.068223   0.001047
    26  H    0.068503   0.000416
    27  H    0.056620   0.000566
    28  C    0.131586  -0.001706
    29  H    0.071250   0.000020
    30  H    0.068136   0.000784
    31  H    0.068096   0.000905
 Sum of Mulliken charges =   0.00000   2.00000
 Mulliken charges and spin densities with hydrogens summed into heavy atoms:
               1          2
     1  C    0.243689   0.027273
     2  C   -0.200977  -0.072838
     3  C   -0.103011   0.067062
     4  C   -0.050268   0.068715
     7  C    0.283246   0.033551
    10  C    0.089363   1.010761
    12  C    0.010724  -0.114575
    16  N   -0.137647   0.645594
    17  N   -0.235509   0.230286
    18  C    0.290819  -0.012685
    19  C    0.387003  -0.003822
    20  O   -0.236690   0.052716
    21  O   -0.270110   0.034048
    22  O   -0.368535   0.011608
    23  O   -0.357078   0.017618
    24  C    0.315913   0.004686
    28  C    0.339068   0.000003
 Electronic spatial extent (au):  <R**2>=           3663.7830
 Charge=              0.0000 electrons
 Dipole moment (field-independent basis, Debye):
[...]
 00002623,-0.00000876,-0.00002372,-0.00000893,0.00000098,-0.00001185,0.
 00000114,-0.00003210,-0.00003679,0.00002140,0.00000108,-0.00001550,-0.
 00000170,-0.00000293,0.00000237,-0.00000181,-0.00001114,0.00001351,-0.
 00000333,-0.00049896,-0.00003499,-0.00064157,-0.00032322,-0.00002608,0
 .00012280,0.00048661,0.00068760,0.00273423,0.00055845,-0.00017952,0.00
 001766,-0.00015984,0.00013861,-0.00004679,-0.00073135,-0.00045866,-0.0
 0049773,-0.00021906,-0.00006042,0.00007850,-0.00411924,-0.00265993,-0.
 00745037,0.00745788,-0.08793166,-0.30851000,-0.00280338,0.09628305,0.3
 2504000,0.00008269,0.00038362,-0.00003498,0.00005630,-0.00000292,0.000
 06074,0.00000930,0.00011888,0.00002798,0.00007675,-0.00033554,0.000050
 74,0.00000886,-0.00003953,0.00001272,-0.00023527,0.00001229,-0.0000999
 3,0.00000368,0.00000972,-0.00002514,0.00000435,-0.00001636,-0.00000019
 ,0.00000588,0.00001074,0.00002913,0.00000936,-0.00003333,-0.00000870,-
 0.00000370,-0.00001187,-0.00000013,-0.00004653,-0.00004574,0.00004200,
 -0.00000037,-0.00003116,-0.00000785,-0.00000022,0.00000436,-0.00000064
 ,-0.00001545,-0.00001666,-0.00003166,-0.00098097,0.00043171,-0.0008017
 2,0.00003619,0.00004403,-0.00023634,0.00036053,0.00170463,0.00948070,0
 .00065601,-0.00017773,0.00003354,-0.00021090,0.00016261,-0.00004874,0.
 00196912,0.00004529,-0.00207807,-0.00026035,-0.00007091,0.00008539,-0.
 03168732,-0.02757080,0.01071817,-0.08978566,-0.07054793,0.06481923,0.0
 0120403,0.00066598,-0.00002340,0.11034501,0.00008510,-0.00008823,-0.00
 004369,-0.00005061,0.00002046,-0.00002180,-0.00001127,0.00006069,-0.00
 000380,-0.00003919,0.00015619,0.00007425,0.00000064,0.00000967,-0.0000
 0418,0.00023555,0.00018632,-0.00011126,0.00001486,-0.00003399,0.000006
 86,-0.00001188,-0.00000303,-0.00001060,-0.00001905,-0.00000046,-0.0000
 0939,0.00002333,-0.00000217,-0.00000242,-0.00000957,-0.00000323,-0.000
 00582,-0.00004399,0.00000566,-0.00000158,0.00000112,0.00000514,-0.0000
 0183,-0.00000456,-0.00001290,-0.00001051,-0.00000448,0.00000404,0.0000
 2302,0.00001923,-0.00028850,-0.00023928,0.00011673,0.00000984,-0.00011
 695,-0.00187873,0.00141425,0.00455930,0.00002440,0.00003148,0.00002904
 ,-0.00001524,0.00000640,-0.00001186,0.00270361,0.00028938,-0.00041060,
 -0.00000467,0.00000798,-0.00000546,-0.00593110,0.00017970,-0.00362632,
 -0.07559179,-0.17961153,0.11648933,0.00585892,0.00935377,-0.00711805,0
 .08530336,0.18401866,0.00005069,0.00001928,0.00002051,-0.00000966,0.00
 001774,0.00000239,0.00001603,0.00001573,-0.00000780,-0.00004963,-0.000
 03420,0.00003128,0.00000276,-0.00001212,0.00000197,0.00003512,-0.00000
 366,-0.00003522,0.00000351,0.00000744,0.00000197,0.00000497,0.00000322
 ,0.00000121,-0.00002613,-0.00000434,-0.00000886,0.00000223,0.00000353,
 -0.00000906,0.00000071,0.00000108,0.00000363,0.00002536,0.00001080,0.0
 0002483,0.00000494,-0.00000466,-0.00000734,0.00000224,-0.00000238,-0.0
 0000005,0.00001365,-0.00001488,0.00000187,-0.00013034,0.00078959,-0.00
 058811,0.00025644,0.00006480,0.00002667,-0.00225871,-0.00124260,0.0028
 7226,-0.00000347,0.00002951,-0.00005734,-0.00000361,-0.00001855,0.0000
 1743,0.00059837,-0.00006316,-0.00073166,0.00001288,-0.00001682,0.00000
 751,-0.00660976,-0.01112954,0.00800322,0.07191335,0.12154056,-0.157519
 93,0.01010443,0.01998736,-0.01255578,-0.07282239,-0.12613640,0.1582106
 3,-0.00019160,0.00048061,-0.00013747,0.00014361,-0.00005904,0.00016123
 ,0.00005624,-0.00007745,-0.00007570,-0.00004042,-0.00014383,-0.0001409
 3,0.00003893,-0.00006080,0.00002417,-0.00077070,-0.00041895,0.00019292
 ,-0.00004371,0.00007197,-0.00003946,0.00004036,-0.00001102,0.00002367,
 0.00002116,0.00001381,0.00005357,-0.00006678,0.00001710,-0.00004579,0.
 00003259,-0.00000829,0.00002659,0.00017316,-0.00003671,0.00004958,0.00
 000842,-0.00002047,-0.00001028,0.00001143,0.00002547,0.00001536,0.0000
 2502,-0.00002461,-0.00004095,-0.00091178,-0.00081205,-0.00087748,-0.00
 057314,-0.00001068,0.00010274,0.00063434,0.00395849,0.00922309,0.00088
 735,-0.00019854,0.00004957,-0.00021057,0.00015296,-0.00007884,0.001731
 53,-0.00076343,-0.00218336,-0.00031055,-0.00013631,0.00012558,-0.03458
 440,0.02452190,-0.00795584,-0.10561506,0.10821258,0.01016546,0.0015755
 7,-0.00061564,0.00042047,0.00834128,-0.01078010,-0.00112808,0.12953797
 ,-0.00004705,-0.00008199,-0.00002844,-0.00002920,0.00001745,-0.0000006
 1,0.00001247,-0.00012296,-0.00002229,-0.00030286,0.00036733,-0.0002409
 4,0.00002952,-0.00000828,0.00000902,0.00004217,0.00013068,0.00031301,-
 0.00001555,0.00003952,-0.00000974,0.00001771,0.00000524,0.00000950,0.0
 0000522,0.00000310,0.00000474,-0.00002508,0.00004861,0.00000311,0.0000
 1752,0.00000120,0.00000530,0.00015740,0.00002475,0.00001856,0.00000857
 ,0.00000865,-0.00000175,-0.00000032,-0.00000860,-0.00000182,0.00010354
 ,0.00004569,-0.00001143,-0.00032977,-0.00042796,0.00030618,-0.00017630
 ,-0.00009219,0.00004097,0.00037677,0.00038020,-0.00244805,0.00001356,-
 0.00006390,0.00001838,0.00000353,0.00003194,-0.00000936,-0.00137001,0.
 00020520,0.00008613,0.00000760,0.00001348,-0.00000707,-0.00231075,0.01
 266411,0.00208233,0.11476463,-0.26391083,-0.01837964,0.00230489,-0.005
 46491,0.00141239,0.01001677,-0.01571570,-0.00381040,-0.12326632,0.2719
 1244,0.00000299,-0.00002208,-0.00006515,-0.00001453,0.00001042,0.00001
 862,-0.00007473,0.00001110,-0.00004923,0.00009902,0.00013367,0.0001850
 7,0.00001848,-0.00000928,0.00000532,0.00014560,0.00007134,-0.00003425,
 0.00000427,-0.00000586,-0.00004289,0.00000081,-0.00000356,-0.00000346,
 -0.00001188,0.00000718,0.00000495,0.00002255,0.00000902,-0.00003564,-0
 .00000221,-0.00000334,0.00000424,0.00001057,0.00002523,0.00000644,0.00
 000162,0.00001390,0.00000236,0.00000081,-0.00000805,-0.00001272,0.0000
 6082,-0.00011544,-0.00004826,-0.00025498,-0.00052826,-0.00030887,-0.00
 013226,-0.00001242,0.00007056,-0.00244945,0.00239281,0.00368759,0.0002
 0314,-0.00006149,0.00003586,-0.00004820,0.00005967,-0.00003224,0.00171
 139,-0.00001945,-0.00055750,-0.00005802,-0.00001358,0.00001429,-0.0090
 2083,0.00803031,-0.00157248,0.01300933,-0.02252948,-0.05272906,0.01381
 905,-0.02480452,0.00179153,-0.00913812,0.01671295,0.00229366,-0.007919
 84,0.02066200,0.04737330,-0.00045376,0.00140825,-0.00060025,-0.0001645
 9,-0.00000996,0.00021652,0.00032117,0.00022449,-0.00001614,-0.00008874
 ,-0.00033737,-0.00054999,-0.00051407,0.00029774,-0.00082256,0.00017451
 ,-0.00002338,-0.00006610,0.00001194,-0.00012044,0.00000273,0.00012140,
 -0.00016345,-0.00005784,-0.00000666,0.00001808,0.00019237,0.00000656,0
 .00012752,-0.00014970,0.00009855,-0.00016911,-0.00000178,0.00008842,-0
 .00017444,0.00030863,0.00008004,-0.00007918,-0.00003034,0.00018535,0.0
 0065436,0.00053576,0.00005356,-0.00006224,-0.00002005,0.00278255,-0.00
 051903,0.00023007,0.00745692,-0.00080279,0.00093330,-0.00435002,-0.000
 50704,-0.00120717,-0.06091353,-0.02127626,0.02309677,0.00117468,0.0153
 8380,-0.01048578,0.00198747,0.00022138,-0.00052979,-0.21735622,0.03737
 251,0.00140341,0.00141649,0.00053535,0.00135363,-0.00070770,-0.0001842
 5,-0.00024246,0.00007612,0.00001715,0.00008003,0.00009529,0.00001080,-
 0.00000706,0.00010298,-0.00000813,0.00002419,0.49582039,0.00018723,-0.
 00069129,0.00070114,0.00006224,0.00009036,0.00005717,0.00005657,-0.000
 01997,-0.00001266,0.00004704,0.00021267,-0.00014333,0.00045914,-0.0001
 1931,-0.00021442,0.00000368,-0.00001060,0.00000746,0.00001397,-0.00002
 703,-0.00002179,-0.00000168,0.00002063,-0.00000326,0.00000163,-0.00001
 449,-0.00003335,0.00002428,0.00001690,0.00002163,0.00000028,0.00000203
 ,-0.00001148,-0.00007390,0.00002467,-0.00002042,-0.00000821,0.00001614
 ,0.00000752,0.00008048,-0.00005910,-0.00008640,-0.00000351,-0.00001989
 ,-0.00000805,-0.00222939,0.00032545,0.00046399,-0.00217968,-0.00192907
 ,0.00408868,0.00084122,0.00010967,0.00033410,-0.02630394,0.01036973,-0
 .00236586,-0.00406311,-0.00395042,0.00052104,-0.00049212,-0.00004072,0
 .00011902,0.06307066,-0.09730233,0.00820111,-0.00029717,-0.00014205,-0
 .00029126,0.00013076,0.00002852,0.00003516,-0.00002291,-0.00000232,-0.
 00001858,-0.00002257,-0.00000059,0.00000338,-0.00001906,-0.00000260,-0
 .00000537,0.04694278,0.62481907,-0.00044610,0.00031020,-0.00054662,0.0
 0005502,-0.00008379,-0.00011644,-0.00011964,-0.00001072,-0.00000484,-0
 .00007817,-0.00004455,0.00031816,-0.00017147,-0.00018184,0.00050315,-0
 .00002730,0.00001458,-0.00000662,-0.00000402,0.00000883,-0.00000276,-0
 .00000615,-0.00000337,0.00001114,0.00001927,0.00000660,-0.00000127,0.0
 0000038,-0.00002431,-0.00002178,-0.00001826,0.00002282,0.00001567,0.00
 001833,0.00000468,-0.00004749,-0.00001302,0.00000999,0.00000388,0.0000
 6968,-0.00009501,0.00002822,-0.00000772,0.00003650,0.00001116,0.000733
 95,0.00047774,0.00107957,0.00098556,0.00402407,0.00103309,0.00022650,-
 0.00007519,-0.00025695,0.02603327,-0.00296187,-0.00300378,0.00181523,-
 0.00293554,-0.00284898,0.00014334,-0.00000431,-0.00005177,-0.01385773,
 0.01260134,-0.07055492,-0.00008596,-0.00004541,-0.00004503,0.00001706,
 0.00001535,0.00000522,-0.00000608,-0.00000127,-0.00000441,-0.00000167,
 -0.00000220,0.00000049,-0.00000094,-0.00000053,-0.00000225,-0.01046301
 ,-0.01773671,0.61863892,0.00006956,-0.00037933,0.00024761,-0.00002275,
 0.00002135,-0.00005839,0.00001499,-0.00003648,-0.00001704,0.00002969,0
 .00007769,0.00000929,0.00001527,-0.00001126,0.00002341,-0.00001455,-0.
 00000544,0.00001266,0.00000780,-0.00000257,0.00003176,-0.00000913,0.00
 001855,-0.00000103,0.00000323,-0.00000024,-0.00003327,0.00000809,0.000
 00898,0.00000205,-0.00001436,0.00002379,0.00000270,-0.00001491,0.00003
 844,-0.00004051,-0.00000489,0.00001447,0.00000713,-0.00002091,-0.00004
 337,-0.00000412,-0.00000013,0.00000250,0.00000118,-0.00091275,0.000111
 19,-0.00014694,-0.00095120,-0.00112315,0.00089906,0.00061159,0.0000836
 0,0.00027163,-0.00326360,0.00587269,-0.00289618,0.00160030,-0.00123459
 ,0.00059904,-0.00033626,-0.00002724,0.00007784,-0.03175005,-0.02446957
 ,0.02063680,-0.00019445,-0.00006768,-0.00020620,0.00008851,0.00001794,
 0.00002726,-0.00001289,-0.00000390,-0.00001096,-0.00001303,0.00000044,
 -0.00000010,-0.00001596,0.00000039,-0.00000223,-0.10311561,-0.08862782
 ,0.06479632,0.12806682,-0.00004828,0.00001476,-0.00002242,0.00001837,0
 .00000079,0.00000235,-0.00001627,-0.00000449,0.00000330,-0.00000004,0.
 00000008,0.00001509,-0.00002155,0.00001328,0.00005103,-0.00000652,-0.0
 0000077,0.00000246,-0.00000381,-0.00000094,-0.00000859,-0.00000142,0.0
 0000333,0.00000056,0.00000061,0.00000055,-0.00000377,-0.00000326,-0.00
 000178,0.00000492,0.00000073,-0.00000026,0.00000009,-0.00000155,0.0000
 0404,-0.00000627,-0.00000385,0.00000165,0.00000010,-0.00001017,-0.0000
 1266,-0.00002846,-0.00000274,0.00000154,-0.00000044,0.00008322,0.00005
 481,0.00002910,0.00002984,0.00044912,-0.00023293,0.00012832,0.00001265
 ,-0.00000856,0.00327070,-0.00133066,0.00044918,-0.00157864,0.00088119,
 0.00007330,-0.00002414,-0.00000505,0.00000687,0.01008262,0.00958472,-0
 .00767801,-0.00004328,-0.00001341,-0.00004021,0.00002094,0.00000447,0.
 00000887,-0.00000196,-0.00000133,-0.00000198,-0.00000204,-0.00000056,-
 0.00000033,-0.00000280,0.00000084,-0.00000029,-0.10080044,-0.20276403,
 0.11241072,0.09942896,0.20515165,0.00000644,0.00007113,0.00000432,0.00
 003853,0.00000531,0.00003530,-0.00000291,0.00001268,0.00000521,-0.0000
 0682,-0.00002630,-0.00003316,-0.00000704,0.00001271,-0.00003770,-0.000
 00008,0.00000029,-0.00000172,-0.00000749,0.00000214,-0.00002404,0.0000
 0517,-0.00000647,-0.00000225,-0.00000273,0.00000093,0.00000902,-0.0000
 0139,-0.00000602,0.00000264,0.00000785,-0.00000945,0.00000057,-0.00000
 359,-0.00000779,0.00001380,-0.00000219,-0.00000479,-0.00000118,0.00002
 423,0.00000868,-0.00002007,-0.00000141,-0.00000381,-0.00000437,0.00005
 965,-0.00003340,0.00007525,0.00020130,0.00000088,0.00015488,-0.0001521
 5,-0.00002939,-0.00004687,-0.00151311,-0.00004103,0.00043714,0.0007733
 7,0.00001959,0.00045650,0.00007244,0.00000456,-0.00002096,-0.00105611,
 -0.00197030,0.00147928,0.00004138,0.00001172,0.00003806,-0.00002164,-0
 .00000302,-0.00000668,0.00000164,0.00000024,0.00000213,0.00000251,0.,-
 0.00000008,0.00000365,-0.00000047,0.00000062,0.07261239,0.11044787,-0.
 13438936,-0.07706361,-0.11830370,0.13320747,0.00007628,-0.00026234,-0.
 00009786,-0.00004473,-0.00005352,-0.00009512,-0.00006267,-0.00004353,-
 0.00000548,-0.00000336,0.00003245,0.00016375,0.00006050,-0.00010027,0.
 00024373,-0.00002361,0.00000572,0.00000884,0.00000537,0.00002667,0.000
 02820,-0.00001947,0.00002218,0.00001004,-0.00000531,-0.00000713,-0.000
 02689,0.00001682,0.00001027,0.00001660,-0.00001339,0.00002371,0.000002
 04,0.00001374,0.00000975,-0.00004094,-0.00000662,0.00001553,0.00000720
 ,-0.00001518,-0.00003507,-0.00005132,-0.00000318,0.00001961,0.00001143
 ,-0.00039456,0.00017562,0.00012906,-0.00099994,0.00030619,0.00071933,0
 .00061508,0.00002722,0.00013828,0.00419345,0.00710741,-0.00707926,0.00
 105533,-0.00247969,0.00175451,-0.00025697,-0.00002482,0.00006904,-0.03
 211600,0.00164991,-0.02986214,-0.00019453,-0.00006975,-0.00017160,0.00
 008643,0.00002650,0.00002484,-0.00001177,-0.00000223,-0.00001010,-0.00
 001224,-0.00000142,0.00000076,-0.00001353,-0.00000045,-0.00000395,-0.0
 7390510,0.00059354,-0.07579889,0.00712738,0.00116794,0.01387164,0.0921
 4288,0.00004422,0.00013301,0.00001088,0.00007991,0.00002434,0.00006252
 ,0.00001495,0.00002022,0.00000716,-0.00001044,-0.00005878,-0.00005954,
 -0.00001376,0.00001505,-0.00007243,0.00000729,0.00000111,-0.00000553,-
 0.00000849,-0.00000183,-0.00003014,0.00001038,-0.00001190,-0.00000446,
 0.00000132,0.00000582,0.00001394,-0.00001426,-0.00002091,-0.00000271,0
 .00000814,-0.00001275,0.00000088,-0.00000387,-0.00000718,0.00001870,-0
 .00000060,-0.00001041,-0.00000537,0.00000899,0.00000730,0.00000913,-0.
 00000111,-0.00000787,-0.00000769,0.00018780,-0.00007301,-0.00001120,0.
 00039264,-0.00024919,0.00014589,-0.00029320,-0.00002600,-0.00007397,-0
 .00247873,0.00078321,-0.00039911,0.00119316,-0.00017838,-0.00010299,0.
 00012840,0.00000335,-0.00003388,0.00840604,-0.00007542,0.00929366,0.00
 009077,0.00003041,0.00008977,-0.00004278,-0.00000668,-0.00001552,0.000
 00555,0.00000166,0.00000488,0.00000569,0.00000050,0.00000019,0.0000068
 9,-0.00000080,0.00000143,0.00065238,-0.05065610,0.00472271,0.00819183,
 0.00172818,0.02001399,-0.00721707,0.04598502,0.00005373,-0.00003408,-0
 .00009693,0.00000803,0.00000027,0.00000273,-0.00001182,-0.00000609,0.0
 0000089,0.00000510,0.00000483,0.00003068,0.00001222,-0.00001283,0.0000
 4590,-0.00000272,0.00000228,0.00000023,0.00000279,0.00001132,-0.000002
 72,-0.00000526,0.00000372,0.00000542,-0.00000141,-0.00000416,0.0000005
 1,0.00000226,-0.00000771,0.00001043,-0.00000329,0.00000467,-0.00000155
 ,0.00000286,-0.00000534,-0.00000258,-0.00000106,0.00000068,-0.00000082
 ,-0.00003901,-0.00002032,-0.00002891,-0.00000164,0.00000265,0.00000249
 ,-0.00006280,-0.00006627,0.00002407,0.00014816,-0.00047838,-0.00039338
 ,0.00000895,0.00000686,-0.00000536,0.00158861,0.00199392,0.00017770,0.
 00090558,-0.00064154,0.00032141,-0.00003025,0.00000104,0.00001908,-0.0
 0232733,0.00141358,0.00896592,-0.00001002,-0.00000084,0.00000768,0.000
 01160,0.00000053,0.00000263,0.00000079,0.00000053,0.00000036,-0.000001
 50,-0.00000071,0.00000061,0.00000046,0.,-0.00000020,-0.08617172,0.0051
 5127,-0.30518573,-0.00445151,-0.00220248,-0.01048011,0.09335526,-0.007
 51331,0.31640082,0.00020789,-0.00021594,0.00008075,0.00003555,0.000021
 22,-0.00001919,-0.00005920,-0.00003296,0.00000545,0.00001489,0.0000051
 7,0.00008899,-0.00001077,0.00002363,0.00015085,-0.00003284,0.00000559,
 0.00001274,-0.00000397,0.00002170,-0.00000254,-0.00002057,0.00002495,0
 .00000704,-0.00000026,0.00000098,-0.00002920,-0.00001374,-0.00002464,0
 .00002909,-0.00001666,0.00002779,0.00000022,-0.00000417,0.00003180,-0.
 00004732,-0.00001187,0.00000892,0.00000345,-0.00006638,-0.00012905,-0.
 00010946,-0.00000784,0.00001192,0.00000276,-0.00029154,0.00002672,-0.0
 0029452,-0.00133641,-0.00051969,-0.00051643,0.00061819,0.00010417,0.00
 029680,0.00448636,0.00830232,-0.00347845,0.00018853,-0.00259190,0.0011
 8988,-0.00030056,-0.00004218,0.00005638,-0.02255452,0.03359115,0.01913
 341,-0.00017895,-0.00008026,-0.00021583,0.00008622,0.00002786,0.000032
 34,-0.00001229,-0.00000263,-0.00001208,-0.00001263,-0.00000046,0.00000
 046,-0.00001375,-0.00000046,-0.00000342,-0.05047843,0.01182958,0.00619
 220,0.00302415,-0.01165949,-0.00787994,0.00270888,-0.00935206,-0.00298
 507,0.06405670,-0.00006906,0.00004439,-0.00008256,-0.00003179,0.000003
 11,0.00000892,0.00003698,0.00001282,-0.00000668,-0.00001193,-0.0000019
 3,-0.00003228,-0.00002994,0.00000923,-0.00008558,0.00002163,-0.0000054
 0,-0.00000519,0.00000482,-0.00001036,0.00002566,0.00000809,-0.00000754
 ,-0.00000425,-0.00000150,0.00000176,0.00000624,0.00000405,0.00001376,-
 0.00001755,0.00000401,-0.00000832,0.00000129,0.00000751,-0.00001318,0.
 00002306,0.00000952,-0.00000511,-0.00000240,0.00001497,0.00006881,0.00
 006833,0.00000642,-0.00000528,0.00000044,0.00025522,0.00003191,0.00005
 072,0.00016932,-0.00017248,-0.00041963,-0.00022262,-0.00004478,-0.0001
 0814,-0.00288164,-0.00115030,0.00260098,-0.00064425,0.00075747,-0.0003
 5012,0.00011034,0.00001610,-0.00001957,0.01004106,-0.00320140,-0.00139
 884,0.00006766,0.00003838,0.00008574,-0.00003785,-0.00001305,-0.000018
 13,0.00000521,0.00000178,0.00000555,0.00000541,0.00000074,-0.00000019,
 0.00000433,0.00000029,0.00000143,0.02137090,-0.27828394,-0.11045957,0.
 00211981,-0.01377173,-0.01016679,-0.00092292,0.00265801,0.00239591,-0.
 02941375,0.29303622,-0.00010946,-0.00004582,0.00001356,-0.00002373,0.0
 0001590,-0.00001722,0.00000455,-0.00000723,-0.00000533,0.00000220,0.00
 003544,-0.00000886,-0.00001408,0.00003399,0.00000568,-0.00000293,-0.00
 000277,0.00000377,0.00000087,-0.00000597,0.00001012,-0.00000156,0.0000
 0413,0.00000028,-0.00000223,-0.00000208,-0.00000474,0.00000456,0.00000
 910,-0.00000094,-0.00000092,0.00000275,0.,-0.00000375,0.00000663,-0.00
 000603,-0.00000035,0.00000434,0.00000299,-0.00000324,-0.00000005,-0.00
 000850,0.00000076,-0.00000043,0.00000146,-0.00001967,0.00005910,-0.000
 03124,-0.00014989,0.00029137,-0.00024990,0.00010632,0.00001200,0.00002
 178,0.00060245,-0.00336286,0.00202276,-0.00149094,0.00120005,-0.000412
 66,-0.00003911,0.00000217,0.00000855,0.00244818,0.00362229,0.00224860,
 -0.00003375,-0.00000960,-0.00004050,0.00001510,-0.00000002,0.00000800,
 -0.00000247,-0.00000157,-0.00000152,-0.00000169,-0.00000003,-0.0000009
 6,-0.00000317,0.00000094,-0.00000021,0.01043196,-0.10918758,-0.1045576
 5,-0.00271364,0.01548050,0.00914634,0.00268902,-0.02605786,-0.00982125
 ,-0.01168938,0.11790319,0.10167363\\0.00000484,-0.00000141,-0.00000500
 ,0.00000368,0.00000037,0.00000834,0.00000001,-0.00000408,-0.00000446,-
 0.00000688,0.00000039,0.00000187,-0.00000039,0.00000503,-0.00000113,0.
 00000019,-0.00000168,-0.00000085,-0.00000188,0.00000165,0.00000292,-0.
 00000553,-0.00000468,0.00000337,0.00000144,-0.00000208,-0.00000012,-0.
 00001831,-0.00000048,0.00001583,-0.00000528,0.00000250,0.00000251,-0.0
 0001291,-0.00000841,0.00000471,-0.00000606,-0.00000029,0.00000327,-0.0
 0000382,0.00000284,0.00000324,-0.00000388,-0.00000717,0.00000186,0.000
 00806,0.00000140,0.00000450,0.00001346,-0.00001182,-0.00000487,0.00000
 374,-0.00000573,-0.00000263,-0.00001030,0.00002653,-0.00000263,0.00000
 082,-0.00000194,-0.00000856,0.00000500,-0.00000896,-0.00000438,-0.0000
 0950,0.00000291,0.00001342,0.00000200,-0.00000238,-0.00000201,0.000007
 61,-0.00000556,-0.00000436,0.00000514,-0.00000407,-0.00000345,0.000008
 11,-0.00000869,-0.00000389,0.00000130,-0.00000775,-0.00000008,0.000009
 87,0.00000532,-0.00001328,-0.00000021,0.00001219,-0.00000234,0.0000037
 0,0.00001289,-0.00000222,0.00000596,0.00001316,0.00000040\\\@



 IN THIS SHORT LIFE

 THAT ONLY LASTS AN HOUR

 HOW MUCH, HOW LITTLE, IS WITHIN OUR POWER....


 EMILY DICKINSON BOLTS OF MELODY NO. 521
 Job cpu time:       0 days  2 hours  1 minutes 47.9 seconds.
 File lengths (MBytes):  RWF=    689 Int=      0 D2E=      0 Chk=     22 Scr=      1
 Normal termination of Gaussian 09 at Sun Jul 11 19:58:43 2021.
