 Entering Gaussian System, Link 0=g09
 Input=CH2NO2H_opt.com
 Output=CH2NO2H_opt.log
 Initial command:
 /apps/applications/gaussian/G09.D01/2/default/g09/l1.exe "/nobackup/chmbnn/Gau-185600.inp" -scrdir="/nobackup/chmbnn/"
 Entering Link 1 = /apps/applications/gaussian/G09.D01/2/default/g09/l1.exe PID=    185601.
  
 Copyright (c) 1988,1990,1992,1993,1995,1998,2003,2009,2013,
            Gaussian, Inc.  All Rights Reserved.
  
 This is part of the Gaussian(R) 09 program.  It is based on
 the Gaussian(R) 03 system (copyright 2003, Gaussian, Inc.),
 the Gaussian(R) 98 system (copyright 1998, Gaussian, Inc.),
 the Gaussian(R) 94 system (copyright 1995, Gaussian, Inc.),
 the Gaussian 92(TM) system (copyright 1992, Gaussian, Inc.),
 the Gaussian 90(TM) system (copyright 1990, Gaussian, Inc.),
 the Gaussian 88(TM) system (copyright 1988, Gaussian, Inc.),
 the Gaussian 86(TM) system (copyright 1986, Carnegie Mellon
 University), and the Gaussian 82(TM) system (copyright 1983,
 Carnegie Mellon University). Gaussian is a federally registered
 trademark of Gaussian, Inc.
  
 This software contains proprietary and confidential information,
 including trade secrets, belonging to Gaussian, Inc.
  
 This software is provided under written license and may be
 used, copied, transmitted, or stored only in accord with that
 written license.
  
 The following legend is applicable only to US Government
 contracts under FAR:
  
                    RESTRICTED RIGHTS LEGEND
  
 Use, reproduction and disclosure by the US Government is
 subject to restrictions as set forth in subparagraphs (a)
 and (c) of the Commercial Computer Software - Restricted
 Rights clause in FAR 52.227-19.
  
 Gaussian, Inc.
 340 Quinnipiac St., Bldg. 40, Wallingford CT 06492
  
  
 ---------------------------------------------------------------
 Warning -- This program may not be used in any manner that
 competes with the business of Gaussian, Inc. or will provide
 assistance to any competitor of Gaussian, Inc.  The licensee
 of this program is prohibited from giving any competitor of
 Gaussian, Inc. access to this program.  By using this program,
 the user acknowledges that Gaussian, Inc. is engaged in the
 business of creating and licensing software in the field of
 computational chemistry and represents and warrants to the
 licensee that it is not a competitor of Gaussian, Inc. and that
 it will not use this program in any manner prohibited above.
 ---------------------------------------------------------------
  

 Cite this work as:
 Gaussian 09, Revision D.01,
 M. J. Frisch, G. W. Trucks, H. B. Schlegel, G. E. Scuseria, 
 M. A. Robb, J. R. Cheeseman, G. Scalmani, V. Barone, B. Mennucci, 
 G. A. Petersson, H. Nakatsuji, M. Caricato, X. Li, H. P. Hratchian, 
 A. F. Izmaylov, J. Bloino, G. Zheng, J. L. Sonnenberg, M. Hada, 
 M. Ehara, K. Toyota, R. Fukuda, J. Hasegawa, M. Ishida, T. Nakajima, 
 Y. Honda, O. Kitao, H. Nakai, T. Vreven, J. A. Montgomery, Jr., 
 J. E. Peralta, F. Ogliaro, M. Bearpark, J. J. Heyd, E. Brothers, 
 K. N. Kudin, V. N. Staroverov, T. Keith, R. Kobayashi, J. Normand, 
 K. Raghavachari, A. Rendell, J. C. Burant, S. S. Iyengar, J. Tomasi, 
 M. Cossi, N. Rega, J. M. Millam, M. Klene, J. E. Knox, J. B. Cross, 
 V. Bakken, C. Adamo, J. Jaramillo, R. Gomperts, R. E. Stratmann, 
 O. Yazyev, A. J. Austin, R. Cammi, C. Pomelli, J. W. Ochterski, 
 R. L. Martin, K. Morokuma, V. G. Zakrzewski, G. A. Voth, 
 P. Salvador, J. J. Dannenberg, S. Dapprich, A. D. Daniels, 
 O. Farkas, J. B. Foresman, J. V. Ortiz, J. Cioslowski, 
 and D. J. Fox, Gaussian, Inc., Wallingford CT, 2013.
 
 ******************************************
 Gaussian 09:  ES64L-G09RevD.01 24-Apr-2013
                 4-Aug-2021 
 ******************************************
 %nprocshared=4
 Will use up to    4 processors via shared memory.
 %chk=CH2NO2H_opt.chk
 -----------------------------------------------------------------
 # opt freq scrf=(cpcm,solvent=nitromethane) pop=nbo def2svp m062x
 -----------------------------------------------------------------
 1/14=-1,18=20,19=15,26=3,38=1/1,3;
 2/9=110,12=2,17=6,18=5,40=1/2;
 3/5=43,7=101,11=2,16=1,25=1,30=1,70=2101,71=1,72=15,74=-55/1,2,3;
 4//1;
 5/5=2,38=5,53=15/2;
 6/7=2,8=2,9=2,10=2,28=1,40=1/1,7;
 7//1,2,3,16;
 1/14=-1,18=20,19=15,26=3/3(2);
 2/9=110/2;
 99//99;
 2/9=110/2;
 3/5=43,7=101,11=2,16=1,25=1,30=1,70=2105,71=1,72=15,74=-55/1,2,3;
 4/5=5,16=3,69=1/1;
 5/5=2,38=5,53=15/2;
 7//1,2,3,16;
 1/14=-1,18=20,19=15,26=3/3(-5);
 2/9=110/2;
 6/7=2,8=2,9=2,10=2,19=2,28=1,40=1/1,7;
 99/9=1/99;
 -------
 CH2NO2H
 -------
 Symbolic Z-matrix:
 Charge =  0 Multiplicity = 1
 N                     1.20229  -0.05781   0.07098 
 O                     2.17385   0.2106   -0.6185 
 O                     0.71166  -1.22737   0.01505 
 C                     0.58497   0.89063   0.85213 
 H                     1.10452   1.78855   1.11427 
 H                    -0.41494   0.73074   1.19783 
 H                     1.29294  -1.99051  -0.02145 
 

 GradGradGradGradGradGradGradGradGradGradGradGradGradGradGradGradGradGrad
 Berny optimization.
 Initialization pass.
                           ----------------------------
                           !    Initial Parameters    !
                           ! (Angstroms and Degrees)  !
 --------------------------                            --------------------------
 ! Name  Definition              Value          Derivative Info.                !
 --------------------------------------------------------------------------------
 ! R1    R(1,2)                  1.2212         estimate D2E/DX2                !
 ! R2    R(1,3)                  1.2695         estimate D2E/DX2                !
 ! R3    R(1,4)                  1.3751         estimate D2E/DX2                !
 ! R4    R(3,7)                  0.96           estimate D2E/DX2                !
 ! R5    R(4,5)                  1.07           estimate D2E/DX2                !
 ! R6    R(4,6)                  1.07           estimate D2E/DX2                !
 ! A1    A(2,1,3)              119.0172         estimate D2E/DX2                !
 ! A2    A(2,1,4)              121.7554         estimate D2E/DX2                !
 ! A3    A(3,1,4)              119.1403         estimate D2E/DX2                !
 ! A4    A(1,3,7)              120.0            estimate D2E/DX2                !
 ! A5    A(1,4,5)              120.0            estimate D2E/DX2                !
 ! A6    A(1,4,6)              120.0            estimate D2E/DX2                !
 ! A7    A(5,4,6)              120.0            estimate D2E/DX2                !
 ! D1    D(2,1,3,7)             41.064          estimate D2E/DX2                !
 ! D2    D(4,1,3,7)           -142.2705         estimate D2E/DX2                !
 ! D3    D(2,1,4,5)            -19.1663         estimate D2E/DX2                !
 ! D4    D(2,1,4,6)            160.8337         estimate D2E/DX2                !
 ! D5    D(3,1,4,5)            164.2631         estimate D2E/DX2                !
 ! D6    D(3,1,4,6)            -15.7369         estimate D2E/DX2                !
 --------------------------------------------------------------------------------
 Trust Radius=3.00D-01 FncErr=1.00D-07 GrdErr=1.00D-06
 Number of steps in this run=     29 maximum allowed number of steps=    100.
 GradGradGradGradGradGradGradGradGradGradGradGradGradGradGradGradGradGrad

                          Input orientation:                          
 ---------------------------------------------------------------------
 Center     Atomic      Atomic             Coordinates (Angstroms)
 Number     Number       Type             X           Y           Z
 ---------------------------------------------------------------------
      1          7           0        1.202294   -0.057814    0.070981
      2          8           0        2.173845    0.210596   -0.618495
      3          8           0        0.711659   -1.227368    0.015048
      4          6           0        0.584969    0.890630    0.852132
      5          1           0        1.104516    1.788545    1.114274
      6          1           0       -0.414943    0.730736    1.197834
      7          1           0        1.292941   -1.990506   -0.021448
 ---------------------------------------------------------------------
                    Distance matrix (angstroms):
                    1          2          3          4          5
     1  N    0.000000
     2  O    1.221201   0.000000
     3  O    1.269531   2.146417   0.000000
     4  C    1.375076   2.269299   2.280937   0.000000
     5  H    2.122985   2.576020   3.233940   1.070000   0.000000
     6  H    2.122985   3.204906   2.549978   1.070000   1.853294
     7  H    1.937023   2.444853   0.960000   3.092784   3.950518
                    6          7
     6  H    0.000000
     7  H    3.436375   0.000000
 Stoichiometry    CH3NO2
 Framework group  C1[X(CH3NO2)]
 Deg. of freedom    15
 Full point group                 C1      NOp   1
 Largest Abelian subgroup         C1      NOp   1
 Largest concise Abelian subgroup C1      NOp   1
                         Standard orientation:                         
 ---------------------------------------------------------------------
 Center     Atomic      Atomic             Coordinates (Angstroms)
 Number     Number       Type             X           Y           Z
 ---------------------------------------------------------------------
      1          7           0        0.000192    0.058467    0.001147
      2          8           0        0.307794    1.239679   -0.036935
      3          8           0        0.917261   -0.818386   -0.041516
      4          6           0       -1.313618   -0.347018    0.019040
      5          1           0       -2.081900    0.340625    0.305029
      6          1           0       -1.567662   -1.350183   -0.253026
      7          1           0        1.729483   -0.687946    0.453338
 ---------------------------------------------------------------------
 Rotational constants (GHZ):     12.7720010     11.0089372      5.9696235
 Standard basis: def2SVP (5D, 7F)
 There are    75 symmetry adapted cartesian basis functions of A   symmetry.
 There are    71 symmetry adapted basis functions of A   symmetry.
    71 basis functions,   121 primitive gaussians,    75 cartesian basis functions
    16 alpha electrons       16 beta electrons
       nuclear repulsion energy       126.8910484633 Hartrees.
 NAtoms=    7 NActive=    7 NUniq=    7 SFac= 1.00D+00 NAtFMM=   60 NAOKFM=F Big=F
 Integral buffers will be    131072 words long.
 Raffenetti 2 integral format.
 Two-electron integral symmetry is turned on.
 ------------------------------------------------------------------------------
 Polarizable Continuum Model (PCM)
 =================================
 Model                : C-PCM.
 Atomic radii         : UFF (Universal Force Field).
 Polarization charges : Total charges.
 Charge compensation  : None.
 Solution method      : On-the-fly selection.
 Cavity type          : Scaled VdW (van der Waals Surface) (Alpha=1.100).
 Cavity algorithm     : GePol (No added spheres)
                        Default sphere list used, NSphG=    7.
                        Lebedev-Laikov grids with approx.  5.0 points / Ang**2.
                        Smoothing algorithm: Karplus/York (Gamma=1.0000).
                        Polarization charges: spherical gaussians, with
                                              point-specific exponents (IZeta= 3).
                        Self-potential: point-specific (ISelfS= 7).
                        Self-field    : sphere-specific E.n sum rule (ISelfD= 2).
 1st derivatives      : Analytical E(r).r(x)/FMM algorithm (CHGder, D1EAlg=3).
                        Cavity 1st derivative terms included.
 Solvent              : NitroMethane, Eps=  36.562000 Eps(inf)=   1.909095
 ------------------------------------------------------------------------------
 Spheres list:
 ISph  on   Nord     Re0    Alpha      Xe            Ye            Ze
    1   N      1    1.8300  1.100      0.000192      0.058467      0.001147
    2   O      2    1.7500  1.100      0.307794      1.239679     -0.036935
    3   O      3    1.7500  1.100      0.917261     -0.818386     -0.041516
    4   C      4    1.9255  1.100     -1.313618     -0.347018      0.019040
    5   H      5    1.4430  1.100     -2.081900      0.340625      0.305029
    6   H      6    1.4430  1.100     -1.567662     -1.350183     -0.253026
    7   H      7    1.4430  1.100      1.729483     -0.687946      0.453338
 ------------------------------------------------------------------------------
 One-electron integrals computed using PRISM.
   1 Symmetry operations used in ECPInt.
 ECPInt:  NShTT=     561 NPrTT=    2077 LenC2=     562 LenP2D=    1814.
 LDataN:  DoStor=T MaxTD1= 4 Len=   56
 NBasis=    71 RedAO= T EigKep=  6.38D-03  NBF=    71
 NBsUse=    71 1.00D-06 EigRej= -1.00D+00 NBFU=    71
 ExpMin= 1.22D-01 ExpMax= 2.27D+03 ExpMxC= 3.41D+02 IAcc=1 IRadAn=         1 AccDes= 0.00D+00
 Harris functional with IExCor= 1009 and IRadAn=       1 diagonalized for initial guess.
 HarFok:  IExCor= 1009 AccDes= 0.00D+00 IRadAn=         1 IDoV= 1 UseB2=F ITyADJ=14
 ICtDFT=  3500011 ScaDFX=  1.000000  1.000000  1.000000  1.000000
 FoFCou: FMM=F IPFlag=           0 FMFlag=      100000 FMFlg1=           0
         NFxFlg=           0 DoJE=T BraDBF=F KetDBF=T FulRan=T
         wScrn=  0.000000 ICntrl=     500 IOpCl=  0 I1Cent=   200000004 NGrid=           0
         NMat0=    1 NMatS0=      1 NMatT0=    0 NMatD0=    1 NMtDS0=    0 NMtDT0=    0
 Petite list used in FoFCou.
 Keep R1 ints in memory in canonical form, NReq=6906281.
 Requested convergence on RMS density matrix=1.00D-08 within 128 cycles.
 Requested convergence on MAX density matrix=1.00D-06.
 Requested convergence on             energy=1.00D-06.
 No special actions if energy rises.
 Inv3:  Mode=1 IEnd=     1801875.
 Iteration    1 A*A^-1 deviation from unit magnitude is 3.33D-15 for    745.
 Iteration    1 A*A^-1 deviation from orthogonality  is 2.33D-15 for    660    243.
 Iteration    1 A^-1*A deviation from unit magnitude is 3.11D-15 for    745.
 Iteration    1 A^-1*A deviation from orthogonality  is 2.16D-15 for    771      1.
 Error on total polarization charges =  0.00355
 SCF Done:  E(RM062X) =  -244.665780141     A.U. after   13 cycles
            NFock= 13  Conv=0.27D-08     -V/T= 2.0067

 **********************************************************************

            Population analysis using the SCF density.

 **********************************************************************

 Orbital symmetries:
       Occupied  (A) (A) (A) (A) (A) (A) (A) (A) (A) (A) (A) (A)
                 (A) (A) (A) (A)
       Virtual   (A) (A) (A) (A) (A) (A) (A) (A) (A) (A) (A) (A)
                 (A) (A) (A) (A) (A) (A) (A) (A) (A) (A) (A) (A)
                 (A) (A) (A) (A) (A) (A) (A) (A) (A) (A) (A) (A)
                 (A) (A) (A) (A) (A) (A) (A) (A) (A) (A) (A) (A)
                 (A) (A) (A) (A) (A) (A) (A)
 The electronic state is 1-A.
 Alpha  occ. eigenvalues --  -19.70470 -19.62587 -14.98260 -10.58880  -1.35412
 Alpha  occ. eigenvalues --   -1.17084  -0.92978  -0.77582  -0.64117  -0.62139
 Alpha  occ. eigenvalues --   -0.60460  -0.50626  -0.48471  -0.42511  -0.36519
 Alpha  occ. eigenvalues --   -0.27752
 Alpha virt. eigenvalues --    0.00242   0.09904   0.14875   0.17482   0.22936
 Alpha virt. eigenvalues --    0.30650   0.36665   0.48566   0.54322   0.56522
 Alpha virt. eigenvalues --    0.59678   0.62395   0.71963   0.72527   0.74367
 Alpha virt. eigenvalues --    0.81173   0.96156   0.98314   0.99974   1.04454
 Alpha virt. eigenvalues --    1.07814   1.11976   1.18507   1.20405   1.23737
 Alpha virt. eigenvalues --    1.30093   1.38010   1.50216   1.55088   1.63521
 Alpha virt. eigenvalues --    1.70060   1.80453   1.86600   1.92496   1.96663
 Alpha virt. eigenvalues --    2.05404   2.20612   2.28214   2.34289   2.39281
 Alpha virt. eigenvalues --    2.43415   2.54459   2.62968   2.72152   2.79347
 Alpha virt. eigenvalues --    2.79896   2.94342   2.97000   3.13919   3.22210
 Alpha virt. eigenvalues --    3.27855   3.39590   3.67006   3.76654   3.86447
          Condensed to atoms (all electrons):
               1          2          3          4          5          6
     1  N    5.838703   0.289060   0.174348   0.530730  -0.012298  -0.016074
     2  O    0.289060   8.289642  -0.100610  -0.084568  -0.001130   0.004665
     3  O    0.174348  -0.100610   7.853433  -0.078557   0.004036   0.002206
     4  C    0.530730  -0.084568  -0.078557   4.871778   0.402353   0.393398
     5  H   -0.012298  -0.001130   0.004036   0.402353   0.551926  -0.033500
     6  H   -0.016074   0.004665   0.002206   0.393398  -0.033500   0.569579
     7  H   -0.011551   0.008699   0.327985   0.003784  -0.000222  -0.000879
               7
     1  N   -0.011551
     2  O    0.008699
     3  O    0.327985
     4  C    0.003784
     5  H   -0.000222
     6  H   -0.000879
     7  H    0.421190
 Mulliken charges:
               1
     1  N    0.207082
     2  O   -0.405758
     3  O   -0.182840
     4  C   -0.038916
     5  H    0.088834
     6  H    0.080605
     7  H    0.250993
 Sum of Mulliken charges =   0.00000
 Mulliken charges with hydrogens summed into heavy atoms:
               1
     1  N    0.207082
     2  O   -0.405758
     3  O    0.068153
     4  C    0.130523
 Electronic spatial extent (au):  <R**2>=            223.5411
 Charge=              0.0000 electrons
 Dipole moment (field-independent basis, Debye):
    X=              0.4900    Y=             -2.6638    Z=              1.1533  Tot=              2.9438
 Quadrupole moment (field-independent basis, Debye-Ang):
   XX=            -16.1419   YY=            -26.8066   ZZ=            -23.2003
   XY=             -1.5749   XZ=              1.7873   YZ=             -0.0883
 Traceless Quadrupole moment (field-independent basis, Debye-Ang):
   XX=              5.9077   YY=             -4.7570   ZZ=             -1.1507
   XY=             -1.5749   XZ=              1.7873   YZ=             -0.0883
 Octapole moment (field-independent basis, Debye-Ang**2):
  XXX=             11.6163  YYY=             -5.1850  ZZZ=              0.5125  XYY=             -0.4199
  XXY=             -3.8223  XXZ=              4.4940  XZZ=              4.3346  YZZ=              0.2132
  YYZ=              0.1548  XYZ=             -2.4967
 Hexadecapole moment (field-independent basis, Debye-Ang**3):
 XXXX=           -105.6374 YYYY=           -109.4627 ZZZZ=            -21.1734 XXXY=            -11.3339
 XXXZ=              4.5066 YYYX=             -1.6630 YYYZ=              0.4940 ZZZX=              1.3406
 ZZZY=             -0.1653 XXYY=            -36.0603 XXZZ=            -26.6938 YYZZ=            -21.1001
 XXYZ=             -0.7479 YYXZ=              2.0954 ZZXY=             -2.0838
 N-N= 1.268910484633D+02 E-N=-8.280233785029D+02  KE= 2.430301524911D+02
 ******************************Gaussian NBO Version 3.1******************************
             N A T U R A L   A T O M I C   O R B I T A L   A N D
          N A T U R A L   B O N D   O R B I T A L   A N A L Y S I S
 ******************************Gaussian NBO Version 3.1******************************
       /RESON  / : Allow strongly delocalized NBO set

 Analyzing the SCF density

 Job title: CH2NO2H                                                         

 Storage needed:     15461 in NPA,     20440 in NBO (  33554131 available)


 NATURAL POPULATIONS:  Natural atomic orbital occupancies 
                                                          
   NAO  Atom  No  lang   Type(AO)    Occupancy      Energy
 ----------------------------------------------------------
     1    N    1  S      Cor( 1S)     1.99937     -14.84260
     2    N    1  S      Val( 2S)     1.06187      -0.51832
     3    N    1  S      Ryd( 3S)     0.00399       0.77072
     4    N    1  px     Val( 2p)     1.18975      -0.33517
     5    N    1  px     Ryd( 3p)     0.00758       1.02378
     6    N    1  py     Val( 2p)     1.00661      -0.26596
     7    N    1  py     Ryd( 3p)     0.01412       1.05094
     8    N    1  pz     Val( 2p)     1.29670      -0.34136
     9    N    1  pz     Ryd( 3p)     0.00153       0.82643
    10    N    1  dxy    Ryd( 3d)     0.00457       2.85447
    11    N    1  dxz    Ryd( 3d)     0.00283       2.26754
    12    N    1  dyz    Ryd( 3d)     0.00430       2.31576
    13    N    1  dx2y2  Ryd( 3d)     0.00317       2.81069
    14    N    1  dz2    Ryd( 3d)     0.00087       2.62128

    15    O    2  S      Cor( 1S)     1.99976     -19.41577
    16    O    2  S      Val( 2S)     1.72159      -0.92818
    17    O    2  S      Ryd( 3S)     0.00321       1.25643
    18    O    2  px     Val( 2p)     1.85040      -0.34431
    19    O    2  px     Ryd( 3p)     0.00262       1.12345
    20    O    2  py     Val( 2p)     1.32889      -0.27635
    21    O    2  py     Ryd( 3p)     0.00155       1.09575
    22    O    2  pz     Val( 2p)     1.61233      -0.31071
    23    O    2  pz     Ryd( 3p)     0.00373       1.07762
    24    O    2  dxy    Ryd( 3d)     0.00168       3.09598
    25    O    2  dxz    Ryd( 3d)     0.00015       2.72504
    26    O    2  dyz    Ryd( 3d)     0.00232       2.88807
    27    O    2  dx2y2  Ryd( 3d)     0.00159       3.22002
    28    O    2  dz2    Ryd( 3d)     0.00045       2.90767

    29    O    3  S      Cor( 1S)     1.99966     -19.53039
    30    O    3  S      Val( 2S)     1.60423      -0.95416
    31    O    3  S      Ryd( 3S)     0.00194       1.28399
    32    O    3  px     Val( 2p)     1.44007      -0.37399
    33    O    3  px     Ryd( 3p)     0.00334       1.19540
    34    O    3  py     Val( 2p)     1.67645      -0.41601
    35    O    3  py     Ryd( 3p)     0.00265       1.05559
    36    O    3  pz     Val( 2p)     1.80840      -0.43134
    37    O    3  pz     Ryd( 3p)     0.00278       1.04572
    38    O    3  dxy    Ryd( 3d)     0.00150       3.18687
    39    O    3  dxz    Ryd( 3d)     0.00080       3.13817
    40    O    3  dyz    Ryd( 3d)     0.00146       2.78437
    41    O    3  dx2y2  Ryd( 3d)     0.00102       3.07871
    42    O    3  dz2    Ryd( 3d)     0.00087       2.88638

    43    C    4  S      Cor( 1S)     1.99934     -10.48732
    44    C    4  S      Val( 2S)     1.04231      -0.24281
    45    C    4  S      Ryd( 3S)     0.00151       0.52736
    46    C    4  px     Val( 2p)     0.87625      -0.03179
    47    C    4  px     Ryd( 3p)     0.00542       0.52143
    48    C    4  py     Val( 2p)     1.18232      -0.06794
    49    C    4  py     Ryd( 3p)     0.00443       0.75052
    50    C    4  pz     Val( 2p)     1.15501      -0.14892
    51    C    4  pz     Ryd( 3p)     0.00730       0.56241
    52    C    4  dxy    Ryd( 3d)     0.00051       2.50219
    53    C    4  dxz    Ryd( 3d)     0.00121       2.01985
    54    C    4  dyz    Ryd( 3d)     0.00026       2.05238
    55    C    4  dx2y2  Ryd( 3d)     0.00093       2.43318
    56    C    4  dz2    Ryd( 3d)     0.00044       2.14106

    57    H    5  S      Val( 1S)     0.78294       0.08831
    58    H    5  S      Ryd( 2S)     0.00096       0.32974
    59    H    5  px     Ryd( 2p)     0.00048       2.15116
    60    H    5  py     Ryd( 2p)     0.00038       2.05547
    61    H    5  pz     Ryd( 2p)     0.00024       1.72006

    62    H    6  S      Val( 1S)     0.79211       0.08409
    63    H    6  S      Ryd( 2S)     0.00090       0.33449
    64    H    6  px     Ryd( 2p)     0.00010       1.86079
    65    H    6  py     Ryd( 2p)     0.00077       2.34968
    66    H    6  pz     Ryd( 2p)     0.00024       1.71599

    67    H    7  S      Val( 1S)     0.46427       0.13538
    68    H    7  S      Ryd( 2S)     0.00236       0.39010
    69    H    7  px     Ryd( 2p)     0.00209       2.25339
    70    H    7  py     Ryd( 2p)     0.00073       1.76646
    71    H    7  pz     Ryd( 2p)     0.00151       1.91116


 Summary of Natural Population Analysis:                  
                                                          
                                       Natural Population 
                Natural  -----------------------------------------------
    Atom  No    Charge         Core      Valence    Rydberg      Total
 -----------------------------------------------------------------------
      N    1    0.40277      1.99937     4.55492    0.04295     6.59723
      O    2   -0.53028      1.99976     6.51320    0.01731     8.53028
      O    3   -0.54517      1.99966     6.52915    0.01636     8.54517
      C    4   -0.27724      1.99934     4.25589    0.02201     6.27724
      H    5    0.21501      0.00000     0.78294    0.00205     0.78499
      H    6    0.20588      0.00000     0.79211    0.00202     0.79412
      H    7    0.52904      0.00000     0.46427    0.00669     0.47096
 =======================================================================
   * Total *    0.00000      7.99813    23.89247    0.10940    32.00000

                                 Natural Population      
 --------------------------------------------------------
   Core                       7.99813 ( 99.9766% of   8)
   Valence                   23.89247 ( 99.5520% of  24)
   Natural Minimal Basis     31.89060 ( 99.6581% of  32)
   Natural Rydberg Basis      0.10940 (  0.3419% of  32)
 --------------------------------------------------------

    Atom  No          Natural Electron Configuration
 ----------------------------------------------------------------------------
      N    1      [core]2S( 1.06)2p( 3.49)3p( 0.02)3d( 0.02)
      O    2      [core]2S( 1.72)2p( 4.79)3p( 0.01)3d( 0.01)
      O    3      [core]2S( 1.60)2p( 4.92)3p( 0.01)3d( 0.01)
      C    4      [core]2S( 1.04)2p( 3.21)3p( 0.02)
      H    5            1S( 0.78)
      H    6            1S( 0.79)
      H    7            1S( 0.46)


 NATURAL BOND ORBITAL ANALYSIS:

                       Occupancies       Lewis Structure    Low   High
           Occ.    -------------------  -----------------   occ   occ
  Cycle   Thresh.   Lewis   Non-Lewis     CR  BD  3C  LP    (L)   (NL)   Dev
 =============================================================================
   1(1)    1.90    30.72531   1.27469      4   8   0   4     4      4    0.36
   2(2)    1.90    30.42078   1.57922      4   8   0   4     4      3    0.45
   3(3)    1.90    30.72531   1.27469      4   8   0   4     4      4    0.36
   4(1)    1.80    31.18862   0.81138      4   7   0   5     1      3    0.36
   5(2)    1.80    30.84329   1.15671      4   8   0   4     3      3    0.36
   6(3)    1.80    31.03845   0.96155      4   8   0   4     2      3    0.36
   7(4)    1.80    30.84329   1.15671      4   8   0   4     3      3    0.36
   8(5)    1.80    31.03845   0.96155      4   8   0   4     2      3    0.36
   9(6)    1.80    30.84329   1.15671      4   8   0   4     3      3    0.36
  10(7)    1.80    31.03845   0.96155      4   8   0   4     2      3    0.36
  11(8)    1.80    30.84329   1.15671      4   8   0   4     3      3    0.36
  12(9)    1.80    31.03845   0.96155      4   8   0   4     2      3    0.36
  13(1)    1.70    31.18862   0.81138      4   7   0   5     1      3    0.36
  14(2)    1.70    30.84329   1.15671      4   8   0   4     1      3    0.36
  15(3)    1.70    31.03845   0.96155      4   8   0   4     0      3    0.36
  16(4)    1.70    30.84329   1.15671      4   8   0   4     1      3    0.36
  17(5)    1.70    31.03845   0.96155      4   8   0   4     0      3    0.36
  18(6)    1.70    30.84329   1.15671      4   8   0   4     1      3    0.36
  19(7)    1.70    31.03845   0.96155      4   8   0   4     0      3    0.36
  20(8)    1.70    30.84329   1.15671      4   8   0   4     1      3    0.36
  21(9)    1.70    31.03845   0.96155      4   8   0   4     0      3    0.36
  22(1)    1.60    31.27703   0.72297      4   7   0   5     0      2    0.36
  23(2)    1.60    31.27703   0.72297      4   7   0   5     0      2    0.36
  24(1)    1.50    30.82295   1.17705      4   6   0   6     0      3    0.70
  25(2)    1.50    30.82295   1.17705      4   6   0   6     0      3    0.70
  26(1)    1.60    31.27703   0.72297      4   7   0   5     0      2    0.36
 -----------------------------------------------------------------------------

 Structure accepted: RESONANCE keyword permits strongly delocalized structure

 --------------------------------------------------------
   Core                      7.99812 ( 99.977% of   8)
   Valence Lewis            23.27891 ( 96.995% of  24)
  ==================       ============================
   Total Lewis              31.27703 ( 97.741% of  32)
  -----------------------------------------------------
   Valence non-Lewis         0.65938 (  2.061% of  32)
   Rydberg non-Lewis         0.06359 (  0.199% of  32)
  ==================       ============================
   Total non-Lewis           0.72297 (  2.259% of  32)
 --------------------------------------------------------


       (Occupancy)   Bond orbital/ Coefficients/ Hybrids
 ---------------------------------------------------------------------------------
     1. (1.99637) BD ( 1) N   1 - O   2  
                ( 49.21%)   0.7015* N   1 s( 31.31%)p 2.19( 68.57%)d 0.00(  0.12%)
                                            0.0000  0.5588  0.0277  0.2298 -0.0216
                                            0.7930 -0.0517  0.0287  0.0038  0.0180
                                            0.0005  0.0001 -0.0234 -0.0193
                ( 50.79%)   0.7127* O   2 s( 27.56%)p 2.62( 72.28%)d 0.01(  0.16%)
                                            0.0000  0.5227  0.0490 -0.2190  0.0031
                                           -0.8173  0.0322  0.0765 -0.0028  0.0156
                                           -0.0014 -0.0052 -0.0311 -0.0190
     2. (1.99645) BD ( 1) N   1 - O   3  
                ( 44.74%)   0.6689* N   1 s( 26.98%)p 2.70( 72.83%)d 0.01(  0.18%)
                                            0.0000  0.5189  0.0245  0.6487 -0.0346
                                           -0.5523  0.0274 -0.0238  0.0013 -0.0362
                                            0.0015  0.0007  0.0066 -0.0216
                ( 55.26%)   0.7434* O   3 s( 32.13%)p 2.11( 67.74%)d 0.00(  0.13%)
                                           -0.0001  0.5666  0.0162 -0.5694  0.0157
                                            0.5905 -0.0133  0.0640  0.0047 -0.0298
                                           -0.0031  0.0094 -0.0067 -0.0170
     3. (1.98847) BD ( 1) N   1 - C   4  
                ( 61.96%)   0.7871* N   1 s( 25.48%)p 2.92( 74.48%)d 0.00(  0.04%)
                                            0.0000 -0.5040  0.0292  0.5626  0.0181
                                            0.2151  0.0144 -0.6174 -0.0185 -0.0095
                                            0.0130  0.0066 -0.0051  0.0050
                ( 38.04%)   0.6168* C   4 s( 18.40%)p 4.43( 81.46%)d 0.01(  0.14%)
                                           -0.0002 -0.4280 -0.0277 -0.6795 -0.0505
                                           -0.0533 -0.0258 -0.5883  0.0268 -0.0127
                                           -0.0194 -0.0069 -0.0232  0.0168
     4. (1.97902) BD ( 2) N   1 - C   4  
                ( 60.05%)   0.7749* N   1 s( 16.11%)p 5.20( 83.85%)d 0.00(  0.04%)
                                           -0.0001 -0.4011  0.0156  0.4546  0.0220
                                            0.1225  0.0011  0.7847  0.0237 -0.0009
                                           -0.0162 -0.0099 -0.0064  0.0055
                ( 39.95%)   0.6321* C   4 s( 11.08%)p 8.01( 88.78%)d 0.01(  0.14%)
                                           -0.0002 -0.3319 -0.0257 -0.4316 -0.0485
                                           -0.3176 -0.0015  0.7729 -0.0314 -0.0127
                                            0.0288  0.0071 -0.0156  0.0116
     5. (1.97941) BD ( 1) O   3 - H   7  
                ( 76.87%)   0.8768* O   3 s( 26.50%)p 2.77( 73.43%)d 0.00(  0.07%)
                                            0.0003  0.5148  0.0082  0.6974 -0.0326
                                            0.1283  0.0184  0.4796 -0.0069  0.0129
                                            0.0167  0.0145  0.0055  0.0017
                ( 23.13%)   0.4809* H   7 s( 99.48%)p 0.01(  0.52%)
                                            0.9974 -0.0085 -0.0640 -0.0007 -0.0334
     6. (1.98581) BD ( 1) C   4 - H   5  
                ( 60.61%)   0.7785* C   4 s( 35.75%)p 1.80( 64.22%)d 0.00(  0.03%)
                                           -0.0002  0.5979 -0.0086 -0.5611 -0.0240
                                            0.5468  0.0008  0.1665  0.0070 -0.0128
                                           -0.0054  0.0064 -0.0021 -0.0079
                ( 39.39%)   0.6276* H   5 s( 99.89%)p 0.00(  0.11%)
                                            0.9995  0.0002  0.0243 -0.0191 -0.0098
     7. (1.98877) BD ( 1) C   4 - H   6  
                ( 60.30%)   0.7765* C   4 s( 34.85%)p 1.87( 65.12%)d 0.00(  0.03%)
                                           -0.0001  0.5903 -0.0094 -0.1697 -0.0222
                                           -0.7719 -0.0148 -0.1607 -0.0063  0.0026
                                            0.0007  0.0087 -0.0133 -0.0079
                ( 39.70%)   0.6301* H   6 s( 99.90%)p 0.00(  0.10%)
                                            0.9995 -0.0009  0.0098  0.0294  0.0089
     8. (1.99937) CR ( 1) N   1           s(100.00%)p 0.00(  0.00%)
                                            1.0000 -0.0001  0.0000  0.0001  0.0000
                                            0.0001  0.0000  0.0001  0.0000  0.0000
                                            0.0000  0.0000  0.0000  0.0000
     9. (1.99976) CR ( 1) O   2           s(100.00%)p 0.00(  0.00%)
                                            1.0000 -0.0003  0.0000  0.0000  0.0000
                                           -0.0003  0.0000 -0.0001  0.0000  0.0000
                                            0.0000  0.0000  0.0000  0.0000
    10. (1.99966) CR ( 1) O   3           s(100.00%)p 0.00(  0.00%)
                                            1.0000 -0.0002  0.0000 -0.0001  0.0000
                                            0.0001  0.0000 -0.0002  0.0000  0.0000
                                            0.0000  0.0000  0.0000  0.0000
    11. (1.99934) CR ( 1) C   4           s(100.00%)p 0.00(  0.00%)
                                            1.0000  0.0001  0.0000 -0.0004  0.0000
                                            0.0000  0.0000  0.0001  0.0000  0.0000
                                            0.0000  0.0000  0.0000  0.0000
    12. (1.98302) LP ( 1) O   2           s( 72.48%)p 0.38( 27.51%)d 0.00(  0.01%)
                                            0.0004  0.8513 -0.0147  0.1450 -0.0005
                                            0.5040 -0.0060 -0.0005  0.0004 -0.0036
                                           -0.0002  0.0001  0.0066  0.0048
    13. (1.89443) LP ( 2) O   2           s(  0.01%)p99.99( 99.90%)d 6.06(  0.09%)
                                            0.0001  0.0120  0.0016 -0.9611 -0.0075
                                            0.2562  0.0035 -0.0979 -0.0028  0.0259
                                           -0.0009  0.0034  0.0143  0.0004
    14. (1.61562) LP ( 3) O   2           s(  0.15%)p99.99( 99.71%)d 0.93(  0.14%)
                                           -0.0001  0.0388 -0.0015  0.0778 -0.0004
                                           -0.0889 -0.0004 -0.9915 -0.0105 -0.0012
                                            0.0081  0.0361 -0.0048 -0.0035
    15. (1.97127) LP ( 1) O   3           s( 32.94%)p 2.03( 67.01%)d 0.00(  0.05%)
                                            0.0002  0.5739 -0.0094 -0.2438 -0.0070
                                           -0.7795 -0.0102 -0.0526 -0.0016 -0.0053
                                           -0.0004 -0.0097  0.0191  0.0073
    16. (1.90028) LP ( 2) O   3           s(  8.41%)p10.88( 91.51%)d 0.01(  0.07%)
                                           -0.0001  0.2900 -0.0047  0.3566  0.0015
                                            0.1608  0.0054 -0.8728 -0.0172  0.0063
                                            0.0091 -0.0196 -0.0036 -0.0150
    17. (0.01234) RY*( 1) N   1           s(  0.22%)p99.99( 89.11%)d49.38( 10.67%)
                                            0.0000 -0.0094  0.0455  0.0203  0.1970
                                           -0.0595 -0.9203 -0.0151 -0.0344  0.2740
                                           -0.1177 -0.1282  0.0259  0.0265
    18. (0.00905) RY*( 2) N   1           s( 12.66%)p 4.37( 55.34%)d 2.53( 32.01%)
                                            0.0000 -0.0464  0.3527 -0.0320 -0.6882
                                           -0.0060 -0.2804  0.0063  0.0061 -0.4818
                                            0.0732 -0.0829 -0.2699 -0.0530
    19. (0.00511) RY*( 3) N   1           s(  0.11%)p37.71(  4.17%)d99.99( 95.72%)
                                            0.0000 -0.0051  0.0329  0.0009  0.0229
                                           -0.0084 -0.1708  0.0222 -0.1072 -0.0034
                                            0.5039  0.8355  0.0557 -0.0450
    20. (0.00291) RY*( 4) N   1           s(  0.80%)p15.83( 12.73%)d99.99( 86.47%)
                                            0.0000 -0.0053  0.0895 -0.0047 -0.1003
                                            0.0043 -0.0154 -0.0186  0.3415 -0.0668
                                           -0.7691  0.4953  0.1509  0.0256
    21. (0.00259) RY*( 5) N   1           s(  3.89%)p 4.69( 18.27%)d19.99( 77.84%)
                                            0.0000 -0.0155  0.1967  0.0011 -0.4252
                                            0.0116  0.0367  0.0061 -0.0192  0.3162
                                            0.1249 -0.1175  0.8051  0.0269
    22. (0.00143) RY*( 6) N   1           s(  0.62%)p44.52( 27.58%)d99.99( 71.80%)
                                            0.0000 -0.0142  0.0774  0.0061 -0.3016
                                           -0.0277  0.1013 -0.0122  0.4167  0.7026
                                            0.1093  0.0457 -0.4582 -0.0209
    23. (0.00022) RY*( 7) N   1           s( 62.43%)p 0.50( 31.39%)d 0.10(  6.18%)
                                            0.0000  0.0201  0.7899 -0.0355  0.4390
                                           -0.0084  0.0865 -0.0046  0.3352 -0.0976
                                            0.1569 -0.0723  0.0421  0.1438
    24. (0.00004) RY*( 8) N   1           s( 16.11%)p 2.15( 34.70%)d 3.05( 49.18%)
    25. (0.00000) RY*( 9) N   1           s(  3.27%)p 8.24( 26.98%)d21.31( 69.75%)
    26. (0.00386) RY*( 1) O   2           s(  1.21%)p77.59( 93.81%)d 4.12(  4.98%)
                                            0.0000  0.0002  0.1100 -0.0012  0.2268
                                            0.0028  0.0143 -0.0027  0.9415  0.0279
                                            0.0773  0.2027  0.0419 -0.0137
    27. (0.00286) RY*( 2) O   2           s(  1.80%)p52.84( 95.01%)d 1.77(  3.19%)
                                            0.0000 -0.0047  0.1340  0.0063 -0.8853
                                            0.0132  0.3616 -0.0004  0.1881 -0.1506
                                            0.0304  0.0445 -0.0790  0.0098
    28. (0.00068) RY*( 3) O   2           s( 69.10%)p 0.39( 26.82%)d 0.06(  4.08%)
                                            0.0000 -0.0139  0.8311  0.0123  0.2674
                                            0.0463  0.4070 -0.0041 -0.1694 -0.1380
                                           -0.0032 -0.0015  0.1464  0.0186
    29. (0.00006) RY*( 4) O   2           s(  3.40%)p11.46( 38.98%)d16.93( 57.61%)
    30. (0.00001) RY*( 5) O   2           s(  4.96%)p 1.15(  5.73%)d18.01( 89.31%)
    31. (0.00001) RY*( 6) O   2           s(  0.00%)p 1.00(  1.69%)d58.07( 98.31%)
    32. (0.00001) RY*( 7) O   2           s( 18.26%)p 1.73( 31.65%)d 2.74( 50.10%)
    33. (0.00000) RY*( 8) O   2           s(  0.25%)p15.20(  3.86%)d99.99( 95.88%)
    34. (0.00000) RY*( 9) O   2           s(  0.81%)p 3.78(  3.05%)d99.99( 96.14%)
    35. (0.00328) RY*( 1) O   3           s( 10.44%)p 8.11( 84.71%)d 0.46(  4.84%)
                                            0.0000  0.0033  0.3231 -0.0004  0.6146
                                           -0.0108  0.5272  0.0079 -0.4374  0.0714
                                           -0.1088  0.0597  0.1660 -0.0194
    36. (0.00244) RY*( 2) O   3           s( 33.26%)p 1.72( 57.36%)d 0.28(  9.37%)
                                            0.0000  0.0021  0.5768  0.0120  0.2341
                                           -0.0097  0.0184 -0.0061  0.7199  0.0546
                                            0.2346 -0.1835  0.0447 -0.0041
    37. (0.00163) RY*( 3) O   3           s( 22.24%)p 3.09( 68.63%)d 0.41(  9.14%)
                                            0.0000 -0.0007  0.4716  0.0198  0.1620
                                           -0.0108 -0.7377  0.0040 -0.3395  0.1020
                                           -0.1451  0.0724 -0.2332  0.0165
    38. (0.00010) RY*( 4) O   3           s( 21.80%)p 2.65( 57.69%)d 0.94( 20.52%)
    39. (0.00003) RY*( 5) O   3           s(  1.32%)p 2.07(  2.73%)d72.95( 95.96%)
    40. (0.00001) RY*( 6) O   3           s( 10.92%)p 1.20( 13.05%)d 6.96( 76.03%)
    41. (0.00000) RY*( 7) O   3           s(  0.03%)p99.99(  7.53%)d99.99( 92.45%)
    42. (0.00001) RY*( 8) O   3           s(  0.01%)p99.99(  8.17%)d99.99( 91.82%)
    43. (0.00000) RY*( 9) O   3           s(  0.00%)p 1.00(  0.44%)d99.99( 99.55%)
    44. (0.00378) RY*( 1) C   4           s(  0.05%)p99.99( 98.27%)d30.56(  1.68%)
                                            0.0000 -0.0014  0.0234 -0.0094 -0.1813
                                           -0.0006  0.8723 -0.0292 -0.4336  0.0941
                                           -0.0682 -0.0353 -0.0447  0.0023
    45. (0.00286) RY*( 2) C   4           s(  0.06%)p99.99( 96.97%)d49.02(  2.97%)
                                            0.0000  0.0000  0.0246  0.0063 -0.1353
                                           -0.0157  0.4178  0.0204  0.8810  0.0496
                                            0.1446  0.0767 -0.0213 -0.0039
    46. (0.00120) RY*( 3) C   4           s( 29.98%)p 2.31( 69.20%)d 0.03(  0.82%)
                                            0.0000 -0.0148  0.5473 -0.0851  0.8109
                                           -0.0273  0.1605  0.0064  0.0258  0.0773
                                            0.0307 -0.0190  0.0220 -0.0210
    47. (0.00024) RY*( 4) C   4           s( 38.05%)p 0.40( 15.20%)d 1.23( 46.75%)
                                            0.0000  0.0044  0.6168  0.0256 -0.3636
                                            0.0148 -0.1300 -0.0028 -0.0453 -0.0736
                                            0.1302  0.0130 -0.6629  0.0746
    48. (0.00005) RY*( 5) C   4           s(  0.13%)p13.04(  1.65%)d99.99( 98.23%)
    49. (0.00001) RY*( 6) C   4           s(  0.05%)p18.63(  0.84%)d99.99( 99.11%)
    50. (0.00000) RY*( 7) C   4           s(  0.91%)p 3.18(  2.89%)d99.99( 96.19%)
    51. (0.00001) RY*( 8) C   4           s( 30.53%)p 0.50( 15.25%)d 1.78( 54.22%)
    52. (0.00001) RY*( 9) C   4           s(  0.16%)p 0.97(  0.16%)d99.99( 99.68%)
    53. (0.00102) RY*( 1) H   5           s( 93.50%)p 0.07(  6.50%)
                                            0.0016  0.9670 -0.0126  0.1724 -0.1872
    54. (0.00014) RY*( 2) H   5           s(  3.20%)p30.25( 96.80%)
                                            0.0112  0.1785 -0.0162  0.0634  0.9817
    55. (0.00006) RY*( 3) H   5           s(  3.35%)p28.87( 96.65%)
    56. (0.00001) RY*( 4) H   5           s(  0.05%)p99.99( 99.95%)
    57. (0.00093) RY*( 1) H   6           s( 96.58%)p 0.04(  3.42%)
                                            0.0029  0.9827  0.0568 -0.1242  0.1249
    58. (0.00017) RY*( 2) H   6           s(  1.78%)p55.19( 98.22%)
                                            0.0070  0.1332  0.0059  0.0627 -0.9891
    59. (0.00007) RY*( 3) H   6           s(  1.69%)p58.15( 98.31%)
    60. (0.00001) RY*( 4) H   6           s(  0.06%)p99.99( 99.94%)
    61. (0.00242) RY*( 1) H   7           s( 98.47%)p 0.02(  1.53%)
                                            0.0118  0.9922 -0.0077  0.0475  0.1141
    62. (0.00129) RY*( 2) H   7           s(  0.52%)p99.99( 99.48%)
                                           -0.0007  0.0719  0.3878  0.4647 -0.7928
    63. (0.00058) RY*( 3) H   7           s(  0.85%)p99.99( 99.15%)
                                           -0.0024  0.0922  0.1796 -0.8839 -0.4219
    64. (0.00003) RY*( 4) H   7           s(  0.69%)p99.99( 99.31%)
    65. (0.03238) BD*( 1) N   1 - O   2  
                ( 50.79%)   0.7127* N   1 s( 31.31%)p 2.19( 68.57%)d 0.00(  0.12%)
                                            0.0000  0.5588  0.0277  0.2298 -0.0216
                                            0.7930 -0.0517  0.0287  0.0038  0.0180
                                            0.0005  0.0001 -0.0234 -0.0193
                ( 49.21%)  -0.7015* O   2 s( 27.56%)p 2.62( 72.28%)d 0.01(  0.16%)
                                            0.0000  0.5227  0.0490 -0.2190  0.0031
                                           -0.8173  0.0322  0.0765 -0.0028  0.0156
                                           -0.0014 -0.0052 -0.0311 -0.0190
    66. (0.08691) BD*( 1) N   1 - O   3  
                ( 55.26%)   0.7434* N   1 s( 26.98%)p 2.70( 72.83%)d 0.01(  0.18%)
                                            0.0000  0.5189  0.0245  0.6487 -0.0346
                                           -0.5523  0.0274 -0.0238  0.0013 -0.0362
                                            0.0015  0.0007  0.0066 -0.0216
                ( 44.74%)  -0.6689* O   3 s( 32.13%)p 2.11( 67.74%)d 0.00(  0.13%)
                                           -0.0001  0.5666  0.0162 -0.5694  0.0157
                                            0.5905 -0.0133  0.0640  0.0047 -0.0298
                                           -0.0031  0.0094 -0.0067 -0.0170
    67. (0.21650) BD*( 1) N   1 - C   4  
                ( 38.04%)   0.6168* N   1 s( 25.48%)p 2.92( 74.48%)d 0.00(  0.04%)
                                            0.0000  0.5040 -0.0292 -0.5626 -0.0181
                                           -0.2151 -0.0144  0.6174  0.0185  0.0095
                                           -0.0130 -0.0066  0.0051 -0.0050
                ( 61.96%)  -0.7871* C   4 s( 18.40%)p 4.43( 81.46%)d 0.01(  0.14%)
                                            0.0002  0.4280  0.0277  0.6795  0.0505
                                            0.0533  0.0258  0.5883 -0.0268  0.0127
                                            0.0194  0.0069  0.0232 -0.0168
    68. (0.30386) BD*( 2) N   1 - C   4  
                ( 39.95%)   0.6321* N   1 s( 16.11%)p 5.20( 83.85%)d 0.00(  0.04%)
                                            0.0001  0.4011 -0.0156 -0.4546 -0.0220
                                           -0.1225 -0.0011 -0.7847 -0.0237  0.0009
                                            0.0162  0.0099  0.0064 -0.0055
                ( 60.05%)  -0.7749* C   4 s( 11.08%)p 8.01( 88.78%)d 0.01(  0.14%)
                                            0.0002  0.3319  0.0257  0.4316  0.0485
                                            0.3176  0.0015 -0.7729  0.0314  0.0127
                                           -0.0288 -0.0071  0.0156 -0.0116
    69. (0.01153) BD*( 1) O   3 - H   7  
                ( 23.13%)   0.4809* O   3 s( 26.50%)p 2.77( 73.43%)d 0.00(  0.07%)
                                           -0.0003 -0.5148 -0.0082 -0.6974  0.0326
                                           -0.1283 -0.0184 -0.4796  0.0069 -0.0129
                                           -0.0167 -0.0145 -0.0055 -0.0017
                ( 76.87%)  -0.8768* H   7 s( 99.48%)p 0.01(  0.52%)
                                           -0.9974  0.0085  0.0640  0.0007  0.0334
    70. (0.00252) BD*( 1) C   4 - H   5  
                ( 39.39%)   0.6276* C   4 s( 35.75%)p 1.80( 64.22%)d 0.00(  0.03%)
                                            0.0002 -0.5979  0.0086  0.5611  0.0240
                                           -0.5468 -0.0008 -0.1665 -0.0070  0.0128
                                            0.0054 -0.0064  0.0021  0.0079
                ( 60.61%)  -0.7785* H   5 s( 99.89%)p 0.00(  0.11%)
                                           -0.9995 -0.0002 -0.0243  0.0191  0.0098
    71. (0.00568) BD*( 1) C   4 - H   6  
                ( 39.70%)   0.6301* C   4 s( 34.85%)p 1.87( 65.12%)d 0.00(  0.03%)
                                            0.0001 -0.5903  0.0094  0.1697  0.0222
                                            0.7719  0.0148  0.1607  0.0063 -0.0026
                                           -0.0007 -0.0087  0.0133  0.0079
                ( 60.30%)  -0.7765* H   6 s( 99.90%)p 0.00(  0.10%)
                                           -0.9995  0.0009 -0.0098 -0.0294 -0.0089


 NHO Directionality and "Bond Bending" (deviations from line of nuclear centers)

         [Thresholds for printing:  angular deviation  >  1.0 degree]
                                    hybrid p-character > 25.0%
                                    orbital occupancy  >  0.10e

                                Line of Centers        Hybrid 1              Hybrid 2
                                ---------------  -------------------   ------------------
                NBO               Theta   Phi    Theta   Phi    Dev    Theta   Phi    Dev
 ========================================================================================
     1. BD (   1) N   1 - O   2    91.8   75.4    87.6   74.3   4.3     84.8  254.6   3.5
     2. BD (   1) N   1 - O   3    91.9  316.3    91.6  319.5   3.2     85.1  133.8   3.9
     3. BD (   1) N   1 - C   4    89.3  197.2    44.5  201.6  44.9     52.6    6.2  39.5
     4. BD (   2) N   1 - C   4    89.3  197.2   148.7  194.5  59.4    142.1   33.6  53.2
     5. BD (   1) O   3 - H   7    59.0    9.1    55.2   12.4   4.7      --     --    --
     6. BD (   1) C   4 - H   5    74.5  138.2    77.8  136.9   3.5      --     --    --
     7. BD (   1) C   4 - H   6   104.7  255.8   101.6  256.3   3.1      --     --    --
    12. LP (   1) O   2             --     --     90.0   73.8   --       --     --    --
    13. LP (   2) O   2             --     --     95.7  165.0   --       --     --    --
    14. LP (   3) O   2             --     --    173.3  310.9   --       --     --    --
    15. LP (   1) O   3             --     --     93.7  252.4   --       --     --    --
    16. LP (   2) O   3             --     --    156.1   24.9   --       --     --    --
    67. BD*(   1) N   1 - C   4    89.3  197.2    44.5  201.6  44.9     52.6    6.2  39.5
    68. BD*(   2) N   1 - C   4    89.3  197.2   148.7  194.5  59.4    142.1   33.6  53.2


 Second Order Perturbation Theory Analysis of Fock Matrix in NBO Basis

     Threshold for printing:   0.50 kcal/mol
                                                                              E(2)  E(j)-E(i) F(i,j)
         Donor NBO (i)                     Acceptor NBO (j)                 kcal/mol   a.u.    a.u. 
 ===================================================================================================

 within unit  1
   1. BD (   1) N   1 - O   2        / 17. RY*(   1) N   1                    0.53    2.36    0.032
   1. BD (   1) N   1 - O   2        / 44. RY*(   1) C   4                    0.71    1.89    0.033
   1. BD (   1) N   1 - O   2        / 67. BD*(   1) N   1 - C   4            1.45    1.46    0.043
   1. BD (   1) N   1 - O   2        / 71. BD*(   1) C   4 - H   6            0.51    1.76    0.027
   2. BD (   1) N   1 - O   3        / 27. RY*(   2) O   2                    0.67    2.35    0.035
   2. BD (   1) N   1 - O   3        / 44. RY*(   1) C   4                    0.84    1.89    0.036
   3. BD (   1) N   1 - C   4        / 26. RY*(   1) O   2                    0.77    1.90    0.034
   3. BD (   1) N   1 - C   4        / 27. RY*(   2) O   2                    1.59    1.92    0.049
   3. BD (   1) N   1 - C   4        / 35. RY*(   1) O   3                    2.15    1.90    0.057
   3. BD (   1) N   1 - C   4        / 65. BD*(   1) N   1 - O   2            0.71    1.31    0.027
   3. BD (   1) N   1 - C   4        / 67. BD*(   1) N   1 - C   4            3.13    1.03    0.054
   4. BD (   2) N   1 - C   4        / 26. RY*(   1) O   2                    2.88    1.77    0.064
   4. BD (   2) N   1 - C   4        / 36. RY*(   2) O   3                    1.53    1.93    0.049
   4. BD (   2) N   1 - C   4        / 65. BD*(   1) N   1 - O   2            1.22    1.18    0.034
   4. BD (   2) N   1 - C   4        / 66. BD*(   1) N   1 - O   3            1.27    1.03    0.033
   4. BD (   2) N   1 - C   4        / 68. BD*(   2) N   1 - C   4            6.22    0.77    0.067
   4. BD (   2) N   1 - C   4        / 69. BD*(   1) O   3 - H   7            4.25    1.13    0.062
   5. BD (   1) O   3 - H   7        / 17. RY*(   1) N   1                    1.59    2.06    0.051
   5. BD (   1) O   3 - H   7        / 20. RY*(   4) N   1                    0.57    2.98    0.037
   5. BD (   1) O   3 - H   7        / 66. BD*(   1) N   1 - O   3            0.95    1.28    0.032
   5. BD (   1) O   3 - H   7        / 67. BD*(   1) N   1 - C   4            0.84    1.16    0.029
   5. BD (   1) O   3 - H   7        / 68. BD*(   2) N   1 - C   4            6.44    1.02    0.078
   6. BD (   1) C   4 - H   5        / 65. BD*(   1) N   1 - O   2            0.52    1.16    0.022
   6. BD (   1) C   4 - H   5        / 66. BD*(   1) N   1 - O   3            6.49    1.01    0.074
   7. BD (   1) C   4 - H   6        / 22. RY*(   6) N   1                    0.55    2.97    0.036
   7. BD (   1) C   4 - H   6        / 65. BD*(   1) N   1 - O   2            5.41    1.16    0.071
   7. BD (   1) C   4 - H   6        / 66. BD*(   1) N   1 - O   3            0.56    1.01    0.022
   8. CR (   1) N   1                / 46. RY*(   3) C   4                    2.82   15.28    0.185
   9. CR (   1) O   2                / 17. RY*(   1) N   1                    3.12   20.59    0.227
   9. CR (   1) O   2                / 18. RY*(   2) N   1                    1.49   20.79    0.157
   9. CR (   1) O   2                / 66. BD*(   1) N   1 - O   3            0.53   19.81    0.094
   9. CR (   1) O   2                / 67. BD*(   1) N   1 - C   4            1.15   19.69    0.142
  10. CR (   1) O   3                / 17. RY*(   1) N   1                    2.16   20.70    0.190
  10. CR (   1) O   3                / 18. RY*(   2) N   1                    1.00   20.91    0.130
  10. CR (   1) O   3                / 67. BD*(   1) N   1 - C   4            0.56   19.80    0.100
  11. CR (   1) C   4                / 18. RY*(   2) N   1                    0.75   11.86    0.084
  11. CR (   1) C   4                / 53. RY*(   1) H   5                    0.87   10.92    0.087
  11. CR (   1) C   4                / 57. RY*(   1) H   6                    0.86   10.89    0.087
  11. CR (   1) C   4                / 65. BD*(   1) N   1 - O   2            0.92   11.03    0.091
  11. CR (   1) C   4                / 66. BD*(   1) N   1 - O   3            1.10   10.88    0.100
  12. LP (   1) O   2                / 17. RY*(   1) N   1                    6.11    2.02    0.099
  12. LP (   1) O   2                / 18. RY*(   2) N   1                    2.22    2.22    0.063
  12. LP (   1) O   2                / 66. BD*(   1) N   1 - O   3            1.43    1.24    0.038
  12. LP (   1) O   2                / 67. BD*(   1) N   1 - C   4            4.35    1.12    0.066
  12. LP (   1) O   2                / 68. BD*(   2) N   1 - C   4            1.70    0.99    0.040
  13. LP (   2) O   2                / 17. RY*(   1) N   1                    1.24    1.52    0.040
  13. LP (   2) O   2                / 18. RY*(   2) N   1                    3.69    1.73    0.073
  13. LP (   2) O   2                / 21. RY*(   5) N   1                    1.26    2.74    0.054
  13. LP (   2) O   2                / 66. BD*(   1) N   1 - O   3           29.49    0.75    0.133
  13. LP (   2) O   2                / 67. BD*(   1) N   1 - C   4            7.83    0.62    0.064
  13. LP (   2) O   2                / 68. BD*(   2) N   1 - C   4            9.49    0.49    0.064
  13. LP (   2) O   2                / 71. BD*(   1) C   4 - H   6            0.81    0.92    0.025
  14. LP (   3) O   2                / 17. RY*(   1) N   1                    0.65    1.49    0.031
  14. LP (   3) O   2                / 19. RY*(   3) N   1                    5.05    2.57    0.113
  14. LP (   3) O   2                / 26. RY*(   1) O   2                    0.68    1.46    0.031
  14. LP (   3) O   2                / 33. RY*(   8) O   2                    0.54    3.13    0.041
  14. LP (   3) O   2                / 66. BD*(   1) N   1 - O   3            0.55    0.71    0.019
  14. LP (   3) O   2                / 67. BD*(   1) N   1 - C   4           20.81    0.58    0.103
  14. LP (   3) O   2                / 68. BD*(   2) N   1 - C   4           36.10    0.45    0.116
  15. LP (   1) O   3                / 17. RY*(   1) N   1                    2.02    1.81    0.054
  15. LP (   1) O   3                / 21. RY*(   5) N   1                    2.16    3.03    0.073
  15. LP (   1) O   3                / 63. RY*(   3) H   7                    0.77    2.44    0.039
  15. LP (   1) O   3                / 65. BD*(   1) N   1 - O   2           11.23    1.19    0.103
  16. LP (   2) O   3                / 20. RY*(   4) N   1                    2.98    2.59    0.080
  16. LP (   2) O   3                / 62. RY*(   2) H   7                    1.44    2.15    0.051
  16. LP (   2) O   3                / 65. BD*(   1) N   1 - O   2            0.71    1.04    0.025
  16. LP (   2) O   3                / 67. BD*(   1) N   1 - C   4           14.84    0.76    0.098
  16. LP (   2) O   3                / 68. BD*(   2) N   1 - C   4            4.63    0.63    0.051
  67. BD*(   1) N   1 - C   4        / 18. RY*(   2) N   1                    0.58    1.10    0.067
  67. BD*(   1) N   1 - C   4        / 23. RY*(   7) N   1                    0.63    0.84    0.063
  67. BD*(   1) N   1 - C   4        / 24. RY*(   8) N   1                    0.88    1.39    0.095
  67. BD*(   1) N   1 - C   4        / 45. RY*(   2) C   4                    0.76    0.44    0.049
  67. BD*(   1) N   1 - C   4        / 46. RY*(   3) C   4                   22.80    0.17    0.169
  67. BD*(   1) N   1 - C   4        / 47. RY*(   4) C   4                    0.91    1.15    0.088
  67. BD*(   1) N   1 - C   4        / 51. RY*(   8) C   4                    0.62    1.32    0.077
  67. BD*(   1) N   1 - C   4        / 65. BD*(   1) N   1 - O   2            0.86    0.28    0.039
  67. BD*(   1) N   1 - C   4        / 71. BD*(   1) C   4 - H   6            0.64    0.30    0.037
  68. BD*(   2) N   1 - C   4        / 23. RY*(   7) N   1                    1.30    0.98    0.081
  68. BD*(   2) N   1 - C   4        / 44. RY*(   1) C   4                    1.13    0.57    0.058
  68. BD*(   2) N   1 - C   4        / 45. RY*(   2) C   4                    1.35    0.57    0.064
  68. BD*(   2) N   1 - C   4        / 46. RY*(   3) C   4                   10.22    0.30    0.127
  68. BD*(   2) N   1 - C   4        / 47. RY*(   4) C   4                    0.77    1.28    0.072
  68. BD*(   2) N   1 - C   4        / 66. BD*(   1) N   1 - O   3            0.75    0.26    0.028
  68. BD*(   2) N   1 - C   4        / 67. BD*(   1) N   1 - C   4          163.59    0.13    0.256
  68. BD*(   2) N   1 - C   4        / 69. BD*(   1) O   3 - H   7            1.00    0.36    0.042
  68. BD*(   2) N   1 - C   4        / 70. BD*(   1) C   4 - H   5            0.65    0.43    0.038


 Natural Bond Orbitals (Summary):

                                                            Principal Delocalizations
           NBO                        Occupancy    Energy   (geminal,vicinal,remote)
 ====================================================================================
 Molecular unit  1  (CH3NO2)
     1. BD (   1) N   1 - O   2          1.99637    -1.18582  67(g),44(v),68(g),17(g)
                                                    71(v)
     2. BD (   1) N   1 - O   3          1.99645    -1.19009  44(v),27(v)
     3. BD (   1) N   1 - C   4          1.98847    -0.75957  67(g),35(v),27(v),26(v)
                                                    65(g)
     4. BD (   2) N   1 - C   4          1.97902    -0.63178  68(g),69(v),26(v),36(v)
                                                    66(g),65(g)
     5. BD (   1) O   3 - H   7          1.97941    -0.88546  68(v),17(v),66(g),67(v)
                                                    20(v)
     6. BD (   1) C   4 - H   5          1.98581    -0.61677  66(v),65(v)
     7. BD (   1) C   4 - H   6          1.98877    -0.61600  65(v),66(v),22(v)
     8. CR (   1) N   1                  1.99937   -14.84273  46(v)
     9. CR (   1) O   2                  1.99976   -19.41701  17(v),18(v),67(v),66(v)
    10. CR (   1) O   3                  1.99966   -19.53090  17(v),18(v),67(v)
    11. CR (   1) C   4                  1.99934   -10.48745  66(v),65(v),53(v),57(v)
                                                    18(v)
    12. LP (   1) O   2                  1.98302    -0.84605  17(v),67(v),18(v),68(v)
                                                    66(v)
    13. LP (   2) O   2                  1.89443    -0.35167  66(v),68(v),67(v),18(v)
                                                    21(v),17(v),71(r)
    14. LP (   3) O   2                  1.61562    -0.31288  68(v),67(v),19(v),26(g)
                                                    17(v),33(g),66(v)
    15. LP (   1) O   3                  1.97127    -0.64049  65(v),21(v),17(v),63(v)
    16. LP (   2) O   3                  1.90028    -0.49177  67(v),68(v),20(v),62(v)
                                                    65(v)
    17. RY*(   1) N   1                  0.01234     1.17256   
    18. RY*(   2) N   1                  0.00905     1.37506   
    19. RY*(   3) N   1                  0.00511     2.25596   
    20. RY*(   4) N   1                  0.00291     2.09719   
    21. RY*(   5) N   1                  0.00259     2.38907   
    22. RY*(   6) N   1                  0.00143     2.35491   
    23. RY*(   7) N   1                  0.00022     1.11537   
    24. RY*(   8) N   1                  0.00004     1.66026   
    25. RY*(   9) N   1                  0.00000     2.09922   
    26. RY*(   1) O   2                  0.00386     1.14312   
    27. RY*(   2) O   2                  0.00286     1.15718   
    28. RY*(   3) O   2                  0.00068     1.44069   
    29. RY*(   4) O   2                  0.00006     2.36198   
    30. RY*(   5) O   2                  0.00001     2.84070   
    31. RY*(   6) O   2                  0.00001     2.72467   
    32. RY*(   7) O   2                  0.00001     2.12382   
    33. RY*(   8) O   2                  0.00000     2.81725   
    34. RY*(   9) O   2                  0.00000     2.76432   
    35. RY*(   1) O   3                  0.00328     1.14274   
    36. RY*(   2) O   3                  0.00244     1.29714   
    37. RY*(   3) O   3                  0.00163     1.41086   
    38. RY*(   4) O   3                  0.00010     1.52751   
    39. RY*(   5) O   3                  0.00003     3.05004   
    40. RY*(   6) O   3                  0.00001     2.80620   
    41. RY*(   7) O   3                  0.00000     2.70583   
    42. RY*(   8) O   3                  0.00001     2.90994   
    43. RY*(   9) O   3                  0.00000     2.79534   
    44. RY*(   1) C   4                  0.00378     0.70471   
    45. RY*(   2) C   4                  0.00286     0.71372   
    46. RY*(   3) C   4                  0.00120     0.44175   
    47. RY*(   4) C   4                  0.00024     1.41896   
    48. RY*(   5) C   4                  0.00005     2.33462   
    49. RY*(   6) C   4                  0.00001     2.21783   
    50. RY*(   7) C   4                  0.00000     1.93868   
    51. RY*(   8) C   4                  0.00001     1.58733   
    52. RY*(   9) C   4                  0.00001     2.11638   
    53. RY*(   1) H   5                  0.00102     0.43412   
    54. RY*(   2) H   5                  0.00014     1.71108   
    55. RY*(   3) H   5                  0.00006     2.02880   
    56. RY*(   4) H   5                  0.00001     2.07317   
    57. RY*(   1) H   6                  0.00093     0.39790   
    58. RY*(   2) H   6                  0.00017     1.67486   
    59. RY*(   3) H   6                  0.00007     2.07469   
    60. RY*(   4) H   6                  0.00001     2.10390   
    61. RY*(   1) H   7                  0.00242     0.43259   
    62. RY*(   2) H   7                  0.00129     1.66138   
    63. RY*(   3) H   7                  0.00058     1.79694   
    64. RY*(   4) H   7                  0.00003     2.39287   
    65. BD*(   1) N   1 - O   2          0.03238     0.54743   
    66. BD*(   1) N   1 - O   3          0.08691     0.39662   
    67. BD*(   1) N   1 - C   4          0.21650     0.27078  68(g),46(g),47(g),24(g)
                                                    65(g),45(g),23(g),71(g)
                                                    51(g),18(g)
    68. BD*(   2) N   1 - C   4          0.30386     0.13946  67(g),46(g),45(g),23(g)
                                                    44(g),69(v),47(g),70(g)
                                                    66(g)
    69. BD*(   1) O   3 - H   7          0.01153     0.49544   
    70. BD*(   1) C   4 - H   5          0.00252     0.57199   
    71. BD*(   1) C   4 - H   6          0.00568     0.56964   
       -------------------------------
              Total Lewis   31.27703  ( 97.7407%)
        Valence non-Lewis    0.65938  (  2.0606%)
        Rydberg non-Lewis    0.06359  (  0.1987%)
       -------------------------------
            Total unit  1   32.00000  (100.0000%)
           Charge unit  1    0.00000
   1 Symmetry operations used in ECPInt.
 ECPInt:  NShTT=     561 NPrTT=    2077 LenC2=     562 LenP2D=    1814.
 LDataN:  DoStor=T MaxTD1= 5 Len=  102
 D1PCM: C-PCM CHGder 1st derivatives, ID1Alg=3 FixD1E=F DoIter=F DoCFld=F I1PDM=0.
 Calling FoFJK, ICntrl=      2127 FMM=F ISym2X=0 I1Cent= 0 IOpClX= 0 NMat=1 NMatS=1 NMatT=0.
 ***** Axes restored to original set *****
 -------------------------------------------------------------------
 Center     Atomic                   Forces (Hartrees/Bohr)
 Number     Number              X              Y              Z
 -------------------------------------------------------------------
      1        7           0.006035039    0.120626241    0.043463294
      2        8           0.027146122   -0.008506512   -0.007565887
      3        8          -0.075495752   -0.058837527    0.001359855
      4        6           0.016131887   -0.056426591   -0.029850713
      5        1           0.009961298    0.010402795   -0.011943836
      6        1          -0.008246385   -0.012764760    0.008719471
      7        1           0.024467791    0.005506353   -0.004182183
 -------------------------------------------------------------------
 Cartesian Forces:  Max     0.120626241 RMS     0.039124232

 GradGradGradGradGradGradGradGradGradGradGradGradGradGradGradGradGradGrad
 Berny optimization.
 FormGI is forming the generalized inverse of G from B-inverse, IUseBI=4.
 Internal  Forces:  Max     0.068982376 RMS     0.026576541
 Search for a local minimum.
 Step number   1 out of a maximum of   29
 All quantities printed in internal units (Hartrees-Bohrs-Radians)
 Mixed Optimization -- RFO/linear search
 Second derivative matrix not updated -- first step.
 The second derivative matrix:
                          R1        R2        R3        R4        R5
           R1           0.94853
           R2           0.00000   0.76419
           R3           0.00000   0.00000   0.50014
           R4           0.00000   0.00000   0.00000   0.55473
           R5           0.00000   0.00000   0.00000   0.00000   0.37230
           R6           0.00000   0.00000   0.00000   0.00000   0.00000
           A1           0.00000   0.00000   0.00000   0.00000   0.00000
           A2           0.00000   0.00000   0.00000   0.00000   0.00000
           A3           0.00000   0.00000   0.00000   0.00000   0.00000
           A4           0.00000   0.00000   0.00000   0.00000   0.00000
           A5           0.00000   0.00000   0.00000   0.00000   0.00000
           A6           0.00000   0.00000   0.00000   0.00000   0.00000
           A7           0.00000   0.00000   0.00000   0.00000   0.00000
           D1           0.00000   0.00000   0.00000   0.00000   0.00000
           D2           0.00000   0.00000   0.00000   0.00000   0.00000
           D3           0.00000   0.00000   0.00000   0.00000   0.00000
           D4           0.00000   0.00000   0.00000   0.00000   0.00000
           D5           0.00000   0.00000   0.00000   0.00000   0.00000
           D6           0.00000   0.00000   0.00000   0.00000   0.00000
                          R6        A1        A2        A3        A4
           R6           0.37230
           A1           0.00000   0.25000
           A2           0.00000   0.00000   0.25000
           A3           0.00000   0.00000   0.00000   0.25000
           A4           0.00000   0.00000   0.00000   0.00000   0.16000
           A5           0.00000   0.00000   0.00000   0.00000   0.00000
           A6           0.00000   0.00000   0.00000   0.00000   0.00000
           A7           0.00000   0.00000   0.00000   0.00000   0.00000
           D1           0.00000   0.00000   0.00000   0.00000   0.00000
           D2           0.00000   0.00000   0.00000   0.00000   0.00000
           D3           0.00000   0.00000   0.00000   0.00000   0.00000
           D4           0.00000   0.00000   0.00000   0.00000   0.00000
           D5           0.00000   0.00000   0.00000   0.00000   0.00000
           D6           0.00000   0.00000   0.00000   0.00000   0.00000
                          A5        A6        A7        D1        D2
           A5           0.16000
           A6           0.00000   0.16000
           A7           0.00000   0.00000   0.16000
           D1           0.00000   0.00000   0.00000   0.03021
           D2           0.00000   0.00000   0.00000   0.00000   0.03021
           D3           0.00000   0.00000   0.00000   0.00000   0.00000
           D4           0.00000   0.00000   0.00000   0.00000   0.00000
           D5           0.00000   0.00000   0.00000   0.00000   0.00000
           D6           0.00000   0.00000   0.00000   0.00000   0.00000
                          D3        D4        D5        D6
           D3           0.02021
           D4           0.00000   0.02021
           D5           0.00000   0.00000   0.02021
           D6           0.00000   0.00000   0.00000   0.02021
 ITU=  0
     Eigenvalues ---    0.02021   0.02021   0.02355   0.03021   0.16000
     Eigenvalues ---    0.16000   0.16000   0.24982   0.25000   0.37230
     Eigenvalues ---    0.37230   0.50014   0.55473   0.76419   0.94853
 RFO step:  Lambda=-3.53320670D-02 EMin= 2.02148159D-02
 Linear search not attempted -- first point.
 Iteration  1 RMS(Cart)=  0.10133519 RMS(Int)=  0.00683725
 Iteration  2 RMS(Cart)=  0.00868133 RMS(Int)=  0.00027746
 Iteration  3 RMS(Cart)=  0.00004414 RMS(Int)=  0.00027398
 Iteration  4 RMS(Cart)=  0.00000000 RMS(Int)=  0.00027398
 Variable       Old X    -DE/DX   Delta X   Delta X   Delta X     New X
                                 (Linear)    (Quad)   (Total)
    R1        2.30774   0.02400   0.00000   0.02439   0.02439   2.33213
    R2        2.39907   0.06898   0.00000   0.08628   0.08628   2.48535
    R3        2.59852  -0.06735   0.00000  -0.12578  -0.12578   2.47274
    R4        1.81414   0.01059   0.00000   0.01795   0.01795   1.83209
    R5        2.02201   0.01065   0.00000   0.02612   0.02612   2.04813
    R6        2.02201   0.01242   0.00000   0.03048   0.03048   2.05249
    A1        2.07724  -0.00369   0.00000  -0.01243  -0.01263   2.06461
    A2        2.12503   0.02238   0.00000   0.07897   0.07878   2.20381
    A3        2.07939  -0.01859   0.00000  -0.06464  -0.06484   2.01455
    A4        2.09440  -0.04113   0.00000  -0.21058  -0.21058   1.88381
    A5        2.09440  -0.00971   0.00000  -0.04971  -0.04974   2.04465
    A6        2.09440  -0.00256   0.00000  -0.01311  -0.01314   2.08125
    A7        2.09440   0.01227   0.00000   0.06282   0.06278   2.15718
    D1        0.71670  -0.00490   0.00000  -0.07281  -0.07213   0.64457
    D2       -2.48309  -0.00210   0.00000  -0.03398  -0.03466  -2.51775
    D3       -0.33451   0.01050   0.00000   0.19011   0.19042  -0.14409
    D4        2.80708   0.00968   0.00000   0.17522   0.17553   2.98261
    D5        2.86693   0.00858   0.00000   0.15352   0.15320   3.02014
    D6       -0.27466   0.00776   0.00000   0.13862   0.13831  -0.13635
         Item               Value     Threshold  Converged?
 Maximum Force            0.068982     0.000450     NO 
 RMS     Force            0.026577     0.000300     NO 
 Maximum Displacement     0.219422     0.001800     NO 
 RMS     Displacement     0.105735     0.001200     NO 
 Predicted change in Energy=-2.125862D-02
 GradGradGradGradGradGradGradGradGradGradGradGradGradGradGradGradGradGrad

                          Input orientation:                          
 ---------------------------------------------------------------------
 Center     Atomic      Atomic             Coordinates (Angstroms)
 Number     Number       Type             X           Y           Z
 ---------------------------------------------------------------------
      1          7           0        1.197343   -0.022967    0.088341
      2          8           0        2.231825    0.158368   -0.559723
      3          8           0        0.613040   -1.198867    0.013712
      4          6           0        0.591421    0.858624    0.841913
      5          1           0        1.105714    1.796433    1.017093
      6          1           0       -0.390814    0.627621    1.243818
      7          1           0        1.306751   -1.874392   -0.034828
 ---------------------------------------------------------------------
                    Distance matrix (angstroms):
                    1          2          3          4          5
     1  N    0.000000
     2  O    1.234108   0.000000
     3  O    1.315188   2.188922   0.000000
     4  C    1.308517   2.268451   2.218030   0.000000
     5  H    2.044797   2.537269   3.197081   1.083822   0.000000
     6  H    2.068970   3.217327   2.420112   1.086128   1.912360
     7  H    1.858740   2.294208   0.969498   2.957998   3.823861
                    6          7
     6  H    0.000000
     7  H    3.282794   0.000000
 Stoichiometry    CH3NO2
 Framework group  C1[X(CH3NO2)]
 Deg. of freedom    15
 Full point group                 C1      NOp   1
 Largest Abelian subgroup         C1      NOp   1
 Largest concise Abelian subgroup C1      NOp   1
                         Standard orientation:                         
 ---------------------------------------------------------------------
 Center     Atomic      Atomic             Coordinates (Angstroms)
 Number     Number       Type             X           Y           Z
 ---------------------------------------------------------------------
      1          7           0       -0.030270    0.078096   -0.008731
      2          8           0        0.396161    1.236065   -0.025682
      3          8           0        0.839821   -0.907290   -0.049671
      4          6           0       -1.287453   -0.283472    0.022520
      5          1           0       -2.023209    0.497949    0.173238
      6          1           0       -1.542135   -1.330291   -0.115251
      7          1           0        1.614098   -0.643691    0.470843
 ---------------------------------------------------------------------
 Rotational constants (GHZ):     12.2128816     11.7249915      6.0265011
 Standard basis: def2SVP (5D, 7F)
 There are    75 symmetry adapted cartesian basis functions of A   symmetry.
 There are    71 symmetry adapted basis functions of A   symmetry.
    71 basis functions,   121 primitive gaussians,    75 cartesian basis functions
    16 alpha electrons       16 beta electrons
       nuclear repulsion energy       127.0178695215 Hartrees.
 NAtoms=    7 NActive=    7 NUniq=    7 SFac= 1.00D+00 NAtFMM=   60 NAOKFM=F Big=F
 Integral buffers will be    131072 words long.
 Raffenetti 2 integral format.
 Two-electron integral symmetry is turned on.
 ------------------------------------------------------------------------------
 Polarizable Continuum Model (PCM)
 =================================
 Model                : C-PCM.
 Atomic radii         : UFF (Universal Force Field).
 Polarization charges : Total charges.
 Charge compensation  : None.
 Solution method      : On-the-fly selection.
 Cavity type          : Scaled VdW (van der Waals Surface) (Alpha=1.100).
 Cavity algorithm     : GePol (No added spheres)
                        Default sphere list used, NSphG=    7.
                        Lebedev-Laikov grids with approx.  5.0 points / Ang**2.
                        Smoothing algorithm: Karplus/York (Gamma=1.0000).
                        Polarization charges: spherical gaussians, with
                                              point-specific exponents (IZeta= 3).
                        Self-potential: point-specific (ISelfS= 7).
                        Self-field    : sphere-specific E.n sum rule (ISelfD= 2).
 1st derivatives      : Analytical E(r).r(x)/FMM algorithm (CHGder, D1EAlg=3).
                        Cavity 1st derivative terms included.
 Solvent              : NitroMethane, Eps=  36.562000 Eps(inf)=   1.909095
 ------------------------------------------------------------------------------
 Spheres list:
 ISph  on   Nord     Re0    Alpha      Xe            Ye            Ze
    1   N      1    1.8300  1.100     -0.030270      0.078096     -0.008731
    2   O      2    1.7500  1.100      0.396161      1.236065     -0.025682
    3   O      3    1.7500  1.100      0.839821     -0.907290     -0.049671
    4   C      4    1.9255  1.100     -1.287453     -0.283472      0.022520
    5   H      5    1.4430  1.100     -2.023209      0.497949      0.173238
    6   H      6    1.4430  1.100     -1.542135     -1.330291     -0.115251
    7   H      7    1.4430  1.100      1.614098     -0.643691      0.470843
 ------------------------------------------------------------------------------
 One-electron integrals computed using PRISM.
   1 Symmetry operations used in ECPInt.
 ECPInt:  NShTT=     561 NPrTT=    2077 LenC2=     561 LenP2D=    1818.
 LDataN:  DoStor=T MaxTD1= 4 Len=   56
 NBasis=    71 RedAO= T EigKep=  6.19D-03  NBF=    71
 NBsUse=    71 1.00D-06 EigRej= -1.00D+00 NBFU=    71
 Initial guess from the checkpoint file:  "CH2NO2H_opt.chk"
 B after Tr=     0.000000    0.000000    0.000000
         Rot=    0.999556    0.004396    0.001249    0.029434 Ang=   3.41 deg.
 ExpMin= 1.22D-01 ExpMax= 2.27D+03 ExpMxC= 3.41D+02 IAcc=1 IRadAn=         1 AccDes= 0.00D+00
 Harris functional with IExCor= 1009 and IRadAn=       1 diagonalized for initial guess.
 HarFok:  IExCor= 1009 AccDes= 0.00D+00 IRadAn=         1 IDoV= 1 UseB2=F ITyADJ=14
 ICtDFT=  3500011 ScaDFX=  1.000000  1.000000  1.000000  1.000000
[...]
     2   8     0.06   0.07   0.00     0.09   0.15   0.00     0.00  -0.03   0.00
     3   8     0.27  -0.25   0.00     0.01  -0.03   0.00     0.00  -0.07   0.00
     4   6    -0.23   0.07   0.00    -0.07  -0.19   0.00     0.09  -0.03   0.00
     5   1    -0.73  -0.37   0.00     0.36   0.21   0.00     0.57   0.40   0.00
     6   1     0.24  -0.04   0.00    -0.86  -0.03   0.00     0.32  -0.07   0.00
     7   1     0.10   0.09   0.00     0.03  -0.06   0.00    -0.31   0.52   0.00
                     10                     11                     12
                      A                      A                      A
 Frequencies --   1356.0323              1465.0553              1799.0325
 Red. masses --      1.9258                 1.6724                 5.1079
 Frc consts  --      2.0864                 2.1150                 9.7403
 IR Inten    --    195.3341                93.8442               487.1606
  Atom  AN      X      Y      Z        X      Y      Z        X      Y      Z
     1   7    -0.04   0.18   0.00    -0.01   0.12   0.00     0.41   0.21   0.00
     2   8    -0.03  -0.15   0.00    -0.04  -0.09   0.00    -0.07  -0.10   0.00
     3   8     0.04   0.06   0.00    -0.01  -0.03   0.00    -0.05  -0.05   0.00
     4   6    -0.02  -0.05   0.00     0.17   0.01   0.00    -0.28  -0.10   0.00
     5   1     0.28   0.22   0.00    -0.30  -0.44   0.00     0.01   0.23   0.00
     6   1    -0.01  -0.05   0.00    -0.72   0.22   0.00     0.03  -0.21   0.00
     7   1     0.47  -0.77   0.00    -0.16   0.26   0.00    -0.40   0.64   0.00
                     13                     14                     15
                      A                      A                      A
 Frequencies --   3224.1492              3376.9385              3773.0784
 Red. masses --      1.0523                 1.1312                 1.0663
 Frc consts  --      6.4448                 7.6002                 8.9438
 IR Inten    --     35.1877                15.3183               253.6259
  Atom  AN      X      Y      Z        X      Y      Z        X      Y      Z
     1   7    -0.01   0.00   0.00     0.00   0.00   0.00     0.00   0.00   0.00
     2   8     0.00   0.00   0.00     0.00   0.00   0.00     0.00   0.00   0.00
     3   8     0.00   0.00   0.00     0.00   0.00   0.00     0.06   0.03   0.00
     4   6     0.06   0.01   0.00    -0.03   0.10   0.00     0.00   0.00   0.00
     5   1    -0.49   0.53   0.00     0.46  -0.50   0.00     0.00   0.00   0.00
     6   1    -0.15  -0.67   0.00    -0.15  -0.71   0.00     0.00   0.00   0.00
     7   1     0.00   0.00   0.00     0.00   0.00   0.00    -0.88  -0.46   0.00

 -------------------
 - Thermochemistry -
 -------------------
 Temperature   298.150 Kelvin.  Pressure   1.00000 Atm.
 Atom     1 has atomic number  7 and mass  14.00307
 Atom     2 has atomic number  8 and mass  15.99491
 Atom     3 has atomic number  8 and mass  15.99491
 Atom     4 has atomic number  6 and mass  12.00000
 Atom     5 has atomic number  1 and mass   1.00783
 Atom     6 has atomic number  1 and mass   1.00783
 Atom     7 has atomic number  1 and mass   1.00783
 Molecular mass:    61.01638 amu.
 Principal axes and moments of inertia in atomic units:
                           1         2         3
     Eigenvalues --   148.12239 157.86203 305.98439
           X            0.99816   0.06057  -0.00007
           Y           -0.06057   0.99816   0.00005
           Z            0.00008  -0.00004   1.00000
 This molecule is an asymmetric top.
 Rotational symmetry number  1.
 Rotational temperatures (Kelvin)      0.58474     0.54867     0.28307
 Rotational constants (GHZ):          12.18412    11.43240     5.89815
 Zero-point vibrational energy     131608.5 (Joules/Mol)
                                   31.45518 (Kcal/Mol)
 Warning -- explicit consideration of   3 degrees of freedom as
           vibrations may cause significant error
 Vibrational temperatures:    467.93   756.48   885.67   963.30  1026.39
          (Kelvin)           1144.70  1327.41  1600.38  1912.02  1951.03
                             2107.89  2588.40  4638.83  4858.66  5428.61
 
 Zero-point correction=                           0.050127 (Hartree/Particle)
 Thermal correction to Energy=                    0.054118
 Thermal correction to Enthalpy=                  0.055062
 Thermal correction to Gibbs Free Energy=         0.024117
 Sum of electronic and zero-point Energies=           -244.647716
 Sum of electronic and thermal Energies=              -244.643725
 Sum of electronic and thermal Enthalpies=            -244.642780
 Sum of electronic and thermal Free Energies=         -244.673726
 
                     E (Thermal)             CV                S
                      KCal/Mol        Cal/Mol-Kelvin    Cal/Mol-Kelvin
 Total                   33.960             13.236             65.130
 Electronic               0.000              0.000              0.000
 Translational            0.889              2.981             38.245
 Rotational               0.889              2.981             23.485
 Vibrational             32.182              7.274              3.400
 Vibration     1          0.709              1.625              1.284
 Vibration     2          0.881              1.193              0.597
 Vibration     3          0.975              0.999              0.424
                       Q            Log10(Q)             Ln(Q)
 Total Bot       0.807181D-11        -11.093029        -25.542644
 Total V=0       0.919915D+12         11.963748         27.547547
 Vib (Bot)       0.142299D-22        -22.846799        -52.606699
 Vib (Bot)    1  0.576183D+00         -0.239439         -0.551330
 Vib (Bot)    2  0.305371D+00         -0.515172         -1.186228
 Vib (Bot)    3  0.238679D+00         -0.622186         -1.432636
 Vib (V=0)       0.162173D+01          0.209978          0.483491
 Vib (V=0)    1  0.126288D+01          0.101362          0.233395
 Vib (V=0)    2  0.108588D+01          0.035781          0.082388
 Vib (V=0)    3  0.105405D+01          0.022860          0.052637
 Electronic      0.100000D+01          0.000000          0.000000
 Translational   0.187338D+08          7.272625         16.745838
 Rotational      0.302793D+05          4.481145         10.318218
 ***** Axes restored to original set *****
 -------------------------------------------------------------------
 Center     Atomic                   Forces (Hartrees/Bohr)
 Number     Number              X              Y              Z
 -------------------------------------------------------------------
      1        7           0.000044457    0.000010487    0.000060822
      2        8          -0.000025183    0.000022049    0.000002934
      3        8          -0.000040002    0.000011839   -0.000026029
      4        6          -0.000018937   -0.000027617    0.000009065
      5        1          -0.000061931   -0.000042557   -0.000009128
      6        1          -0.000028546   -0.000098669   -0.000002974
      7        1           0.000130143    0.000124467   -0.000034689
 -------------------------------------------------------------------
 Cartesian Forces:  Max     0.000130143 RMS     0.000053656
 FormGI is forming the generalized inverse of G from B-inverse, IUseBI=4.

 GradGradGradGradGradGradGradGradGradGradGradGradGradGradGradGradGradGrad
 Berny optimization.
 Internal  Forces:  Max     0.000212899 RMS     0.000063751
 Search for a local minimum.
 Step number   1 out of a maximum of    2
 All quantities printed in internal units (Hartrees-Bohrs-Radians)
 Second derivative matrix not updated -- analytic derivatives used.
 The second derivative matrix:
                          R1        R2        R3        R4        R5
           R1           0.64333
           R2           0.07567   0.33928
           R3           0.07582   0.04164   0.67652
           R4          -0.00462   0.00533  -0.00312   0.51150
           R5          -0.00383  -0.00246   0.00256  -0.00005   0.38231
           R6          -0.00512  -0.00241   0.00225  -0.00009  -0.00188
           A1           0.03593   0.00414  -0.03724  -0.00741   0.00020
           A2           0.02451  -0.05866   0.01472   0.00442  -0.00496
           A3          -0.06044   0.05452   0.02252   0.00299   0.00476
           A4           0.00750   0.05724   0.00168   0.02110   0.00123
           A5          -0.00420   0.00383   0.01242  -0.00028   0.00524
           A6           0.00363  -0.00245   0.01481  -0.00017  -0.00706
           A7           0.00057  -0.00137  -0.02723   0.00045   0.00182
           D1           0.00000   0.00003   0.00001  -0.00003   0.00000
           D2          -0.00002   0.00002  -0.00002  -0.00005   0.00000
           D3          -0.00002  -0.00003   0.00002   0.00000   0.00001
           D4          -0.00001  -0.00002   0.00000  -0.00001   0.00000
           D5           0.00000   0.00001   0.00003   0.00001   0.00001
           D6           0.00001   0.00002   0.00001   0.00000   0.00000
                          R6        A1        A2        A3        A4
           R6           0.38397
           A1           0.00065   0.22871
           A2           0.00576  -0.10707   0.18537
           A3          -0.00641  -0.12163  -0.07829   0.19993
           A4           0.00030  -0.03710   0.00139   0.03570   0.22570
           A5          -0.00586  -0.00079  -0.00916   0.00995   0.00391
           A6           0.00337  -0.00361   0.01016  -0.00655  -0.00181
           A7           0.00249   0.00440  -0.00100  -0.00340  -0.00210
           D1           0.00000  -0.00004   0.00003   0.00002  -0.00003
           D2           0.00000   0.00003  -0.00005   0.00001  -0.00006
           D3           0.00000  -0.00002   0.00001  -0.00001   0.00000
           D4           0.00000  -0.00002   0.00001   0.00000  -0.00003
           D5           0.00000   0.00003  -0.00002   0.00001   0.00003
           D6           0.00000   0.00002  -0.00002   0.00001   0.00000
                          A5        A6        A7        D1        D2
           A5           0.08508
           A6          -0.05300   0.08651
           A7          -0.03207  -0.03351   0.06558
           D1          -0.00001   0.00001   0.00000   0.01107
           D2          -0.00001   0.00001   0.00000  -0.00599   0.01455
           D3           0.00002  -0.00001  -0.00001  -0.00985   0.00774
           D4          -0.00002   0.00000   0.00001  -0.01220   0.01160
           D5           0.00004  -0.00001  -0.00001   0.01008  -0.01626
           D6          -0.00001   0.00000   0.00000   0.00773  -0.01240
                          D3        D4        D5        D6
           D3           0.02252
           D4           0.01070   0.02900
           D5           0.00196  -0.01712   0.03274
           D6          -0.00986   0.00117   0.01367   0.02470
 ITU=  0
     Eigenvalues ---    0.00565   0.02808   0.02846   0.07238   0.09621
     Eigenvalues ---    0.13551   0.18379   0.20772   0.33687   0.38083
     Eigenvalues ---    0.38424   0.40999   0.51454   0.60854   0.75556
 Angle between quadratic step and forces=  63.80 degrees.
 Linear search not attempted -- first point.
 Iteration  1 RMS(Cart)=  0.00068818 RMS(Int)=  0.00000085
 Iteration  2 RMS(Cart)=  0.00000079 RMS(Int)=  0.00000003
 Variable       Old X    -DE/DX   Delta X   Delta X   Delta X     New X
                                 (Linear)    (Quad)   (Total)
    R1        2.33218  -0.00003   0.00000   0.00002   0.00002   2.33220
    R2        2.59944  -0.00010   0.00000  -0.00010  -0.00010   2.59935
    R3        2.44519  -0.00009   0.00000  -0.00012  -0.00012   2.44507
    R4        1.83863  -0.00001   0.00000   0.00001   0.00001   1.83863
    R5        2.05087  -0.00003   0.00000  -0.00008  -0.00008   2.05079
    R6        2.04995   0.00001   0.00000   0.00002   0.00002   2.04997
    A1        2.01594  -0.00005   0.00000  -0.00027  -0.00027   2.01567
    A2        2.25921   0.00005   0.00000   0.00015   0.00015   2.25935
    A3        2.00804   0.00000   0.00000   0.00012   0.00012   2.00817
    A4        1.78899  -0.00021   0.00000  -0.00098  -0.00098   1.78802
    A5        2.03374  -0.00003   0.00000  -0.00026  -0.00026   2.03347
    A6        2.06485  -0.00002   0.00000  -0.00022  -0.00022   2.06463
    A7        2.18460   0.00005   0.00000   0.00048   0.00048   2.18508
    D1       -0.00229   0.00002   0.00000   0.00198   0.00198  -0.00031
    D2        3.13983  -0.00001   0.00000   0.00148   0.00148   3.14131
    D3       -0.00077   0.00001   0.00000   0.00071   0.00071  -0.00005
    D4        3.14134  -0.00001   0.00000   0.00023   0.00023   3.14156
    D5        3.14021   0.00005   0.00000   0.00129   0.00129   3.14151
    D6       -0.00087   0.00003   0.00000   0.00081   0.00081  -0.00006
         Item               Value     Threshold  Converged?
 Maximum Force            0.000213     0.000450     YES
 RMS     Force            0.000064     0.000300     YES
 Maximum Displacement     0.001267     0.001800     YES
 RMS     Displacement     0.000688     0.001200     YES
 Predicted change in Energy=-1.980420D-07
 Optimization completed.
    -- Stationary point found.
                           ----------------------------
                           !   Optimized Parameters   !
                           ! (Angstroms and Degrees)  !
 --------------------------                            --------------------------
 ! Name  Definition              Value          Derivative Info.                !
 --------------------------------------------------------------------------------
 ! R1    R(1,2)                  1.2341         -DE/DX =    0.0                 !
 ! R2    R(1,3)                  1.3756         -DE/DX =   -0.0001              !
 ! R3    R(1,4)                  1.2939         -DE/DX =   -0.0001              !
 ! R4    R(3,7)                  0.973          -DE/DX =    0.0                 !
 ! R5    R(4,5)                  1.0853         -DE/DX =    0.0                 !
 ! R6    R(4,6)                  1.0848         -DE/DX =    0.0                 !
 ! A1    A(2,1,3)              115.5048         -DE/DX =    0.0                 !
 ! A2    A(2,1,4)              129.443          -DE/DX =    0.0001              !
 ! A3    A(3,1,4)              115.0523         -DE/DX =    0.0                 !
 ! A4    A(1,3,7)              102.5018         -DE/DX =   -0.0002              !
 ! A5    A(1,4,5)              116.5246         -DE/DX =    0.0                 !
 ! A6    A(1,4,6)              118.3071         -DE/DX =    0.0                 !
 ! A7    A(5,4,6)              125.1682         -DE/DX =    0.0001              !
 ! D1    D(2,1,3,7)             -0.1311         -DE/DX =    0.0                 !
 ! D2    D(4,1,3,7)            179.8988         -DE/DX =    0.0                 !
 ! D3    D(2,1,4,5)             -0.0439         -DE/DX =    0.0                 !
 ! D4    D(2,1,4,6)            179.9854         -DE/DX =    0.0                 !
 ! D5    D(3,1,4,5)            179.921          -DE/DX =    0.0                 !
 ! D6    D(3,1,4,6)             -0.0496         -DE/DX =    0.0                 !
 --------------------------------------------------------------------------------
 GradGradGradGradGradGradGradGradGradGradGradGradGradGradGradGradGradGrad

 1\1\GINC-DC2S8B1B\Freq\RM062X\def2SVP\C1H3N1O2\CHMBNN\04-Aug-2021\0\\#
 N Geom=AllCheck Guess=TCheck SCRF=Check GenChk RM062X/def2SVP Freq\\CH
 2NO2H\\0,1\N,1.2260797946,-0.026007205,0.1889616385\O,2.2974231766,0.0
 543963513,-0.418374536\O,0.6317491285,-1.2665207428,0.1799166957\C,0.5
 772861308,0.8876749051,0.8358977986\H,1.025629386,1.8757280081,0.85945
 44086\H,-0.360388458,0.6155924161,1.3086601725\H,1.2575024215,-1.79604
 41829,-0.3441904277\\Version=ES64L-G09RevD.01\State=1-A\HF=-244.697842
 9\RMSD=4.812e-10\RMSF=5.366e-05\ZeroPoint=0.050127\Thermal=0.0541183\D
 ipole=-0.7254871,-0.0919667,0.3990239\DipoleDeriv=1.7745178,-0.2020541
 ,-0.9344433,-0.0630102,1.7002538,0.4462701,-0.893634,0.5278201,0.96577
 27,-1.5477278,0.3625107,0.7743357,-0.0534955,-0.665976,-0.0423486,0.65
 32273,-0.2869529,-0.8789208,-0.4233846,-0.2613614,-0.0475824,-0.122219
 8,-1.3507738,-0.210852,-0.0073333,-0.1285131,-0.4075936,-0.3642192,0.2
 349527,0.0787664,0.418354,-0.4035986,-0.2625859,0.1317433,-0.154507,-0
 .4687414,0.088235,-0.034827,0.0638284,-0.0265317,0.1511724,-0.002593,0
 .066408,0.0020093,0.175462,0.1616475,-0.0334487,0.0288286,-0.0568335,0
 .0788539,-0.0096489,0.0220675,-0.0233495,0.2073686,0.3109314,-0.065772
 1,0.0362666,-0.0962633,0.4900682,0.0817583,0.0275212,0.0634932,0.40665
 24\Polar=34.6374572,-5.7058885,38.911734,-13.692709,10.5317961,25.3099
 425\PG=C01 [X(C1H3N1O2)]\NImag=0\\0.71664879,-0.13504536,0.73007346,-0
 .33815516,0.23070206,0.47482758,-0.39576606,-0.01568521,0.18373089,0.4
 9437906,-0.01269972,-0.12976526,-0.00812621,0.04352738,0.11358055,0.18
 457904,-0.00639082,-0.18645052,-0.25759869,-0.00298570,0.18618541,-0.1
 2007126,0.01001848,0.04082517,-0.04623444,-0.06910557,0.01730339,0.386
 59708,-0.02742317,-0.19644865,-0.02455653,-0.05063323,-0.01207004,0.02
 136975,-0.07695900,0.43738723,0.02993627,-0.04669079,-0.08701694,0.022
 64397,0.03222865,0.01311711,-0.23710615,0.16594434,0.21166427,-0.21599
 114,0.14464107,0.12688762,-0.05266551,0.03409514,0.05285614,0.02113203
 ,-0.01848244,-0.01022846,0.64053114,0.12180955,-0.33984504,-0.14949731
 ,0.02461696,0.01954406,-0.01470694,0.01189178,-0.07015468,-0.03106457,
 0.05458279,0.78129156,0.12028167,-0.16299361,-0.18976829,0.05008889,-0
 .02029312,-0.01503209,-0.00141554,-0.01314304,0.00988392,-0.31301576,0
 .17112793,0.31537957,0.00847177,0.01893571,0.00097676,-0.00118352,0.00
 119534,-0.00233403,0.00022283,0.00238254,0.00453209,-0.10703010,-0.134
 86306,0.01064157,0.09827156,-0.00875682,-0.02054229,-0.00103612,-0.002
 87709,0.00150669,0.00379998,0.00323639,0.00123411,-0.00352073,-0.12056
 425,-0.30913840,-0.01246067,0.12775498,0.32463654,-0.00707620,-0.01730
 626,-0.00007405,-0.00350491,0.00139640,-0.00327077,0.00476932,-0.00300
 830,0.00306716,0.01479080,-0.00408745,-0.03217884,-0.01066254,0.014271
 03,0.02740611,-0.01498833,-0.00386670,0.00583562,0.00652549,0.00115884
 ,0.00300100,-0.00014268,-0.00234819,-0.00212907,-0.28281235,-0.0733293
 7,0.13210922,-0.00009346,0.00233863,0.00125767,0.29185132,0.02569851,0
 .00781664,-0.01193869,0.00079192,-0.00224826,-0.00432820,0.00159847,-0
 .00072394,-0.00039412,-0.08813497,-0.07866012,0.03543401,-0.01572674,0
 .00299393,0.00987294,0.07581196,0.07081916,0.01442170,0.00545422,-0.01
 007328,0.00289812,-0.00453901,0.00803501,-0.00098371,0.00192831,-0.001
 46686,0.12781498,0.02673264,-0.08955898,-0.00399348,-0.00076474,0.0030
 1570,-0.13934050,-0.02916558,0.09116842,0.02169623,-0.01899799,-0.0201
 0090,-0.00505502,0.00182859,0.00219315,-0.24150356,0.17346350,0.192351
 36,-0.00316408,-0.00470865,0.00130996,0.00134092,-0.00113184,0.0004258
 6,-0.00033999,-0.00003915,-0.00081711,0.22702550,0.03641702,-0.0512888
 6,-0.03554720,0.00025926,0.00945226,0.00324193,0.11931945,-0.15922403,
 -0.11650277,-0.00613734,-0.00303737,0.00232850,0.00032123,-0.00069057,
 -0.00113836,0.00023483,0.00000260,0.00035417,-0.15041446,0.20478597,-0
 .00398732,-0.00277478,-0.00144451,0.00174173,0.00231898,-0.00258414,0.
 17660753,-0.14853453,-0.14924865,0.00089467,0.00149571,0.00127471,0.00
 083964,-0.00028876,0.00203470,-0.00073393,0.00051965,-0.00112000,-0.17
 536232,0.14726374,0.15108790\\-0.00004446,-0.00001049,-0.00006082,0.00
 002518,-0.00002205,-0.00000293,0.00004000,-0.00001184,0.00002603,0.000
 01894,0.00002762,-0.00000907,0.00006193,0.00004256,0.00000913,0.000028
 55,0.00009867,0.00000297,-0.00013014,-0.00012447,0.00003469\\\@


 FROM THE ASHES OF OUR DESPAIR GROW THE FLOWERS OF TOMORROW.
 Job cpu time:       0 days  0 hours  1 minutes  6.3 seconds.
 File lengths (MBytes):  RWF=     13 Int=      0 D2E=      0 Chk=      4 Scr=      1
 Normal termination of Gaussian 09 at Wed Aug  4 14:50:11 2021.
