 Entering Gaussian System, Link 0=g09
 Input=H2O_opt.com
 Output=H2O_opt.log
 Initial command:
 /apps/applications/gaussian/G09.D01/2/default/g09/l1.exe "/nobackup/chmbnn/Gau-143505.inp" -scrdir="/nobackup/chmbnn/"
 Entering Link 1 = /apps/applications/gaussian/G09.D01/2/default/g09/l1.exe PID=    143506.
  
 Copyright (c) 1988,1990,1992,1993,1995,1998,2003,2009,2013,
            Gaussian, Inc.  All Rights Reserved.
  
 This is part of the Gaussian(R) 09 program.  It is based on
 the Gaussian(R) 03 system (copyright 2003, Gaussian, Inc.),
 the Gaussian(R) 98 system (copyright 1998, Gaussian, Inc.),
 the Gaussian(R) 94 system (copyright 1995, Gaussian, Inc.),
 the Gaussian 92(TM) system (copyright 1992, Gaussian, Inc.),
 the Gaussian 90(TM) system (copyright 1990, Gaussian, Inc.),
 the Gaussian 88(TM) system (copyright 1988, Gaussian, Inc.),
 the Gaussian 86(TM) system (copyright 1986, Carnegie Mellon
 University), and the Gaussian 82(TM) system (copyright 1983,
 Carnegie Mellon University). Gaussian is a federally registered
 trademark of Gaussian, Inc.
  
 This software contains proprietary and confidential information,
 including trade secrets, belonging to Gaussian, Inc.
  
 This software is provided under written license and may be
 used, copied, transmitted, or stored only in accord with that
 written license.
  
 The following legend is applicable only to US Government
 contracts under FAR:
  
                    RESTRICTED RIGHTS LEGEND
  
 Use, reproduction and disclosure by the US Government is
 subject to restrictions as set forth in subparagraphs (a)
 and (c) of the Commercial Computer Software - Restricted
 Rights clause in FAR 52.227-19.
  
 Gaussian, Inc.
 340 Quinnipiac St., Bldg. 40, Wallingford CT 06492
  
  
 ---------------------------------------------------------------
 Warning -- This program may not be used in any manner that
 competes with the business of Gaussian, Inc. or will provide
 assistance to any competitor of Gaussian, Inc.  The licensee
 of this program is prohibited from giving any competitor of
 Gaussian, Inc. access to this program.  By using this program,
 the user acknowledges that Gaussian, Inc. is engaged in the
 business of creating and licensing software in the field of
 computational chemistry and represents and warrants to the
 licensee that it is not a competitor of Gaussian, Inc. and that
 it will not use this program in any manner prohibited above.
 ---------------------------------------------------------------
  

 Cite this work as:
 Gaussian 09, Revision D.01,
 M. J. Frisch, G. W. Trucks, H. B. Schlegel, G. E. Scuseria, 
 M. A. Robb, J. R. Cheeseman, G. Scalmani, V. Barone, B. Mennucci, 
 G. A. Petersson, H. Nakatsuji, M. Caricato, X. Li, H. P. Hratchian, 
 A. F. Izmaylov, J. Bloino, G. Zheng, J. L. Sonnenberg, M. Hada, 
 M. Ehara, K. Toyota, R. Fukuda, J. Hasegawa, M. Ishida, T. Nakajima, 
 Y. Honda, O. Kitao, H. Nakai, T. Vreven, J. A. Montgomery, Jr., 
 J. E. Peralta, F. Ogliaro, M. Bearpark, J. J. Heyd, E. Brothers, 
 K. N. Kudin, V. N. Staroverov, T. Keith, R. Kobayashi, J. Normand, 
 K. Raghavachari, A. Rendell, J. C. Burant, S. S. Iyengar, J. Tomasi, 
 M. Cossi, N. Rega, J. M. Millam, M. Klene, J. E. Knox, J. B. Cross, 
 V. Bakken, C. Adamo, J. Jaramillo, R. Gomperts, R. E. Stratmann, 
 O. Yazyev, A. J. Austin, R. Cammi, C. Pomelli, J. W. Ochterski, 
 R. L. Martin, K. Morokuma, V. G. Zakrzewski, G. A. Voth, 
 P. Salvador, J. J. Dannenberg, S. Dapprich, A. D. Daniels, 
 O. Farkas, J. B. Foresman, J. V. Ortiz, J. Cioslowski, 
 and D. J. Fox, Gaussian, Inc., Wallingford CT, 2013.
 
 ******************************************
 Gaussian 09:  ES64L-G09RevD.01 24-Apr-2013
                23-Oct-2020 
 ******************************************
 %nprocshared=4
 Will use up to    4 processors via shared memory.
 %chk=H2O_opt.chk
 ---------------------------------------------------------------
 # opt=tight freq scrf=(cpcm,solvent=nitromethane) def2svp m062x
 ---------------------------------------------------------------
 1/7=10,14=-1,18=20,19=15,26=3,38=1/1,3;
 2/9=110,12=2,17=6,18=5,40=1/2;
 3/5=43,7=101,11=2,16=1,25=1,30=1,70=2101,71=1,72=15,74=-55/1,2,3;
 4//1;
 5/5=2,38=5,53=15/2;
 6/7=2,8=2,9=2,10=2,28=1/1;
 7//1,2,3,16;
 1/7=10,14=-1,18=20,19=15,26=3/3(2);
 2/9=110/2;
 99//99;
 2/9=110/2;
 3/5=43,7=101,11=2,16=1,25=1,30=1,70=2105,71=1,72=15,74=-55/1,2,3;
 4/5=5,16=3,69=1/1;
 5/5=2,38=5,53=15/2;
 7//1,2,3,16;
 1/7=10,14=-1,18=20,19=15,26=3/3(-5);
 2/9=110/2;
 6/7=2,8=2,9=2,10=2,19=2,28=1/1;
 99/9=1/99;
 ---
 H2O
 ---
 Symbolic Z-matrix:
 Charge =  0 Multiplicity = 1
 O                     1.0845    1.3925   -0.02226 
 H                     2.0445    1.3925   -0.02226 
 H                     0.76405   2.29743  -0.02226 
 

 GradGradGradGradGradGradGradGradGradGradGradGradGradGradGradGradGradGrad
 Berny optimization.
 Initialization pass.
                           ----------------------------
                           !    Initial Parameters    !
                           ! (Angstroms and Degrees)  !
 --------------------------                            --------------------------
 ! Name  Definition              Value          Derivative Info.                !
 --------------------------------------------------------------------------------
 ! R1    R(1,2)                  0.96           estimate D2E/DX2                !
 ! R2    R(1,3)                  0.96           estimate D2E/DX2                !
 ! A1    A(2,1,3)              109.5            estimate D2E/DX2                !
 --------------------------------------------------------------------------------
 Trust Radius=3.00D-01 FncErr=1.00D-07 GrdErr=1.00D-06
 Number of steps in this run=     20 maximum allowed number of steps=    100.
 GradGradGradGradGradGradGradGradGradGradGradGradGradGradGradGradGradGrad

                          Input orientation:                          
 ---------------------------------------------------------------------
 Center     Atomic      Atomic             Coordinates (Angstroms)
 Number     Number       Type             X           Y           Z
 ---------------------------------------------------------------------
      1          8           0        1.084501    1.392496   -0.022263
      2          1           0        2.044501    1.392496   -0.022263
      3          1           0        0.764047    2.297432   -0.022263
 ---------------------------------------------------------------------
                    Distance matrix (angstroms):
                    1          2          3
     1  O    0.000000
     2  H    0.960000   0.000000
     3  H    0.960000   1.567952   0.000000
 Stoichiometry    H2O
 Framework group  C2V[C2(O),SGV(H2)]
 Deg. of freedom     2
 Full point group                 C2V     NOp   4
 Largest Abelian subgroup         C2V     NOp   4
 Largest concise Abelian subgroup C2      NOp   2
                         Standard orientation:                         
 ---------------------------------------------------------------------
 Center     Atomic      Atomic             Coordinates (Angstroms)
 Number     Number       Type             X           Y           Z
 ---------------------------------------------------------------------
      1          8           0        0.000000    0.000000    0.110812
      2          1           0        0.000000    0.783976   -0.443248
      3          1           0        0.000000   -0.783976   -0.443248
 ---------------------------------------------------------------------
 Rotational constants (GHZ):    919.6759611    407.9403275    282.5913752
 Standard basis: def2SVP (5D, 7F)
 There are    12 symmetry adapted cartesian basis functions of A1  symmetry.
 There are     2 symmetry adapted cartesian basis functions of A2  symmetry.
 There are     4 symmetry adapted cartesian basis functions of B1  symmetry.
 There are     7 symmetry adapted cartesian basis functions of B2  symmetry.
 There are    11 symmetry adapted basis functions of A1  symmetry.
 There are     2 symmetry adapted basis functions of A2  symmetry.
 There are     4 symmetry adapted basis functions of B1  symmetry.
 There are     7 symmetry adapted basis functions of B2  symmetry.
    24 basis functions,    39 primitive gaussians,    25 cartesian basis functions
     5 alpha electrons        5 beta electrons
       nuclear repulsion energy         9.1571159900 Hartrees.
 NAtoms=    3 NActive=    3 NUniq=    2 SFac= 2.25D+00 NAtFMM=   60 NAOKFM=F Big=F
 Integral buffers will be    131072 words long.
 Raffenetti 2 integral format.
 Two-electron integral symmetry is turned on.
 ------------------------------------------------------------------------------
 Polarizable Continuum Model (PCM)
 =================================
 Model                : C-PCM.
 Atomic radii         : UFF (Universal Force Field).
 Polarization charges : Total charges.
 Charge compensation  : None.
 Solution method      : On-the-fly selection.
 Cavity type          : Scaled VdW (van der Waals Surface) (Alpha=1.100).
 Cavity algorithm     : GePol (No added spheres)
                        Default sphere list used, NSphG=    3.
                        Lebedev-Laikov grids with approx.  5.0 points / Ang**2.
                        Smoothing algorithm: Karplus/York (Gamma=1.0000).
                        Polarization charges: spherical gaussians, with
                                              point-specific exponents (IZeta= 3).
                        Self-potential: point-specific (ISelfS= 7).
                        Self-field    : sphere-specific E.n sum rule (ISelfD= 2).
 1st derivatives      : Analytical E(r).r(x)/FMM algorithm (CHGder, D1EAlg=3).
                        Cavity 1st derivative terms included.
 Solvent              : NitroMethane, Eps=  36.562000 Eps(inf)=   1.909095
 ------------------------------------------------------------------------------
 Spheres list:
 ISph  on   Nord     Re0    Alpha      Xe            Ye            Ze
    1   O      1    1.7500  1.100      0.000000      0.000000      0.110812
    2   H      2    1.4430  1.100      0.000000      0.783976     -0.443248
    3   H      3    1.4430  1.100      0.000000     -0.783976     -0.443248
 ------------------------------------------------------------------------------
 One-electron integrals computed using PRISM.
   4 Symmetry operations used in ECPInt.
 ECPInt:  NShTT=      78 NPrTT=     272 LenC2=      79 LenP2D=     271.
 LDataN:  DoStor=T MaxTD1= 4 Len=   56
 NBasis=    24 RedAO= T EigKep=  6.14D-02  NBF=    11     2     4     7
 NBsUse=    24 1.00D-06 EigRej= -1.00D+00 NBFU=    11     2     4     7
 ExpMin= 1.22D-01 ExpMax= 2.27D+03 ExpMxC= 3.41D+02 IAcc=1 IRadAn=         1 AccDes= 0.00D+00
 Harris functional with IExCor= 1009 and IRadAn=       1 diagonalized for initial guess.
 HarFok:  IExCor= 1009 AccDes= 0.00D+00 IRadAn=         1 IDoV= 1 UseB2=F ITyADJ=14
 ICtDFT=  3500011 ScaDFX=  1.000000  1.000000  1.000000  1.000000
 FoFCou: FMM=F IPFlag=           0 FMFlag=      100000 FMFlg1=           0
         NFxFlg=           0 DoJE=T BraDBF=F KetDBF=T FulRan=T
         wScrn=  0.000000 ICntrl=     500 IOpCl=  0 I1Cent=   200000004 NGrid=           0
         NMat0=    1 NMatS0=      1 NMatT0=    0 NMatD0=    1 NMtDS0=    0 NMtDT0=    0
 Petite list used in FoFCou.
 Initial guess orbital symmetries:
       Occupied  (A1) (A1) (B2) (A1) (B1)
       Virtual   (A1) (B2) (B2) (A1) (A1) (B1) (B2) (A1) (A2) (A1)
                 (B1) (B2) (B2) (A1) (B1) (A2) (A1) (A1) (B2)
 The electronic state of the initial guess is 1-A1.
 Keep R1 ints in memory in symmetry-blocked form, NReq=3101680.
 Requested convergence on RMS density matrix=1.00D-08 within 128 cycles.
 Requested convergence on MAX density matrix=1.00D-06.
 Requested convergence on             energy=1.00D-06.
 No special actions if energy rises.
 Inv3:  Mode=1 IEnd=      460992.
 Iteration    1 A*A^-1 deviation from unit magnitude is 2.22D-15 for     70.
 Iteration    1 A*A^-1 deviation from orthogonality  is 1.71D-15 for    285      9.
 Iteration    1 A^-1*A deviation from unit magnitude is 2.00D-15 for     87.
 Iteration    1 A^-1*A deviation from orthogonality  is 6.99D-16 for    383    381.
 Error on total polarization charges =  0.00116
 SCF Done:  E(RM062X) =  -76.3290330004     A.U. after    9 cycles
            NFock=  9  Conv=0.32D-09     -V/T= 2.0069

 **********************************************************************

            Population analysis using the SCF density.

 **********************************************************************

 Orbital symmetries:
       Occupied  (A1) (A1) (B2) (A1) (B1)
       Virtual   (A1) (B2) (B2) (A1) (A1) (B1) (B2) (A1) (A2) (A1)
                 (B1) (B2) (B2) (A1) (B1) (A2) (A1) (A1) (B2)
 The electronic state is 1-A1.
 Alpha  occ. eigenvalues --  -19.61047  -1.09170  -0.59643  -0.44331  -0.37872
 Alpha virt. eigenvalues --    0.10094   0.17890   0.64410   0.67302   0.98104
 Alpha virt. eigenvalues --    0.99758   1.06495   1.14211   1.38448   1.52096
 Alpha virt. eigenvalues --    1.62443   1.80177   2.30819   2.32899   2.99594
 Alpha virt. eigenvalues --    3.09240   3.21399   3.59847   3.82744
          Condensed to atoms (all electrons):
               1          2          3
     1  O    7.696302   0.345675   0.345675
     2  H    0.345675   0.488767  -0.028268
     3  H    0.345675  -0.028268   0.488767
 Mulliken charges:
               1
     1  O   -0.387653
     2  H    0.193826
     3  H    0.193826
 Sum of Mulliken charges =   0.00000
 Mulliken charges with hydrogens summed into heavy atoms:
               1
     1  O    0.000000
 Electronic spatial extent (au):  <R**2>=             18.7953
 Charge=              0.0000 electrons
 Dipole moment (field-independent basis, Debye):
    X=              0.0000    Y=              0.0000    Z=             -2.1418  Tot=              2.1418
 Quadrupole moment (field-independent basis, Debye-Ang):
   XX=             -7.0327   YY=             -3.9355   ZZ=             -6.0486
   XY=              0.0000   XZ=              0.0000   YZ=              0.0000
 Traceless Quadrupole moment (field-independent basis, Debye-Ang):
   XX=             -1.3605   YY=              1.7368   ZZ=             -0.3763
   XY=              0.0000   XZ=              0.0000   YZ=              0.0000
 Octapole moment (field-independent basis, Debye-Ang**2):
  XXX=              0.0000  YYY=              0.0000  ZZZ=             -1.2575  XYY=              0.0000
  XXY=              0.0000  XXZ=             -0.3409  XZZ=              0.0000  YZZ=              0.0000
  YYZ=             -1.3199  XYZ=              0.0000
 Hexadecapole moment (field-independent basis, Debye-Ang**3):
 XXXX=             -4.8599 YYYY=             -5.4882 ZZZZ=             -5.8676 XXXY=              0.0000
 XXXZ=              0.0000 YYYX=              0.0000 YYYZ=              0.0000 ZZZX=              0.0000
 ZZZY=              0.0000 XXYY=             -2.0482 XXZZ=             -1.8317 YYZZ=             -1.6078
 XXYZ=              0.0000 YYXZ=              0.0000 ZZXY=              0.0000
 N-N= 9.157115989974D+00 E-N=-1.988841400564D+02  KE= 7.580540961373D+01
 Symmetry A1   KE= 6.768936595415D+01
 Symmetry A2   KE= 6.278099659900D-35
 Symmetry B1   KE= 4.573871297897D+00
 Symmetry B2   KE= 3.542172361677D+00
   4 Symmetry operations used in ECPInt.
 ECPInt:  NShTT=      78 NPrTT=     272 LenC2=      79 LenP2D=     271.
 LDataN:  DoStor=T MaxTD1= 5 Len=  102
 D1PCM: C-PCM CHGder 1st derivatives, ID1Alg=3 FixD1E=F DoIter=F DoCFld=F I1PDM=0.
 Calling FoFJK, ICntrl=      2127 FMM=F ISym2X=1 I1Cent= 0 IOpClX= 0 NMat=1 NMatS=1 NMatT=0.
 ***** Axes restored to original set *****
 -------------------------------------------------------------------
 Center     Atomic                   Forces (Hartrees/Bohr)
 Number     Number              X              Y              Z
 -------------------------------------------------------------------
      1        8          -0.009625220   -0.013619371    0.000000000
      2        1           0.001487958    0.009159317    0.000000000
      3        1           0.008137262    0.004460054    0.000000000
 -------------------------------------------------------------------
 Cartesian Forces:  Max     0.013619371 RMS     0.007073789

 GradGradGradGradGradGradGradGradGradGradGradGradGradGradGradGradGradGrad
 Berny optimization.
 FormGI is forming the generalized inverse of G from B-inverse, IUseBI=4.
 Internal  Forces:  Max     0.016616257 RMS     0.009670023
 Search for a local minimum.
 Step number   1 out of a maximum of   20
 All quantities printed in internal units (Hartrees-Bohrs-Radians)
 Mixed Optimization -- RFO/linear search
 Second derivative matrix not updated -- first step.
 The second derivative matrix:
                          R1        R2        A1
           R1           0.55473
           R2           0.00000   0.55473
           A1           0.00000   0.00000   0.16000
 ITU=  0
     Eigenvalues ---    0.16000   0.55473   0.55473
 RFO step:  Lambda=-1.71528146D-03 EMin= 1.60000000D-01
 Linear search not attempted -- first point.
 Iteration  1 RMS(Cart)=  0.05581758 RMS(Int)=  0.00195558
 Iteration  2 RMS(Cart)=  0.00175515 RMS(Int)=  0.00000018
 Iteration  3 RMS(Cart)=  0.00000017 RMS(Int)=  0.00000000
 ClnCor:  largest displacement from symmetrization is 1.14D-14 for atom     3.
 Variable       Old X    -DE/DX   Delta X   Delta X   Delta X     New X
                                 (Linear)    (Quad)   (Total)
    R1        1.81414   0.00149   0.00000   0.00267   0.00267   1.81681
    R2        1.81414   0.00149   0.00000   0.00267   0.00267   1.81681
    A1        1.91114  -0.01662   0.00000  -0.10275  -0.10275   1.80839
         Item               Value     Threshold  Converged?
 Maximum Force            0.016616     0.000015     NO 
 RMS     Force            0.009670     0.000010     NO 
 Maximum Displacement     0.058477     0.000060     NO 
 RMS     Displacement     0.056676     0.000040     NO 
 Predicted change in Energy=-8.667066D-04
 GradGradGradGradGradGradGradGradGradGradGradGradGradGradGradGradGradGrad

                          Input orientation:                          
 ---------------------------------------------------------------------
 Center     Atomic      Atomic             Coordinates (Angstroms)
 Number     Number       Type             X           Y           Z
 ---------------------------------------------------------------------
      1          8           0        1.068956    1.370499   -0.022263
      2          1           0        2.029102    1.419870   -0.022263
      3          1           0        0.794991    2.292054   -0.022263
 ---------------------------------------------------------------------
                    Distance matrix (angstroms):
                    1          2          3
     1  O    0.000000
     2  H    0.961415   0.000000
     3  H    0.961415   1.511203   0.000000
 Stoichiometry    H2O
 Framework group  C2V[C2(O),SGV(H2)]
 Deg. of freedom     2
 Full point group                 C2V     NOp   4
 Largest Abelian subgroup         C2V     NOp   4
 Largest concise Abelian subgroup C2      NOp   2
                         Standard orientation:                         
 ---------------------------------------------------------------------
 Center     Atomic      Atomic             Coordinates (Angstroms)
 Number     Number       Type             X           Y           Z
 ---------------------------------------------------------------------
      1          8           0        0.000000    0.000000    0.118892
      2          1           0        0.000000    0.755601   -0.475570
      3          1           0        0.000000   -0.755601   -0.475570
 ---------------------------------------------------------------------
 Rotational constants (GHZ):    798.9115925    439.1537981    283.3816880
 Standard basis: def2SVP (5D, 7F)
 There are    12 symmetry adapted cartesian basis functions of A1  symmetry.
 There are     2 symmetry adapted cartesian basis functions of A2  symmetry.
 There are     4 symmetry adapted cartesian basis functions of B1  symmetry.
 There are     7 symmetry adapted cartesian basis functions of B2  symmetry.
 There are    11 symmetry adapted basis functions of A1  symmetry.
 There are     2 symmetry adapted basis functions of A2  symmetry.
 There are     4 symmetry adapted basis functions of B1  symmetry.
 There are     7 symmetry adapted basis functions of B2  symmetry.
    24 basis functions,    39 primitive gaussians,    25 cartesian basis functions
     5 alpha electrons        5 beta electrons
       nuclear repulsion energy         9.1568088290 Hartrees.
 NAtoms=    3 NActive=    3 NUniq=    2 SFac= 2.25D+00 NAtFMM=   60 NAOKFM=F Big=F
 Integral buffers will be    131072 words long.
 Raffenetti 2 integral format.
 Two-electron integral symmetry is turned on.
 ------------------------------------------------------------------------------
 Polarizable Continuum Model (PCM)
 =================================
 Model                : C-PCM.
 Atomic radii         : UFF (Universal Force Field).
 Polarization charges : Total charges.
 Charge compensation  : None.
 Solution method      : On-the-fly selection.
 Cavity type          : Scaled VdW (van der Waals Surface) (Alpha=1.100).
 Cavity algorithm     : GePol (No added spheres)
                        Default sphere list used, NSphG=    3.
                        Lebedev-Laikov grids with approx.  5.0 points / Ang**2.
                        Smoothing algorithm: Karplus/York (Gamma=1.0000).
                        Polarization charges: spherical gaussians, with
                                              point-specific exponents (IZeta= 3).
                        Self-potential: point-specific (ISelfS= 7).
                        Self-field    : sphere-specific E.n sum rule (ISelfD= 2).
 1st derivatives      : Analytical E(r).r(x)/FMM algorithm (CHGder, D1EAlg=3).
                        Cavity 1st derivative terms included.
 Solvent              : NitroMethane, Eps=  36.562000 Eps(inf)=   1.909095
 ------------------------------------------------------------------------------
 Spheres list:
 ISph  on   Nord     Re0    Alpha      Xe            Ye            Ze
    1   O      1    1.7500  1.100      0.000000      0.000000      0.118892
    2   H      2    1.4430  1.100      0.000000      0.755601     -0.475570
    3   H      3    1.4430  1.100      0.000000     -0.755601     -0.475570
 ------------------------------------------------------------------------------
 One-electron integrals computed using PRISM.
   4 Symmetry operations used in ECPInt.
 ECPInt:  NShTT=      78 NPrTT=     272 LenC2=      79 LenP2D=     271.
 LDataN:  DoStor=T MaxTD1= 4 Len=   56
 NBasis=    24 RedAO= T EigKep=  5.94D-02  NBF=    11     2     4     7
 NBsUse=    24 1.00D-06 EigRej= -1.00D+00 NBFU=    11     2     4     7
 Initial guess from the checkpoint file:  "H2O_opt.chk"
 B after Tr=     0.000000    0.000000    0.000000
         Rot=    1.000000    0.000000    0.000000    0.000000 Ang=   0.00 deg.
 Initial guess orbital symmetries:
       Occupied  (A1) (A1) (B2) (A1) (B1)
       Virtual   (A1) (A1) (A1) (A1) (A1) (A1) (A1) (A1) (A2) (A2)
                 (B1) (B1) (B1) (B2) (B2) (B2) (B2) (B2) (B2)
 ExpMin= 1.22D-01 ExpMax= 2.27D+03 ExpMxC= 3.41D+02 IAcc=1 IRadAn=         1 AccDes= 0.00D+00
 Harris functional with IExCor= 1009 and IRadAn=       1 diagonalized for initial guess.
 HarFok:  IExCor= 1009 AccDes= 0.00D+00 IRadAn=         1 IDoV= 1 UseB2=F ITyADJ=14
 ICtDFT=  3500011 ScaDFX=  1.000000  1.000000  1.000000  1.000000
 FoFCou: FMM=F IPFlag=           0 FMFlag=      100000 FMFlg1=           0
         NFxFlg=           0 DoJE=T BraDBF=F KetDBF=T FulRan=T
         wScrn=  0.000000 ICntrl=     500 IOpCl=  0 I1Cent=   200000004 NGrid=           0
         NMat0=    1 NMatS0=      1 NMatT0=    0 NMatD0=    1 NMtDS0=    0 NMtDT0=    0
 Petite list used in FoFCou.
 Keep R1 ints in memory in symmetry-blocked form, NReq=3101680.
 Requested convergence on RMS density matrix=1.00D-08 within 128 cycles.
 Requested convergence on MAX density matrix=1.00D-06.
 Requested convergence on             energy=1.00D-06.
 No special actions if energy rises.
 Inv3:  Mode=1 IEnd=      460992.
 Iteration    1 A*A^-1 deviation from unit magnitude is 2.55D-15 for    371.
 Iteration    1 A*A^-1 deviation from orthogonality  is 1.35D-15 for    286     99.
 Iteration    1 A^-1*A deviation from unit magnitude is 2.78D-15 for    371.
 Iteration    1 A^-1*A deviation from orthogonality  is 8.33D-16 for    190      3.
 Error on total polarization charges =  0.00117
 SCF Done:  E(RM062X) =  -76.3300082795     A.U. after    8 cycles
            NFock=  8  Conv=0.32D-08     -V/T= 2.0068
   4 Symmetry operations used in ECPInt.
 ECPInt:  NShTT=      78 NPrTT=     272 LenC2=      79 LenP2D=     271.
 LDataN:  DoStor=T MaxTD1= 5 Len=  102
 D1PCM: C-PCM CHGder 1st derivatives, ID1Alg=3 FixD1E=F DoIter=F DoCFld=F I1PDM=0.
 Calling FoFJK, ICntrl=      2127 FMM=F ISym2X=1 I1Cent= 0 IOpClX= 0 NMat=1 NMatS=1 NMatT=0.
 ***** Axes restored to original set *****
 -------------------------------------------------------------------
 Center     Atomic                   Forces (Hartrees/Bohr)
 Number     Number              X              Y              Z
 -------------------------------------------------------------------
      1        8          -0.002861351   -0.004048718    0.000000000
      2        1           0.002683483    0.001138963    0.000000000
      3        1           0.000177868    0.002909756    0.000000000
 -------------------------------------------------------------------
 Cartesian Forces:  Max     0.004048718 RMS     0.002149317

 GradGradGradGradGradGradGradGradGradGradGradGradGradGradGradGradGradGrad
 Berny optimization.
 Using GEDIIS/GDIIS optimizer.
 FormGI is forming the generalized inverse of G from B-inverse, IUseBI=4.
 Internal  Forces:  Max     0.002738431 RMS     0.002469584
 Search for a local minimum.
 Step number   2 out of a maximum of   20
 All quantities printed in internal units (Hartrees-Bohrs-Radians)
 Mixed Optimization -- RFO/linear search
 Update second derivatives using D2CorX and points    1    2
 DE= -9.75D-04 DEPred=-8.67D-04 R= 1.13D+00
 TightC=F SS=  1.41D+00  RLast= 1.03D-01 DXNew= 5.0454D-01 3.0846D-01
 Trust test= 1.13D+00 RLast= 1.03D-01 DXMaxT set to 3.08D-01
 The second derivative matrix:
                          R1        R2        A1
           R1           0.55447
           R2          -0.00026   0.55447
           A1           0.02659   0.02659   0.14542
 ITU=  1  0
 Use linear search instead of GDIIS.
     Eigenvalues ---    0.14199   0.55473   0.55764
 RFO step:  Lambda=-3.02361459D-05 EMin= 1.41992482D-01
 Quartic linear search produced a step of  0.12345.
 Iteration  1 RMS(Cart)=  0.00673495 RMS(Int)=  0.00004174
 Iteration  2 RMS(Cart)=  0.00004605 RMS(Int)=  0.00000000
 Iteration  3 RMS(Cart)=  0.00000000 RMS(Int)=  0.00000000
 ClnCor:  largest displacement from symmetrization is 6.47D-15 for atom     3.
 Variable       Old X    -DE/DX   Delta X   Delta X   Delta X     New X
                                 (Linear)    (Quad)   (Total)
    R1        1.81681   0.00274   0.00033   0.00526   0.00559   1.82240
    R2        1.81681   0.00274   0.00033   0.00526   0.00559   1.82240
    A1        1.80839  -0.00182  -0.01268  -0.00089  -0.01357   1.79481
         Item               Value     Threshold  Converged?
 Maximum Force            0.002738     0.000015     NO 
 RMS     Force            0.002470     0.000010     NO 
 Maximum Displacement     0.007158     0.000060     NO 
 RMS     Displacement     0.006755     0.000040     NO 
 Predicted change in Energy=-2.858869D-05
 GradGradGradGradGradGradGradGradGradGradGradGradGradGradGradGradGradGrad

                          Input orientation:                          
 ---------------------------------------------------------------------
 Center     Atomic      Atomic             Coordinates (Angstroms)
 Number     Number       Type             X           Y           Z
 ---------------------------------------------------------------------
      1          8           0        1.066279    1.366711   -0.022263
      2          1           0        2.029019    1.422769   -0.022263
      3          1           0        0.797752    2.292943   -0.022263
 ---------------------------------------------------------------------
                    Distance matrix (angstroms):
                    1          2          3
     1  O    0.000000
     2  H    0.964371   0.000000
     3  H    0.964371   1.507721   0.000000
 Stoichiometry    H2O
 Framework group  C2V[C2(O),SGV(H2)]
 Deg. of freedom     2
 Full point group                 C2V     NOp   4
 Largest Abelian subgroup         C2V     NOp   4
 Largest concise Abelian subgroup C2      NOp   2
                         Standard orientation:                         
 ---------------------------------------------------------------------
 Center     Atomic      Atomic             Coordinates (Angstroms)
 Number     Number       Type             X           Y           Z
 ---------------------------------------------------------------------
      1          8           0        0.000000    0.000000    0.120284
      2          1           0        0.000000    0.753860   -0.481136
      3          1           0        0.000000   -0.753860   -0.481136
 ---------------------------------------------------------------------
 Rotational constants (GHZ):    780.5348597    441.1844531    281.8649436
 Standard basis: def2SVP (5D, 7F)
 There are    12 symmetry adapted cartesian basis functions of A1  symmetry.
 There are     2 symmetry adapted cartesian basis functions of A2  symmetry.
 There are     4 symmetry adapted cartesian basis functions of B1  symmetry.
 There are     7 symmetry adapted cartesian basis functions of B2  symmetry.
 There are    11 symmetry adapted basis functions of A1  symmetry.
 There are     2 symmetry adapted basis functions of A2  symmetry.
 There are     4 symmetry adapted basis functions of B1  symmetry.
 There are     7 symmetry adapted basis functions of B2  symmetry.
    24 basis functions,    39 primitive gaussians,    25 cartesian basis functions
     5 alpha electrons        5 beta electrons
       nuclear repulsion energy         9.1306254200 Hartrees.
 NAtoms=    3 NActive=    3 NUniq=    2 SFac= 2.25D+00 NAtFMM=   60 NAOKFM=F Big=F
 Integral buffers will be    131072 words long.
 Raffenetti 2 integral format.
 Two-electron integral symmetry is turned on.
 ------------------------------------------------------------------------------
 Polarizable Continuum Model (PCM)
 =================================
 Model                : C-PCM.
 Atomic radii         : UFF (Universal Force Field).
 Polarization charges : Total charges.
 Charge compensation  : None.
 Solution method      : On-the-fly selection.
 Cavity type          : Scaled VdW (van der Waals Surface) (Alpha=1.100).
 Cavity algorithm     : GePol (No added spheres)
                        Default sphere list used, NSphG=    3.
                        Lebedev-Laikov grids with approx.  5.0 points / Ang**2.
                        Smoothing algorithm: Karplus/York (Gamma=1.0000).
                        Polarization charges: spherical gaussians, with
                                              point-specific exponents (IZeta= 3).
                        Self-potential: point-specific (ISelfS= 7).
                        Self-field    : sphere-specific E.n sum rule (ISelfD= 2).
 1st derivatives      : Analytical E(r).r(x)/FMM algorithm (CHGder, D1EAlg=3).
                        Cavity 1st derivative terms included.
 Solvent              : NitroMethane, Eps=  36.562000 Eps(inf)=   1.909095
 ------------------------------------------------------------------------------
 Spheres list:
 ISph  on   Nord     Re0    Alpha      Xe            Ye            Ze
    1   O      1    1.7500  1.100      0.000000      0.000000      0.120284
    2   H      2    1.4430  1.100      0.000000      0.753860     -0.481136
    3   H      3    1.4430  1.100      0.000000     -0.753860     -0.481136
 ------------------------------------------------------------------------------
 One-electron integrals computed using PRISM.
   4 Symmetry operations used in ECPInt.
 ECPInt:  NShTT=      78 NPrTT=     272 LenC2=      79 LenP2D=     271.
 LDataN:  DoStor=T MaxTD1= 4 Len=   56
 NBasis=    24 RedAO= T EigKep=  5.95D-02  NBF=    11     2     4     7
 NBsUse=    24 1.00D-06 EigRej= -1.00D+00 NBFU=    11     2     4     7
 Initial guess from the checkpoint file:  "H2O_opt.chk"
 B after Tr=     0.000000    0.000000    0.000000
         Rot=    1.000000    0.000000    0.000000    0.000000 Ang=   0.00 deg.
 Initial guess orbital symmetries:
       Occupied  (A1) (A1) (B2) (A1) (B1)
       Virtual   (A1) (A1) (A1) (A1) (A1) (A1) (A1) (A1) (A2) (A2)
                 (B1) (B1) (B1) (B2) (B2) (B2) (B2) (B2) (B2)
 Keep R1 ints in memory in symmetry-blocked form, NReq=3094120.
 Requested convergence on RMS density matrix=1.00D-08 within 128 cycles.
 Requested convergence on MAX density matrix=1.00D-06.
 Requested convergence on             energy=1.00D-06.
 No special actions if energy rises.
 Inv3:  Mode=1 IEnd=      442368.
 Iteration    1 A*A^-1 deviation from unit magnitude is 3.00D-15 for     63.
 Iteration    1 A*A^-1 deviation from orthogonality  is 1.82D-15 for    281      9.
 Iteration    1 A^-1*A deviation from unit magnitude is 2.55D-15 for     63.
 Iteration    1 A^-1*A deviation from orthogonality  is 7.88D-16 for    192     93.
 Error on total polarization charges =  0.00119
 SCF Done:  E(RM062X) =  -76.3300362852     A.U. after    7 cycles
            NFock=  7  Conv=0.95D-08     -V/T= 2.0069
   4 Symmetry operations used in ECPInt.
 ECPInt:  NShTT=      78 NPrTT=     272 LenC2=      79 LenP2D=     271.
 LDataN:  DoStor=T MaxTD1= 5 Len=  102
 D1PCM: C-PCM CHGder 1st derivatives, ID1Alg=3 FixD1E=F DoIter=F DoCFld=F I1PDM=0.
 Calling FoFJK, ICntrl=      2127 FMM=F ISym2X=1 I1Cent= 0 IOpClX= 0 NMat=1 NMatS=1 NMatT=0.
 ***** Axes restored to original set *****
 -------------------------------------------------------------------
 Center     Atomic                   Forces (Hartrees/Bohr)
 Number     Number              X              Y              Z
 -------------------------------------------------------------------
      1        8          -0.000047647   -0.000067419    0.000000000
      2        1           0.000055616    0.000011241    0.000000000
      3        1          -0.000007969    0.000056178    0.000000000
 -------------------------------------------------------------------
 Cartesian Forces:  Max     0.000067419 RMS     0.000038376

 GradGradGradGradGradGradGradGradGradGradGradGradGradGradGradGradGradGrad
 Berny optimization.
 Using GEDIIS/GDIIS optimizer.
 FormGI is forming the generalized inverse of G from B-inverse, IUseBI=4.
 Internal  Forces:  Max     0.000056176 RMS     0.000046631
 Search for a local minimum.
 Step number   3 out of a maximum of   20
 All quantities printed in internal units (Hartrees-Bohrs-Radians)
 Mixed Optimization -- En-DIIS/RFO-DIIS
 Update second derivatives using D2CorX and points    1    2    3
 DE= -2.80D-05 DEPred=-2.86D-05 R= 9.80D-01
 TightC=F SS=  1.41D+00  RLast= 1.57D-02 DXNew= 5.1876D-01 4.7111D-02
 Trust test= 9.80D-01 RLast= 1.57D-02 DXMaxT set to 3.08D-01
 The second derivative matrix:
                          R1        R2        A1
           R1           0.54719
           R2          -0.00755   0.54719
           A1           0.02446   0.02446   0.15287
 ITU=  1  1  0
 Use linear search instead of GDIIS.
     Eigenvalues ---    0.14980   0.54271   0.55473
 RFO step:  Lambda= 0.00000000D+00 EMin= 1.49804191D-01
 Quartic linear search produced a step of  0.01521.
 Iteration  1 RMS(Cart)=  0.00007708 RMS(Int)=  0.00000001
 Iteration  2 RMS(Cart)=  0.00000001 RMS(Int)=  0.00000000
 ClnCor:  largest displacement from symmetrization is 1.18D-14 for atom     3.
 Variable       Old X    -DE/DX   Delta X   Delta X   Delta X     New X
                                 (Linear)    (Quad)   (Total)
    R1        1.82240   0.00006   0.00008   0.00003   0.00011   1.82251
    R2        1.82240   0.00006   0.00008   0.00003   0.00011   1.82251
    A1        1.79481  -0.00001  -0.00021   0.00008  -0.00013   1.79468
         Item               Value     Threshold  Converged?
 Maximum Force            0.000056     0.000015     NO 
 RMS     Force            0.000047     0.000010     NO 
 Maximum Displacement     0.000088     0.000060     NO 
 RMS     Displacement     0.000077     0.000040     NO 
 Predicted change in Energy=-7.129310D-09
 GradGradGradGradGradGradGradGradGradGradGradGradGradGradGradGradGradGrad

                          Input orientation:                          
 ---------------------------------------------------------------------
 Center     Atomic      Atomic             Coordinates (Angstroms)
 Number     Number       Type             X           Y           Z
 ---------------------------------------------------------------------
      1          8           0        1.066246    1.366665   -0.022263
      2          1           0        2.029040    1.422789   -0.022263
      3          1           0        0.797763    2.292969   -0.022263
 ---------------------------------------------------------------------
                    Distance matrix (angstroms):
                    1          2          3
     1  O    0.000000
     2  H    0.964429   0.000000
     3  H    0.964429   1.507733   0.000000
 Stoichiometry    H2O
 Framework group  C2V[C2(O),SGV(H2)]
 Deg. of freedom     2
 Full point group                 C2V     NOp   4
 Largest Abelian subgroup         C2V     NOp   4
 Largest concise Abelian subgroup C2      NOp   2
                         Standard orientation:                         
 ---------------------------------------------------------------------
 Center     Atomic      Atomic             Coordinates (Angstroms)
 Number     Number       Type             X           Y           Z
 ---------------------------------------------------------------------
      1          8           0        0.000000    0.000000    0.120301
      2          1           0        0.000000    0.753866   -0.481204
      3          1           0        0.000000   -0.753866   -0.481204
 ---------------------------------------------------------------------
 Rotational constants (GHZ):    780.3119778    441.1773698    281.8329826
 Standard basis: def2SVP (5D, 7F)
 There are    12 symmetry adapted cartesian basis functions of A1  symmetry.
 There are     2 symmetry adapted cartesian basis functions of A2  symmetry.
 There are     4 symmetry adapted cartesian basis functions of B1  symmetry.
 There are     7 symmetry adapted cartesian basis functions of B2  symmetry.
 There are    11 symmetry adapted basis functions of A1  symmetry.
 There are     2 symmetry adapted basis functions of A2  symmetry.
 There are     4 symmetry adapted basis functions of B1  symmetry.
 There are     7 symmetry adapted basis functions of B2  symmetry.
    24 basis functions,    39 primitive gaussians,    25 cartesian basis functions
     5 alpha electrons        5 beta electrons
       nuclear repulsion energy         9.1300919177 Hartrees.
 NAtoms=    3 NActive=    3 NUniq=    2 SFac= 2.25D+00 NAtFMM=   60 NAOKFM=F Big=F
 Integral buffers will be    131072 words long.
 Raffenetti 2 integral format.
 Two-electron integral symmetry is turned on.
 ------------------------------------------------------------------------------
 Polarizable Continuum Model (PCM)
 =================================
 Model                : C-PCM.
 Atomic radii         : UFF (Universal Force Field).
 Polarization charges : Total charges.
 Charge compensation  : None.
 Solution method      : On-the-fly selection.
 Cavity type          : Scaled VdW (van der Waals Surface) (Alpha=1.100).
 Cavity algorithm     : GePol (No added spheres)
                        Default sphere list used, NSphG=    3.
                        Lebedev-Laikov grids with approx.  5.0 points / Ang**2.
                        Smoothing algorithm: Karplus/York (Gamma=1.0000).
                        Polarization charges: spherical gaussians, with
                                              point-specific exponents (IZeta= 3).
                        Self-potential: point-specific (ISelfS= 7).
                        Self-field    : sphere-specific E.n sum rule (ISelfD= 2).
 1st derivatives      : Analytical E(r).r(x)/FMM algorithm (CHGder, D1EAlg=3).
                        Cavity 1st derivative terms included.
 Solvent              : NitroMethane, Eps=  36.562000 Eps(inf)=   1.909095
 ------------------------------------------------------------------------------
 Spheres list:
 ISph  on   Nord     Re0    Alpha      Xe            Ye            Ze
    1   O      1    1.7500  1.100      0.000000      0.000000      0.120301
    2   H      2    1.4430  1.100      0.000000      0.753866     -0.481204
    3   H      3    1.4430  1.100      0.000000     -0.753866     -0.481204
 ------------------------------------------------------------------------------
 One-electron integrals computed using PRISM.
   4 Symmetry operations used in ECPInt.
 ECPInt:  NShTT=      78 NPrTT=     272 LenC2=      79 LenP2D=     271.
 LDataN:  DoStor=T MaxTD1= 4 Len=   56
 NBasis=    24 RedAO= T EigKep=  5.95D-02  NBF=    11     2     4     7
 NBsUse=    24 1.00D-06 EigRej= -1.00D+00 NBFU=    11     2     4     7
 Initial guess from the checkpoint file:  "H2O_opt.chk"
 B after Tr=     0.000000    0.000000    0.000000
         Rot=    1.000000    0.000000    0.000000    0.000000 Ang=   0.00 deg.
 Initial guess orbital symmetries:
       Occupied  (A1) (A1) (B2) (A1) (B1)
       Virtual   (A1) (A1) (A1) (A1) (A1) (A1) (A1) (A1) (A2) (A2)
                 (B1) (B1) (B1) (B2) (B2) (B2) (B2) (B2) (B2)
 Keep R1 ints in memory in symmetry-blocked form, NReq=3094120.
 Requested convergence on RMS density matrix=1.00D-08 within 128 cycles.
 Requested convergence on MAX density matrix=1.00D-06.
 Requested convergence on             energy=1.00D-06.
 No special actions if energy rises.
 Inv3:  Mode=1 IEnd=      442368.
 Iteration    1 A*A^-1 deviation from unit magnitude is 3.11D-15 for    160.
 Iteration    1 A*A^-1 deviation from orthogonality  is 8.81D-16 for    255     31.
 Iteration    1 A^-1*A deviation from unit magnitude is 2.89D-15 for    160.
 Iteration    1 A^-1*A deviation from orthogonality  is 1.37D-15 for    190      3.
 Error on total polarization charges =  0.00119
 SCF Done:  E(RM062X) =  -76.3300362923     A.U. after    6 cycles
            NFock=  6  Conv=0.26D-08     -V/T= 2.0069
   4 Symmetry operations used in ECPInt.
 ECPInt:  NShTT=      78 NPrTT=     272 LenC2=      79 LenP2D=     271.
 LDataN:  DoStor=T MaxTD1= 5 Len=  102
 D1PCM: C-PCM CHGder 1st derivatives, ID1Alg=3 FixD1E=F DoIter=F DoCFld=F I1PDM=0.
 Calling FoFJK, ICntrl=      2127 FMM=F ISym2X=1 I1Cent= 0 IOpClX= 0 NMat=1 NMatS=1 NMatT=0.
 ***** Axes restored to original set *****
 -------------------------------------------------------------------
 Center     Atomic                   Forces (Hartrees/Bohr)
 Number     Number              X              Y              Z
 -------------------------------------------------------------------
      1        8          -0.000000088   -0.000000125    0.000000000
      2        1          -0.000000042    0.000000123    0.000000000
      3        1           0.000000130    0.000000002    0.000000000
 -------------------------------------------------------------------
 Cartesian Forces:  Max     0.000000130 RMS     0.000000080

 GradGradGradGradGradGradGradGradGradGradGradGradGradGradGradGradGradGrad
 Berny optimization.
 Using GEDIIS/GDIIS optimizer.
 FormGI is forming the generalized inverse of G from B-inverse, IUseBI=4.
 Internal  Forces:  Max     0.000000228 RMS     0.000000135
 Search for a local minimum.
 Step number   4 out of a maximum of   20
 All quantities printed in internal units (Hartrees-Bohrs-Radians)
 Mixed Optimization -- En-DIIS/RFO-DIIS
 Swapping is turned off.
 Update second derivatives using D2CorX and points    1    2    3    4
 DE= -7.16D-09 DEPred=-7.13D-09 R= 1.00D+00
 Trust test= 1.00D+00 RLast= 2.04D-04 DXMaxT set to 3.08D-01
 The second derivative matrix:
                          R1        R2        A1
           R1           0.54716
           R2          -0.00757   0.54716
           A1           0.02459   0.02459   0.15029
 ITU=  0  1  1  0
     Eigenvalues ---    0.14721   0.54267   0.55473
 En-DIIS/RFO-DIIS IScMMF=        0 using points:     4    3
 RFO step:  Lambda= 0.00000000D+00.
 DidBck=F Rises=F RFO-DIIS coefs:    1.00157   -0.00157
 Iteration  1 RMS(Cart)=  0.00000087 RMS(Int)=  0.00000000
 ClnCor:  largest displacement from symmetrization is 2.13D-14 for atom     3.
 Variable       Old X    -DE/DX   Delta X   Delta X   Delta X     New X
                                 (Linear)    (Quad)   (Total)
    R1        1.82251   0.00000   0.00000   0.00000   0.00000   1.82251
    R2        1.82251   0.00000   0.00000   0.00000   0.00000   1.82251
    A1        1.79468   0.00000   0.00000   0.00000   0.00000   1.79468
         Item               Value     Threshold  Converged?
 Maximum Force            0.000000     0.000015     YES
 RMS     Force            0.000000     0.000010     YES
 Maximum Displacement     0.000001     0.000060     YES
 RMS     Displacement     0.000001     0.000040     YES
 Predicted change in Energy=-1.731801D-13
 Optimization completed.
    -- Stationary point found.
                           ----------------------------
                           !   Optimized Parameters   !
                           ! (Angstroms and Degrees)  !
 --------------------------                            --------------------------
 ! Name  Definition              Value          Derivative Info.                !
 --------------------------------------------------------------------------------
 ! R1    R(1,2)                  0.9644         -DE/DX =    0.0                 !
 ! R2    R(1,3)                  0.9644         -DE/DX =    0.0                 !
 ! A1    A(2,1,3)              102.8277         -DE/DX =    0.0                 !
 --------------------------------------------------------------------------------
 GradGradGradGradGradGradGradGradGradGradGradGradGradGradGradGradGradGrad

                          Input orientation:                          
 ---------------------------------------------------------------------
 Center     Atomic      Atomic             Coordinates (Angstroms)
 Number     Number       Type             X           Y           Z
 ---------------------------------------------------------------------
      1          8           0        1.066246    1.366665   -0.022263
      2          1           0        2.029040    1.422789   -0.022263
      3          1           0        0.797763    2.292969   -0.022263
 ---------------------------------------------------------------------
                    Distance matrix (angstroms):
                    1          2          3
     1  O    0.000000
     2  H    0.964429   0.000000
     3  H    0.964429   1.507733   0.000000
 Stoichiometry    H2O
 Framework group  C2V[C2(O),SGV(H2)]
 Deg. of freedom     2
 Full point group                 C2V     NOp   4
 Largest Abelian subgroup         C2V     NOp   4
 Largest concise Abelian subgroup C2      NOp   2
                         Standard orientation:                         
 ---------------------------------------------------------------------
 Center     Atomic      Atomic             Coordinates (Angstroms)
 Number     Number       Type             X           Y           Z
 ---------------------------------------------------------------------
      1          8           0        0.000000    0.000000    0.120301
      2          1           0        0.000000    0.753866   -0.481204
      3          1           0        0.000000   -0.753866   -0.481204
 ---------------------------------------------------------------------
 Rotational constants (GHZ):    780.3119778    441.1773698    281.8329826

 **********************************************************************

            Population analysis using the SCF density.

 **********************************************************************

 Orbital symmetries:
       Occupied  (A1) (A1) (B2) (A1) (B1)
       Virtual   (A1) (B2) (B2) (A1) (A1) (B1) (B2) (A1) (A2) (A1)
                 (B1) (B2) (B2) (A1) (B1) (A2) (A1) (A1) (B2)
 The electronic state is 1-A1.
 Alpha  occ. eigenvalues --  -19.61402  -1.09476  -0.58308  -0.45518  -0.38026
 Alpha virt. eigenvalues --    0.10030   0.17889   0.61993   0.69558   0.98276
 Alpha virt. eigenvalues --    0.99628   1.06933   1.15388   1.40324   1.44109
 Alpha virt. eigenvalues --    1.59010   1.83871   2.28031   2.32470   3.02732
 Alpha virt. eigenvalues --    3.06242   3.24739   3.53673   3.86375
          Condensed to atoms (all electrons):
               1          2          3
     1  O    7.697446   0.339366   0.339366
     2  H    0.339366   0.501271  -0.028727
     3  H    0.339366  -0.028727   0.501271
 Mulliken charges:
               1
     1  O   -0.376178
     2  H    0.188089
     3  H    0.188089
 Sum of Mulliken charges =   0.00000
 Mulliken charges with hydrogens summed into heavy atoms:
               1
     1  O    0.000000
 Electronic spatial extent (au):  <R**2>=             18.8582
 Charge=              0.0000 electrons
 Dipole moment (field-independent basis, Debye):
    X=              0.0000    Y=              0.0000    Z=             -2.2594  Tot=              2.2594
 Quadrupole moment (field-independent basis, Debye-Ang):
   XX=             -7.0375   YY=             -4.2068   ZZ=             -5.8806
   XY=              0.0000   XZ=              0.0000   YZ=              0.0000
 Traceless Quadrupole moment (field-independent basis, Debye-Ang):
   XX=             -1.3292   YY=              1.5015   ZZ=             -0.1723
   XY=              0.0000   XZ=              0.0000   YZ=              0.0000
 Octapole moment (field-independent basis, Debye-Ang**2):
  XXX=              0.0000  YYY=              0.0000  ZZZ=             -1.3806  XYY=              0.0000
  XXY=              0.0000  XXZ=             -0.3578  XZZ=              0.0000  YZZ=              0.0000
  YYZ=             -1.3154  XYZ=              0.0000
 Hexadecapole moment (field-independent basis, Debye-Ang**3):
 XXXX=             -4.8642 YYYY=             -5.7062 ZZZZ=             -6.0039 XXXY=              0.0000
 XXXZ=              0.0000 YYYX=              0.0000 YYYZ=              0.0000 ZZZX=              0.0000
 ZZZY=              0.0000 XXYY=             -2.0321 XXZZ=             -1.8711 YYZZ=             -1.5783
 XXYZ=              0.0000 YYXZ=              0.0000 ZZXY=              0.0000
 N-N= 9.130091917736D+00 E-N=-1.988203111174D+02  KE= 7.580702989573D+01
 Symmetry A1   KE= 6.766552542017D+01
 Symmetry A2   KE= 2.662108576131D-35
 Symmetry B1   KE= 4.581332168289D+00
 Symmetry B2   KE= 3.560172307275D+00
 1\1\GINC-DC1S1B1D\FOpt\RM062X\def2SVP\H2O1\CHMBNN\23-Oct-2020\0\\# opt
 =tight freq scrf=(cpcm,solvent=nitromethane) def2svp m062x\\H2O\\0,1\O
 ,1.0662457627,1.3666646952,-0.02226345\H,2.0290404302,1.4227886783,-0.
 02226345\H,0.7977630916,2.2929694661,-0.02226345\\Version=ES64L-G09Rev
 D.01\State=1-A1\HF=-76.3300363\RMSD=2.570e-09\RMSF=7.958e-08\Dipole=0.
 51304,0.7259349,0.\Quadrupole=0.7018177,0.2864171,-0.9882348,-0.586527
 6,0.,0.\PG=C02V [C2(O1),SGV(H2)]\\@


 In the beginning there was nothing, which exploded.
 Job cpu time:       0 days  0 hours  0 minutes 19.6 seconds.
 File lengths (MBytes):  RWF=      5 Int=      0 D2E=      0 Chk=      2 Scr=      1
 Normal termination of Gaussian 09 at Fri Oct 23 19:58:10 2020.
 Link1:  Proceeding to internal job step number  2.
 -------------------------------------------------------------------
 #N Geom=AllCheck Guess=TCheck SCRF=Check GenChk RM062X/def2SVP Freq
 -------------------------------------------------------------------
 1/7=10,10=4,29=7,30=1,38=1,40=1/1,3;
 2/12=2,40=1/2;
 3/5=43,7=101,11=2,14=-4,16=1,25=1,30=1,70=2,71=2,72=15,74=-55,116=1,140=1/1,2,3;
 4/5=101/1;
 5/5=2,53=15,98=1/2;
 8/6=4,10=90,11=11/1;
 11/6=1,8=1,9=11,15=111,16=1/1,2,10;
 10/6=1/2;
 6/7=2,8=2,9=2,10=2,18=1,28=1/1;
 7/8=1,10=1,25=1/1,2,3,16;
 1/7=10,10=4,30=1/3;
 99//99;
 Structure from the checkpoint file:  "H2O_opt.chk"
 ---
 H2O
 ---
 Charge =  0 Multiplicity = 1
 Redundant internal coordinates found in file.
 O,0,1.0662457627,1.3666646952,-0.02226345
 H,0,2.0290404302,1.4227886783,-0.02226345
 H,0,0.7977630916,2.2929694661,-0.02226345
 Recover connectivity data from disk.

 GradGradGradGradGradGradGradGradGradGradGradGradGradGradGradGradGradGrad
 Berny optimization.
 Initialization pass.
                           ----------------------------
                           !    Initial Parameters    !
                           ! (Angstroms and Degrees)  !
 --------------------------                            --------------------------
 ! Name  Definition              Value          Derivative Info.                !
 --------------------------------------------------------------------------------
 ! R1    R(1,2)                  0.9644         calculate D2E/DX2 analytically  !
 ! R2    R(1,3)                  0.9644         calculate D2E/DX2 analytically  !
 ! A1    A(2,1,3)              102.8277         calculate D2E/DX2 analytically  !
 --------------------------------------------------------------------------------
 Trust Radius=3.00D-01 FncErr=1.00D-07 GrdErr=1.00D-07
 Number of steps in this run=      2 maximum allowed number of steps=      2.
 GradGradGradGradGradGradGradGradGradGradGradGradGradGradGradGradGradGrad

                          Input orientation:                          
 ---------------------------------------------------------------------
 Center     Atomic      Atomic             Coordinates (Angstroms)
 Number     Number       Type             X           Y           Z
 ---------------------------------------------------------------------
      1          8           0        1.066246    1.366665   -0.022263
      2          1           0        2.029040    1.422789   -0.022263
      3          1           0        0.797763    2.292969   -0.022263
 ---------------------------------------------------------------------
                    Distance matrix (angstroms):
                    1          2          3
     1  O    0.000000
     2  H    0.964429   0.000000
     3  H    0.964429   1.507733   0.000000
 Stoichiometry    H2O
 Framework group  C2V[C2(O),SGV(H2)]
 Deg. of freedom     2
 Full point group                 C2V     NOp   4
 Largest Abelian subgroup         C2V     NOp   4
 Largest concise Abelian subgroup C2      NOp   2
                         Standard orientation:                         
 ---------------------------------------------------------------------
 Center     Atomic      Atomic             Coordinates (Angstroms)
 Number     Number       Type             X           Y           Z
 ---------------------------------------------------------------------
      1          8           0        0.000000    0.000000    0.120301
      2          1           0        0.000000    0.753866   -0.481204
      3          1           0        0.000000   -0.753866   -0.481204
 ---------------------------------------------------------------------
 Rotational constants (GHZ):    780.3119778    441.1773698    281.8329826
 Standard basis: def2SVP (5D, 7F)
 There are    12 symmetry adapted cartesian basis functions of A1  symmetry.
 There are     2 symmetry adapted cartesian basis functions of A2  symmetry.
 There are     4 symmetry adapted cartesian basis functions of B1  symmetry.
 There are     7 symmetry adapted cartesian basis functions of B2  symmetry.
 There are    11 symmetry adapted basis functions of A1  symmetry.
 There are     2 symmetry adapted basis functions of A2  symmetry.
 There are     4 symmetry adapted basis functions of B1  symmetry.
 There are     7 symmetry adapted basis functions of B2  symmetry.
    24 basis functions,    39 primitive gaussians,    25 cartesian basis functions
     5 alpha electrons        5 beta electrons
       nuclear repulsion energy         9.1300919177 Hartrees.
 NAtoms=    3 NActive=    3 NUniq=    2 SFac= 2.25D+00 NAtFMM=   60 NAOKFM=F Big=F
 Integral buffers will be    131072 words long.
 Raffenetti 2 integral format.
 Two-electron integral symmetry is turned on.
 Force inversion solution in PCM.
 ------------------------------------------------------------------------------
 Polarizable Continuum Model (PCM)
 =================================
 Model                : C-PCM.
 Atomic radii         : UFF (Universal Force Field).
 Polarization charges : Total charges.
 Charge compensation  : None.
 Solution method      : Matrix inversion.
 Cavity type          : Scaled VdW (van der Waals Surface) (Alpha=1.100).
 Cavity algorithm     : GePol (No added spheres)
                        Default sphere list used, NSphG=    3.
                        Lebedev-Laikov grids with approx.  5.0 points / Ang**2.
                        Smoothing algorithm: Karplus/York (Gamma=1.0000).
                        Polarization charges: spherical gaussians, with
                                              point-specific exponents (IZeta= 3).
                        Self-potential: point-specific (ISelfS= 7).
                        Self-field    : sphere-specific E.n sum rule (ISelfD= 2).
 1st derivatives      : Analytical E(r).r(x)/FMM algorithm (CHGder, D1EAlg=3).
                        Cavity 1st derivative terms included.
 2nd derivatives      : Analytical E(r).r(xy)/FMM algorithm (CHGder, D2EAlg=3).
                        Cavity 2nd derivative terms included.
 Solvent              : NitroMethane, Eps=  36.562000 Eps(inf)=   1.909095
 ------------------------------------------------------------------------------
 Spheres list:
 ISph  on   Nord     Re0    Alpha      Xe            Ye            Ze
    1   O      1    1.7500  1.100      0.000000      0.000000      0.120301
    2   H      2    1.4430  1.100      0.000000      0.753866     -0.481204
    3   H      3    1.4430  1.100      0.000000     -0.753866     -0.481204
 ------------------------------------------------------------------------------
 One-electron integrals computed using PRISM.
   4 Symmetry operations used in ECPInt.
 ECPInt:  NShTT=      78 NPrTT=     272 LenC2=      79 LenP2D=     271.
 LDataN:  DoStor=T MaxTD1= 4 Len=   56
 NBasis=    24 RedAO= T EigKep=  5.95D-02  NBF=    11     2     4     7
 NBsUse=    24 1.00D-06 EigRej= -1.00D+00 NBFU=    11     2     4     7
 Initial guess from the checkpoint file:  "H2O_opt.chk"
 B after Tr=     0.000000    0.000000    0.000000
         Rot=    1.000000    0.000000    0.000000    0.000000 Ang=   0.00 deg.
 Initial guess orbital symmetries:
       Occupied  (A1) (A1) (B2) (A1) (B1)
       Virtual   (A1) (B2) (B2) (A1) (A1) (B1) (B2) (A1) (A2) (A1)
                 (B1) (B2) (B2) (A1) (B1) (A2) (A1) (A1) (B2)
 Keep R1 ints in memory in symmetry-blocked form, NReq=3094120.
 Requested convergence on RMS density matrix=1.00D-08 within 128 cycles.
 Requested convergence on MAX density matrix=1.00D-06.
 Requested convergence on             energy=1.00D-06.
 No special actions if energy rises.
 Inv3:  Mode=1 IEnd=      442368.
 Iteration    1 A*A^-1 deviation from unit magnitude is 3.11D-15 for    160.
 Iteration    1 A*A^-1 deviation from orthogonality  is 1.02D-15 for    253     29.
 Iteration    1 A^-1*A deviation from unit magnitude is 2.66D-15 for    160.
 Iteration    1 A^-1*A deviation from orthogonality  is 1.37D-15 for    190      3.
 Error on total polarization charges =  0.00119
 SCF Done:  E(RM062X) =  -76.3300362923     A.U. after    1 cycles
            NFock=  1  Conv=0.13D-09     -V/T= 2.0069
 DoSCS=F DFT=T ScalE2(SS,OS)=  1.000000  1.000000
 Range of M.O.s used for correlation:     1    24
 NBasis=    24 NAE=     5 NBE=     5 NFC=     0 NFV=     0
 NROrb=     24 NOA=     5 NOB=     5 NVA=    19 NVB=    19
   4 Symmetry operations used in ECPInt.
 ECPInt:  NShTT=      78 NPrTT=     272 LenC2=      79 LenP2D=     271.
 LDataN:  DoStor=T MaxTD1= 5 Len=  102
 Symmetrizing basis deriv contribution to polar:
 IMax=3 JMax=2 DiffMx= 0.00D+00
 G2DrvN: will do     4 centers at a time, making    1 passes.
 Calling FoFCou, ICntrl=  3107 FMM=F I1Cent=   0 AccDes= 0.00D+00.
 NEqPCM:  Using equilibrium solvation (IEInf=0, Eps=  36.5620, EpsInf=   1.9091)
 G2PCM: DoFxE=T DoFxN=T DoGrad=T DoDP/DQ/DG/TGxP=FFFF NFrqRd=   0 IEInf=0 SqF1=F DoCFld=F IF1Alg=4.
 End of G2Drv F.D. properties file   721 does not exist.
 End of G2Drv F.D. properties file   722 does not exist.
 End of G2Drv F.D. properties file   788 does not exist.
          IDoAtm=111
 NEqPCM:  Using equilibrium solvation (IEInf=0, Eps=  36.5620, EpsInf=   1.9091)
          Differentiating once with respect to electric field.
                with respect to dipole field.
          Differentiating once with respect to nuclear coordinates.
 Keep R1 ints in memory in symmetry-blocked form, NReq=1869202.
          There are     9 degrees of freedom in the 1st order CPHF.  IDoFFX=4 NUNeed=     9.
      9 vectors produced by pass  0 Test12= 1.06D-15 1.11D-08 XBig12= 1.97D+00 9.33D-01.
 AX will form     9 AO Fock derivatives at one time.
      9 vectors produced by pass  1 Test12= 1.06D-15 1.11D-08 XBig12= 1.71D-01 2.12D-01.
      9 vectors produced by pass  2 Test12= 1.06D-15 1.11D-08 XBig12= 3.84D-03 2.92D-02.
      9 vectors produced by pass  3 Test12= 1.06D-15 1.11D-08 XBig12= 1.44D-05 1.53D-03.
      9 vectors produced by pass  4 Test12= 1.06D-15 1.11D-08 XBig12= 4.08D-08 8.70D-05.
      6 vectors produced by pass  5 Test12= 1.06D-15 1.11D-08 XBig12= 7.05D-11 2.89D-06.
      2 vectors produced by pass  6 Test12= 1.06D-15 1.11D-08 XBig12= 2.91D-14 6.08D-08.
 InvSVY:  IOpt=1 It=  1 EMax= 2.22D-16
 Solved reduced A of dimension    53 with     9 vectors.
 Isotropic polarizability for W=    0.000000        5.46 Bohr**3.
 End of Minotr F.D. properties file   721 does not exist.
 End of Minotr F.D. properties file   722 does not exist.
 End of Minotr F.D. properties file   788 does not exist.

 **********************************************************************

            Population analysis using the SCF density.

 **********************************************************************

 Orbital symmetries:
       Occupied  (A1) (A1) (B2) (A1) (B1)
       Virtual   (A1) (B2) (B2) (A1) (A1) (B1) (B2) (A1) (A2) (A1)
                 (B1) (B2) (B2) (A1) (B1) (A2) (A1) (A1) (B2)
 The electronic state is 1-A1.
 Alpha  occ. eigenvalues --  -19.61402  -1.09476  -0.58308  -0.45518  -0.38026
 Alpha virt. eigenvalues --    0.10030   0.17889   0.61993   0.69558   0.98276
 Alpha virt. eigenvalues --    0.99628   1.06933   1.15388   1.40324   1.44109
 Alpha virt. eigenvalues --    1.59010   1.83871   2.28031   2.32470   3.02732
 Alpha virt. eigenvalues --    3.06242   3.24739   3.53673   3.86375
          Condensed to atoms (all electrons):
               1          2          3
     1  O    7.697446   0.339366   0.339366
     2  H    0.339366   0.501271  -0.028727
     3  H    0.339366  -0.028727   0.501271
 Mulliken charges:
               1
     1  O   -0.376178
     2  H    0.188089
     3  H    0.188089
 Sum of Mulliken charges =   0.00000
 Mulliken charges with hydrogens summed into heavy atoms:
               1
     1  O    0.000000
 APT charges:
               1
     1  O   -0.617187
     2  H    0.308594
     3  H    0.308594
 Sum of APT charges =   0.00000
 APT charges with hydrogens summed into heavy atoms:
               1
     1  O    0.000000
 Electronic spatial extent (au):  <R**2>=             18.8582
 Charge=              0.0000 electrons
 Dipole moment (field-independent basis, Debye):
    X=              0.0000    Y=              0.0000    Z=             -2.2594  Tot=              2.2594
 Quadrupole moment (field-independent basis, Debye-Ang):
   XX=             -7.0375   YY=             -4.2068   ZZ=             -5.8806
   XY=              0.0000   XZ=              0.0000   YZ=              0.0000
 Traceless Quadrupole moment (field-independent basis, Debye-Ang):
   XX=             -1.3292   YY=              1.5015   ZZ=             -0.1723
   XY=              0.0000   XZ=              0.0000   YZ=              0.0000
 Octapole moment (field-independent basis, Debye-Ang**2):
  XXX=              0.0000  YYY=              0.0000  ZZZ=             -1.3806  XYY=              0.0000
  XXY=              0.0000  XXZ=             -0.3578  XZZ=              0.0000  YZZ=              0.0000
  YYZ=             -1.3154  XYZ=              0.0000
 Hexadecapole moment (field-independent basis, Debye-Ang**3):
 XXXX=             -4.8642 YYYY=             -5.7062 ZZZZ=             -6.0039 XXXY=              0.0000
 XXXZ=              0.0000 YYYX=              0.0000 YYYZ=              0.0000 ZZZX=              0.0000
 ZZZY=              0.0000 XXYY=             -2.0321 XXZZ=             -1.8711 YYZZ=             -1.5783
 XXYZ=              0.0000 YYXZ=              0.0000 ZZXY=              0.0000
 N-N= 9.130091917736D+00 E-N=-1.988203110816D+02  KE= 7.580702987666D+01
 Symmetry A1   KE= 6.766552540449D+01
 Symmetry A2   KE= 6.255566062889D-35
 Symmetry B1   KE= 4.581332162615D+00
 Symmetry B2   KE= 3.560172309559D+00
  Exact polarizability:   3.282   0.000   7.486   0.000   0.000   5.604
 Approx polarizability:   2.949   0.000   7.024   0.000   0.000   5.420
   4 Symmetry operations used in ECPInt.
 ECPInt:  NShTT=      78 NPrTT=     272 LenC2=      79 LenP2D=     271.
 LDataN:  DoStor=T MaxTD1= 6 Len=  172
 D2PCM: C-PCM CHGder 2nd derivatives, FixD1E=F FixD2E=F DoIter=F DoCFld=F I1PDM=0
 Calling FoFJK, ICntrl=    100127 FMM=F ISym2X=1 I1Cent= 0 IOpClX= 0 NMat=1 NMatS=1 NMatT=0.
 Full mass-weighted force constant matrix:
 Low frequencies --- -182.1953 -121.7407  -63.9634    0.0019    0.0023    0.0024
 Low frequencies --- 1623.9169 3867.2166 3946.8492
 Diagonal vibrational polarizability:
        0.0000000       0.1519776       0.9599469
 Harmonic frequencies (cm**-1), IR intensities (KM/Mole), Raman scattering
 activities (A**4/AMU), depolarization ratios for plane and unpolarized
 incident light, reduced masses (AMU), force constants (mDyne/A),
 and normal coordinates:
                      1                      2                      3
                     A1                     A1                     B2
 Frequencies --   1623.9169              3867.2166              3946.8492
 Red. masses --      1.0805                 1.0472                 1.0802
 Frc consts  --      1.6787                 9.2277                 9.9140
 IR Inten    --     88.4819                31.6794                87.9726
  Atom  AN      X      Y      Z        X      Y      Z        X      Y      Z
     1   8     0.00   0.00   0.07     0.00   0.00   0.05     0.00   0.07   0.00
     2   1     0.00  -0.44  -0.55     0.00   0.58  -0.41     0.00  -0.55   0.44
     3   1     0.00   0.44  -0.55     0.00  -0.58  -0.41     0.00  -0.55  -0.44

 -------------------
 - Thermochemistry -
 -------------------
 Temperature   298.150 Kelvin.  Pressure   1.00000 Atm.
 Atom     1 has atomic number  8 and mass  15.99491
 Atom     2 has atomic number  1 and mass   1.00783
 Atom     3 has atomic number  1 and mass   1.00783
 Molecular mass:    18.01056 amu.
 Principal axes and moments of inertia in atomic units:
                           1         2         3
     Eigenvalues --     2.31285   4.09074   6.40358
           X            0.00000   0.00000   1.00000
           Y            1.00000   0.00000   0.00000
           Z            0.00000   1.00000   0.00000
 This molecule is an asymmetric top.
 Rotational symmetry number  2.
 Rotational temperatures (Kelvin)     37.44902    21.17315    13.52583
 Rotational constants (GHZ):         780.31198   441.17737   281.83298
 Zero-point vibrational energy      56451.7 (Joules/Mol)
                                   13.49227 (Kcal/Mol)
 Vibrational temperatures:   2336.45  5564.06  5678.63
          (Kelvin)
 
 Zero-point correction=                           0.021501 (Hartree/Particle)
 Thermal correction to Energy=                    0.024337
 Thermal correction to Enthalpy=                  0.025281
 Thermal correction to Gibbs Free Energy=         0.003844
 Sum of electronic and zero-point Energies=            -76.308535
 Sum of electronic and thermal Energies=               -76.305700
 Sum of electronic and thermal Enthalpies=             -76.304755
 Sum of electronic and thermal Free Energies=          -76.326193
 
                     E (Thermal)             CV                S
                      KCal/Mol        Cal/Mol-Kelvin    Cal/Mol-Kelvin
 Total                   15.272              6.010             45.119
 Electronic               0.000              0.000              0.000
 Translational            0.889              2.981             34.608
 Rotational               0.889              2.981             10.503
 Vibrational             13.494              0.048              0.007
                       Q            Log10(Q)             Ln(Q)
 Total Bot       0.170619D-01         -1.767973         -4.070909
 Total V=0       0.132410D+09          8.121920         18.701412
 Vib (Bot)       0.128908D-09         -9.889722        -22.771926
 Vib (V=0)       0.100040D+01          0.000172          0.000395
 Electronic      0.100000D+01          0.000000          0.000000
 Translational   0.300432D+07          6.477746         14.915562
 Rotational      0.440557D+02          1.644002          3.785455
 ***** Axes restored to original set *****
 -------------------------------------------------------------------
 Center     Atomic                   Forces (Hartrees/Bohr)
 Number     Number              X              Y              Z
 -------------------------------------------------------------------
      1        8          -0.000000088   -0.000000124    0.000000000
      2        1          -0.000000043    0.000000123    0.000000000
      3        1           0.000000130    0.000000001    0.000000000
 -------------------------------------------------------------------
 Cartesian Forces:  Max     0.000000130 RMS     0.000000080
 FormGI is forming the generalized inverse of G from B-inverse, IUseBI=4.

 GradGradGradGradGradGradGradGradGradGradGradGradGradGradGradGradGradGrad
 Berny optimization.
 Internal  Forces:  Max     0.000000228 RMS     0.000000135
 Search for a local minimum.
 Step number   1 out of a maximum of    2
 All quantities printed in internal units (Hartrees-Bohrs-Radians)
 Second derivative matrix not updated -- analytic derivatives used.
 The second derivative matrix:
                          R1        R2        A1
           R1           0.54855
           R2          -0.00299   0.54855
           A1           0.02930   0.02930   0.15824
 ITU=  0
     Eigenvalues ---    0.15386   0.54994   0.55154
 Angle between quadratic step and forces=  90.00 degrees.
 Linear search not attempted -- first point.
 Iteration  1 RMS(Cart)=  0.00000082 RMS(Int)=  0.00000000
 ClnCor:  largest displacement from symmetrization is 2.98D-15 for atom     3.
 Variable       Old X    -DE/DX   Delta X   Delta X   Delta X     New X
                                 (Linear)    (Quad)   (Total)
    R1        1.82251   0.00000   0.00000   0.00000   0.00000   1.82251
    R2        1.82251   0.00000   0.00000   0.00000   0.00000   1.82251
    A1        1.79468   0.00000   0.00000   0.00000   0.00000   1.79468
         Item               Value     Threshold  Converged?
 Maximum Force            0.000000     0.000015     YES
 RMS     Force            0.000000     0.000010     YES
 Maximum Displacement     0.000001     0.000060     YES
 RMS     Displacement     0.000001     0.000040     YES
 Predicted change in Energy=-1.648741D-13
 Optimization completed.
    -- Stationary point found.
                           ----------------------------
                           !   Optimized Parameters   !
                           ! (Angstroms and Degrees)  !
 --------------------------                            --------------------------
 ! Name  Definition              Value          Derivative Info.                !
 --------------------------------------------------------------------------------
 ! R1    R(1,2)                  0.9644         -DE/DX =    0.0                 !
 ! R2    R(1,3)                  0.9644         -DE/DX =    0.0                 !
 ! A1    A(2,1,3)              102.8277         -DE/DX =    0.0                 !
 --------------------------------------------------------------------------------
 GradGradGradGradGradGradGradGradGradGradGradGradGradGradGradGradGradGrad

 1\1\GINC-DC1S1B1D\Freq\RM062X\def2SVP\H2O1\CHMBNN\23-Oct-2020\0\\#N Ge
 om=AllCheck Guess=TCheck SCRF=Check GenChk RM062X/def2SVP Freq\\H2O\\0
 ,1\O,1.0662457627,1.3666646952,-0.02226345\H,2.0290404302,1.4227886783
 ,-0.02226345\H,0.7977630916,2.2929694661,-0.02226345\\Version=ES64L-G0
 9RevD.01\State=1-A1\HF=-76.3300363\RMSD=1.289e-10\RMSF=7.955e-08\ZeroP
 oint=0.0215013\Thermal=0.0243368\Dipole=0.51304,0.7259349,0.\DipoleDer
 iv=-0.5575052,0.0638044,0.,0.0638044,-0.5123165,0.,0.,0.,-0.7817405,0.
 233482,-0.025579,0.,-0.0702876,0.3014289,0.,0.,0.,0.3908703,0.3240232,
 -0.0382253,0.,0.0064833,0.2108877,0.,0.,0.,0.3908703\Polar=6.8591621,-
 0.8868889,6.2310344,0.,0.,3.2816952\PG=C02V [C2(O1),SGV(H2)]\NImag=0\\
 0.60841539,-0.09204775,0.54322375,0.,0.,-0.00027716,-0.53132302,-0.005
 84715,0.,0.54877508,-0.06295661,-0.04449655,0.,0.01309411,0.04685766,0
 .,0.,0.00013858,0.,0.,-0.00035192,-0.07709237,0.09789490,0.,-0.0174520
 6,0.04986250,0.,0.09454443,0.15500436,-0.49872720,0.,-0.00724697,-0.00
 236111,0.,-0.14775740,0.50108831,0.,0.,0.00013858,0.,0.,0.00021334,0.,
 0.,-0.00035192\\0.00000009,0.00000012,0.,0.00000004,-0.00000012,0.,-0.
 00000013,0.,0.\\\@


 THE ONLY TROUBLE WITH A SURE THING IS THE UNCERTAINTY.
     -- FROM A TEABAG (BELONGING TO W.H.?)
 Job cpu time:       0 days  0 hours  0 minutes  9.5 seconds.
 File lengths (MBytes):  RWF=      5 Int=      0 D2E=      0 Chk=      2 Scr=      1
 Normal termination of Gaussian 09 at Fri Oct 23 19:58:14 2020.
