 Entering Gaussian System, Link 0=g09
 Input=Isatin_opt.com
 Output=Isatin_opt.log
 Initial command:
 /apps/applications/gaussian/G09.D01/2/default/g09/l1.exe "/nobackup/chmbnn/Gau-405.inp" -scrdir="/nobackup/chmbnn/"
 Entering Link 1 = /apps/applications/gaussian/G09.D01/2/default/g09/l1.exe PID=       410.
  
 Copyright (c) 1988,1990,1992,1993,1995,1998,2003,2009,2013,
            Gaussian, Inc.  All Rights Reserved.
  
 This is part of the Gaussian(R) 09 program.  It is based on
 the Gaussian(R) 03 system (copyright 2003, Gaussian, Inc.),
 the Gaussian(R) 98 system (copyright 1998, Gaussian, Inc.),
 the Gaussian(R) 94 system (copyright 1995, Gaussian, Inc.),
 the Gaussian 92(TM) system (copyright 1992, Gaussian, Inc.),
 the Gaussian 90(TM) system (copyright 1990, Gaussian, Inc.),
 the Gaussian 88(TM) system (copyright 1988, Gaussian, Inc.),
 the Gaussian 86(TM) system (copyright 1986, Carnegie Mellon
 University), and the Gaussian 82(TM) system (copyright 1983,
 Carnegie Mellon University). Gaussian is a federally registered
 trademark of Gaussian, Inc.
  
 This software contains proprietary and confidential information,
 including trade secrets, belonging to Gaussian, Inc.
  
 This software is provided under written license and may be
 used, copied, transmitted, or stored only in accord with that
 written license.
  
 The following legend is applicable only to US Government
 contracts under FAR:
  
                    RESTRICTED RIGHTS LEGEND
  
 Use, reproduction and disclosure by the US Government is
 subject to restrictions as set forth in subparagraphs (a)
 and (c) of the Commercial Computer Software - Restricted
 Rights clause in FAR 52.227-19.
  
 Gaussian, Inc.
 340 Quinnipiac St., Bldg. 40, Wallingford CT 06492
  
  
 ---------------------------------------------------------------
 Warning -- This program may not be used in any manner that
 competes with the business of Gaussian, Inc. or will provide
 assistance to any competitor of Gaussian, Inc.  The licensee
 of this program is prohibited from giving any competitor of
 Gaussian, Inc. access to this program.  By using this program,
 the user acknowledges that Gaussian, Inc. is engaged in the
 business of creating and licensing software in the field of
 computational chemistry and represents and warrants to the
 licensee that it is not a competitor of Gaussian, Inc. and that
 it will not use this program in any manner prohibited above.
 ---------------------------------------------------------------
  

 Cite this work as:
 Gaussian 09, Revision D.01,
 M. J. Frisch, G. W. Trucks, H. B. Schlegel, G. E. Scuseria, 
 M. A. Robb, J. R. Cheeseman, G. Scalmani, V. Barone, B. Mennucci, 
 G. A. Petersson, H. Nakatsuji, M. Caricato, X. Li, H. P. Hratchian, 
 A. F. Izmaylov, J. Bloino, G. Zheng, J. L. Sonnenberg, M. Hada, 
 M. Ehara, K. Toyota, R. Fukuda, J. Hasegawa, M. Ishida, T. Nakajima, 
 Y. Honda, O. Kitao, H. Nakai, T. Vreven, J. A. Montgomery, Jr., 
 J. E. Peralta, F. Ogliaro, M. Bearpark, J. J. Heyd, E. Brothers, 
 K. N. Kudin, V. N. Staroverov, T. Keith, R. Kobayashi, J. Normand, 
 K. Raghavachari, A. Rendell, J. C. Burant, S. S. Iyengar, J. Tomasi, 
 M. Cossi, N. Rega, J. M. Millam, M. Klene, J. E. Knox, J. B. Cross, 
 V. Bakken, C. Adamo, J. Jaramillo, R. Gomperts, R. E. Stratmann, 
 O. Yazyev, A. J. Austin, R. Cammi, C. Pomelli, J. W. Ochterski, 
 R. L. Martin, K. Morokuma, V. G. Zakrzewski, G. A. Voth, 
 P. Salvador, J. J. Dannenberg, S. Dapprich, A. D. Daniels, 
 O. Farkas, J. B. Foresman, J. V. Ortiz, J. Cioslowski, 
 and D. J. Fox, Gaussian, Inc., Wallingford CT, 2013.
 
 ******************************************
 Gaussian 09:  ES64L-G09RevD.01 24-Apr-2013
                24-Aug-2021 
 ******************************************
 %nprocshared=4
 Will use up to    4 processors via shared memory.
 %chk=Isatin_opt.chk
 -----------------------------------------------------------------
 # opt freq scrf=(cpcm,solvent=nitromethane) pop=nbo def2svp m062x
 -----------------------------------------------------------------
 1/14=-1,18=20,19=15,26=3,38=1/1,3;
 2/9=110,12=2,17=6,18=5,40=1/2;
 3/5=43,7=101,11=2,16=1,25=1,30=1,70=2101,71=1,72=15,74=-55/1,2,3;
 4//1;
 5/5=2,38=5,53=15/2;
 6/7=2,8=2,9=2,10=2,28=1,40=1/1,7;
 7//1,2,3,16;
 1/14=-1,18=20,19=15,26=3/3(2);
 2/9=110/2;
 99//99;
 2/9=110/2;
 3/5=43,7=101,11=2,16=1,25=1,30=1,70=2105,71=1,72=15,74=-55/1,2,3;
 4/5=5,16=3,69=1/1;
 5/5=2,38=5,53=15/2;
 7//1,2,3,16;
 1/14=-1,18=20,19=15,26=3/3(-5);
 2/9=110/2;
 6/7=2,8=2,9=2,10=2,19=2,28=1,40=1/1,7;
 99/9=1/99;
 ----------
 Isatin opt
 ----------
 Symbolic Z-matrix:
 Charge =  0 Multiplicity = 1
 C                    -1.97489   0.        0. 
 C                    -0.57973   0.        0. 
 C                     0.11781   1.20775   0. 
 C                    -0.57984   2.41626  -0.0012 
 C                    -1.97467   2.41618  -0.00168 
 C                    -2.67227   1.20798  -0.00068 
 H                    -2.52464  -0.95232   0.00045 
 H                    -0.03022  -0.95251   0.00132 
 H                    -2.52479   3.36846  -0.00263 
 H                    -3.77187   1.20816  -0.00086 
 C                     0.50916   3.50515  -0.0009 
 C                     1.99587   3.10355   0.00051 
 N                     1.53774   1.58815   0.00057 
 O                     2.89101   3.98803   0.00077 
 O                     0.18833   4.72197  -0.0018 
 C                     2.56052   0.53229   0.0012 
 H                     2.44613  -0.07455   0.87503 
 H                     2.44662  -0.07513  -0.87228 
 H                     3.53327   0.978     0.00133 
 

 GradGradGradGradGradGradGradGradGradGradGradGradGradGradGradGradGradGrad
 Berny optimization.
 Initialization pass.
                           ----------------------------
                           !    Initial Parameters    !
                           ! (Angstroms and Degrees)  !
 --------------------------                            --------------------------
 ! Name  Definition              Value          Derivative Info.                !
 --------------------------------------------------------------------------------
 ! R1    R(1,2)                  1.3952         estimate D2E/DX2                !
 ! R2    R(1,6)                  1.3948         estimate D2E/DX2                !
 ! R3    R(1,7)                  1.0996         estimate D2E/DX2                !
 ! R4    R(2,3)                  1.3947         estimate D2E/DX2                !
 ! R5    R(2,8)                  1.0997         estimate D2E/DX2                !
 ! R6    R(3,4)                  1.3954         estimate D2E/DX2                !
 ! R7    R(3,13)                 1.47           estimate D2E/DX2                !
 ! R8    R(4,5)                  1.3948         estimate D2E/DX2                !
 ! R9    R(4,11)                 1.54           estimate D2E/DX2                !
 ! R10   R(5,6)                  1.3951         estimate D2E/DX2                !
 ! R11   R(5,9)                  1.0998         estimate D2E/DX2                !
 ! R12   R(6,10)                 1.0996         estimate D2E/DX2                !
 ! R13   R(11,12)                1.54           estimate D2E/DX2                !
 ! R14   R(11,15)                1.2584         estimate D2E/DX2                !
 ! R15   R(12,13)                1.5831         estimate D2E/DX2                !
 ! R16   R(12,14)                1.2584         estimate D2E/DX2                !
 ! R17   R(13,16)                1.47           estimate D2E/DX2                !
 ! R18   R(16,17)                1.07           estimate D2E/DX2                !
 ! R19   R(16,18)                1.07           estimate D2E/DX2                !
 ! R20   R(16,19)                1.07           estimate D2E/DX2                !
 ! A1    A(2,1,6)              119.9985         estimate D2E/DX2                !
 ! A2    A(2,1,7)              119.9972         estimate D2E/DX2                !
 ! A3    A(6,1,7)              120.0043         estimate D2E/DX2                !
 ! A4    A(1,2,3)              120.0086         estimate D2E/DX2                !
 ! A5    A(1,2,8)              119.9808         estimate D2E/DX2                !
 ! A6    A(3,2,8)              120.0106         estimate D2E/DX2                !
 ! A7    A(2,3,4)              119.9942         estimate D2E/DX2                !
 ! A8    A(2,3,13)             135.0058         estimate D2E/DX2                !
 ! A9    A(4,3,13)             105.0            estimate D2E/DX2                !
 ! A10   A(3,4,5)              119.994          estimate D2E/DX2                !
 ! A11   A(3,4,11)             105.0            estimate D2E/DX2                !
 ! A12   A(5,4,11)             135.006          estimate D2E/DX2                !
 ! A13   A(4,5,6)              120.0047         estimate D2E/DX2                !
 ! A14   A(4,5,9)              120.0113         estimate D2E/DX2                !
 ! A15   A(6,5,9)              119.984          estimate D2E/DX2                !
 ! A16   A(1,6,5)              120.0            estimate D2E/DX2                !
 ! A17   A(1,6,10)             120.008          estimate D2E/DX2                !
 ! A18   A(5,6,10)             119.992          estimate D2E/DX2                !
 ! A19   A(4,11,12)            119.8865         estimate D2E/DX2                !
 ! A20   A(4,11,15)            120.2269         estimate D2E/DX2                !
 ! A21   A(12,11,15)           119.8865         estimate D2E/DX2                !
 ! A22   A(11,12,13)            88.2955         estimate D2E/DX2                !
 ! A23   A(11,12,14)           120.2269         estimate D2E/DX2                !
 ! A24   A(13,12,14)           151.4775         estimate D2E/DX2                !
 ! A25   A(3,13,12)            121.818          estimate D2E/DX2                !
 ! A26   A(3,13,16)            119.091          estimate D2E/DX2                !
 ! A27   A(12,13,16)           119.091          estimate D2E/DX2                !
 ! A28   A(13,16,17)           109.4712         estimate D2E/DX2                !
 ! A29   A(13,16,18)           109.4712         estimate D2E/DX2                !
 ! A30   A(13,16,19)           109.4712         estimate D2E/DX2                !
 ! A31   A(17,16,18)           109.4713         estimate D2E/DX2                !
 ! A32   A(17,16,19)           109.4712         estimate D2E/DX2                !
 ! A33   A(18,16,19)           109.4712         estimate D2E/DX2                !
 ! D1    D(6,1,2,3)              0.0323         estimate D2E/DX2                !
 ! D2    D(6,1,2,8)            179.9532         estimate D2E/DX2                !
 ! D3    D(7,1,2,3)           -179.9729         estimate D2E/DX2                !
 ! D4    D(7,1,2,8)             -0.052          estimate D2E/DX2                !
 ! D5    D(2,1,6,5)              0.0149         estimate D2E/DX2                !
 ! D6    D(2,1,6,10)           179.9892         estimate D2E/DX2                !
 ! D7    D(7,1,6,5)           -179.9798         estimate D2E/DX2                !
 ! D8    D(7,1,6,10)            -0.0056         estimate D2E/DX2                !
 ! D9    D(1,2,3,4)             -0.0568         estimate D2E/DX2                !
 ! D10   D(1,2,3,13)           179.9687         estimate D2E/DX2                !
 ! D11   D(8,2,3,4)           -179.9777         estimate D2E/DX2                !
 ! D12   D(8,2,3,13)             0.0478         estimate D2E/DX2                !
 ! D13   D(2,3,4,5)              0.0341         estimate D2E/DX2                !
 ! D14   D(2,3,4,11)          -179.9964         estimate D2E/DX2                !
 ! D15   D(13,3,4,5)          -179.9846         estimate D2E/DX2                !
 ! D16   D(13,3,4,11)           -0.0151         estimate D2E/DX2                !
 ! D17   D(2,3,13,12)         -179.9939         estimate D2E/DX2                !
 ! D18   D(2,3,13,16)            0.0061         estimate D2E/DX2                !
 ! D19   D(4,3,13,12)            0.0289         estimate D2E/DX2                !
 ! D20   D(4,3,13,16)         -179.9711         estimate D2E/DX2                !
 ! D21   D(3,4,5,6)              0.0131         estimate D2E/DX2                !
 ! D22   D(3,4,5,9)           -179.9995         estimate D2E/DX2                !
 ! D23   D(11,4,5,6)          -179.9452         estimate D2E/DX2                !
 ! D24   D(11,4,5,9)             0.0422         estimate D2E/DX2                !
 ! D25   D(3,4,11,12)            0.0            estimate D2E/DX2                !
 ! D26   D(3,4,11,15)          180.0            estimate D2E/DX2                !
 ! D27   D(5,4,11,12)          179.9626         estimate D2E/DX2                !
 ! D28   D(5,4,11,15)           -0.0374         estimate D2E/DX2                !
 ! D29   D(4,5,6,1)             -0.0376         estimate D2E/DX2                !
 ! D30   D(4,5,6,10)           179.9881         estimate D2E/DX2                !
 ! D31   D(9,5,6,1)            179.975          estimate D2E/DX2                !
 ! D32   D(9,5,6,10)             0.0007         estimate D2E/DX2                !
 ! D33   D(4,11,12,13)           0.0136         estimate D2E/DX2                !
 ! D34   D(4,11,12,14)         180.0            estimate D2E/DX2                !
 ! D35   D(15,11,12,13)       -179.9864         estimate D2E/DX2                !
 ! D36   D(15,11,12,14)          0.0            estimate D2E/DX2                !
 ! D37   D(11,12,13,3)          -0.0252         estimate D2E/DX2                !
 ! D38   D(11,12,13,16)        179.9748         estimate D2E/DX2                !
 ! D39   D(14,12,13,3)         179.9994         estimate D2E/DX2                !
 ! D40   D(14,12,13,16)         -0.0006         estimate D2E/DX2                !
 ! D41   D(3,13,16,17)         -60.0133         estimate D2E/DX2                !
 ! D42   D(3,13,16,18)          59.9867         estimate D2E/DX2                !
 ! D43   D(3,13,16,19)         179.9867         estimate D2E/DX2                !
 ! D44   D(12,13,16,17)        119.9867         estimate D2E/DX2                !
 ! D45   D(12,13,16,18)       -120.0133         estimate D2E/DX2                !
 ! D46   D(12,13,16,19)         -0.0133         estimate D2E/DX2                !
 --------------------------------------------------------------------------------
 Trust Radius=3.00D-01 FncErr=1.00D-07 GrdErr=1.00D-06
 Number of steps in this run=    109 maximum allowed number of steps=    114.
 GradGradGradGradGradGradGradGradGradGradGradGradGradGradGradGradGradGrad

                          Input orientation:                          
 ---------------------------------------------------------------------
 Center     Atomic      Atomic             Coordinates (Angstroms)
 Number     Number       Type             X           Y           Z
 ---------------------------------------------------------------------
      1          6           0       -1.974886    0.000000    0.000000
      2          6           0       -0.579726    0.000000    0.000000
      3          6           0        0.117812    1.207751    0.000000
      4          6           0       -0.579842    2.416260   -0.001199
      5          6           0       -1.974667    2.416182   -0.001678
      6          6           0       -2.672268    1.207976   -0.000682
      7          1           0       -2.524645   -0.952317    0.000450
      8          1           0       -0.030218   -0.952513    0.001315
      9          1           0       -2.524789    3.368463   -0.002631
     10          1           0       -3.771872    1.208159   -0.000862
     11          6           0        0.509156    3.505151   -0.000896
     12          6           0        1.995869    3.103553    0.000513
     13          7           0        1.537742    1.588146    0.000568
     14          8           0        2.891006    3.988030    0.000767
     15          8           0        0.188335    4.721968   -0.001796
     16          6           0        2.560516    0.532290    0.001205
     17          1           0        2.446131   -0.074548    0.875026
     18          1           0        2.446619   -0.075129   -0.872277
     19          1           0        3.533267    0.977999    0.001328
 ---------------------------------------------------------------------
                    Distance matrix (angstroms):
                    1          2          3          4          5
     1  C    0.000000
     2  C    1.395160   0.000000
     3  C    2.416205   1.394712   0.000000
     4  C    2.790065   2.416260   1.395427   0.000000
     5  C    2.416183   2.789946   2.416356   1.394825   0.000000
     6  C    1.394829   2.416183   2.790080   2.416236   1.395138
     7  H    1.099610   2.165553   3.412986   3.889675   3.413102
     8  H    2.165414   1.099655   2.165330   3.413316   3.889601
     9  H    3.413055   3.889707   3.413506   2.165528   1.099761
    10  H    2.165365   3.413128   3.889684   3.412999   2.165471
    11  C    4.296109   3.670388   2.330493   1.540000   2.712053
    12  C    5.039735   4.033079   2.668550   2.665832   4.029595
    13  N    3.854965   2.646861   1.470000   2.273749   3.608693
    14  O    6.291366   5.286810   3.926901   3.810151   5.113266
    15  O    5.193892   4.784026   3.514925   2.430306   3.161523
    16  C    4.566531   3.185036   2.534374   3.662130   4.910900
    17  H    4.507396   3.150720   2.798398   4.016019   5.149350
    18  H    4.507352   3.150441   2.798212   4.015627   5.149014
    19  H    5.594303   4.227670   3.423174   4.357323   5.692602
                    6          7          8          9         10
     6  C    0.000000
     7  H    2.165331   0.000000
     8  H    3.412938   2.494427   0.000000
     9  H    2.165516   4.320781   4.989362   0.000000
    10  H    1.099604   2.494641   4.320704   2.494420   0.000000
    11  C    3.924088   5.391936   4.490178   3.037023   4.858330
    12  C    5.038324   6.073312   4.533949   4.528414   6.071190
    13  N    4.227140   4.791339   2.985539   4.435504   5.323193
    14  O    6.219222   7.330505   5.739557   5.451120   7.219531
    15  O    4.531136   6.289497   5.678689   3.031999   5.294345
    16  C    5.276228   5.297445   2.986058   5.822733   6.368355
    17  H    5.348807   5.122887   2.768844   6.110209   6.409062
    18  H    5.348742   5.122946   2.769059   6.109788   6.409042
    19  H    6.209795   6.358020   4.052814   6.512632   7.308764
                   11         12         13         14         15
    11  C    0.000000
    12  C    1.540000   0.000000
    13  N    2.175523   1.583142   0.000000
    14  O    2.430306   1.258400   2.755135   0.000000
    15  O    1.258400   2.426202   3.412001   2.800555   0.000000
    16  C    3.611923   2.632531   1.470000   3.471507   4.814630
    17  H    4.163335   3.326835   2.086720   4.179328   5.373363
    18  H    4.163109   3.327004   2.086720   4.179586   5.373056
    19  H    3.941035   2.623275   2.086720   3.077789   5.020547
                   16         17         18         19
    16  C    0.000000
    17  H    1.070000   0.000000
    18  H    1.070000   1.747303   0.000000
    19  H    1.070000   1.747303   1.747303   0.000000
 Stoichiometry    C9H7NO2
 Framework group  C1[X(C9H7NO2)]
 Deg. of freedom    51
 Full point group                 C1      NOp   1
 Largest Abelian subgroup         C1      NOp   1
 Largest concise Abelian subgroup C1      NOp   1
                         Standard orientation:                         
 ---------------------------------------------------------------------
 Center     Atomic      Atomic             Coordinates (Angstroms)
 Number     Number       Type             X           Y           Z
 ---------------------------------------------------------------------
      1          6           0       -2.933921    0.619173   -0.000334
      2          6           0       -1.734627    1.332030    0.000313
      3          6           0       -0.517915    0.650242    0.000097
      4          6           0       -0.500138   -0.745072    0.000434
      5          6           0       -1.699184   -1.457691    0.000267
      6          6           0       -2.916182   -0.775543   -0.000513
      7          1           0       -3.893085    1.156895   -0.000613
      8          1           0       -1.748950    2.431592   -0.000323
      9          1           0       -1.685506   -2.557367    0.000540
     10          1           0       -3.861319   -1.337543   -0.000843
     11          6           0        0.992345   -1.124671    0.000149
     12          6           0        2.065142   -0.019815   -0.000392
     13          7           0        0.897034    1.048764    0.000017
     14          8           0        3.286535   -0.322750   -0.000626
     15          8           0        1.338296   -2.334583    0.000358
     16          6           0        1.236732    2.478976    0.000325
     17          1           0        0.828490    2.942716   -0.873279
     18          1           0        0.828315    2.942382    0.874024
     19          1           0        2.300653    2.592867    0.000453
 ---------------------------------------------------------------------
 Rotational constants (GHZ):      1.6613952      0.8139164      0.5481126
 Standard basis: def2SVP (5D, 7F)
 There are   215 symmetry adapted cartesian basis functions of A   symmetry.
 There are   203 symmetry adapted basis functions of A   symmetry.
   203 basis functions,   349 primitive gaussians,   215 cartesian basis functions
    42 alpha electrons       42 beta electrons
       nuclear repulsion energy       640.5255471446 Hartrees.
 NAtoms=   19 NActive=   19 NUniq=   19 SFac= 1.00D+00 NAtFMM=   60 NAOKFM=F Big=F
 Integral buffers will be    131072 words long.
 Raffenetti 2 integral format.
 Two-electron integral symmetry is turned on.
 ------------------------------------------------------------------------------
 Polarizable Continuum Model (PCM)
 =================================
 Model                : C-PCM.
 Atomic radii         : UFF (Universal Force Field).
 Polarization charges : Total charges.
 Charge compensation  : None.
 Solution method      : On-the-fly selection.
 Cavity type          : Scaled VdW (van der Waals Surface) (Alpha=1.100).
 Cavity algorithm     : GePol (No added spheres)
                        Default sphere list used, NSphG=   19.
                        Lebedev-Laikov grids with approx.  5.0 points / Ang**2.
                        Smoothing algorithm: Karplus/York (Gamma=1.0000).
                        Polarization charges: spherical gaussians, with
                                              point-specific exponents (IZeta= 3).
                        Self-potential: point-specific (ISelfS= 7).
                        Self-field    : sphere-specific E.n sum rule (ISelfD= 2).
 1st derivatives      : Analytical E(r).r(x)/FMM algorithm (CHGder, D1EAlg=3).
                        Cavity 1st derivative terms included.
 Solvent              : NitroMethane, Eps=  36.562000 Eps(inf)=   1.909095
 ------------------------------------------------------------------------------
 Spheres list:
 ISph  on   Nord     Re0    Alpha      Xe            Ye            Ze
    1   C      1    1.9255  1.100     -2.933921      0.619173     -0.000334
    2   C      2    1.9255  1.100     -1.734627      1.332030      0.000313
    3   C      3    1.9255  1.100     -0.517915      0.650242      0.000097
    4   C      4    1.9255  1.100     -0.500138     -0.745072      0.000434
    5   C      5    1.9255  1.100     -1.699184     -1.457691      0.000267
    6   C      6    1.9255  1.100     -2.916182     -0.775543     -0.000513
    7   H      7    1.4430  1.100     -3.893085      1.156895     -0.000613
    8   H      8    1.4430  1.100     -1.748950      2.431592     -0.000323
    9   H      9    1.4430  1.100     -1.685506     -2.557367      0.000540
   10   H     10    1.4430  1.100     -3.861319     -1.337543     -0.000843
   11   C     11    1.9255  1.100      0.992345     -1.124671      0.000149
   12   C     12    1.9255  1.100      2.065142     -0.019815     -0.000392
   13   N     13    1.8300  1.100      0.897034      1.048764      0.000017
   14   O     14    1.7500  1.100      3.286535     -0.322750     -0.000626
   15   O     15    1.7500  1.100      1.338296     -2.334583      0.000358
   16   C     16    1.9255  1.100      1.236732      2.478976      0.000325
   17   H     17    1.4430  1.100      0.828490      2.942716     -0.873279
   18   H     18    1.4430  1.100      0.828315      2.942382      0.874024
   19   H     19    1.4430  1.100      2.300653      2.592867      0.000453
 ------------------------------------------------------------------------------
 One-electron integrals computed using PRISM.
   1 Symmetry operations used in ECPInt.
 ECPInt:  NShTT=    4371 NPrTT=   16287 LenC2=    4256 LenP2D=   12005.
 LDataN:  DoStor=T MaxTD1= 4 Len=   56
 NBasis=   203 RedAO= T EigKep=  2.52D-04  NBF=   203
 NBsUse=   203 1.00D-06 EigRej= -1.00D+00 NBFU=   203
 ExpMin= 1.22D-01 ExpMax= 2.27D+03 ExpMxC= 3.41D+02 IAcc=1 IRadAn=         1 AccDes= 0.00D+00
 Harris functional with IExCor= 1009 and IRadAn=       1 diagonalized for initial guess.
 HarFok:  IExCor= 1009 AccDes= 0.00D+00 IRadAn=         1 IDoV= 1 UseB2=F ITyADJ=14
 ICtDFT=  3500011 ScaDFX=  1.000000  1.000000  1.000000  1.000000
 FoFCou: FMM=F IPFlag=           0 FMFlag=      100000 FMFlg1=           0
         NFxFlg=           0 DoJE=T BraDBF=F KetDBF=T FulRan=T
         wScrn=  0.000000 ICntrl=     500 IOpCl=  0 I1Cent=   200000004 NGrid=           0
         NMat0=    1 NMatS0=      1 NMatT0=    0 NMatD0=    1 NMtDS0=    0 NMtDT0=    0
 Petite list used in FoFCou.
 Requested convergence on RMS density matrix=1.00D-08 within 128 cycles.
 Requested convergence on MAX density matrix=1.00D-06.
 Requested convergence on             energy=1.00D-06.
 No special actions if energy rises.
 Inv3:  Mode=1 IEnd=     8386752.
 Iteration    1 A*A^-1 deviation from unit magnitude is 5.77D-15 for   1657.
 Iteration    1 A*A^-1 deviation from orthogonality  is 2.09D-15 for   1643   1544.
 Iteration    1 A^-1*A deviation from unit magnitude is 5.77D-15 for   1657.
 Iteration    1 A^-1*A deviation from orthogonality  is 1.40D-15 for   1586    369.
 Error on total polarization charges =  0.00782
 SCF Done:  E(RM062X) =  -551.656057480     A.U. after   15 cycles
            NFock= 15  Conv=0.58D-08     -V/T= 2.0109

 **********************************************************************

            Population analysis using the SCF density.

 **********************************************************************

 Orbital symmetries:
       Occupied  (A) (A) (A) (A) (A) (A) (A) (A) (A) (A) (A) (A)
                 (A) (A) (A) (A) (A) (A) (A) (A) (A) (A) (A) (A)
                 (A) (A) (A) (A) (A) (A) (A) (A) (A) (A) (A) (A)
                 (A) (A) (A) (A) (A) (A)
       Virtual   (A) (A) (A) (A) (A) (A) (A) (A) (A) (A) (A) (A)
                 (A) (A) (A) (A) (A) (A) (A) (A) (A) (A) (A) (A)
                 (A) (A) (A) (A) (A) (A) (A) (A) (A) (A) (A) (A)
                 (A) (A) (A) (A) (A) (A) (A) (A) (A) (A) (A) (A)
                 (A) (A) (A) (A) (A) (A) (A) (A) (A) (A) (A) (A)
                 (A) (A) (A) (A) (A) (A) (A) (A) (A) (A) (A) (A)
                 (A) (A) (A) (A) (A) (A) (A) (A) (A) (A) (A) (A)
                 (A) (A) (A) (A) (A) (A) (A) (A) (A) (A) (A) (A)
                 (A) (A) (A) (A) (A) (A) (A) (A) (A) (A) (A) (A)
                 (A) (A) (A) (A) (A) (A) (A) (A) (A) (A) (A) (A)
                 (A) (A) (A) (A) (A) (A) (A) (A) (A) (A) (A) (A)
                 (A) (A) (A) (A) (A) (A) (A) (A) (A) (A) (A) (A)
                 (A) (A) (A) (A) (A) (A) (A) (A) (A) (A) (A) (A)
                 (A) (A) (A) (A) (A)
 The electronic state is 1-A.
 Alpha  occ. eigenvalues --  -19.67983 -19.65598 -14.83218 -10.72622 -10.67028
 Alpha  occ. eigenvalues --  -10.63043 -10.58553 -10.58485 -10.58323 -10.58251
 Alpha  occ. eigenvalues --  -10.58245 -10.57221  -1.17694  -1.14230  -1.05775
 Alpha  occ. eigenvalues --   -0.96358  -0.87871  -0.85179  -0.81601  -0.74609
 Alpha  occ. eigenvalues --   -0.70812  -0.67486  -0.64507  -0.59154  -0.57996
 Alpha  occ. eigenvalues --   -0.57080  -0.55107  -0.53769  -0.52037  -0.51460
 Alpha  occ. eigenvalues --   -0.50204  -0.50026  -0.47267  -0.47116  -0.44965
 Alpha  occ. eigenvalues --   -0.44216  -0.42298  -0.39953  -0.37997  -0.33264
 Alpha  occ. eigenvalues --   -0.33035  -0.28808
 Alpha virt. eigenvalues --   -0.07683  -0.00039   0.02995   0.05621   0.10195
 Alpha virt. eigenvalues --    0.10253   0.12341   0.15131   0.17021   0.17257
 Alpha virt. eigenvalues --    0.18246   0.19227   0.20502   0.20732   0.22104
 Alpha virt. eigenvalues --    0.24947   0.26705   0.29751   0.31818   0.33686
 Alpha virt. eigenvalues --    0.34348   0.35692   0.36498   0.38953   0.42505
 Alpha virt. eigenvalues --    0.44832   0.45494   0.45775   0.48707   0.49709
 Alpha virt. eigenvalues --    0.50638   0.51527   0.52595   0.54574   0.55465
 Alpha virt. eigenvalues --    0.57823   0.58686   0.58751   0.62727   0.63834
 Alpha virt. eigenvalues --    0.64053   0.65996   0.66130   0.67692   0.68276
 Alpha virt. eigenvalues --    0.69165   0.70085   0.70923   0.72518   0.73205
 Alpha virt. eigenvalues --    0.74894   0.75033   0.75258   0.75662   0.77216
 Alpha virt. eigenvalues --    0.79446   0.79973   0.83325   0.87248   0.89573
 Alpha virt. eigenvalues --    0.91038   0.92500   0.96600   0.98416   1.05996
 Alpha virt. eigenvalues --    1.07545   1.08262   1.11141   1.11923   1.15824
 Alpha virt. eigenvalues --    1.18737   1.19732   1.21549   1.22469   1.25385
 Alpha virt. eigenvalues --    1.27253   1.29239   1.29696   1.30879   1.33635
 Alpha virt. eigenvalues --    1.34562   1.35574   1.38958   1.43099   1.50277
 Alpha virt. eigenvalues --    1.52949   1.57279   1.58309   1.60885   1.64412
 Alpha virt. eigenvalues --    1.66288   1.68020   1.71249   1.71766   1.73113
 Alpha virt. eigenvalues --    1.74531   1.75013   1.78527   1.79003   1.80429
 Alpha virt. eigenvalues --    1.81928   1.82852   1.84600   1.84789   1.87491
 Alpha virt. eigenvalues --    1.89721   1.93438   1.94779   1.96548   1.97111
 Alpha virt. eigenvalues --    1.99482   2.02046   2.04423   2.06166   2.09358
 Alpha virt. eigenvalues --    2.12697   2.14859   2.16682   2.18108   2.19120
 Alpha virt. eigenvalues --    2.20147   2.22909   2.26713   2.31035   2.31732
 Alpha virt. eigenvalues --    2.34460   2.34568   2.37200   2.45203   2.45895
 Alpha virt. eigenvalues --    2.50670   2.54904   2.57552   2.59719   2.61671
 Alpha virt. eigenvalues --    2.62023   2.67224   2.70023   2.70669   2.71872
 Alpha virt. eigenvalues --    2.72614   2.74410   2.75134   2.77870   2.78210
 Alpha virt. eigenvalues --    2.83724   2.86359   2.93401   2.97436   2.99834
 Alpha virt. eigenvalues --    3.02453   3.06734   3.07387   3.10015   3.15873
 Alpha virt. eigenvalues --    3.18752   3.24649   3.48285   3.55543   3.59405
 Alpha virt. eigenvalues --    3.64301
          Condensed to atoms (all electrons):
               1          2          3          4          5          6
     1  C    5.120229   0.237341   0.133471  -0.158391   0.100490   0.242433
     2  C    0.237341   5.187541   0.275585   0.079025  -0.129117   0.090303
     3  C    0.133471   0.275585   5.126187   0.191116   0.034748  -0.150828
     4  C   -0.158391   0.079025   0.191116   5.629405   0.329562   0.096857
     5  C    0.100490  -0.129117   0.034748   0.329562   5.110828   0.258066
     6  C    0.242433   0.090303  -0.150828   0.096857   0.258066   5.141928
     7  H    0.456043  -0.066367   0.013939  -0.001809   0.013135  -0.067346
     8  H   -0.069656   0.469942  -0.082797   0.016117  -0.002436   0.013882
     9  H    0.012670  -0.002007   0.016300  -0.072357   0.445456  -0.059612
    10  H   -0.068935   0.013181  -0.001469   0.014375  -0.067300   0.456174
    11  C   -0.000047   0.004433  -0.030430   0.161333  -0.059095   0.011664
    12  C   -0.000299   0.000693  -0.042634  -0.111089   0.005379   0.000270
    13  N    0.005236  -0.063514   0.288549  -0.041868   0.007466  -0.000176
    14  O    0.000000   0.000003   0.000349   0.004840   0.000026   0.000000
    15  O   -0.000021  -0.000082   0.006053  -0.108020   0.000860   0.000532
    16  C   -0.000275  -0.001238  -0.041660   0.006358  -0.000289   0.000067
    17  H    0.000095   0.000851  -0.003213   0.001117   0.000003  -0.000019
    18  H    0.000096   0.000874  -0.003220   0.001115   0.000002  -0.000019
    19  H    0.000007   0.000349   0.004325  -0.001445   0.000008   0.000001
               7          8          9         10         11         12
     1  C    0.456043  -0.069656   0.012670  -0.068935  -0.000047  -0.000299
     2  C   -0.066367   0.469942  -0.002007   0.013181   0.004433   0.000693
     3  C    0.013939  -0.082797   0.016300  -0.001469  -0.030430  -0.042634
     4  C   -0.001809   0.016117  -0.072357   0.014375   0.161333  -0.111089
     5  C    0.013135  -0.002436   0.445456  -0.067300  -0.059095   0.005379
     6  C   -0.067346   0.013882  -0.059612   0.456174   0.011664   0.000270
     7  H    0.610090  -0.010927  -0.000200  -0.010381   0.000003   0.000002
     8  H   -0.010927   0.625420   0.000022  -0.000180  -0.000367   0.000049
     9  H   -0.000200   0.000022   0.629363  -0.010500  -0.010500   0.000364
    10  H   -0.010381  -0.000180  -0.010500   0.619981  -0.000157   0.000002
    11  C    0.000003  -0.000367  -0.010500  -0.000157   5.213540   0.182067
    12  C    0.000002   0.000049   0.000364   0.000002   0.182067   4.679253
    13  N   -0.000050  -0.008236  -0.000245   0.000009  -0.168349   0.275385
    14  O    0.000000   0.000000  -0.000002   0.000000  -0.092154   0.692552
    15  O    0.000000   0.000001   0.006351   0.000000   0.683456  -0.066883
    16  C   -0.000015   0.005333   0.000013   0.000000   0.012970  -0.031648
    17  H    0.000003   0.000408  -0.000001   0.000000  -0.000931   0.001563
    18  H    0.000003   0.000409  -0.000001   0.000000  -0.000933   0.001573
    19  H    0.000000  -0.000149   0.000000   0.000000   0.003986  -0.005878
              13         14         15         16         17         18
     1  C    0.005236   0.000000  -0.000021  -0.000275   0.000095   0.000096
     2  C   -0.063514   0.000003  -0.000082  -0.001238   0.000851   0.000874
     3  C    0.288549   0.000349   0.006053  -0.041660  -0.003213  -0.003220
     4  C   -0.041868   0.004840  -0.108020   0.006358   0.001117   0.001115
     5  C    0.007466   0.000026   0.000860  -0.000289   0.000003   0.000002
     6  C   -0.000176   0.000000   0.000532   0.000067  -0.000019  -0.000019
     7  H   -0.000050   0.000000   0.000000  -0.000015   0.000003   0.000003
     8  H   -0.008236   0.000000   0.000001   0.005333   0.000408   0.000409
     9  H   -0.000245  -0.000002   0.006351   0.000013  -0.000001  -0.000001
    10  H    0.000009   0.000000   0.000000   0.000000   0.000000   0.000000
    11  C   -0.168349  -0.092154   0.683456   0.012970  -0.000931  -0.000933
    12  C    0.275385   0.692552  -0.066883  -0.031648   0.001563   0.001573
    13  N    7.081128  -0.025206   0.002571   0.270076  -0.028821  -0.028832
    14  O   -0.025206   7.664720  -0.001239  -0.000986   0.000015   0.000015
    15  O    0.002571  -0.001239   7.740254  -0.000084   0.000003   0.000003
    16  C    0.270076  -0.000986  -0.000084   4.446884   0.411914   0.411914
    17  H   -0.028821   0.000015   0.000003   0.411914   0.598809  -0.027780
    18  H   -0.028832   0.000015   0.000003   0.411914  -0.027780   0.598796
    19  H   -0.021285   0.003573  -0.000009   0.406722  -0.018055  -0.018052
              19
     1  C    0.000007
     2  C    0.000349
     3  C    0.004325
     4  C   -0.001445
     5  C    0.000008
     6  C    0.000001
     7  H    0.000000
     8  H   -0.000149
     9  H    0.000000
    10  H    0.000000
    11  C    0.003986
    12  C   -0.005878
    13  N   -0.021285
    14  O    0.003573
    15  O   -0.000009
    16  C    0.406722
    17  H   -0.018055
    18  H   -0.018052
    19  H    0.578875
 Mulliken charges:
               1
     1  C   -0.010489
     2  C   -0.097797
     3  C    0.265629
     4  C   -0.036239
     5  C   -0.047792
     6  C   -0.034176
     7  H    0.063876
     8  H    0.043163
     9  H    0.044886
    10  H    0.055200
    11  C    0.089510
    12  C    0.419277
    13  N   -0.543837
    14  O   -0.246506
    15  O   -0.263748
    16  C    0.103943
    17  H    0.064037
    18  H    0.064033
    19  H    0.067029
 Sum of Mulliken charges =   0.00000
 Mulliken charges with hydrogens summed into heavy atoms:
               1
     1  C    0.053387
     2  C   -0.054633
     3  C    0.265629
     4  C   -0.036239
     5  C   -0.002906
     6  C    0.021024
    11  C    0.089510
    12  C    0.419277
    13  N   -0.543837
    14  O   -0.246506
    15  O   -0.263748
    16  C    0.299042
 Electronic spatial extent (au):  <R**2>=           1953.1889
 Charge=              0.0000 electrons
 Dipole moment (field-independent basis, Debye):
    X=             -5.4479    Y=              5.3198    Z=             -0.0005  Tot=              7.6144
 Quadrupole moment (field-independent basis, Debye-Ang):
   XX=            -71.6489   YY=            -65.6602   ZZ=            -70.1665
   XY=              8.4736   XZ=              0.0058   YZ=              0.0004
 Traceless Quadrupole moment (field-independent basis, Debye-Ang):
   XX=             -2.4903   YY=              3.4983   ZZ=             -1.0080
   XY=              8.4736   XZ=              0.0058   YZ=              0.0004
 Octapole moment (field-independent basis, Debye-Ang**2):
  XXX=            -69.4509  YYY=             33.3606  ZZZ=             -0.0017  XYY=            -12.1314
  XXY=             16.1771  XXZ=             -0.0032  XZZ=             14.5662  YZZ=             -1.4436
  YYZ=             -0.0037  XYZ=              0.0048
 Hexadecapole moment (field-independent basis, Debye-Ang**3):
 XXXX=          -1626.8503 YYYY=           -833.7454 ZZZZ=            -76.6160 XXXY=             26.6674
 XXXZ=              0.0931 YYYX=             44.4449 YYYZ=              0.0004 ZZZX=             -0.0053
 ZZZY=             -0.0016 XXYY=           -386.2615 XXZZ=           -296.6242 YYZZ=           -154.7538
 XXYZ=             -0.0025 YYXZ=              0.0043 ZZXY=             -5.3619
 N-N= 6.405255471446D+02 E-N=-2.563999775028D+03  KE= 5.457228512586D+02
 ******************************Gaussian NBO Version 3.1******************************
             N A T U R A L   A T O M I C   O R B I T A L   A N D
          N A T U R A L   B O N D   O R B I T A L   A N A L Y S I S
 ******************************Gaussian NBO Version 3.1******************************
       /RESON  / : Allow strongly delocalized NBO set

 Analyzing the SCF density

 Job title: Isatin opt                                                      

 Storage needed:    124932 in NPA,    165820 in NBO (  33552437 available)


 NATURAL POPULATIONS:  Natural atomic orbital occupancies 
                                                          
   NAO  Atom  No  lang   Type(AO)    Occupancy      Energy
 ----------------------------------------------------------
     1    C    1  S      Cor( 1S)     1.99898     -10.44751
     2    C    1  S      Val( 2S)     0.94717      -0.16990
     3    C    1  S      Ryd( 3S)     0.00112       0.59623
     4    C    1  px     Val( 2p)     1.16607      -0.08262
     5    C    1  px     Ryd( 3p)     0.00566       0.95872
     6    C    1  py     Val( 2p)     1.10625      -0.07256
     7    C    1  py     Ryd( 3p)     0.00480       0.76305
     8    C    1  pz     Val( 2p)     0.95574      -0.12302
     9    C    1  pz     Ryd( 3p)     0.00074       0.59227
    10    C    1  dxy    Ryd( 3d)     0.00067       2.50611
    11    C    1  dxz    Ryd( 3d)     0.00051       1.93823
    12    C    1  dyz    Ryd( 3d)     0.00058       1.95302
    13    C    1  dx2y2  Ryd( 3d)     0.00063       2.46183
    14    C    1  dz2    Ryd( 3d)     0.00033       2.23364

    15    C    2  S      Cor( 1S)     1.99890     -10.44539
    16    C    2  S      Val( 2S)     0.93184      -0.16029
    17    C    2  S      Ryd( 3S)     0.00155       0.55962
    18    C    2  px     Val( 2p)     1.06975      -0.07534
    19    C    2  px     Ryd( 3p)     0.00374       0.71497
    20    C    2  py     Val( 2p)     1.22181      -0.10312
    21    C    2  py     Ryd( 3p)     0.00563       1.05807
    22    C    2  pz     Val( 2p)     1.04015      -0.13343
    23    C    2  pz     Ryd( 3p)     0.00117       0.59731
    24    C    2  dxy    Ryd( 3d)     0.00058       2.44781
    25    C    2  dxz    Ryd( 3d)     0.00051       1.95871
    26    C    2  dyz    Ryd( 3d)     0.00049       1.93290
    27    C    2  dx2y2  Ryd( 3d)     0.00063       2.52884
    28    C    2  dz2    Ryd( 3d)     0.00038       2.23565

    29    C    3  S      Cor( 1S)     1.99874     -10.49527
    30    C    3  S      Val( 2S)     0.80295      -0.12660
    31    C    3  S      Ryd( 3S)     0.00216       0.56149
    32    C    3  px     Val( 2p)     0.91260      -0.05989
    33    C    3  px     Ryd( 3p)     0.00423       0.97277
    34    C    3  py     Val( 2p)     1.06641      -0.10528
    35    C    3  py     Ryd( 3p)     0.00655       0.91967
    36    C    3  pz     Val( 2p)     0.98674      -0.14188
    37    C    3  pz     Ryd( 3p)     0.00093       0.62474
    38    C    3  dxy    Ryd( 3d)     0.00077       2.35406
    39    C    3  dxz    Ryd( 3d)     0.00145       1.92029
    40    C    3  dyz    Ryd( 3d)     0.00070       1.90882
    41    C    3  dx2y2  Ryd( 3d)     0.00116       2.50243
    42    C    3  dz2    Ryd( 3d)     0.00050       2.18843

    43    C    4  S      Cor( 1S)     1.99874     -10.44442
    44    C    4  S      Val( 2S)     0.86413      -0.13716
    45    C    4  S      Ryd( 3S)     0.00209       0.60147
    46    C    4  px     Val( 2p)     1.11719      -0.11350
    47    C    4  px     Ryd( 3p)     0.00559       1.13793
    48    C    4  py     Val( 2p)     1.08978      -0.10146
    49    C    4  py     Ryd( 3p)     0.00843       0.97365
    50    C    4  pz     Val( 2p)     1.07094      -0.13670
    51    C    4  pz     Ryd( 3p)     0.00106       0.66105
    52    C    4  dxy    Ryd( 3d)     0.00043       2.35211
    53    C    4  dxz    Ryd( 3d)     0.00036       1.91296
    54    C    4  dyz    Ryd( 3d)     0.00057       1.92661
    55    C    4  dx2y2  Ryd( 3d)     0.00096       2.50559
    56    C    4  dz2    Ryd( 3d)     0.00043       2.22454

    57    C    5  S      Cor( 1S)     1.99895     -10.44706
    58    C    5  S      Val( 2S)     0.93638      -0.15937
    59    C    5  S      Ryd( 3S)     0.00133       0.58822
    60    C    5  px     Val( 2p)     1.06803      -0.06300
    61    C    5  px     Ryd( 3p)     0.00429       0.67007
    62    C    5  py     Val( 2p)     1.21602      -0.09479
    63    C    5  py     Ryd( 3p)     0.00720       1.04750
    64    C    5  pz     Val( 2p)     0.94852      -0.12199
    65    C    5  pz     Ryd( 3p)     0.00071       0.59324
    66    C    5  dxy    Ryd( 3d)     0.00063       2.43945
    67    C    5  dxz    Ryd( 3d)     0.00065       1.96291
    68    C    5  dyz    Ryd( 3d)     0.00043       1.93737
    69    C    5  dx2y2  Ryd( 3d)     0.00065       2.53476
    70    C    5  dz2    Ryd( 3d)     0.00034       2.23315

    71    C    6  S      Cor( 1S)     1.99899     -10.43811
    72    C    6  S      Val( 2S)     0.94383      -0.16350
    73    C    6  S      Ryd( 3S)     0.00112       0.59463
    74    C    6  px     Val( 2p)     1.16765      -0.07984
    75    C    6  px     Ryd( 3p)     0.00559       0.95516
    76    C    6  py     Val( 2p)     1.10610      -0.07058
    77    C    6  py     Ryd( 3p)     0.00482       0.77713
    78    C    6  pz     Val( 2p)     1.01577      -0.12415
    79    C    6  pz     Ryd( 3p)     0.00115       0.59600
    80    C    6  dxy    Ryd( 3d)     0.00064       2.51619
    81    C    6  dxz    Ryd( 3d)     0.00048       1.94365
    82    C    6  dyz    Ryd( 3d)     0.00048       1.95746
    83    C    6  dx2y2  Ryd( 3d)     0.00064       2.46288
    84    C    6  dz2    Ryd( 3d)     0.00035       2.24026

    85    H    7  S      Val( 1S)     0.74296       0.10376
    86    H    7  S      Ryd( 2S)     0.00138       0.34618
    87    H    7  px     Ryd( 2p)     0.00068       2.29347
    88    H    7  py     Ryd( 2p)     0.00024       2.09981
    89    H    7  pz     Ryd( 2p)     0.00008       1.68323

    90    H    8  S      Val( 1S)     0.73962       0.09864
    91    H    8  S      Ryd( 2S)     0.00133       0.37913
    92    H    8  px     Ryd( 2p)     0.00005       2.02927
    93    H    8  py     Ryd( 2p)     0.00085       2.38967
    94    H    8  pz     Ryd( 2p)     0.00009       1.69078

    95    H    9  S      Val( 1S)     0.74348       0.10130
    96    H    9  S      Ryd( 2S)     0.00240       0.35182
    97    H    9  px     Ryd( 2p)     0.00005       2.01661
    98    H    9  py     Ryd( 2p)     0.00088       2.38422
    99    H    9  pz     Ryd( 2p)     0.00009       1.69351

   100    H   10  S      Val( 1S)     0.74692       0.10603
   101    H   10  S      Ryd( 2S)     0.00139       0.34956
   102    H   10  px     Ryd( 2p)     0.00065       2.28671
   103    H   10  py     Ryd( 2p)     0.00025       2.10593
   104    H   10  pz     Ryd( 2p)     0.00009       1.68661

   105    C   11  S      Cor( 1S)     1.99919     -10.56089
   106    C   11  S      Val( 2S)     0.89760      -0.21921
   107    C   11  S      Ryd( 3S)     0.00639       0.59890
   108    C   11  px     Val( 2p)     1.00651      -0.08590
   109    C   11  px     Ryd( 3p)     0.00550       0.84312
   110    C   11  py     Val( 2p)     0.81679      -0.04169
   111    C   11  py     Ryd( 3p)     0.01873       0.74820
   112    C   11  pz     Val( 2p)     0.75475      -0.14004
   113    C   11  pz     Ryd( 3p)     0.00103       0.58864
   114    C   11  dxy    Ryd( 3d)     0.00362       2.30943
   115    C   11  dxz    Ryd( 3d)     0.00070       1.84614
   116    C   11  dyz    Ryd( 3d)     0.00231       1.90757
   117    C   11  dx2y2  Ryd( 3d)     0.00232       2.35055
   118    C   11  dz2    Ryd( 3d)     0.00052       2.12884

   119    C   12  S      Cor( 1S)     1.99919     -10.63437
   120    C   12  S      Val( 2S)     0.79585      -0.23373
   121    C   12  S      Ryd( 3S)     0.00512       0.50407
   122    C   12  px     Val( 2p)     0.79571      -0.02422
   123    C   12  px     Ryd( 3p)     0.01808       0.59305
   124    C   12  py     Val( 2p)     0.87163      -0.10092
   125    C   12  py     Ryd( 3p)     0.00714       0.66243
   126    C   12  pz     Val( 2p)     0.77627      -0.16021
   127    C   12  pz     Ryd( 3p)     0.00130       0.55302
   128    C   12  dxy    Ryd( 3d)     0.00497       2.33254
   129    C   12  dxz    Ryd( 3d)     0.00350       1.92208
   130    C   12  dyz    Ryd( 3d)     0.00072       1.79105
   131    C   12  dx2y2  Ryd( 3d)     0.00158       2.21662
   132    C   12  dz2    Ryd( 3d)     0.00054       2.10940

   133    N   13  S      Cor( 1S)     1.99924     -14.69127
   134    N   13  S      Val( 2S)     1.26227      -0.58897
   135    N   13  S      Ryd( 3S)     0.00229       1.23999
   136    N   13  px     Val( 2p)     1.30082      -0.29515
   137    N   13  px     Ryd( 3p)     0.00114       1.32337
   138    N   13  py     Val( 2p)     1.31591      -0.30117
   139    N   13  py     Ryd( 3p)     0.00144       1.45066
   140    N   13  pz     Val( 2p)     1.67263      -0.31575
   141    N   13  pz     Ryd( 3p)     0.00234       0.95553
   142    N   13  dxy    Ryd( 3d)     0.00071       2.62180
   143    N   13  dxz    Ryd( 3d)     0.00026       2.27063
   144    N   13  dyz    Ryd( 3d)     0.00042       2.27456
   145    N   13  dx2y2  Ryd( 3d)     0.00089       2.70078
   146    N   13  dz2    Ryd( 3d)     0.00058       2.52620

   147    O   14  S      Cor( 1S)     1.99976     -19.44272
   148    O   14  S      Val( 2S)     1.71943      -1.00238
   149    O   14  S      Ryd( 3S)     0.00104       1.58255
   150    O   14  px     Val( 2p)     1.61179      -0.40416
   151    O   14  px     Ryd( 3p)     0.00044       1.07945
   152    O   14  py     Val( 2p)     1.76827      -0.36732
   153    O   14  py     Ryd( 3p)     0.00275       1.19163
   154    O   14  pz     Val( 2p)     1.44621      -0.32242
   155    O   14  pz     Ryd( 3p)     0.00082       1.09569
   156    O   14  dxy    Ryd( 3d)     0.00153       2.97999
   157    O   14  dxz    Ryd( 3d)     0.00192       2.84378
   158    O   14  dyz    Ryd( 3d)     0.00014       2.68782
   159    O   14  dx2y2  Ryd( 3d)     0.00128       3.17039
   160    O   14  dz2    Ryd( 3d)     0.00035       2.88740

   161    O   15  S      Cor( 1S)     1.99977     -19.41370
   162    O   15  S      Val( 2S)     1.70462      -0.98211
   163    O   15  S      Ryd( 3S)     0.00078       1.59402
   164    O   15  px     Val( 2p)     1.89129      -0.36803
   165    O   15  px     Ryd( 3p)     0.00392       1.21449
   166    O   15  py     Val( 2p)     1.63402      -0.38546
   167    O   15  py     Ryd( 3p)     0.00057       1.10974
   168    O   15  pz     Val( 2p)     1.29368      -0.28754
   169    O   15  pz     Ryd( 3p)     0.00034       1.10208
   170    O   15  dxy    Ryd( 3d)     0.00127       3.05539
   171    O   15  dxz    Ryd( 3d)     0.00014       2.70853
   172    O   15  dyz    Ryd( 3d)     0.00175       2.85881
   173    O   15  dx2y2  Ryd( 3d)     0.00122       3.17322
   174    O   15  dz2    Ryd( 3d)     0.00035       2.89762

   175    C   16  S      Cor( 1S)     1.99935     -10.46561
   176    C   16  S      Val( 2S)     1.05235      -0.23028
   177    C   16  S      Ryd( 3S)     0.00088       0.85663
   178    C   16  px     Val( 2p)     1.22187      -0.09812
   179    C   16  px     Ryd( 3p)     0.00364       0.69266
   180    C   16  py     Val( 2p)     0.86075      -0.05331
   181    C   16  py     Ryd( 3p)     0.00189       0.51888
   182    C   16  pz     Val( 2p)     1.22432      -0.09250
   183    C   16  pz     Ryd( 3p)     0.00133       0.58869
   184    C   16  dxy    Ryd( 3d)     0.00034       2.24501
   185    C   16  dxz    Ryd( 3d)     0.00038       2.28856
   186    C   16  dyz    Ryd( 3d)     0.00095       2.27724
   187    C   16  dx2y2  Ryd( 3d)     0.00094       2.41193
   188    C   16  dz2    Ryd( 3d)     0.00063       2.38943

   189    H   17  S      Val( 1S)     0.78625       0.09667
   190    H   17  S      Ryd( 2S)     0.00132       0.37680
   191    H   17  px     Ryd( 2p)     0.00020       1.92695
   192    H   17  py     Ryd( 2p)     0.00019       1.89309
   193    H   17  pz     Ryd( 2p)     0.00059       2.24146

   194    H   18  S      Val( 1S)     0.78624       0.09667
   195    H   18  S      Ryd( 2S)     0.00132       0.37679
   196    H   18  px     Ryd( 2p)     0.00020       1.92698
   197    H   18  py     Ryd( 2p)     0.00019       1.89287
   198    H   18  pz     Ryd( 2p)     0.00059       2.24156

   199    H   19  S      Val( 1S)     0.77468       0.09873
   200    H   19  S      Ryd( 2S)     0.00158       0.37961
   201    H   19  px     Ryd( 2p)     0.00079       2.44883
   202    H   19  py     Ryd( 2p)     0.00007       1.76972
   203    H   19  pz     Ryd( 2p)     0.00012       1.79755

 WARNING:  1 low occupancy (<1.9990e) core orbital  found on  C    1
           1 low occupancy (<1.9990e) core orbital  found on  C    2
           1 low occupancy (<1.9990e) core orbital  found on  C    3
           1 low occupancy (<1.9990e) core orbital  found on  C    4
           1 low occupancy (<1.9990e) core orbital  found on  C    5
           1 low occupancy (<1.9990e) core orbital  found on  C    6


 Summary of Natural Population Analysis:                  
                                                          
                                       Natural Population 
                Natural  -----------------------------------------------
    Atom  No    Charge         Core      Valence    Rydberg      Total
 -----------------------------------------------------------------------
      C    1   -0.18925      1.99898     4.17522    0.01505     6.18925
      C    2   -0.27711      1.99890     4.26354    0.01467     6.27711
      C    3    0.21412      1.99874     3.76869    0.01845     5.78588
      C    4   -0.16071      1.99874     4.14204    0.01993     6.16071
      C    5   -0.18414      1.99895     4.16895    0.01624     6.18414
      C    6   -0.24759      1.99899     4.23335    0.01525     6.24759
      H    7    0.25466      0.00000     0.74296    0.00238     0.74534
      H    8    0.25806      0.00000     0.73962    0.00232     0.74194
      H    9    0.25310      0.00000     0.74348    0.00342     0.74690
      H   10    0.25071      0.00000     0.74692    0.00238     0.74929
      C   11    0.48406      1.99919     3.47565    0.04110     5.51594
      C   12    0.71841      1.99919     3.23946    0.04294     5.28159
      N   13   -0.56094      1.99924     5.55163    0.01007     7.56094
      O   14   -0.55573      1.99976     6.54569    0.01028     8.55573
      O   15   -0.53372      1.99977     6.52361    0.01035     8.53372
      C   16   -0.36962      1.99935     4.35929    0.01098     6.36962
      H   17    0.21146      0.00000     0.78625    0.00230     0.78854
      H   18    0.21146      0.00000     0.78624    0.00230     0.78854
      H   19    0.22276      0.00000     0.77468    0.00256     0.77724
 =======================================================================
   * Total *    0.00000     23.98980    59.76725    0.24296    84.00000

                                 Natural Population      
 --------------------------------------------------------
   Core                      23.98980 ( 99.9575% of  24)
   Valence                   59.76725 ( 99.6121% of  60)
   Natural Minimal Basis     83.75704 ( 99.7108% of  84)
   Natural Rydberg Basis      0.24296 (  0.2892% of  84)
 --------------------------------------------------------

    Atom  No          Natural Electron Configuration
 ----------------------------------------------------------------------------
      C    1      [core]2S( 0.95)2p( 3.23)3p( 0.01)
      C    2      [core]2S( 0.93)2p( 3.33)3p( 0.01)
      C    3      [core]2S( 0.80)2p( 2.97)3p( 0.01)
      C    4      [core]2S( 0.86)2p( 3.28)3p( 0.02)
      C    5      [core]2S( 0.94)2p( 3.23)3p( 0.01)
      C    6      [core]2S( 0.94)2p( 3.29)3p( 0.01)
      H    7            1S( 0.74)
      H    8            1S( 0.74)
      H    9            1S( 0.74)
      H   10            1S( 0.75)
      C   11      [core]2S( 0.90)2p( 2.58)3S( 0.01)3p( 0.03)3d( 0.01)
      C   12      [core]2S( 0.80)2p( 2.44)3S( 0.01)3p( 0.03)3d( 0.01)
      N   13      [core]2S( 1.26)2p( 4.29)
      O   14      [core]2S( 1.72)2p( 4.83)3d( 0.01)
      O   15      [core]2S( 1.70)2p( 4.82)
      C   16      [core]2S( 1.05)2p( 3.31)3p( 0.01)
      H   17            1S( 0.79)
      H   18            1S( 0.79)
      H   19            1S( 0.77)


 NATURAL BOND ORBITAL ANALYSIS:

                       Occupancies       Lewis Structure    Low   High
           Occ.    -------------------  -----------------   occ   occ
  Cycle   Thresh.   Lewis   Non-Lewis     CR  BD  3C  LP    (L)   (NL)   Dev
 =============================================================================
   1(1)    1.90    79.73123   4.26877     12  23   0   7     7      5    0.44
   2(2)    1.90    79.73123   4.26877     12  23   0   7     7      5    0.44
   3(1)    1.80    80.02446   3.97554     12  22   0   8     4      5    0.44
   4(2)    1.80    80.02446   3.97554     12  22   0   8     4      5    0.44
   5(1)    1.70    80.13893   3.86107     12  23   0   7     3      5    0.44
   6(2)    1.70    80.13893   3.86107     12  23   0   7     3      5    0.44
   7(1)    1.60    81.88162   2.11838     12  25   0   5     0      5    0.42
   8(2)    1.60    81.81783   2.18217     12  25   0   5     0      5    0.44
   9(3)    1.60    81.88162   2.11838     12  25   0   5     0      5    0.42
  10(1)    1.50    81.88162   2.11838     12  25   0   5     0      5    0.42
  11(2)    1.50    81.81783   2.18217     12  25   0   5     0      5    0.44
  12(3)    1.50    81.88162   2.11838     12  25   0   5     0      5    0.42
  13(1)    1.60    81.88162   2.11838     12  25   0   5     0      5    0.42
 -----------------------------------------------------------------------------

 Structure accepted: RESONANCE keyword permits strongly delocalized structure

 WARNING:  1 low occupancy (<1.9990e) core orbital  found on  C    1
           1 low occupancy (<1.9990e) core orbital  found on  C    2
           1 low occupancy (<1.9990e) core orbital  found on  C    3
           1 low occupancy (<1.9990e) core orbital  found on  C    4
           1 low occupancy (<1.9990e) core orbital  found on  C    5
           1 low occupancy (<1.9990e) core orbital  found on  C    6

 --------------------------------------------------------
   Core                     23.98981 ( 99.958% of  24)
   Valence Lewis            57.89182 ( 96.486% of  60)
  ==================       ============================
   Total Lewis              81.88162 ( 97.478% of  84)
  -----------------------------------------------------
   Valence non-Lewis         1.94180 (  2.312% of  84)
   Rydberg non-Lewis         0.17658 (  0.210% of  84)
  ==================       ============================
   Total non-Lewis           2.11838 (  2.522% of  84)
 --------------------------------------------------------


       (Occupancy)   Bond orbital/ Coefficients/ Hybrids
 ---------------------------------------------------------------------------------
     1. (1.97032) BD ( 1) C   1 - C   2  
                ( 49.14%)   0.7010* C   1 s( 35.14%)p 1.84( 64.82%)d 0.00(  0.04%)
                                            0.0001  0.5927  0.0095  0.6802 -0.0116
                                            0.4288  0.0395  0.0005  0.0000  0.0133
                                            0.0000  0.0000  0.0106 -0.0118
                ( 50.86%)   0.7132* C   2 s( 37.14%)p 1.69( 62.82%)d 0.00(  0.04%)
                                           -0.0002  0.6093  0.0112 -0.6856 -0.0282
                                           -0.3956  0.0297 -0.0002  0.0000  0.0145
                                            0.0000  0.0000  0.0042 -0.0122
     2. (1.97761) BD ( 1) C   1 - C   6  
                ( 50.16%)   0.7082* C   1 s( 35.69%)p 1.80( 64.27%)d 0.00(  0.04%)
                                            0.0000  0.5974  0.0084 -0.0160 -0.0401
                                           -0.8004 -0.0124 -0.0001  0.0000 -0.0030
                                            0.0000  0.0000 -0.0158 -0.0115
                ( 49.84%)   0.7060* C   6 s( 35.54%)p 1.81( 64.42%)d 0.00(  0.04%)
                                            0.0000  0.5961  0.0095 -0.0353 -0.0403
                                            0.8007  0.0133  0.0000  0.0000  0.0021
                                            0.0000  0.0000 -0.0161 -0.0119
     3. (1.65535) BD ( 2) C   1 - C   6  
                ( 47.75%)   0.6910* C   1 s(  0.00%)p 1.00( 99.94%)d 0.00(  0.06%)
                                            0.0000  0.0000  0.0000 -0.0005  0.0000
                                           -0.0002  0.0000  0.9997 -0.0101  0.0000
                                            0.0132 -0.0202  0.0000  0.0000
                ( 52.25%)   0.7228* C   6 s(  0.00%)p 1.00( 99.95%)d 0.00(  0.05%)
                                            0.0000 -0.0001  0.0000 -0.0005  0.0000
                                            0.0000  0.0000  0.9997 -0.0117  0.0000
                                            0.0138  0.0181  0.0000  0.0000
     4. (1.97766) BD ( 1) C   1 - H   7  
                ( 62.80%)   0.7924* C   1 s( 29.09%)p 2.44( 70.89%)d 0.00(  0.02%)
                                            0.0003 -0.5391  0.0145  0.7317 -0.0087
                                           -0.4165  0.0052  0.0003  0.0000  0.0106
                                            0.0000  0.0000 -0.0060  0.0079
                ( 37.20%)   0.6099* H   7 s( 99.89%)p 0.00(  0.11%)
                                           -0.9995  0.0022 -0.0286  0.0155  0.0000
     5. (1.97209) BD ( 1) C   2 - C   3  
                ( 48.27%)   0.6947* C   2 s( 34.59%)p 1.89( 65.36%)d 0.00(  0.05%)
                                            0.0001  0.5880  0.0117  0.7266  0.0214
                                           -0.3529  0.0243  0.0000  0.0000 -0.0144
                                            0.0000  0.0000  0.0095 -0.0131
                ( 51.73%)   0.7193* C   3 s( 41.51%)p 1.41( 58.46%)d 0.00(  0.03%)
                                           -0.0002  0.6443  0.0002 -0.6043  0.0215
                                            0.4675  0.0204  0.0001  0.0000 -0.0105
                                            0.0000  0.0000  0.0077 -0.0114
     6. (1.66255) BD ( 2) C   2 - C   3  
                ( 52.08%)   0.7217* C   2 s(  0.00%)p 1.00( 99.94%)d 0.00(  0.06%)
                                            0.0000  0.0003  0.0000 -0.0001  0.0000
                                            0.0002  0.0000  0.9997 -0.0031  0.0000
                                            0.0107 -0.0212  0.0000  0.0000
                ( 47.92%)   0.6922* C   3 s(  0.00%)p 1.00( 99.97%)d 0.00(  0.03%)
                                            0.0000 -0.0001  0.0000  0.0001  0.0000
                                            0.0001  0.0000  0.9998  0.0014  0.0000
                                           -0.0183  0.0006  0.0000  0.0000
     7. (1.97737) BD ( 1) C   2 - H   8  
                ( 63.03%)   0.7939* C   2 s( 28.19%)p 2.55( 71.79%)d 0.00(  0.02%)
                                           -0.0002  0.5306 -0.0183 -0.0172 -0.0104
                                            0.8470 -0.0070 -0.0003  0.0000  0.0008
                                            0.0000  0.0000 -0.0116 -0.0087
                ( 36.97%)   0.6080* H   8 s( 99.90%)p 0.00(  0.10%)
                                            0.9995 -0.0018  0.0010 -0.0322  0.0000
     8. (1.95943) BD ( 1) C   3 - C   4  
                ( 50.14%)   0.7081* C   3 s( 33.09%)p 2.02( 66.87%)d 0.00(  0.04%)
                                            0.0001 -0.5752  0.0048  0.0184 -0.0045
                                            0.8174 -0.0111 -0.0002  0.0000  0.0031
                                            0.0000  0.0000  0.0151  0.0134
                ( 49.86%)   0.7061* C   4 s( 31.41%)p 2.18( 68.54%)d 0.00(  0.04%)
                                            0.0000 -0.5604 -0.0060  0.0499 -0.0005
                                           -0.8264 -0.0062  0.0002  0.0000 -0.0018
                                            0.0000  0.0000  0.0155  0.0143
     9. (1.98060) BD ( 1) C   3 - N  13  
                ( 36.97%)   0.6081* C   3 s( 25.23%)p 2.96( 74.66%)d 0.00(  0.11%)
                                           -0.0001  0.5022  0.0115  0.7961  0.0033
                                            0.3354  0.0191 -0.0001  0.0000  0.0117
                                            0.0000  0.0000  0.0257 -0.0175
                ( 63.03%)   0.7939* N  13 s( 38.06%)p 1.63( 61.90%)d 0.00(  0.04%)
                                            0.0002  0.6169  0.0043 -0.7471  0.0039
                                           -0.2464 -0.0079  0.0000  0.0000  0.0058
                                            0.0000  0.0000  0.0136 -0.0138
    10. (1.97247) BD ( 1) C   4 - C   5  
                ( 51.61%)   0.7184* C   4 s( 39.52%)p 1.53( 60.45%)d 0.00(  0.03%)
                                           -0.0001  0.6286  0.0048 -0.6233  0.0104
                                           -0.4639 -0.0268  0.0000  0.0000  0.0105
                                            0.0000  0.0000  0.0084 -0.0113
                ( 48.39%)   0.6957* C   5 s( 35.09%)p 1.85( 64.87%)d 0.00(  0.04%)
                                            0.0000  0.5923  0.0087  0.7112  0.0189
                                            0.3765 -0.0272  0.0002  0.0000  0.0152
                                            0.0000  0.0000  0.0075 -0.0122
    11. (1.66754) BD ( 2) C   4 - C   5  
                ( 54.65%)   0.7392* C   4 s(  0.00%)p 1.00( 99.98%)d 0.00(  0.02%)
                                            0.0000  0.0001  0.0000  0.0000  0.0000
                                            0.0002  0.0000  0.9999  0.0025  0.0000
                                           -0.0131  0.0024  0.0000  0.0000
                ( 45.35%)   0.6734* C   5 s(  0.00%)p 1.00( 99.94%)d 0.00(  0.06%)
                                            0.0000  0.0000  0.0000 -0.0004  0.0000
                                            0.0002  0.0000  0.9997  0.0031  0.0000
                                            0.0120  0.0213  0.0000  0.0000
    12. (1.97310) BD ( 1) C   4 - C  11  
                ( 51.95%)   0.7208* C   4 s( 28.94%)p 2.45( 71.01%)d 0.00(  0.04%)
                                           -0.0001  0.5380 -0.0046  0.7797 -0.0307
                                           -0.3174 -0.0246  0.0000  0.0000 -0.0031
                                            0.0000  0.0000  0.0168 -0.0111
                ( 48.05%)   0.6932* C  11 s( 36.74%)p 1.72( 63.22%)d 0.00(  0.04%)
                                            0.0000  0.6061  0.0079 -0.7769  0.0099
                                            0.1670 -0.0257  0.0002  0.0000 -0.0083
                                            0.0000  0.0000  0.0170 -0.0084
    13. (1.97489) BD ( 1) C   5 - C   6  
                ( 50.63%)   0.7115* C   5 s( 36.55%)p 1.74( 63.41%)d 0.00(  0.04%)
                                            0.0000  0.6044  0.0110 -0.7019 -0.0277
                                            0.3738 -0.0320 -0.0004  0.0000 -0.0148
                                            0.0000  0.0000  0.0058 -0.0115
                ( 49.37%)   0.7027* C   6 s( 35.31%)p 1.83( 64.65%)d 0.00(  0.04%)
                                            0.0000  0.5941  0.0086  0.6894 -0.0095
                                           -0.4117 -0.0405  0.0004  0.0000 -0.0126
                                            0.0000  0.0000  0.0109 -0.0121
    14. (1.97869) BD ( 1) C   5 - H   9  
                ( 62.87%)   0.7929* C   5 s( 28.27%)p 2.54( 71.71%)d 0.00(  0.02%)
                                            0.0003 -0.5315  0.0155 -0.0063  0.0053
                                            0.8467 -0.0096 -0.0002  0.0000  0.0005
                                            0.0000  0.0000  0.0124  0.0080
                ( 37.13%)   0.6094* H   9 s( 99.89%)p 0.00(  0.11%)
                                           -0.9995  0.0033  0.0009 -0.0326  0.0000
    15. (1.97846) BD ( 1) C   6 - H  10  
                ( 62.64%)   0.7914* C   6 s( 29.07%)p 2.44( 70.91%)d 0.00(  0.02%)
                                            0.0003 -0.5390  0.0147  0.7224 -0.0073
                                            0.4326 -0.0042  0.0003  0.0000 -0.0105
                                            0.0000  0.0000 -0.0055  0.0082
                ( 37.36%)   0.6113* H  10 s( 99.90%)p 0.00(  0.10%)
                                           -0.9995  0.0022 -0.0277 -0.0162  0.0000
    16. (1.97846) BD ( 1) C  11 - C  12  
                ( 52.32%)   0.7233* C  11 s( 35.02%)p 1.85( 64.93%)d 0.00(  0.05%)
                                            0.0000  0.5917  0.0087  0.5822  0.0090
                                            0.5563 -0.0275 -0.0003  0.0000  0.0216
                                            0.0000  0.0000 -0.0007 -0.0085
                ( 47.68%)   0.6905* C  12 s( 31.85%)p 2.14( 68.07%)d 0.00(  0.08%)
                                            0.0000  0.5642  0.0126 -0.4880  0.0305
                                           -0.6644 -0.0123  0.0002  0.0000  0.0272
                                            0.0000  0.0000  0.0012 -0.0094
    17. (1.99540) BD ( 1) C  11 - O  15  
                ( 33.15%)   0.5758* C  11 s( 27.87%)p 2.58( 71.91%)d 0.01(  0.22%)
                                            0.0000 -0.5259  0.0461 -0.2378 -0.0252
                                            0.8107  0.0683 -0.0001  0.0000  0.0226
                                            0.0000  0.0000  0.0347  0.0228
                ( 66.85%)   0.8176* O  15 s( 42.99%)p 1.32( 56.92%)d 0.00(  0.09%)
                                            0.0000 -0.6555  0.0166  0.2053  0.0040
                                           -0.7259 -0.0134  0.0002  0.0000  0.0140
                                            0.0000  0.0000  0.0229  0.0124
    18. (1.95669) BD ( 2) C  11 - O  15  
                ( 35.51%)   0.5959* C  11 s(  0.00%)p 1.00( 99.70%)d 0.00(  0.30%)
                                            0.0000  0.0000  0.0000  0.0003  0.0000
                                            0.0002  0.0000  0.9982 -0.0224  0.0000
                                            0.0175 -0.0524  0.0000  0.0000
                ( 64.49%)   0.8030* O  15 s(  0.00%)p 1.00( 99.85%)d 0.00(  0.15%)
                                            0.0000  0.0000  0.0000  0.0003  0.0000
                                            0.0003  0.0000  0.9992  0.0089  0.0000
                                           -0.0105  0.0370  0.0000  0.0000
    19. (1.98252) BD ( 1) C  12 - N  13  
                ( 35.07%)   0.5922* C  12 s( 28.79%)p 2.47( 71.10%)d 0.00(  0.12%)
                                           -0.0001  0.5364  0.0131 -0.3949  0.0105
                                            0.7448  0.0157  0.0001  0.0000 -0.0320
                                            0.0000  0.0000  0.0022 -0.0123
                ( 64.93%)   0.8058* N  13 s( 29.53%)p 2.39( 70.44%)d 0.00(  0.03%)
                                            0.0002  0.5434 -0.0082  0.6313  0.0007
                                           -0.5528 -0.0181 -0.0003  0.0000 -0.0128
                                            0.0000  0.0000  0.0030 -0.0105
    20. (1.99572) BD ( 1) C  12 - O  14  
                ( 34.65%)   0.5886* C  12 s( 38.96%)p 1.56( 60.85%)d 0.01(  0.19%)
                                           -0.0002  0.6230 -0.0384  0.7760  0.0700
                                           -0.0385 -0.0009 -0.0003  0.0000 -0.0107
                                            0.0000  0.0000  0.0374 -0.0209
                ( 65.35%)   0.8084* O  14 s( 37.51%)p 1.66( 62.40%)d 0.00(  0.10%)
                                            0.0000  0.6121 -0.0191 -0.7250 -0.0114
                                            0.3132  0.0071  0.0000  0.0000 -0.0184
                                            0.0000  0.0000  0.0209 -0.0142
    21. (1.98114) BD ( 2) C  12 - O  14  
                ( 30.67%)   0.5538* C  12 s(  0.00%)p 1.00( 99.60%)d 0.00(  0.40%)
                                            0.0000  0.0000  0.0000  0.0003  0.0000
                                            0.0001  0.0000  0.9978 -0.0199  0.0000
                                            0.0601 -0.0196  0.0000  0.0000
                ( 69.33%)   0.8327* O  14 s(  0.00%)p 1.00( 99.85%)d 0.00(  0.15%)
                                            0.0000  0.0001  0.0000  0.0001  0.0000
                                            0.0001  0.0000  0.9992  0.0058  0.0000
                                           -0.0370  0.0101  0.0000  0.0000
    22. (1.99156) BD ( 1) N  13 - C  16  
                ( 64.36%)   0.8022* N  13 s( 32.36%)p 2.09( 67.61%)d 0.00(  0.03%)
                                            0.0000  0.5688  0.0111  0.2072 -0.0098
                                            0.7956 -0.0015  0.0002  0.0000  0.0041
                                            0.0000  0.0000 -0.0125 -0.0115
                ( 35.64%)   0.5970* C  16 s( 22.57%)p 3.42( 77.30%)d 0.01(  0.13%)
                                            0.0002  0.4747  0.0180 -0.2049  0.0048
                                           -0.8544 -0.0322 -0.0002  0.0000  0.0132
                                            0.0000  0.0000 -0.0273 -0.0182
    23. (1.98862) BD ( 1) C  16 - H  17  
                ( 60.75%)   0.7794* C  16 s( 25.69%)p 2.89( 74.27%)d 0.00(  0.04%)
                                            0.0000  0.5069 -0.0053 -0.3348  0.0151
                                            0.3613  0.0115 -0.7069  0.0030 -0.0045
                                            0.0123 -0.0101  0.0012  0.0104
                ( 39.25%)   0.6265* H  17 s( 99.91%)p 0.00(  0.09%)
                                            0.9995 -0.0019  0.0101 -0.0142  0.0251
    24. (1.98862) BD ( 1) C  16 - H  18  
                ( 60.75%)   0.7794* C  16 s( 25.69%)p 2.89( 74.27%)d 0.00(  0.04%)
                                            0.0000  0.5069 -0.0053 -0.3350  0.0151
                                            0.3610  0.0115  0.7070 -0.0030 -0.0045
                                           -0.0123  0.0101  0.0012  0.0104
                ( 39.25%)   0.6265* H  18 s( 99.91%)p 0.00(  0.09%)
                                            0.9995 -0.0019  0.0101 -0.0142 -0.0251
    25. (1.98960) BD ( 1) C  16 - H  19  
                ( 61.16%)   0.7821* C  16 s( 26.07%)p 2.83( 73.90%)d 0.00(  0.04%)
                                            0.0000  0.5105  0.0020  0.8559 -0.0147
                                            0.0775  0.0141  0.0001  0.0000 -0.0004
                                            0.0000  0.0000  0.0168 -0.0099
                ( 38.84%)   0.6232* H  19 s( 99.90%)p 0.00(  0.10%)
                                            0.9995 -0.0011 -0.0304 -0.0063  0.0000
    26. (1.99899) CR ( 1) C   1           s(100.00%)p 0.00(  0.00%)
                                            1.0000  0.0001  0.0000 -0.0003  0.0000
                                            0.0001  0.0000  0.0000  0.0000  0.0000
                                            0.0000  0.0000  0.0000  0.0000
    27. (1.99890) CR ( 1) C   2           s(100.00%)p 0.00(  0.00%)
                                            1.0000  0.0002  0.0000 -0.0002  0.0000
                                            0.0001  0.0000  0.0000  0.0000  0.0000
                                            0.0000  0.0000  0.0000  0.0000
    28. (1.99874) CR ( 1) C   3           s(100.00%)
                                            1.0000  0.0002  0.0000  0.0000  0.0000
                                            0.0001  0.0000  0.0000  0.0000  0.0000
                                            0.0000  0.0000  0.0000  0.0000
    29. (1.99874) CR ( 1) C   4           s(100.00%)
                                            1.0000  0.0001  0.0000  0.0000  0.0000
                                           -0.0001  0.0000  0.0000  0.0000  0.0000
                                            0.0000  0.0000  0.0000  0.0000
    30. (1.99895) CR ( 1) C   5           s(100.00%)p 0.00(  0.00%)
                                            1.0000  0.0001  0.0000  0.0000  0.0000
                                           -0.0002  0.0000  0.0000  0.0000  0.0000
                                            0.0000  0.0000  0.0000  0.0000
    31. (1.99899) CR ( 1) C   6           s(100.00%)p 0.00(  0.00%)
                                            1.0000  0.0001  0.0000 -0.0003  0.0000
                                           -0.0001  0.0000  0.0000  0.0000  0.0000
                                            0.0000  0.0000  0.0000  0.0000
    32. (1.99919) CR ( 1) C  11           s(100.00%)
                                            1.0000  0.0000  0.0000  0.0000  0.0000
                                            0.0000  0.0000  0.0000  0.0000  0.0000
                                            0.0000  0.0000  0.0000  0.0000
    33. (1.99920) CR ( 1) C  12           s(100.00%)p 0.00(  0.00%)
                                            1.0000  0.0001  0.0000  0.0001  0.0000
                                            0.0001  0.0000  0.0000  0.0000  0.0000
                                            0.0000  0.0000  0.0000  0.0000
    34. (1.99924) CR ( 1) N  13           s(100.00%)p 0.00(  0.00%)
                                            1.0000 -0.0002  0.0000  0.0000  0.0000
                                            0.0001  0.0000  0.0000  0.0000  0.0000
                                            0.0000  0.0000  0.0000  0.0000
    35. (1.99975) CR ( 1) O  14           s(100.00%)p 0.00(  0.00%)
                                            1.0000 -0.0004  0.0000 -0.0003  0.0000
                                            0.0002  0.0000  0.0000  0.0000  0.0000
                                            0.0000  0.0000  0.0000  0.0000
    36. (1.99977) CR ( 1) O  15           s(100.00%)p 0.00(  0.00%)
                                            1.0000 -0.0003  0.0000 -0.0001  0.0000
                                            0.0003  0.0000  0.0000  0.0000  0.0000
                                            0.0000  0.0000  0.0000  0.0000
    37. (1.99935) CR ( 1) C  16           s(100.00%)p 0.00(  0.00%)
                                            1.0000 -0.0001  0.0000  0.0001  0.0000
                                            0.0002  0.0000  0.0000  0.0000  0.0000
                                            0.0000  0.0000  0.0000  0.0000
    38. (1.67277) LP ( 1) N  13           s(  0.00%)p 1.00(100.00%)d 0.00(  0.00%)
                                            0.0000  0.0001  0.0000  0.0002  0.0000
                                           -0.0003  0.0000  1.0000 -0.0068  0.0000
                                           -0.0008 -0.0061  0.0000  0.0000
    39. (1.97671) LP ( 1) O  14           s( 58.59%)p 0.71( 41.39%)d 0.00(  0.01%)
                                            0.0005  0.7654  0.0108  0.6434 -0.0025
                                           -0.0049 -0.0020 -0.0001  0.0000  0.0010
                                            0.0000  0.0000 -0.0100  0.0067
    40. (1.82011) LP ( 2) O  14           s(  3.93%)p24.44( 95.99%)d 0.02(  0.08%)
                                            0.0002  0.1982 -0.0022 -0.2427 -0.0019
                                           -0.9492  0.0068  0.0001  0.0000  0.0238
                                            0.0000  0.0000  0.0163 -0.0004
    41. (1.98087) LP ( 1) O  15           s( 57.02%)p 0.75( 42.96%)d 0.00(  0.02%)
                                            0.0005  0.7550  0.0096  0.1861  0.0004
                                           -0.6285  0.0006  0.0001  0.0000  0.0054
                                            0.0000  0.0000  0.0080  0.0083
    42. (1.91489) LP ( 2) O  15           s(  0.00%)p 1.00( 99.93%)d 0.00(  0.06%)
                                            0.0000  0.0060  0.0014 -0.9604  0.0110
                                           -0.2770  0.0034  0.0004  0.0000 -0.0216
                                            0.0000  0.0000  0.0136 -0.0002
    43. (0.00516) RY*( 1) C   1           s(  0.09%)p99.99( 92.97%)d74.59(  6.94%)
                                            0.0000  0.0275  0.0131  0.0301  0.8129
                                           -0.0141 -0.5175  0.0000  0.0003 -0.2204
                                            0.0000 -0.0001  0.1401 -0.0337
    44. (0.00283) RY*( 2) C   1           s(  0.00%)p 1.00( 98.92%)d 0.01(  1.08%)
                                            0.0000  0.0026  0.0012 -0.0174  0.5270
                                           -0.0354  0.8425  0.0000  0.0011 -0.0775
                                            0.0000 -0.0002 -0.0692 -0.0050
[...]
 .00486411,-0.00001721,0.00008628,-0.07018760,0.00017576,-0.00029000,0.
 16818963,-0.05951575,0.03227361,-0.00003749,0.06159309,0.02510996,0.00
 000743,-0.18182675,0.04684543,-0.00006698,0.83149631,0.02286679,-0.018
 03256,0.00001465,-0.02120920,-0.04525282,0.00002030,0.10563205,-0.2666
 0145,0.00014077,-0.01943388,0.62245927,-0.00003323,0.00001891,-0.00744
 967,0.00003152,0.00003948,0.01195491,-0.00009914,0.00011663,-0.0729929
 3,0.00030657,-0.00025107,0.12666496,0.07577410,-0.02703112,0.00004119,
 -0.05522988,-0.03493687,-0.00000252,-0.02544975,0.08572731,-0.00005681
 ,-0.37584362,-0.01147609,-0.00012698,0.72169932,0.03545810,-0.05994297
 ,0.00004936,-0.03562225,-0.02233391,-0.00000589,0.02951727,0.04873350,
 -0.00001013,0.03650994,-0.12143885,0.00004521,-0.04302712,0.74242597,0
 .00000941,0.00002319,0.00786339,-0.00000216,-0.00000565,-0.00560745,-0
 .00002747,0.00001281,0.00520035,-0.00015147,0.00002566,-0.06130988,0.0
 0025702,-0.00031992,0.14901346,-0.19738177,0.14013048,-0.00012334,-0.0
 2833823,0.02383619,-0.00002726,0.00633956,0.00377074,0.00000356,-0.024
 05679,-0.02954175,0.00000036,-0.17871172,-0.13053161,0.00002354,0.7661
 6386,0.05663117,-0.28599195,0.00013360,0.08339443,0.04730101,0.0000145
 4,-0.00137250,-0.08988810,0.00004127,-0.09066384,0.02253859,-0.0000423
 6,-0.05003361,-0.30649799,0.00010370,0.00689933,0.67723137,-0.00008063
 ,0.00016786,-0.06956238,-0.00005772,-0.00000988,0.00916232,0.00000635,
 0.00004354,-0.00774154,0.00003103,-0.00001741,0.01229793,-0.00001704,0
 .00007194,-0.06878109,0.00024780,-0.00027645,0.13766791,-0.12412612,-0
 .12125839,0.00002955,-0.00876523,-0.02664560,0.00000768,-0.00526695,0.
 00037287,-0.00000519,-0.00084086,0.00075467,-0.00000029,-0.00092488,0.
 00351087,-0.00000505,0.01154959,0.01572181,-0.00000589,0.12644162,-0.1
 2122613,-0.28612588,0.00007399,0.00277756,0.00399611,0.00000204,0.0011
 9323,0.00157532,0.00000340,0.00085349,0.00046051,-0.00000043,0.0033645
 8,-0.00301780,0.00000649,-0.01434258,-0.01529345,0.00000513,0.12864022
 ,0.29774466,0.00002988,0.00007370,-0.04392053,-0.00000757,-0.00000997,
 0.00580657,-0.00000559,0.00000331,0.00732521,-0.00000015,-0.00000060,-
 0.00106005,-0.00000528,0.00000639,0.00713446,0.00000941,0.00001781,0.0
 0607400,-0.00002607,-0.00008478,0.02855546,-0.00912760,0.02636018,-0.0
 0001826,-0.13604333,0.12964812,-0.00010489,0.01227499,-0.01293340,0.00
 000979,-0.00099989,-0.00236110,-0.00000190,-0.00092842,-0.00080687,0.0
 0000031,-0.00459643,-0.00143012,-0.00000390,0.00137708,-0.00011286,0.0
 0000233,0.13902070,-0.00324501,0.00601275,-0.00000272,0.13029818,-0.27
 368886,0.00017073,0.01584059,-0.01577571,0.00001664,-0.00375898,-0.002
 41221,0.00000293,-0.00098542,0.00010058,-0.00000080,-0.00104780,0.0015
 2935,0.00000231,0.00024618,0.00039998,-0.00000225,-0.13892562,0.283706
 29,-0.00000350,0.00000926,0.00320238,-0.00010492,0.00017056,-0.0370364
 7,-0.00000472,0.00000452,0.00423592,-0.00000130,0.00000367,0.00666839,
 0.00000046,-0.00000068,-0.00063633,-0.00000415,0.00000216,0.00702096,0
 .00000216,-0.00000244,-0.00430746,0.00011514,-0.00018493,0.02566120,-0
 .00084451,-0.00306206,-0.00000170,-0.00045783,-0.00055993,0.00000043,-
 0.00409716,-0.00201006,-0.00000398,-0.00893744,0.02632500,-0.00001836,
 -0.13679137,0.12988435,-0.00010347,0.01221504,-0.01336844,0.00000929,0
 .00042569,-0.00067042,0.00000068,0.00005837,0.00007384,0.00000042,0.13
 723056,-0.00340552,-0.00299720,0.00000388,-0.00066201,0.00013629,-0.00
 000077,-0.00153075,0.00114391,0.00000280,-0.00101749,0.00600719,-0.000
 00165,0.12802541,-0.27171048,0.00016688,0.01609984,-0.01383953,0.00001
 629,0.00074040,-0.00076338,0.00000050,0.00008806,-0.00003122,-0.000000
 49,-0.13920821,0.28076804,-0.00000137,0.00000413,0.00727166,0.00000054
 ,-0.00000080,-0.00079198,-0.00000431,0.00000237,0.00799449,-0.00000481
 ,0.00001005,0.00383449,-0.00010207,0.00016652,-0.04205251,-0.00000578,
 0.00000503,0.00603199,-0.00000007,-0.00000005,-0.00038782,0.00000040,-
 0.00000047,-0.00106895,0.00011411,-0.00018326,0.02720682,-0.00993351,-
 0.00394589,-0.00000334,0.00033995,0.00257834,-0.00000388,0.00071196,0.
 00036889,0.00000034,0.00042296,-0.00273565,-0.00000110,-0.00766235,0.0
 0267716,-0.00000595,-0.34996724,-0.01459921,-0.00011718,0.00070303,-0.
 00018305,0.00000211,-0.00052928,-0.00020399,-0.00000021,0.00057887,0.0
 0017263,0.00000189,0.36537553,0.02686829,0.00505551,0.00000992,0.00214
 212,-0.00393889,0.00000644,-0.00008055,-0.00140870,0.00000037,-0.00213
 535,-0.00489043,0.00000510,-0.02798341,0.00316770,-0.00001124,-0.01458
 137,-0.05823972,0.00000552,-0.00050141,0.00099316,-0.00000300,0.001194
 35,0.00016731,0.00000053,0.00073656,0.00121495,-0.00000254,0.01543826,
 0.05698634,-0.00001916,-0.00000246,0.00331833,-0.00000378,0.00000658,0
 .00689701,0.00000056,0.00000065,-0.00062707,-0.00000139,0.00000486,0.0
 0677262,0.00000997,0.00000097,0.00336364,-0.00011724,0.00000543,-0.036
 85883,0.00000233,-0.00000281,-0.00441642,-0.00000095,-0.00000005,0.000
 25068,0.00000160,-0.00000269,-0.00432543,0.00012743,-0.00001007,0.0258
 5443,0.00693288,-0.00078395,0.00000363,-0.00659736,0.00034023,-0.00000
 537,0.04343609,0.00874481,0.00001270,-0.17335550,-0.06840298,-0.000010
 25,-0.02549790,-0.03058748,0.00000449,-0.00632828,0.01246553,-0.000012
 44,0.00006894,-0.00006253,0.00000043,0.00054315,0.00157314,-0.00000066
 ,0.00131271,-0.00040447,0.00000286,0.00011694,-0.00076612,0.00000016,0
 .45773833,0.00931255,-0.00345253,0.00000506,0.00202766,-0.00448009,0.0
 0000580,0.00712913,-0.04936942,0.00002655,-0.02726604,-0.14362390,0.00
 002378,-0.02653974,0.00365406,-0.00001237,0.00342197,0.01737212,-0.000
 00388,0.00016415,0.00013841,-0.00000043,-0.00087959,-0.00011960,-0.000
 00017,0.00146878,-0.00108654,-0.00000119,0.00119153,0.00136869,0.00000
 009,-0.05172297,1.10661155,-0.00000115,0.00000078,-0.00103580,-0.00000
 627,0.00000528,0.00557914,0.00001522,0.00002851,0.00070317,-0.00003155
 ,0.00000455,-0.07125395,0.00000188,-0.00001438,0.00043262,-0.00000731,
 0.00000090,0.00766381,0.00000029,-0.00000050,-0.00081931,0.00000064,0.
 00000086,0.00014496,0.00000180,-0.00000206,-0.00479867,-0.00000079,-0.
 00000056,0.00078641,0.00013897,-0.00044102,0.18359762,-0.00316904,-0.0
 0049545,-0.00000147,0.00056671,0.00617796,-0.00000301,-0.03899614,-0.0
 4926629,0.00000808,-0.02618743,-0.00392536,-0.00001938,-0.00093637,-0.
 00064318,-0.00000058,0.00073407,-0.00090101,0.00000167,-0.00018034,0.0
 0016175,-0.00000019,-0.00001998,0.00001525,0.00000003,0.00009696,-0.00
 023901,-0.00000020,0.00022260,0.00006827,0.00000010,-0.13574169,0.0002
 7985,-0.00001596,0.98044384,-0.00541771,0.00088974,-0.00000169,0.01371
 107,0.00793259,0.00000149,-0.08100950,-0.01568612,-0.00002748,-0.01928
 020,-0.00733833,0.00000592,-0.00017673,-0.00481887,0.00000236,0.003539
 54,-0.00279684,0.00000188,0.00075760,0.00027792,0.00000022,-0.00051470
 ,-0.00074870,0.,0.00058961,0.00000672,0.00000062,-0.00023001,-0.000620
 61,0.00000026,0.04279802,-0.08025218,0.00001173,0.24629166,0.67506288,
 0.00000079,0.00000021,0.00155971,-0.00000606,-0.00000132,0.00039886,0.
 00002365,-0.00001321,-0.00344029,-0.00001138,0.00001342,0.02309058,-0.
 00000087,0.00000222,0.00099881,-0.00000051,0.,-0.00213230,-0.00000041,
 -0.00000004,0.00005435,0.00000028,0.00000024,-0.00019728,-0.00000050,0
 .00000029,0.00076542,0.00000024,0.00000026,-0.00010162,-0.00003666,-0.
 00000730,-0.09691912,0.00023163,-0.00012323,0.17254951,0.00421442,0.00
 193668,-0.00000193,-0.02206864,-0.01496290,-0.00000405,-0.27283666,-0.
 02129814,-0.00007713,-0.05157078,0.02405458,-0.00003453,0.00727589,0.0
 0237002,0.00000071,-0.00728050,-0.00206379,-0.00000176,-0.00033624,-0.
 00020560,0.00000002,0.00042526,0.00131261,0.00000085,-0.00095830,0.000
 27229,-0.00000069,-0.00002588,-0.00005012,0.00000026,-0.00694625,0.016
 43377,-0.00001474,-0.12963042,0.00844445,-0.00003491,0.72324797,0.0108
 8740,-0.00948485,0.00001199,-0.05080642,-0.00608001,-0.00001353,0.0077
 3664,-0.12764327,0.00004058,0.04458489,0.02252776,0.00001034,-0.006546
 86,-0.01109020,0.00000533,-0.00498112,0.01002913,-0.00000743,-0.001790
 05,-0.00009386,-0.00000079,0.00134982,0.00168118,-0.00000172,0.0012950
 3,0.00024084,0.00000060,0.00007914,0.00046642,-0.00000057,-0.01346814,
 -0.04327254,0.00001848,0.02604278,-0.28414398,0.00011433,-0.06583735,0
 .72921821,-0.00000673,0.00000872,0.00621627,0.00001400,0.00000102,0.00
 727824,-0.00009048,0.00002729,-0.05111680,-0.00004638,0.00000252,0.006
 70690,0.00000491,0.00000904,0.00433173,-0.00000024,-0.00000655,-0.0004
 4055,0.00000076,-0.00000011,-0.00015350,0.00000084,-0.00000196,-0.0032
 0081,-0.00000110,0.00000007,0.00016359,0.00000025,-0.00000064,-0.00073
 562,-0.00000058,0.00003251,0.01042269,-0.00004175,0.00010821,-0.054730
 93,0.00027764,-0.00031315,0.10700812,0.00265313,-0.00084794,0.00000163
 ,-0.00515260,-0.00302994,-0.00000052,0.02210761,0.00419408,0.00000435,
 -0.01114327,0.01010845,-0.00000814,-0.00043007,-0.00470523,0.00000197,
 -0.00276145,0.00195886,-0.00000229,-0.00027013,-0.00022282,0.,0.000134
 38,0.00000761,0.,-0.00010743,0.00028950,-0.00000012,-0.00033497,-0.000
 36567,0.00000013,-0.03947504,-0.02925231,-0.00001233,-0.66164729,-0.25
 135642,-0.00014326,-0.02423642,-0.07338081,0.00001522,0.71730017,0.002
 87728,-0.00134694,0.00000159,-0.00691805,-0.00203824,-0.00000159,0.022
 79995,-0.00542169,0.00001416,0.00419711,0.00421422,-0.00000165,-0.0015
 4378,-0.00021382,-0.00000005,-0.00148102,0.00237949,-0.00000165,-0.000
 40399,-0.00011313,-0.00000013,0.00021782,0.00028393,0.00000002,-0.0002
 1722,0.00005256,-0.00000018,-0.00002294,0.00013818,-0.00000018,-0.0035
 7840,0.01028896,0.00000213,-0.27087754,-0.22663946,-0.00004234,-0.0772
 5243,-0.06190534,0.00000307,0.33812060,0.26969491,-0.00000004,-0.00000
 005,-0.00055439,0.00000089,-0.00000013,0.00013609,-0.00000388,0.000006
 82,0.00625618,-0.00000547,0.00000058,-0.00323408,0.00000026,-0.0000015
 1,0.00068227,-0.00000062,-0.00000012,0.00036478,0.00000007,-0.00000005
 ,-0.00001387,-0.00000011,-0.00000004,0.00016990,0.00000010,0.00000003,
 -0.00013336,-0.00000007,-0.00000030,-0.00015692,-0.00002372,-0.0000083
 8,0.01922315,-0.00013384,-0.00003456,-0.06318405,0.00001760,0.00000518
 ,0.01732212,0.00014208,0.00003744,0.03081543,-0.00081517,-0.00029392,-
 0.00000024,0.00262653,-0.00067822,0.00000199,-0.01246350,-0.00569740,-
 0.00000350,0.02449723,-0.02737895,0.00001488,0.00239465,0.00323922,0.,
 0.00136323,-0.00058633,0.00000130,0.00003087,-0.00002034,-0.00000005,-
 0.00029917,-0.00053224,0.00000025,0.00053653,0.00090224,-0.00000041,-0
 .00004308,0.00006267,-0.00000007,-0.11550371,0.09510077,-0.00006665,0.
 00767815,0.03430291,-0.00002113,-0.00704223,0.01164170,-0.00000808,0.0
 0413795,-0.00055798,0.00000358,0.09131696,-0.00287679,0.00111155,-0.00
 000167,0.00008986,-0.00155419,0.00000031,-0.01619289,0.00468571,-0.000
 00741,-0.02491197,-0.06909860,0.00002953,0.01507583,0.00314494,0.00000
 398,-0.00061210,-0.00759381,0.00000327,-0.00019476,-0.00011436,0.00000
 006,-0.00015074,-0.00075773,0.00000022,-0.00096981,0.00087056,-0.00000
 054,-0.00054866,-0.00047578,0.00000003,0.11029378,-0.80989721,0.000383
 53,0.01273556,-0.03800918,0.00003236,0.01364776,0.00081014,0.00000452,
 0.00876180,0.00692657,-0.00000127,-0.11197535,0.91056611,0.00000088,-0
 .00000049,0.00016175,0.00000176,-0.00000020,-0.00120103,0.00000076,-0.
 00000352,0.00285258,0.00001471,0.00002908,0.01856890,-0.00000540,-0.00
 000074,-0.00141790,0.00000120,0.00000272,-0.00097077,0.00000004,0.0000
 0012,0.00015326,0.,0.,-0.00019277,0.00000050,0.00000035,0.00059050,0.0
 0000023,0.00000024,-0.00000113,-0.00007381,0.00037676,-0.05957402,-0.0
 0001169,0.00004164,0.02080671,-0.00000898,0.00000411,-0.00080991,-0.00
 000052,-0.00000505,-0.00366887,0.00007845,-0.00044612,0.02524498,-0.00
 082645,0.00091171,-0.00000088,0.00403582,0.00123772,0.00000103,-0.0290
 0783,0.02197650,-0.00002031,0.00019896,-0.00375985,0.00000173,-0.00071
 597,0.00161226,-0.00000152,0.00104281,-0.00023035,0.00000044,0.0001466
 1,0.00004881,0.00000007,-0.00014769,-0.00010622,-0.00000002,-0.0001869
 4,-0.00014160,0.00000009,0.00002201,0.00002337,0.00000001,-0.00244095,
 -0.00131562,-0.00000281,0.01936826,0.01883157,-0.00000066,-0.17892501,
 0.06931891,-0.00007922,-0.00891354,-0.00607262,0.00000007,0.00241309,-
 0.00288004,0.00000258,0.55899075,0.00212065,-0.00090644,0.00000160,-0.
 00466318,0.00017829,-0.00000203,0.00449808,0.01505807,-0.00000645,-0.0
 0402333,0.00073204,-0.00000175,-0.00156778,0.00006467,-0.00000031,-0.0
 0116234,0.00173217,-0.00000119,-0.00021974,-0.00010864,-0.00000008,-0.
 00057175,-0.00033999,-0.00000043,-0.00047830,0.00001991,-0.00000034,-0
 .00006572,-0.00001129,-0.00000009,-0.00558215,-0.00396887,0.00000254,0
 .02431572,-0.03047538,0.00002349,0.07499003,-0.18684708,0.00008770,0.0
 0344712,0.00615810,-0.00000282,0.00161506,0.00070723,0.00000002,0.0611
 4955,0.57467767,-0.00000173,0.00000099,0.00040121,0.00000425,0.0000004
 3,-0.00027042,-0.00001178,0.00000011,-0.00212740,0.00000096,-0.0000014
 0,0.00067090,0.00000056,0.00000117,0.00079143,0.00000087,-0.00000110,0
 .00030104,0.00000019,0.00000005,-0.00005888,0.00000049,-0.00000030,-0.
 00058008,0.00000028,-0.00000020,-0.00027727,0.00000008,-0.00000004,-0.
 00008029,-0.00000090,0.00000447,0.00636098,-0.00000442,0.00001914,-0.0
 0025526,-0.00008108,0.00008594,-0.06314851,-0.00000251,-0.00000665,-0.
 00268808,0.00000051,-0.00000200,-0.00066716,-0.00003510,0.00003036,0.5
 8572762,-0.00074271,0.00024025,0.00034827,0.00071816,-0.00029110,0.000
 03122,0.00267319,-0.00001778,-0.00058237,-0.00135217,0.00042089,0.0001
 4197,0.00097870,0.00037064,0.00007872,0.00002101,-0.00089962,0.0000465
 3,0.00000354,0.00000716,-0.00002816,-0.00061150,-0.00024607,-0.0006294
 3,0.00001668,0.00001678,-0.00006154,0.00000651,-0.00002896,-0.00004846
 ,0.00101728,0.00041772,0.00116908,-0.00492967,-0.00347514,-0.00100893,
 -0.00263041,0.02526525,-0.02186560,0.00259087,0.00054190,-0.00049013,-
 0.00048687,0.00026652,-0.00012192,-0.04979635,-0.01890364,0.02450154,0
 .05114194,-0.00023546,0.00003424,0.00013031,0.00069194,0.00037447,-0.0
 0004096,-0.00285751,-0.00014142,-0.00034054,0.00064501,-0.00039796,-0.
 00000291,-0.00014182,0.00013637,-0.00001534,0.00031106,-0.00003583,-0.
 00000583,0.00003927,0.00002188,-0.00000396,-0.00006882,-0.00014389,-0.
 00013210,0.00002571,-0.00002483,0.00002955,0.00001418,0.00000848,-0.00
 002792,-0.00077363,0.00014789,-0.00075636,0.00415727,0.00326197,0.0020
 6636,0.00477622,-0.02338638,0.01691505,-0.00133525,-0.00098419,0.00002
 602,0.00059987,-0.00084062,0.00004832,-0.01571562,-0.13000270,0.123702
 03,0.00789639,0.14665718,0.00020328,-0.00019665,-0.00013983,-0.0001590
 2,0.00035320,-0.00031630,0.00048479,0.00060888,0.00022474,-0.00017788,
 0.00002575,-0.00011591,-0.00003724,-0.00008679,-0.00000406,-0.00007208
 ,0.00009493,-0.00004126,-0.00000074,-0.00000116,0.00001141,-0.00031244
 ,-0.00022000,0.00001676,-0.00001376,0.00000120,0.00000909,0.00001017,-
 0.00001619,0.00003096,-0.00013241,-0.00020896,-0.00030438,0.00006093,-
 0.00196994,-0.00023745,-0.00365901,-0.00056578,0.00835055,0.00030507,0
 .00031174,-0.00012069,0.00003368,0.00003658,0.00007144,0.02167416,0.12
 713093,-0.23860668,-0.02135290,-0.13742106,0.24642404,-0.00074239,0.00
 023998,-0.00034903,0.00071597,-0.00029172,-0.00003021,0.00267290,-0.00
 001729,0.00058424,-0.00135200,0.00042075,-0.00014332,0.00097877,0.0003
 7047,-0.00007826,0.00002099,-0.00089968,-0.00004559,0.00000353,0.00000
 719,0.00002816,-0.00061494,-0.00024615,0.00062950,0.00001664,0.0000168
 5,0.00006152,0.00000648,-0.00002891,0.00004848,0.00101845,0.00041666,-
 0.00116844,-0.00493169,-0.00347483,0.00100837,-0.00264506,0.02528851,0
 .02183152,0.00259095,0.00054191,0.00049173,-0.00048705,0.00026669,0.00
 012123,-0.04976728,-0.01885391,-0.02436990,0.00032480,0.00146335,0.003
 34674,0.05111961,-0.00023557,0.00003439,-0.00013070,0.00069140,0.00037
 393,0.00004075,-0.00285825,-0.00014136,0.00033911,0.00064497,-0.000397
 94,0.00000369,-0.00014175,0.00013650,0.00001503,0.00031105,-0.00003595
 ,0.00000606,0.00003927,0.00002188,0.00000399,-0.00006981,-0.00014401,0
 .00013230,0.00002574,-0.00002485,-0.00002950,0.00001415,0.00000853,0.0
 0002797,-0.00077439,0.00014868,0.00075511,0.00415883,0.00326117,-0.002
 06644,0.00478790,-0.02340376,-0.01687832,-0.00133501,-0.00098449,-0.00
 002631,0.00059998,-0.00084075,-0.00004695,-0.01566363,-0.13027946,-0.1
 2383229,0.00145099,0.01150963,0.01457082,0.00783934,0.14696075,-0.0002
 0347,0.00019669,-0.00014029,0.00015886,-0.00035429,-0.00031614,-0.0004
 8013,-0.00060845,0.00022531,0.00017645,-0.00002510,-0.00011586,0.00003
 803,0.00008691,-0.00000422,0.00007181,-0.00009554,-0.00004114,0.000000
 69,0.00000115,0.00001143,0.00031211,0.00022003,0.00001708,0.00001373,-
 0.00000115,0.00000917,-0.00001021,0.00001620,0.00003094,0.00013408,0.0
 0020883,-0.00030586,-0.00006801,0.00196433,-0.00023665,0.00364596,0.00
 061618,0.00838301,-0.00030222,-0.00031014,-0.00012024,-0.00003472,-0.0
 0003539,0.00007155,-0.02154468,-0.12726434,-0.23835918,-0.00333739,-0.
 01460200,-0.01763472,0.02122936,0.13753688,0.24614819,-0.00002330,-0.0
 0013643,0.00000004,0.00015205,0.00030533,-0.00000009,0.00056248,0.0038
 5906,-0.00000115,-0.00122632,-0.00035838,-0.00000042,0.00002087,0.0004
 0345,-0.00000026,-0.00002775,-0.00002265,0.00000001,-0.00003975,-0.000
 00767,-0.00000002,0.00008432,-0.00006991,0.00000011,-0.00010710,-0.000
 01494,-0.00000003,-0.00001053,-0.00001200,0.,-0.00029808,-0.00038825,0
 .00000011,-0.00274053,-0.00433122,0.00000033,-0.02803074,-0.00667935,-
 0.00000500,0.00295714,-0.00037061,0.00000151,0.00014559,0.00017534,-0.
 00000002,-0.26549032,-0.11604438,-0.00000231,0.00105699,0.00050785,-0.
 00020135,0.00107131,0.00051478,0.00019975,0.29194368,0.00009582,0.0001
 4024,0.00000002,-0.00027653,-0.00053830,0.00000017,0.00210724,-0.00431
 357,0.00000261,0.00082666,0.00054547,0.00000031,-0.00006104,-0.0004993
 9,0.00000026,-0.00003852,0.00009994,-0.00000008,0.00002663,0.00000066,
 0.00000002,-0.00003297,0.00028054,-0.00000029,0.00011982,0.00001708,0.
 00000001,0.00000084,0.00001016,0.,0.00069169,-0.00020747,0.00000050,0.
 00194292,0.00083666,0.00000070,0.02864402,0.01237762,0.00000103,-0.001
 05663,-0.00048962,-0.00000050,-0.00034371,0.00035942,-0.00000031,-0.12
 922484,-0.11638830,-0.00000072,-0.01303221,-0.00619429,-0.00244749,-0.
 01305919,-0.00620290,0.00244921,0.12266999,0.12016604,0.00000003,-0.00
 000011,0.00004797,0.00000001,0.00000035,-0.00000892,-0.00000116,0.0000
 0369,0.00016196,-0.00000091,-0.00000024,0.00030176,-0.00000007,0.00000
 033,0.00000126,-0.00000002,0.00000004,-0.00001489,-0.00000004,0.,0.000
 01170,0.00000011,-0.00000022,-0.00016806,-0.00000009,-0.00000003,-0.00
 004124,0.,0.,-0.00000170,-0.00000054,-0.00000012,0.00009656,-0.0000019
 3,-0.00000090,0.00121101,-0.00002423,-0.00001010,-0.00184659,0.0000014
 4,-0.00000055,-0.00109536,0.00000020,0.,-0.00001812,0.00000503,0.00000
 317,-0.04713397,0.02320949,0.01043134,0.00238230,-0.02319611,-0.010421
 19,0.00237762,0.00000877,-0.00000544,0.04373671\\-0.00003489,0.0000304
 5,0.,0.00003840,0.00005107,0.00000020,0.00000651,-0.00009181,0.0000037
 9,-0.00002979,0.00000216,0.00000063,0.00005115,0.00003000,-0.00000454,
 0.00000174,-0.00008899,0.00000144,0.00002507,-0.00002217,-0.00000009,0
 .00000336,-0.00001051,-0.00000032,-0.00001827,-0.00002038,0.00000074,0
 .00000013,-0.00000669,0.00000046,-0.00003438,0.00002457,-0.00000307,-0
 .00006830,-0.00003776,0.00000201,-0.00000924,0.00005105,-0.00000212,0.
 00004463,0.00005237,0.00000071,0.00000294,-0.00000979,0.00000151,-0.00
 000673,0.00000503,-0.00000157,0.00001317,0.00001115,-0.00000092,0.0000
 1373,0.00001063,0.00000161,0.00000075,0.00001961,-0.00000049\\\@


 WAR ES EIN GOTT DER DIESE ZEICHEN SCHRIEB?
          - LUDWIG BOLTZMANN, QUOTING GOETHE, ABOUT MAXWELL'S EQUATIONS.
 Job cpu time:       0 days  0 hours 22 minutes  5.3 seconds.
 File lengths (MBytes):  RWF=    125 Int=      0 D2E=      0 Chk=     10 Scr=      1
 Normal termination of Gaussian 09 at Tue Aug 24 15:28:24 2021.
