 Entering Gaussian System, Link 0=g09
 Input=MeNO2_isatin_product_opt.com
 Output=MeNO2_isatin_product_opt.log
 Initial command:
 /apps/applications/gaussian/G09.D01/2/default/g09/l1.exe "/nobackup/chmbnn/Gau-404.inp" -scrdir="/nobackup/chmbnn/"
 Entering Link 1 = /apps/applications/gaussian/G09.D01/2/default/g09/l1.exe PID=       406.
  
 Copyright (c) 1988,1990,1992,1993,1995,1998,2003,2009,2013,
            Gaussian, Inc.  All Rights Reserved.
  
 This is part of the Gaussian(R) 09 program.  It is based on
 the Gaussian(R) 03 system (copyright 2003, Gaussian, Inc.),
 the Gaussian(R) 98 system (copyright 1998, Gaussian, Inc.),
 the Gaussian(R) 94 system (copyright 1995, Gaussian, Inc.),
 the Gaussian 92(TM) system (copyright 1992, Gaussian, Inc.),
 the Gaussian 90(TM) system (copyright 1990, Gaussian, Inc.),
 the Gaussian 88(TM) system (copyright 1988, Gaussian, Inc.),
 the Gaussian 86(TM) system (copyright 1986, Carnegie Mellon
 University), and the Gaussian 82(TM) system (copyright 1983,
 Carnegie Mellon University). Gaussian is a federally registered
 trademark of Gaussian, Inc.
  
 This software contains proprietary and confidential information,
 including trade secrets, belonging to Gaussian, Inc.
  
 This software is provided under written license and may be
 used, copied, transmitted, or stored only in accord with that
 written license.
  
 The following legend is applicable only to US Government
 contracts under FAR:
  
                    RESTRICTED RIGHTS LEGEND
  
 Use, reproduction and disclosure by the US Government is
 subject to restrictions as set forth in subparagraphs (a)
 and (c) of the Commercial Computer Software - Restricted
 Rights clause in FAR 52.227-19.
  
 Gaussian, Inc.
 340 Quinnipiac St., Bldg. 40, Wallingford CT 06492
  
  
 ---------------------------------------------------------------
 Warning -- This program may not be used in any manner that
 competes with the business of Gaussian, Inc. or will provide
 assistance to any competitor of Gaussian, Inc.  The licensee
 of this program is prohibited from giving any competitor of
 Gaussian, Inc. access to this program.  By using this program,
 the user acknowledges that Gaussian, Inc. is engaged in the
 business of creating and licensing software in the field of
 computational chemistry and represents and warrants to the
 licensee that it is not a competitor of Gaussian, Inc. and that
 it will not use this program in any manner prohibited above.
 ---------------------------------------------------------------
  

 Cite this work as:
 Gaussian 09, Revision D.01,
 M. J. Frisch, G. W. Trucks, H. B. Schlegel, G. E. Scuseria, 
 M. A. Robb, J. R. Cheeseman, G. Scalmani, V. Barone, B. Mennucci, 
 G. A. Petersson, H. Nakatsuji, M. Caricato, X. Li, H. P. Hratchian, 
 A. F. Izmaylov, J. Bloino, G. Zheng, J. L. Sonnenberg, M. Hada, 
 M. Ehara, K. Toyota, R. Fukuda, J. Hasegawa, M. Ishida, T. Nakajima, 
 Y. Honda, O. Kitao, H. Nakai, T. Vreven, J. A. Montgomery, Jr., 
 J. E. Peralta, F. Ogliaro, M. Bearpark, J. J. Heyd, E. Brothers, 
 K. N. Kudin, V. N. Staroverov, T. Keith, R. Kobayashi, J. Normand, 
 K. Raghavachari, A. Rendell, J. C. Burant, S. S. Iyengar, J. Tomasi, 
 M. Cossi, N. Rega, J. M. Millam, M. Klene, J. E. Knox, J. B. Cross, 
 V. Bakken, C. Adamo, J. Jaramillo, R. Gomperts, R. E. Stratmann, 
 O. Yazyev, A. J. Austin, R. Cammi, C. Pomelli, J. W. Ochterski, 
 R. L. Martin, K. Morokuma, V. G. Zakrzewski, G. A. Voth, 
 P. Salvador, J. J. Dannenberg, S. Dapprich, A. D. Daniels, 
 O. Farkas, J. B. Foresman, J. V. Ortiz, J. Cioslowski, 
 and D. J. Fox, Gaussian, Inc., Wallingford CT, 2013.
 
 ******************************************
 Gaussian 09:  ES64L-G09RevD.01 24-Apr-2013
                24-Aug-2021 
 ******************************************
 %nprocshared=4
 Will use up to    4 processors via shared memory.
 %chk=MeNO2_isatin_product_opt.chk
 ---------------------------------------------------------------
 # opt=tight freq scrf=(cpcm,solvent=nitromethane) def2svp m062x
 ---------------------------------------------------------------
 1/7=10,14=-1,18=20,19=15,26=3,38=1/1,3;
 2/9=110,12=2,17=6,18=5,40=1/2;
 3/5=43,7=101,11=2,16=1,25=1,30=1,70=2101,71=1,72=15,74=-55/1,2,3;
 4//1;
 5/5=2,38=5,53=15/2;
 6/7=2,8=2,9=2,10=2,28=1/1;
 7//1,2,3,16;
 1/7=10,14=-1,18=20,19=15,26=3/3(2);
 2/9=110/2;
 99//99;
 2/9=110/2;
 3/5=43,7=101,11=2,16=1,25=1,30=1,70=2105,71=1,72=15,74=-55/1,2,3;
 4/5=5,16=3,69=1/1;
 5/5=2,38=5,53=15/2;
 7//1,2,3,16;
 1/7=10,14=-1,18=20,19=15,26=3/3(-5);
 2/9=110/2;
 6/7=2,8=2,9=2,10=2,19=2,28=1/1;
 99/9=1/99;
 --------------------------
 MeNO2 + isatin product opt
 --------------------------
 Symbolic Z-matrix:
 Charge =  0 Multiplicity = 1
 N                     2.23439  -0.57219   1.23716 
 O                     2.56885   0.54887   1.5311 
 O                     2.99584  -1.46845   0.95052 
 C                     0.77486  -0.86138   1.15283 
 H                     0.28809  -0.26999   1.93536 
 H                     0.65647  -1.9377    1.31345 
 H                     3.86474  -0.44456  -0.82122 
 C                    -3.99253  -0.3913    0.21118 
 C                    -3.20628   0.76781   0.15615 
 C                    -1.84296   0.60049  -0.04036 
 C                    -1.26731  -0.67027  -0.16004 
 C                    -2.04898  -1.81022  -0.1081 
 C                    -3.43182  -1.66093   0.0717 
 H                    -5.06881  -0.29277   0.35996 
 H                    -3.65157   1.75796   0.25482 
 H                    -1.59876  -2.79946  -0.21057 
 H                    -4.07205  -2.5427    0.10515 
 C                     0.23089  -0.50309  -0.25708 
 C                     0.35244   1.03461  -0.47191 
 N                    -0.85753   1.59104  -0.18338 
 O                     1.3451    1.63422  -0.83259 
 O                     0.81771  -1.25395  -1.25539 
 C                    -1.12534   3.01144  -0.21466 
 H                    -1.84372   3.25051  -1.0118 
 H                    -1.53184   3.34336   0.75043 
 H                    -0.17863   3.52656  -0.41013 
 O                     3.27205  -0.19826  -1.54491 
 H                     1.75551  -0.96407  -1.38861 
 H                     2.91159   0.67306  -1.2987 
 
 Add virtual bond connecting atoms H28        and O27        Dist= 3.22D+00.

 GradGradGradGradGradGradGradGradGradGradGradGradGradGradGradGradGradGrad
 Berny optimization.
 Initialization pass.
                           ----------------------------
                           !    Initial Parameters    !
                           ! (Angstroms and Degrees)  !
 --------------------------                            --------------------------
 ! Name  Definition              Value          Derivative Info.                !
 --------------------------------------------------------------------------------
 ! R1    R(1,2)                  1.2063         estimate D2E/DX2                !
 ! R2    R(1,3)                  1.2105         estimate D2E/DX2                !
 ! R3    R(1,4)                  1.4903         estimate D2E/DX2                !
 ! R4    R(4,5)                  1.095          estimate D2E/DX2                !
 ! R5    R(4,6)                  1.0947         estimate D2E/DX2                !
 ! R6    R(4,18)                 1.5531         estimate D2E/DX2                !
 ! R7    R(7,27)                 0.9673         estimate D2E/DX2                !
 ! R8    R(8,9)                  1.4017         estimate D2E/DX2                !
 ! R9    R(8,13)                 1.3949         estimate D2E/DX2                !
 ! R10   R(8,14)                 1.091          estimate D2E/DX2                !
 ! R11   R(9,10)                 1.3875         estimate D2E/DX2                !
 ! R12   R(9,15)                 1.0901         estimate D2E/DX2                !
 ! R13   R(10,11)                1.4002         estimate D2E/DX2                !
 ! R14   R(10,20)                1.4045         estimate D2E/DX2                !
 ! R15   R(11,12)                1.3832         estimate D2E/DX2                !
 ! R16   R(11,18)                1.5106         estimate D2E/DX2                !
 ! R17   R(12,13)                1.4025         estimate D2E/DX2                !
 ! R18   R(12,16)                1.0917         estimate D2E/DX2                !
 ! R19   R(13,17)                1.0902         estimate D2E/DX2                !
 ! R20   R(18,19)                1.5574         estimate D2E/DX2                !
 ! R21   R(18,22)                1.3801         estimate D2E/DX2                !
 ! R22   R(19,20)                1.3627         estimate D2E/DX2                !
 ! R23   R(19,21)                1.2145         estimate D2E/DX2                !
 ! R24   R(20,23)                1.4458         estimate D2E/DX2                !
 ! R25   R(22,28)                0.9906         estimate D2E/DX2                !
 ! R26   R(23,24)                1.0994         estimate D2E/DX2                !
 ! R27   R(23,25)                1.0985         estimate D2E/DX2                !
 ! R28   R(23,26)                1.0954         estimate D2E/DX2                !
 ! R29   R(27,28)                1.7061         estimate D2E/DX2                !
 ! R30   R(27,29)                0.9745         estimate D2E/DX2                !
 ! A1    A(2,1,3)              124.849          estimate D2E/DX2                !
 ! A2    A(2,1,4)              117.7542         estimate D2E/DX2                !
 ! A3    A(3,1,4)              117.322          estimate D2E/DX2                !
 ! A4    A(1,4,5)              106.865          estimate D2E/DX2                !
 ! A5    A(1,4,6)              106.7632         estimate D2E/DX2                !
 ! A6    A(1,4,18)             110.4644         estimate D2E/DX2                !
 ! A7    A(5,4,6)              112.2154         estimate D2E/DX2                !
 ! A8    A(5,4,18)             111.6205         estimate D2E/DX2                !
 ! A9    A(6,4,18)             108.7931         estimate D2E/DX2                !
 ! A10   A(9,8,13)             121.5513         estimate D2E/DX2                !
 ! A11   A(9,8,14)             118.9499         estimate D2E/DX2                !
 ! A12   A(13,8,14)            119.4974         estimate D2E/DX2                !
 ! A13   A(8,9,10)             117.1924         estimate D2E/DX2                !
 ! A14   A(8,9,15)             121.2258         estimate D2E/DX2                !
 ! A15   A(10,9,15)            121.5794         estimate D2E/DX2                !
 ! A16   A(9,10,11)            121.7015         estimate D2E/DX2                !
 ! A17   A(9,10,20)            128.2242         estimate D2E/DX2                !
 ! A18   A(11,10,20)           110.0542         estimate D2E/DX2                !
 ! A19   A(10,11,12)           120.8254         estimate D2E/DX2                !
 ! A20   A(10,11,18)           108.2276         estimate D2E/DX2                !
 ! A21   A(12,11,18)           130.8516         estimate D2E/DX2                !
 ! A22   A(11,12,13)           118.3139         estimate D2E/DX2                !
 ! A23   A(11,12,16)           120.6785         estimate D2E/DX2                !
 ! A24   A(13,12,16)           121.0067         estimate D2E/DX2                !
 ! A25   A(8,13,12)            120.4015         estimate D2E/DX2                !
 ! A26   A(8,13,17)            119.8047         estimate D2E/DX2                !
 ! A27   A(12,13,17)           119.7936         estimate D2E/DX2                !
 ! A28   A(4,18,11)            105.2792         estimate D2E/DX2                !
 ! A29   A(4,18,19)            109.0059         estimate D2E/DX2                !
 ! A30   A(4,18,22)            112.4712         estimate D2E/DX2                !
 ! A31   A(11,18,19)           101.2764         estimate D2E/DX2                !
 ! A32   A(11,18,22)           114.0764         estimate D2E/DX2                !
 ! A33   A(19,18,22)           113.8412         estimate D2E/DX2                !
 ! A34   A(18,19,20)           107.7378         estimate D2E/DX2                !
 ! A35   A(18,19,21)           126.3151         estimate D2E/DX2                !
 ! A36   A(20,19,21)           125.9471         estimate D2E/DX2                !
 ! A37   A(10,20,19)           110.8895         estimate D2E/DX2                !
 ! A38   A(10,20,23)           124.4103         estimate D2E/DX2                !
 ! A39   A(19,20,23)           124.1298         estimate D2E/DX2                !
 ! A40   A(18,22,28)           109.9142         estimate D2E/DX2                !
 ! A41   A(20,23,24)           110.5101         estimate D2E/DX2                !
 ! A42   A(20,23,25)           110.2663         estimate D2E/DX2                !
 ! A43   A(20,23,26)           107.8053         estimate D2E/DX2                !
 ! A44   A(24,23,25)           109.2385         estimate D2E/DX2                !
 ! A45   A(24,23,26)           109.4562         estimate D2E/DX2                !
 ! A46   A(25,23,26)           109.5421         estimate D2E/DX2                !
 ! A47   A(7,27,28)            111.2113         estimate D2E/DX2                !
 ! A48   A(7,27,29)            105.3837         estimate D2E/DX2                !
 ! A49   A(28,27,29)            92.8313         estimate D2E/DX2                !
 ! A50   L(22,28,27,1,-1)      176.8784         estimate D2E/DX2                !
 ! A51   L(22,28,27,1,-2)      189.4166         estimate D2E/DX2                !
 ! D1    D(2,1,4,5)            -35.6793         estimate D2E/DX2                !
 ! D2    D(2,1,4,6)           -155.9398         estimate D2E/DX2                !
 ! D3    D(2,1,4,18)            85.9272         estimate D2E/DX2                !
 ! D4    D(3,1,4,5)            147.3131         estimate D2E/DX2                !
 ! D5    D(3,1,4,6)             27.0527         estimate D2E/DX2                !
 ! D6    D(3,1,4,18)           -91.0803         estimate D2E/DX2                !
 ! D7    D(1,4,18,11)         -172.9878         estimate D2E/DX2                !
 ! D8    D(1,4,18,19)          -65.0195         estimate D2E/DX2                !
 ! D9    D(1,4,18,22)           62.217          estimate D2E/DX2                !
 ! D10   D(5,4,18,11)          -54.2369         estimate D2E/DX2                !
 ! D11   D(5,4,18,19)           53.7314         estimate D2E/DX2                !
 ! D12   D(5,4,18,22)         -179.0321         estimate D2E/DX2                !
 ! D13   D(6,4,18,11)           70.1292         estimate D2E/DX2                !
 ! D14   D(6,4,18,19)          178.0975         estimate D2E/DX2                !
 ! D15   D(6,4,18,22)          -54.666          estimate D2E/DX2                !
 ! D16   D(13,8,9,10)           -0.1385         estimate D2E/DX2                !
 ! D17   D(13,8,9,15)          179.3174         estimate D2E/DX2                !
 ! D18   D(14,8,9,10)         -179.7154         estimate D2E/DX2                !
 ! D19   D(14,8,9,15)           -0.2595         estimate D2E/DX2                !
 ! D20   D(9,8,13,12)            1.0119         estimate D2E/DX2                !
 ! D21   D(9,8,13,17)         -179.1416         estimate D2E/DX2                !
 ! D22   D(14,8,13,12)        -179.4134         estimate D2E/DX2                !
 ! D23   D(14,8,13,17)           0.433          estimate D2E/DX2                !
 ! D24   D(8,9,10,11)           -0.905          estimate D2E/DX2                !
 ! D25   D(8,9,10,20)          177.2966         estimate D2E/DX2                !
 ! D26   D(15,9,10,11)         179.6411         estimate D2E/DX2                !
 ! D27   D(15,9,10,20)          -2.1573         estimate D2E/DX2                !
 ! D28   D(9,10,11,12)           1.0952         estimate D2E/DX2                !
 ! D29   D(9,10,11,18)        -175.7206         estimate D2E/DX2                !
 ! D30   D(20,10,11,12)       -177.4009         estimate D2E/DX2                !
 ! D31   D(20,10,11,18)          5.7834         estimate D2E/DX2                !
 ! D32   D(9,10,20,19)        -174.8935         estimate D2E/DX2                !
 ! D33   D(9,10,20,23)          -3.2652         estimate D2E/DX2                !
 ! D34   D(11,10,20,19)          3.4777         estimate D2E/DX2                !
 ! D35   D(11,10,20,23)        175.106          estimate D2E/DX2                !
 ! D36   D(10,11,12,13)         -0.2003         estimate D2E/DX2                !
 ! D37   D(10,11,12,16)        179.4525         estimate D2E/DX2                !
 ! D38   D(18,11,12,13)        175.8001         estimate D2E/DX2                !
 ! D39   D(18,11,12,16)         -4.5472         estimate D2E/DX2                !
 ! D40   D(10,11,18,4)         102.182          estimate D2E/DX2                !
 ! D41   D(10,11,18,19)        -11.3158         estimate D2E/DX2                !
 ! D42   D(10,11,18,22)       -134.0353         estimate D2E/DX2                !
 ! D43   D(12,11,18,4)         -74.2024         estimate D2E/DX2                !
 ! D44   D(12,11,18,19)        172.2998         estimate D2E/DX2                !
 ! D45   D(12,11,18,22)         49.5802         estimate D2E/DX2                !
 ! D46   D(11,12,13,8)          -0.8254         estimate D2E/DX2                !
 ! D47   D(11,12,13,17)        179.3281         estimate D2E/DX2                !
 ! D48   D(16,12,13,8)         179.5231         estimate D2E/DX2                !
 ! D49   D(16,12,13,17)         -0.3234         estimate D2E/DX2                !
 ! D50   D(4,18,19,20)         -97.2579         estimate D2E/DX2                !
 ! D51   D(4,18,19,21)          82.7876         estimate D2E/DX2                !
 ! D52   D(11,18,19,20)         13.4059         estimate D2E/DX2                !
 ! D53   D(11,18,19,21)       -166.5486         estimate D2E/DX2                !
 ! D54   D(22,18,19,20)        136.2876         estimate D2E/DX2                !
 ! D55   D(22,18,19,21)        -43.6669         estimate D2E/DX2                !
 ! D56   D(4,18,22,28)         -71.7433         estimate D2E/DX2                !
 ! D57   D(11,18,22,28)        168.4438         estimate D2E/DX2                !
 ! D58   D(19,18,22,28)         52.8737         estimate D2E/DX2                !
 ! D59   D(18,19,20,10)        -10.9088         estimate D2E/DX2                !
 ! D60   D(18,19,20,23)        177.4348         estimate D2E/DX2                !
 ! D61   D(21,19,20,10)        169.0459         estimate D2E/DX2                !
 ! D62   D(21,19,20,23)         -2.6105         estimate D2E/DX2                !
 ! D63   D(10,20,23,24)        -56.2543         estimate D2E/DX2                !
 ! D64   D(10,20,23,25)         64.6194         estimate D2E/DX2                !
 ! D65   D(10,20,23,26)       -175.836          estimate D2E/DX2                !
 ! D66   D(19,20,23,24)        114.2876         estimate D2E/DX2                !
 ! D67   D(19,20,23,25)       -124.8387         estimate D2E/DX2                !
 ! D68   D(19,20,23,26)         -5.2941         estimate D2E/DX2                !
 ! D69   D(18,22,27,7)          74.5985         estimate D2E/DX2                !
 ! D70   D(18,22,27,29)        -31.7238         estimate D2E/DX2                !
 ! D71   D(7,27,28,29)         107.7042         estimate D2E/DX2                !
 --------------------------------------------------------------------------------
 Trust Radius=3.00D-01 FncErr=1.00D-07 GrdErr=1.00D-06
 Number of steps in this run=    162 maximum allowed number of steps=    174.
 GradGradGradGradGradGradGradGradGradGradGradGradGradGradGradGradGradGrad

                          Input orientation:                          
 ---------------------------------------------------------------------
 Center     Atomic      Atomic             Coordinates (Angstroms)
 Number     Number       Type             X           Y           Z
 ---------------------------------------------------------------------
      1          7           0        2.234390   -0.572190    1.237160
      2          8           0        2.568846    0.548871    1.531101
      3          8           0        2.995844   -1.468452    0.950519
      4          6           0        0.774859   -0.861379    1.152829
      5          1           0        0.288089   -0.269987    1.935364
      6          1           0        0.656465   -1.937698    1.313452
      7          1           0        3.864737   -0.444564   -0.821224
      8          6           0       -3.992526   -0.391295    0.211175
      9          6           0       -3.206282    0.767810    0.156146
     10          6           0       -1.842962    0.600492   -0.040357
     11          6           0       -1.267308   -0.670274   -0.160035
     12          6           0       -2.048979   -1.810224   -0.108104
     13          6           0       -3.431819   -1.660925    0.071700
     14          1           0       -5.068810   -0.292768    0.359956
     15          1           0       -3.651565    1.757957    0.254816
     16          1           0       -1.598759   -2.799463   -0.210572
     17          1           0       -4.072053   -2.542704    0.105151
     18          6           0        0.230886   -0.503090   -0.257075
     19          6           0        0.352439    1.034614   -0.471906
     20          7           0       -0.857532    1.591040   -0.183381
     21          8           0        1.345102    1.634216   -0.832589
     22          8           0        0.817714   -1.253950   -1.255388
     23          6           0       -1.125344    3.011437   -0.214655
     24          1           0       -1.843719    3.250514   -1.011804
     25          1           0       -1.531835    3.343355    0.750428
     26          1           0       -0.178630    3.526560   -0.410133
     27          8           0        3.272049   -0.198256   -1.544909
     28          1           0        1.755509   -0.964071   -1.388610
     29          1           0        2.911588    0.673055   -1.298701
 ---------------------------------------------------------------------
                    Distance matrix (angstroms):
                    1          2          3          4          5
     1  N    0.000000
     2  O    1.206250   0.000000
     3  O    1.210480   2.142194   0.000000
     4  C    1.490293   2.313068   2.311329   0.000000
     5  H    2.089714   2.456788   3.120605   1.095012   0.000000
     6  H    2.088128   3.144455   2.413422   1.094660   1.817618
     7  H    2.628928   2.863508   2.223150   3.690253   4.519034
     8  C    6.313466   6.758529   7.109445   4.882177   4.616406
     9  C    5.706584   5.940584   6.640652   4.415554   4.056263
    10  C    4.430805   4.683609   5.355036   3.227034   3.033576
    11  C    3.771427   4.366043   4.477151   2.435278   2.640111
    12  C    4.657222   5.438440   5.166017   3.234860   3.465542
    13  C    5.886388   6.559042   6.490317   4.416362   4.386988
    14  H    7.360998   7.772627   8.171269   5.924562   5.583798
    15  H    6.406173   6.464078   7.421709   5.221166   4.738953
    16  H    4.663658   5.622606   4.922408   3.353967   3.816214
    17  H    6.703402   7.462755   7.198877   5.236128   5.246500
    18  C    2.500308   3.125740   3.167838   1.553096   2.205538
    19  C    3.007402   3.026622   3.908481   2.532389   2.738809
    20  N    4.032057   3.970596   5.049230   3.234890   3.043838
    21  O    3.153240   2.874466   3.940935   3.239607   3.522049
    22  O    2.946958   3.752486   3.107457   2.440381   3.380767
    23  C    5.122300   4.770633   6.197679   4.525427   4.169906
    24  H    6.025104   5.765065   7.038517   5.333878   5.062048
    25  H    5.454617   5.023363   6.610098   4.812749   4.215737
    26  H    5.033487   4.492621   6.072792   4.754577   4.486976
    27  O    2.992736   3.242612   2.813689   3.735436   4.584917
    28  H    2.697696   3.387510   2.695247   2.726010   3.699173
    29  H    2.905137   2.853186   3.106790   3.595845   4.269807
                    6          7          8          9         10
     6  H    0.000000
     7  H    4.132711   0.000000
     8  C    5.021901   7.924977   0.000000
     9  C    4.855919   7.240470   1.401689   0.000000
    10  C    3.810819   5.854889   2.380659   1.387534   0.000000
    11  C    2.734672   5.179382   2.764496   2.434682   1.400195
    12  C    3.058839   6.111105   2.427483   2.838210   2.420451
    13  C    4.281661   7.450945   1.394921   2.440646   2.766050
    14  H    6.032721   9.012574   1.090977   2.152992   3.371092
    15  H    5.773881   7.905932   2.176567   1.090139   2.167463
    16  H    2.855052   5.980655   3.421588   3.929892   3.412961
    17  H    4.917815   8.261537   2.155487   3.422231   3.856125
    18  C    2.169279   3.677848   4.250761   3.687826   2.359175
    19  C    3.480600   3.827039   4.623693   3.623552   2.279141
    20  N    4.121248   5.181733   3.730082   2.511894   1.404533
    21  O    4.223539   3.266499   5.803655   4.737442   3.443831
    22  O    2.663166   3.182445   5.102293   4.719373   3.463301
    23  C    5.477581   6.100228   4.469972   3.082476   2.521510
    24  H    6.210900   6.802675   4.401798   3.063414   2.822468
    25  H    5.744143   6.778009   4.504820   3.128958   2.871487
    26  H    5.790185   5.682221   5.502855   4.134979   3.386534
    27  O    4.247018   0.967299   7.476306   6.767248   5.391198
    28  H    3.075221   2.245141   5.993938   5.477687   4.149053
    29  H    4.327234   1.544522   7.146982   6.289188   4.918784
                   11         12         13         14         15
    11  C    0.000000
    12  C    1.383182   0.000000
    13  C    2.391694   1.402450   0.000000
    14  H    3.855427   3.411910   2.152832   0.000000
    15  H    3.428278   3.928347   3.430827   2.495017   0.000000
    16  H    2.155426   1.091692   2.176248   4.318597   5.020027
    17  H    3.382737   2.162136   1.090208   2.473997   4.323759
    18  C    1.510613   2.632219   3.855397   5.339639   4.521923
    19  C    2.372232   3.740623   4.677825   5.643038   4.133207
    20  N    2.298261   3.604693   4.155394   4.645300   2.833108
    21  O    3.547913   4.889666   5.873216   6.802477   5.115119
    22  O    2.426477   3.137456   4.470495   6.179350   5.597031
    23  C    3.684852   4.910486   5.218505   5.176763   2.858917
    24  H    4.053435   5.144888   5.274303   4.983752   2.664650
    25  H    4.124092   5.250133   5.395686   5.087637   2.693023
    26  H    4.342947   5.663099   6.142101   6.252533   3.953655
    27  O    4.769323   5.742490   7.049445   8.556131   7.416347
    28  H    3.276146   4.102414   5.433828   7.076684   6.272698
    29  H    4.534784   5.673748   6.896686   8.207966   6.831208
                   16         17         18         19         20
    16  H    0.000000
    17  H    2.506549   0.000000
    18  C    2.936510   4.775617   0.000000
    19  C    4.309944   5.718945   1.557389   0.000000
    20  N    4.452715   5.244448   2.361242   1.362676   0.000000
    21  O    5.358240   6.904461   2.478058   1.214494   2.296722
    22  O    3.052801   5.236580   1.380140   2.463301   3.471256
    23  C    5.830154   6.295542   3.767368   2.481502   1.445762
    24  H    6.107716   6.306698   4.354669   3.166198   2.100644
    25  H    6.217895   6.443196   4.349412   3.221005   2.096972
    26  H    6.486537   7.229123   4.053296   2.548656   2.063628
    27  O    5.680801   7.883842   3.316642   3.345957   4.701997
    28  H    4.000944   6.219637   1.953804   2.608389   3.848266
    29  H    5.795312   7.815571   3.107163   2.713588   4.036447
                   21         22         23         24         25
    21  O    0.000000
    22  O    2.966210   0.000000
    23  C    2.895114   4.801263   0.000000
    24  H    3.579541   5.237629   1.099394   0.000000
    25  H    3.701873   5.538853   1.098540   1.792025   0.000000
    26  H    2.466008   4.955848   1.095368   1.791851   1.792102
    27  O    2.752904   2.687391   5.604353   6.192681   6.394441
    28  H    2.688622   0.990574   5.047985   5.555101   5.825464
    29  H    1.896040   2.845968   4.789573   5.416507   5.574356
                   26         27         28         29
    26  H    0.000000
    27  O    5.202803   0.000000
    28  H    4.986389   1.706105   0.000000
    29  H    4.299010   0.974543   2.006186   0.000000
 Stoichiometry    C10H12N2O5
 Framework group  C1[X(C10H12N2O5)]
 Deg. of freedom    81
 Full point group                 C1      NOp   1
 Largest Abelian subgroup         C1      NOp   1
 Largest concise Abelian subgroup C1      NOp   1
                         Standard orientation:                         
 ---------------------------------------------------------------------
 Center     Atomic      Atomic             Coordinates (Angstroms)
 Number     Number       Type             X           Y           Z
 ---------------------------------------------------------------------
      1          7           0       -2.303853   -0.663377   -1.127463
      2          8           0       -2.597160    0.416694   -1.577417
      3          8           0       -3.096692   -1.477306   -0.710106
      4          6           0       -0.856014   -0.997041   -1.011686
      5          1           0       -0.355740   -0.544434   -1.874196
      6          1           0       -0.782340   -2.089207   -1.016627
      7          1           0       -3.902702   -0.175178    0.901480
      8          6           0        3.937358   -0.592512   -0.177668
      9          6           0        3.198405    0.593735   -0.284890
     10          6           0        1.832015    0.512331   -0.057727
     11          6           0        1.207941   -0.703470    0.247077
     12          6           0        1.943122   -1.870145    0.354638
     13          6           0        3.328504   -1.804964    0.146468
     14          1           0        5.014812   -0.560525   -0.345894
     15          1           0        3.681352    1.540411   -0.527727
     16          1           0        1.455324   -2.815176    0.601135
     17          1           0        3.932828   -2.707910    0.236093
     18          6           0       -0.281158   -0.462851    0.328570
     19          6           0       -0.339041    1.093443    0.320833
     20          7           0        0.888436    1.552689   -0.052370
     21          8           0       -1.302696    1.778738    0.597842
     22          8           0       -0.885101   -1.038097    1.428175
     23          6           0        1.212700    2.950709   -0.227355
     24          1           0        1.949630    3.271998    0.522561
     25          1           0        1.620259    3.123854   -1.232694
     26          1           0        0.289597    3.526896   -0.101975
     27          8           0       -3.291958    0.147875    1.578454
     28          1           0       -1.808979   -0.693929    1.524278
     29          1           0       -2.900264    0.959361    1.207240
 ---------------------------------------------------------------------
 Rotational constants (GHZ):      0.8284527      0.3611913      0.3045618
 Standard basis: def2SVP (5D, 7F)
 There are   315 symmetry adapted cartesian basis functions of A   symmetry.
 There are   298 symmetry adapted basis functions of A   symmetry.
   298 basis functions,   509 primitive gaussians,   315 cartesian basis functions
    63 alpha electrons       63 beta electrons
       nuclear repulsion energy      1304.9301981699 Hartrees.
 NAtoms=   29 NActive=   29 NUniq=   29 SFac= 1.00D+00 NAtFMM=   60 NAOKFM=F Big=F
 Integral buffers will be    131072 words long.
 Raffenetti 2 integral format.
 Two-electron integral symmetry is turned on.
 ------------------------------------------------------------------------------
 Polarizable Continuum Model (PCM)
 =================================
 Model                : C-PCM.
 Atomic radii         : UFF (Universal Force Field).
 Polarization charges : Total charges.
 Charge compensation  : None.
 Solution method      : On-the-fly selection.
 Cavity type          : Scaled VdW (van der Waals Surface) (Alpha=1.100).
 Cavity algorithm     : GePol (No added spheres)
                        Default sphere list used, NSphG=   29.
                        Lebedev-Laikov grids with approx.  5.0 points / Ang**2.
                        Smoothing algorithm: Karplus/York (Gamma=1.0000).
                        Polarization charges: spherical gaussians, with
                                              point-specific exponents (IZeta= 3).
                        Self-potential: point-specific (ISelfS= 7).
                        Self-field    : sphere-specific E.n sum rule (ISelfD= 2).
 1st derivatives      : Analytical E(r).r(x)/FMM algorithm (CHGder, D1EAlg=3).
                        Cavity 1st derivative terms included.
 Solvent              : NitroMethane, Eps=  36.562000 Eps(inf)=   1.909095
 ------------------------------------------------------------------------------
 One-electron integrals computed using PRISM.
   1 Symmetry operations used in ECPInt.
 ECPInt:  NShTT=    9591 NPrTT=   35237 LenC2=    9096 LenP2D=   24160.
 LDataN:  DoStor=T MaxTD1= 4 Len=   56
 NBasis=   298 RedAO= T EigKep=  2.45D-04  NBF=   298
 NBsUse=   298 1.00D-06 EigRej= -1.00D+00 NBFU=   298
 ExpMin= 1.22D-01 ExpMax= 2.27D+03 ExpMxC= 3.41D+02 IAcc=1 IRadAn=         1 AccDes= 0.00D+00
 Harris functional with IExCor= 1009 and IRadAn=       1 diagonalized for initial guess.
 HarFok:  IExCor= 1009 AccDes= 0.00D+00 IRadAn=         1 IDoV= 1 UseB2=F ITyADJ=14
 ICtDFT=  3500011 ScaDFX=  1.000000  1.000000  1.000000  1.000000
 FoFCou: FMM=F IPFlag=           0 FMFlag=      100000 FMFlg1=           0
         NFxFlg=           0 DoJE=T BraDBF=F KetDBF=T FulRan=T
         wScrn=  0.000000 ICntrl=     500 IOpCl=  0 I1Cent=   200000004 NGrid=           0
         NMat0=    1 NMatS0=      1 NMatT0=    0 NMatD0=    1 NMtDS0=    0 NMtDT0=    0
 Petite list used in FoFCou.
 Requested convergence on RMS density matrix=1.00D-08 within 128 cycles.
 Requested convergence on MAX density matrix=1.00D-06.
 Requested convergence on             energy=1.00D-06.
 No special actions if energy rises.
 Inv3:  Mode=1 IEnd=    14296467.
 Iteration    1 A*A^-1 deviation from unit magnitude is 5.33D-15 for   2178.
 Iteration    1 A*A^-1 deviation from orthogonality  is 3.41D-15 for   2178   1827.
 Iteration    1 A^-1*A deviation from unit magnitude is 5.33D-15 for   2178.
 Iteration    1 A^-1*A deviation from orthogonality  is 2.58D-15 for   2146   1844.
 Error on total polarization charges =  0.00769
 SCF Done:  E(RM062X) =  -872.858068176     A.U. after   15 cycles
            NFock= 15  Conv=0.30D-08     -V/T= 2.0087

 **********************************************************************

            Population analysis using the SCF density.

 **********************************************************************

 Orbital symmetries:
       Occupied  (A) (A) (A) (A) (A) (A) (A) (A) (A) (A) (A) (A)
                 (A) (A) (A) (A) (A) (A) (A) (A) (A) (A) (A) (A)
                 (A) (A) (A) (A) (A) (A) (A) (A) (A) (A) (A) (A)
                 (A) (A) (A) (A) (A) (A) (A) (A) (A) (A) (A) (A)
                 (A) (A) (A) (A) (A) (A) (A) (A) (A) (A) (A) (A)
                 (A) (A) (A)
       Virtual   (A) (A) (A) (A) (A) (A) (A) (A) (A) (A) (A) (A)
                 (A) (A) (A) (A) (A) (A) (A) (A) (A) (A) (A) (A)
                 (A) (A) (A) (A) (A) (A) (A) (A) (A) (A) (A) (A)
                 (A) (A) (A) (A) (A) (A) (A) (A) (A) (A) (A) (A)
                 (A) (A) (A) (A) (A) (A) (A) (A) (A) (A) (A) (A)
                 (A) (A) (A) (A) (A) (A) (A) (A) (A) (A) (A) (A)
                 (A) (A) (A) (A) (A) (A) (A) (A) (A) (A) (A) (A)
                 (A) (A) (A) (A) (A) (A) (A) (A) (A) (A) (A) (A)
                 (A) (A) (A) (A) (A) (A) (A) (A) (A) (A) (A) (A)
                 (A) (A) (A) (A) (A) (A) (A) (A) (A) (A) (A) (A)
                 (A) (A) (A) (A) (A) (A) (A) (A) (A) (A) (A) (A)
                 (A) (A) (A) (A) (A) (A) (A) (A) (A) (A) (A) (A)
                 (A) (A) (A) (A) (A) (A) (A) (A) (A) (A) (A) (A)
                 (A) (A) (A) (A) (A) (A) (A) (A) (A) (A) (A) (A)
                 (A) (A) (A) (A) (A) (A) (A) (A) (A) (A) (A) (A)
                 (A) (A) (A) (A) (A) (A) (A) (A) (A) (A) (A) (A)
                 (A) (A) (A) (A) (A) (A) (A) (A) (A) (A) (A) (A)
                 (A) (A) (A) (A) (A) (A) (A) (A) (A) (A) (A) (A)
                 (A) (A) (A) (A) (A) (A) (A) (A) (A) (A) (A) (A)
                 (A) (A) (A) (A) (A) (A) (A)
 The electronic state is 1-A.
 Alpha  occ. eigenvalues --  -19.68531 -19.68338 -19.64183 -19.63802 -19.63788
 Alpha  occ. eigenvalues --  -15.01810 -14.82251 -10.68425 -10.65297 -10.62666
 Alpha  occ. eigenvalues --  -10.61568 -10.59822 -10.57727 -10.57655 -10.57334
 Alpha  occ. eigenvalues --  -10.57249 -10.56581  -1.38033  -1.19322  -1.19072
 Alpha  occ. eigenvalues --   -1.14901  -1.11640  -1.09030  -0.96574  -0.93992
 Alpha  occ. eigenvalues --   -0.88694  -0.85206  -0.81586  -0.78554  -0.71354
 Alpha  occ. eigenvalues --   -0.70527  -0.68798  -0.67331  -0.65506  -0.64181
 Alpha  occ. eigenvalues --   -0.63007  -0.62473  -0.60617  -0.59105  -0.57000
 Alpha  occ. eigenvalues --   -0.55905  -0.54630  -0.54087  -0.52180  -0.52006
 Alpha  occ. eigenvalues --   -0.51140  -0.50739  -0.48561  -0.47193  -0.46875
 Alpha  occ. eigenvalues --   -0.46142  -0.44907  -0.43726  -0.42201  -0.41170
 Alpha  occ. eigenvalues --   -0.40749  -0.39848  -0.39351  -0.38026  -0.37274
 Alpha  occ. eigenvalues --   -0.34746  -0.32315  -0.28417
 Alpha virt. eigenvalues --   -0.03721   0.00053   0.01113   0.05187   0.09806
 Alpha virt. eigenvalues --    0.11039   0.11687   0.13272   0.14468   0.15575
 Alpha virt. eigenvalues --    0.16394   0.16733   0.17804   0.18277   0.18978
 Alpha virt. eigenvalues --    0.19555   0.20567   0.20802   0.22165   0.22194
 Alpha virt. eigenvalues --    0.24321   0.26334   0.28603   0.30029   0.31617
 Alpha virt. eigenvalues --    0.32942   0.34464   0.35356   0.35631   0.37208
 Alpha virt. eigenvalues --    0.38579   0.40975   0.43112   0.43375   0.45012
 Alpha virt. eigenvalues --    0.45411   0.47672   0.49323   0.49908   0.51116
 Alpha virt. eigenvalues --    0.51888   0.52306   0.52934   0.53676   0.55950
 Alpha virt. eigenvalues --    0.56619   0.56874   0.58029   0.59443   0.60172
 Alpha virt. eigenvalues --    0.61502   0.63843   0.64772   0.65384   0.66751
 Alpha virt. eigenvalues --    0.67329   0.68115   0.68267   0.68564   0.69566
 Alpha virt. eigenvalues --    0.70036   0.70762   0.70954   0.71782   0.72464
 Alpha virt. eigenvalues --    0.73300   0.73764   0.75475   0.75703   0.76953
 Alpha virt. eigenvalues --    0.77072   0.79716   0.80186   0.80765   0.84173
 Alpha virt. eigenvalues --    0.85063   0.85932   0.87491   0.90957   0.92950
 Alpha virt. eigenvalues --    0.94757   0.95825   0.96460   0.97297   0.98388
 Alpha virt. eigenvalues --    1.00600   1.01774   1.02631   1.03911   1.07439
 Alpha virt. eigenvalues --    1.07961   1.09068   1.10902   1.13899   1.14487
 Alpha virt. eigenvalues --    1.16070   1.18138   1.19472   1.20872   1.22651
 Alpha virt. eigenvalues --    1.23206   1.25286   1.25319   1.26536   1.29022
 Alpha virt. eigenvalues --    1.29302   1.30604   1.30855   1.32324   1.32743
 Alpha virt. eigenvalues --    1.34247   1.36205   1.36795   1.38977   1.42394
 Alpha virt. eigenvalues --    1.45952   1.48210   1.49835   1.50286   1.54753
 Alpha virt. eigenvalues --    1.55653   1.56108   1.56894   1.58725   1.60968
 Alpha virt. eigenvalues --    1.62420   1.65555   1.67490   1.70506   1.71178
 Alpha virt. eigenvalues --    1.72344   1.72985   1.74511   1.75034   1.76865
 Alpha virt. eigenvalues --    1.78986   1.79081   1.79852   1.80759   1.81614
 Alpha virt. eigenvalues --    1.81861   1.82848   1.83452   1.84612   1.84781
 Alpha virt. eigenvalues --    1.85691   1.86213   1.87789   1.90081   1.91331
 Alpha virt. eigenvalues --    1.95054   1.95832   1.96931   1.98255   1.98822
 Alpha virt. eigenvalues --    2.00478   2.01357   2.01852   2.05296   2.07494
 Alpha virt. eigenvalues --    2.08080   2.09512   2.12416   2.14966   2.15903
 Alpha virt. eigenvalues --    2.17977   2.18515   2.19180   2.22610   2.25827
 Alpha virt. eigenvalues --    2.27787   2.28361   2.29604   2.31816   2.33554
 Alpha virt. eigenvalues --    2.34204   2.35520   2.37868   2.40023   2.41214
 Alpha virt. eigenvalues --    2.42456   2.45662   2.48976   2.50048   2.50560
 Alpha virt. eigenvalues --    2.56666   2.59325   2.60352   2.61480   2.62632
 Alpha virt. eigenvalues --    2.62925   2.66069   2.67076   2.67914   2.68753
 Alpha virt. eigenvalues --    2.70573   2.72706   2.73571   2.74730   2.75960
 Alpha virt. eigenvalues --    2.78043   2.80594   2.81562   2.84202   2.86031
 Alpha virt. eigenvalues --    2.87957   2.89389   2.91830   2.94346   2.95015
 Alpha virt. eigenvalues --    2.97862   2.98847   3.03363   3.05704   3.09105
 Alpha virt. eigenvalues --    3.09840   3.11741   3.13084   3.18854   3.20396
 Alpha virt. eigenvalues --    3.22390   3.23311   3.24009   3.35165   3.36590
 Alpha virt. eigenvalues --    3.47273   3.47765   3.51943   3.56627   3.64980
 Alpha virt. eigenvalues --    3.70830   3.77030   3.80930   3.82622   3.85852
          Condensed to atoms (all electrons):
               1          2          3          4          5          6
     1  N    6.064379   0.291108   0.265029   0.253549  -0.015905  -0.013830
     2  O    0.291108   8.126040  -0.110750  -0.067748   0.003755   0.004639
     3  O    0.265029  -0.110750   8.165552  -0.060356   0.004383   0.006168
     4  C    0.253549  -0.067748  -0.060356   4.751126   0.365518   0.371297
     5  H   -0.015905   0.003755   0.004383   0.365518   0.567500  -0.016916
     6  H   -0.013830   0.004639   0.006168   0.371297  -0.016916   0.559395
     7  H    0.001140   0.000784   0.014932   0.001219  -0.000056  -0.000114
     8  C    0.000000   0.000000   0.000000   0.000119  -0.000065  -0.000024
     9  C    0.000001   0.000000   0.000000  -0.000594  -0.000048   0.000015
    10  C    0.000013  -0.000030  -0.000007   0.003265   0.002121  -0.001207
    11  C    0.007603  -0.000336  -0.000202  -0.087843   0.002433  -0.016511
    12  C    0.000145   0.000002  -0.000025  -0.017464  -0.002228   0.007450
    13  C   -0.000002   0.000000   0.000000  -0.000245   0.000180   0.000011
    14  H    0.000000   0.000000   0.000000   0.000001  -0.000002  -0.000001
    15  H    0.000000   0.000000   0.000000  -0.000003   0.000006   0.000002
    16  H   -0.000051   0.000000  -0.000005  -0.000475   0.000038   0.001316
    17  H    0.000000   0.000000   0.000000   0.000007   0.000000   0.000005
    18  C   -0.023215  -0.016714  -0.007472   0.334871  -0.010340   0.000668
    19  C   -0.008515   0.024781  -0.000061  -0.060004   0.003625   0.008071
    20  N    0.000001  -0.000170  -0.000012   0.000705   0.000247  -0.000142
    21  O    0.003160  -0.005742  -0.000001  -0.002359  -0.000093  -0.000190
    22  O   -0.003746   0.000194   0.001083  -0.052554   0.003363   0.000028
    23  C   -0.000010   0.000013   0.000000  -0.000846  -0.000164   0.000024
    24  H    0.000000   0.000000   0.000000  -0.000008   0.000017   0.000000
    25  H    0.000003   0.000003   0.000000   0.000124  -0.000070  -0.000003
    26  H   -0.000009   0.000003   0.000000  -0.000127  -0.000001   0.000003
    27  O    0.007810  -0.001112  -0.007367  -0.004258   0.000002   0.000134
    28  H   -0.000890  -0.000559   0.008172  -0.003381   0.000391  -0.000680
    29  H    0.001471   0.002994  -0.001690  -0.000087   0.000023  -0.000063
               7          8          9         10         11         12
     1  N    0.001140   0.000000   0.000001   0.000013   0.007603   0.000145
     2  O    0.000784   0.000000   0.000000  -0.000030  -0.000336   0.000002
     3  O    0.014932   0.000000   0.000000  -0.000007  -0.000202  -0.000025
     4  C    0.001219   0.000119  -0.000594   0.003265  -0.087843  -0.017464
     5  H   -0.000056  -0.000065  -0.000048   0.002121   0.002433  -0.002228
     6  H   -0.000114  -0.000024   0.000015  -0.001207  -0.016511   0.007450
     7  H    0.470742   0.000000   0.000000  -0.000003   0.000083   0.000000
     8  C    0.000000   5.142707   0.222091   0.154013  -0.190320   0.112668
     9  C    0.000000   0.222091   5.187717   0.290188   0.067956  -0.135518
    10  C   -0.000003   0.154013   0.290188   5.129834   0.212892   0.086378
    11  C    0.000083  -0.190320   0.067956   0.212892   5.772855   0.254962
    12  C    0.000000   0.112668  -0.135518   0.086378   0.254962   5.162383
    13  C    0.000000   0.251586   0.092585  -0.168061   0.115696   0.242753
    14  H    0.000000   0.452247  -0.065650   0.014174  -0.001281   0.013099
    15  H    0.000000  -0.074932   0.470961  -0.078608   0.019272  -0.002887
    16  H   -0.000001   0.012876  -0.001691   0.014673  -0.076642   0.463854
    17  H    0.000000  -0.070364   0.013556  -0.001560   0.015600  -0.070562
    18  C    0.000429  -0.001203   0.018503  -0.050524   0.086500  -0.083844
    19  C   -0.000658  -0.000078   0.002903  -0.079118  -0.057117   0.015675
    20  N    0.000001   0.008007  -0.082211   0.320694  -0.047986   0.007779
    21  O    0.000718   0.000001  -0.000049   0.001463   0.006807  -0.000042
    22  O    0.001634  -0.000030  -0.000014   0.003527  -0.075254  -0.001426
    23  C    0.000000  -0.000137   0.002238  -0.045270   0.007246  -0.000045
    24  H    0.000000   0.000186   0.003217  -0.003413  -0.000151  -0.000057
    25  H    0.000000   0.000252   0.001231  -0.007503   0.000802   0.000039
    26  H   -0.000001  -0.000009   0.000448   0.005439  -0.001071   0.000022
    27  O    0.329123   0.000000   0.000000  -0.000004   0.000060   0.000003
    28  H   -0.008530  -0.000001   0.000012  -0.000428   0.005232  -0.000017
    29  H   -0.014836   0.000000   0.000002  -0.000014   0.000215  -0.000004
              13         14         15         16         17         18
     1  N   -0.000002   0.000000   0.000000  -0.000051   0.000000  -0.023215
     2  O    0.000000   0.000000   0.000000   0.000000   0.000000  -0.016714
     3  O    0.000000   0.000000   0.000000  -0.000005   0.000000  -0.007472
     4  C   -0.000245   0.000001  -0.000003  -0.000475   0.000007   0.334871
     5  H    0.000180  -0.000002   0.000006   0.000038   0.000000  -0.010340
     6  H    0.000011  -0.000001   0.000002   0.001316   0.000005   0.000668
     7  H    0.000000   0.000000   0.000000  -0.000001   0.000000   0.000429
     8  C    0.251586   0.452247  -0.074932   0.012876  -0.070364  -0.001203
     9  C    0.092585  -0.065650   0.470961  -0.001691   0.013556   0.018503
    10  C   -0.168061   0.014174  -0.078608   0.014673  -0.001560  -0.050524
    11  C    0.115696  -0.001281   0.019272  -0.076642   0.015600   0.086500
    12  C    0.242753   0.013099  -0.002887   0.463854  -0.070562  -0.083844
    13  C    5.137856  -0.067573   0.013906  -0.062615   0.457591   0.015372
    14  H   -0.067573   0.628904  -0.010490  -0.000194  -0.011443   0.000020
    15  H    0.013906  -0.010490   0.639243   0.000014  -0.000151  -0.000361
    16  H   -0.062615  -0.000194   0.000014   0.630969  -0.010148  -0.014942
    17  H    0.457591  -0.011443  -0.000151  -0.010148   0.635156  -0.000365
    18  C    0.015372   0.000020  -0.000361  -0.014942  -0.000365   5.675740
    19  C   -0.000710   0.000002  -0.000116   0.000520   0.000012   0.114335
    20  N   -0.000342  -0.000109  -0.012252  -0.000170   0.000010  -0.173970
    21  O    0.000000   0.000000  -0.000001   0.000000   0.000000  -0.084365
    22  O    0.000327   0.000000   0.000002   0.003002   0.000000   0.348587
    23  C    0.000060  -0.000024   0.007066   0.000009   0.000000   0.010206
    24  H   -0.000018   0.000006  -0.000109  -0.000001   0.000000  -0.000106
    25  H   -0.000026   0.000003   0.000024   0.000000   0.000000  -0.001147
    26  H    0.000002   0.000000  -0.000115   0.000000   0.000000   0.003766
    27  O    0.000000   0.000000   0.000000   0.000001   0.000000   0.007076
    28  H    0.000022   0.000000   0.000000  -0.000083   0.000000  -0.037554
    29  H    0.000000   0.000000   0.000000  -0.000001   0.000000  -0.001978
              19         20         21         22         23         24
     1  N   -0.008515   0.000001   0.003160  -0.003746  -0.000010   0.000000
     2  O    0.024781  -0.000170  -0.005742   0.000194   0.000013   0.000000
     3  O   -0.000061  -0.000012  -0.000001   0.001083   0.000000   0.000000
     4  C   -0.060004   0.000705  -0.002359  -0.052554  -0.000846  -0.000008
     5  H    0.003625   0.000247  -0.000093   0.003363  -0.000164   0.000017
     6  H    0.008071  -0.000142  -0.000190   0.000028   0.000024   0.000000
     7  H   -0.000658   0.000001   0.000718   0.001634   0.000000   0.000000
     8  C   -0.000078   0.008007   0.000001  -0.000030  -0.000137   0.000186
     9  C    0.002903  -0.082211  -0.000049  -0.000014   0.002238   0.003217
    10  C   -0.079118   0.320694   0.001463   0.003527  -0.045270  -0.003413
    11  C   -0.057117  -0.047986   0.006807  -0.075254   0.007246  -0.000151
    12  C    0.015675   0.007779  -0.000042  -0.001426  -0.000045  -0.000057
    13  C   -0.000710  -0.000342   0.000000   0.000327   0.000060  -0.000018
    14  H    0.000002  -0.000109   0.000000   0.000000  -0.000024   0.000006
    15  H   -0.000116  -0.012252  -0.000001   0.000002   0.007066  -0.000109
    16  H    0.000520  -0.000170   0.000000   0.003002   0.000009  -0.000001
    17  H    0.000012   0.000010   0.000000   0.000000   0.000000   0.000000
    18  C    0.114335  -0.173970  -0.084365   0.348587   0.010206  -0.000106
    19  C    4.815610   0.342766   0.669712  -0.033597  -0.027585   0.000318
    20  N    0.342766   6.849234  -0.092436   0.002183   0.280684  -0.026925
    21  O    0.669712  -0.092436   7.766484  -0.000825  -0.005051   0.000162
    22  O   -0.033597   0.002183  -0.000825   7.833828  -0.000110   0.000009
    23  C   -0.027585   0.280684  -0.005051  -0.000110   4.500701   0.409014
    24  H    0.000318  -0.026925   0.000162   0.000009   0.409014   0.580190
    25  H    0.003681  -0.023902   0.000268   0.000000   0.406853  -0.027457
    26  H   -0.004689  -0.025890   0.015876  -0.000021   0.397433  -0.017513
    27  O    0.002178  -0.000001  -0.015871  -0.030249   0.000001   0.000000
    28  H   -0.002542   0.000178   0.005360   0.328989   0.000000   0.000004
    29  H   -0.001876   0.000823   0.037482   0.004371  -0.000039   0.000002
              25         26         27         28         29
     1  N    0.000003  -0.000009   0.007810  -0.000890   0.001471
     2  O    0.000003   0.000003  -0.001112  -0.000559   0.002994
     3  O    0.000000   0.000000  -0.007367   0.008172  -0.001690
     4  C    0.000124  -0.000127  -0.004258  -0.003381  -0.000087
     5  H   -0.000070  -0.000001   0.000002   0.000391   0.000023
     6  H   -0.000003   0.000003   0.000134  -0.000680  -0.000063
     7  H    0.000000  -0.000001   0.329123  -0.008530  -0.014836
     8  C    0.000252  -0.000009   0.000000  -0.000001   0.000000
     9  C    0.001231   0.000448   0.000000   0.000012   0.000002
    10  C   -0.007503   0.005439  -0.000004  -0.000428  -0.000014
    11  C    0.000802  -0.001071   0.000060   0.005232   0.000215
    12  C    0.000039   0.000022   0.000003  -0.000017  -0.000004
    13  C   -0.000026   0.000002   0.000000   0.000022   0.000000
    14  H    0.000003   0.000000   0.000000   0.000000   0.000000
    15  H    0.000024  -0.000115   0.000000   0.000000   0.000000
    16  H    0.000000   0.000000   0.000001  -0.000083  -0.000001
    17  H    0.000000   0.000000   0.000000   0.000000   0.000000
    18  C   -0.001147   0.003766   0.007076  -0.037554  -0.001978
    19  C    0.003681  -0.004689   0.002178  -0.002542  -0.001876
    20  N   -0.023902  -0.025890  -0.000001   0.000178   0.000823
    21  O    0.000268   0.015876  -0.015871   0.005360   0.037482
    22  O    0.000000  -0.000021  -0.030249   0.328989   0.004371
    23  C    0.406853   0.397433   0.000001   0.000000  -0.000039
    24  H   -0.027457  -0.017513   0.000000   0.000004   0.000002
    25  H    0.578262  -0.015564   0.000000  -0.000002   0.000001
    26  H   -0.015564   0.558184   0.000004  -0.000015  -0.000041
    27  O    0.000000   0.000004   7.660648   0.090630   0.325983
    28  H   -0.000002  -0.000015   0.090630   0.432696  -0.014084
    29  H    0.000001  -0.000041   0.325983  -0.014084   0.457817
 Mulliken charges:
               1
     1  N    0.170759
     2  O   -0.251155
     3  O   -0.277371
     4  C    0.276553
     5  H    0.092285
     6  H    0.090456
     7  H    0.203394
     8  C   -0.019589
     9  C   -0.087850
    10  C    0.197076
    11  C   -0.021500
    12  C   -0.053093
    13  C   -0.028354
    14  H    0.048309
    15  H    0.029530
    16  H    0.039747
    17  H    0.042656
    18  C   -0.107972
    19  C    0.272478
    20  N   -0.326794
    21  O   -0.300467
    22  O   -0.333302
    23  C    0.057734
    24  H    0.082633
    25  H    0.084129
    26  H    0.083887
    27  O   -0.364792
    28  H    0.197082
    29  H    0.203529
 Sum of Mulliken charges =   0.00000
 Mulliken charges with hydrogens summed into heavy atoms:
               1
     1  N    0.170759
     2  O   -0.251155
     3  O   -0.277371
     4  C    0.459294
     8  C    0.028720
     9  C   -0.058320
    10  C    0.197076
    11  C   -0.021500
    12  C   -0.013346
    13  C    0.014302
    18  C   -0.107972
    19  C    0.272478
    20  N   -0.326794
    21  O   -0.300467
    22  O   -0.136220
    23  C    0.308383
    27  O    0.042130
 Electronic spatial extent (au):  <R**2>=           3774.9204
 Charge=              0.0000 electrons
 Dipole moment (field-independent basis, Debye):
    X=              6.6992    Y=              0.8828    Z=             -3.6911  Tot=              7.6995
 Quadrupole moment (field-independent basis, Debye-Ang):
   XX=            -96.6857   YY=            -89.5040   ZZ=           -105.5388
   XY=              3.3187   XZ=              0.4667   YZ=              1.9367
 Traceless Quadrupole moment (field-independent basis, Debye-Ang):
   XX=              0.5571   YY=              7.7388   ZZ=             -8.2959
   XY=              3.3187   XZ=              0.4667   YZ=              1.9367
 Octapole moment (field-independent basis, Debye-Ang**2):
  XXX=             21.8973  YYY=             14.7672  ZZZ=            -14.8018  XYY=             20.8321
  XXY=              7.6168  XXZ=             -5.6482  XZZ=             -6.9255  YZZ=              2.6975
  YYZ=             -4.6522  XYZ=             -6.9352
 Hexadecapole moment (field-independent basis, Debye-Ang**3):
 XXXX=          -2834.5404 YYYY=          -1097.9390 ZZZZ=           -503.1446 XXXY=            -27.6961
 XXXZ=            -43.9566 YYYX=             20.9443 YYYZ=            -14.1957 ZZZX=             25.8136
 ZZZY=             16.1239 XXYY=           -680.5564 XXZZ=           -682.1751 YYZZ=           -286.4494
 XXYZ=            -13.6084 YYXZ=             -0.4352 ZZXY=             27.4726
 N-N= 1.304930198170D+03 E-N=-4.647790730175D+03  KE= 8.653292761440D+02
   1 Symmetry operations used in ECPInt.
 ECPInt:  NShTT=    9591 NPrTT=   35237 LenC2=    9096 LenP2D=   24160.
 LDataN:  DoStor=T MaxTD1= 5 Len=  102
 D1PCM: C-PCM CHGder 1st derivatives, ID1Alg=3 FixD1E=F DoIter=F DoCFld=F I1PDM=0.
 Calling FoFJK, ICntrl=      2127 FMM=F ISym2X=0 I1Cent= 0 IOpClX= 0 NMat=1 NMatS=1 NMatT=0.
 ***** Axes restored to original set *****
 -------------------------------------------------------------------
 Center     Atomic                   Forces (Hartrees/Bohr)
 Number     Number              X              Y              Z
 -------------------------------------------------------------------
      1        7          -0.000045504   -0.000435925    0.000082559
      2        8           0.000554076   -0.000331720   -0.000002409
      3        8           0.000034645   -0.000200763   -0.000417247
      4        6           0.000082293   -0.000139334    0.000158738
      5        1           0.000130864    0.000099493    0.000007593
      6        1          -0.000012531    0.000070773    0.000019470
      7        1          -0.000089185    0.000061755    0.000012630
      8        6           0.000006784   -0.000007488   -0.000211804
      9        6          -0.000183162    0.000090443   -0.000119489
     10        6           0.000007613   -0.000335687   -0.000119470
     11        6           0.000125713    0.000209856    0.000252764
     12        6           0.000061129   -0.000096482    0.000139292
     13        6          -0.000029336    0.000153932   -0.000091674
     14        1           0.000013047   -0.000028907   -0.000039178
     15        1          -0.000064439   -0.000111770   -0.000119635
     16        1          -0.000007480    0.000018964    0.000137046
     17        1          -0.000030135   -0.000004273    0.000156764
     18        6          -0.000311879   -0.000094516    0.000191504
     19        6          -0.000096930    0.000260626    0.000280023
     20        7          -0.000068795    0.000288509    0.000053695
     21        8           0.000217424    0.000141809    0.000229406
     22        8           0.000082559    0.000176782    0.000018038
     23        6          -0.000186523   -0.000047349   -0.000446334
     24        1           0.000044681    0.000153963   -0.000052176
     25        1          -0.000094002   -0.000053489   -0.000046168
     26        1          -0.000036450   -0.000048114   -0.000081063
     27        8           0.000100034    0.000306449   -0.000047580
     28        1          -0.000048318   -0.000031870   -0.000019899
     29        1          -0.000156193   -0.000065665    0.000074603
 -------------------------------------------------------------------
 Cartesian Forces:  Max     0.000554076 RMS     0.000166216

 GradGradGradGradGradGradGradGradGradGradGradGradGradGradGradGradGradGrad
 Berny optimization.
 FormGI is forming the generalized inverse of G from B-inverse, IUseBI=4.
 Internal  Forces:  Max     0.001583957 RMS     0.000397191
 Search for a local minimum.
 Step number   1 out of a maximum of  162
 All quantities printed in internal units (Hartrees-Bohrs-Radians)
 Mixed Optimization -- En-DIIS/RFO-DIIS
 Second derivative matrix not updated -- first step.
 ITU=  0
     Eigenvalues ---    0.00230   0.00230   0.00230   0.00230   0.00497
     Eigenvalues ---    0.00511   0.00759   0.01028   0.01086   0.01522
     Eigenvalues ---    0.01608   0.01844   0.01954   0.02019   0.02091
     Eigenvalues ---    0.02116   0.02118   0.02168   0.02188   0.02213
     Eigenvalues ---    0.04415   0.05329   0.05365   0.05590   0.06911
     Eigenvalues ---    0.07319   0.07557   0.07843   0.09018   0.09449
     Eigenvalues ---    0.12464   0.12682   0.15975   0.15999   0.16000
     Eigenvalues ---    0.16000   0.16000   0.16000   0.16000   0.16000
     Eigenvalues ---    0.16000   0.16000   0.19529   0.21999   0.22117
     Eigenvalues ---    0.22601   0.24503   0.24592   0.24803   0.25000
     Eigenvalues ---    0.25000   0.25000   0.26595   0.27390   0.30244
     Eigenvalues ---    0.33417   0.33749   0.33844   0.34200   0.34240
     Eigenvalues ---    0.34280   0.34618   0.34700   0.34789   0.34797
     Eigenvalues ---    0.38805   0.39608   0.41956   0.42588   0.44721
     Eigenvalues ---    0.45889   0.46973   0.47952   0.49077   0.49383
     Eigenvalues ---    0.50320   0.52459   0.53933   0.97865   0.99729
     Eigenvalues ---    1.01744
 RFO step:  Lambda=-1.73337341D-03 EMin= 2.30000000D-03
 Linear search not attempted -- first point.
 Maximum step size (   0.300) exceeded in Quadratic search.
    -- Step size scaled by   0.822
 Iteration  1 RMS(Cart)=  0.13817613 RMS(Int)=  0.01056682
 Iteration  2 RMS(Cart)=  0.04727826 RMS(Int)=  0.00131053
 Iteration  3 RMS(Cart)=  0.00212497 RMS(Int)=  0.00011167
 Iteration  4 RMS(Cart)=  0.00000346 RMS(Int)=  0.00011166
 Iteration  5 RMS(Cart)=  0.00000000 RMS(Int)=  0.00011166
 Variable       Old X    -DE/DX   Delta X   Delta X   Delta X     New X
                                 (Linear)    (Quad)   (Total)
    R1        2.27948  -0.00015   0.00000  -0.00012  -0.00012   2.27936
    R2        2.28747   0.00027   0.00000   0.00022   0.00022   2.28770
    R3        2.81625   0.00033   0.00000   0.00080   0.00080   2.81704
    R4        2.06927   0.00000   0.00000   0.00000   0.00000   2.06927
    R5        2.06861  -0.00007   0.00000  -0.00016  -0.00016   2.06845
    R6        2.93493   0.00033   0.00000   0.00099   0.00099   2.93592
    R7        1.82793  -0.00006   0.00000  -0.00010  -0.00010   1.82783
    R8        2.64881  -0.00009   0.00000  -0.00024  -0.00022   2.64859
    R9        2.63602  -0.00017   0.00000  -0.00045  -0.00042   2.63560
   R10        2.06165  -0.00002   0.00000  -0.00005  -0.00005   2.06160
   R11        2.62206   0.00021   0.00000   0.00045   0.00043   2.62249
   R12        2.06006  -0.00009   0.00000  -0.00021  -0.00021   2.05986
   R13        2.64599  -0.00016   0.00000  -0.00039  -0.00039   2.64559
   R14        2.65418   0.00011   0.00000  -0.00004   0.00005   2.65424
   R15        2.61384   0.00007   0.00000   0.00019   0.00017   2.61400
   R16        2.85465   0.00002   0.00000   0.00011   0.00003   2.85468
   R17        2.65025   0.00002   0.00000  -0.00006  -0.00004   2.65021
   R18        2.06300  -0.00003   0.00000  -0.00007  -0.00007   2.06293
   R19        2.06019   0.00003   0.00000   0.00007   0.00007   2.06026
   R20        2.94304   0.00060   0.00000   0.00234   0.00226   2.94530
   R21        2.60809  -0.00032   0.00000  -0.00053  -0.00053   2.60756
   R22        2.57508   0.00038   0.00000   0.00068   0.00071   2.57580
   R23        2.29506   0.00018   0.00000   0.00015   0.00015   2.29521
   R24        2.73210   0.00007   0.00000   0.00014   0.00014   2.73224
   R25        1.87191  -0.00010   0.00000  -0.00016  -0.00018   1.87173
   R26        2.07755   0.00004   0.00000   0.00011   0.00011   2.07766
   R27        2.07594  -0.00002   0.00000  -0.00005  -0.00005   2.07589
   R28        2.06995  -0.00004   0.00000  -0.00010  -0.00010   2.06984
   R29        3.22407   0.00001   0.00000   0.00010   0.00011   3.22418
   R30        1.84162   0.00002   0.00000   0.00003   0.00003   1.84165
    A1        2.17903  -0.00035   0.00000  -0.00146  -0.00153   2.17750
    A2        2.05520   0.00107   0.00000   0.00316   0.00310   2.05830
    A3        2.04765  -0.00073   0.00000  -0.00271  -0.00277   2.04488
    A4        1.86515   0.00059   0.00000   0.00842   0.00840   1.87355
    A5        1.86337  -0.00058   0.00000  -0.00917  -0.00919   1.85418
    A6        1.92797  -0.00017   0.00000  -0.00064  -0.00068   1.92729
    A7        1.95853   0.00000   0.00000   0.00026   0.00029   1.95882
    A8        1.94815   0.00027   0.00000   0.00578   0.00576   1.95390
    A9        1.89880  -0.00014   0.00000  -0.00512  -0.00515   1.89365
   A10        2.12147  -0.00001   0.00000  -0.00017  -0.00016   2.12131
   A11        2.07607   0.00004   0.00000   0.00027   0.00027   2.07634
   A12        2.08562  -0.00003   0.00000  -0.00009  -0.00010   2.08553
   A13        2.04539  -0.00001   0.00000   0.00033   0.00030   2.04569
   A14        2.11579  -0.00009   0.00000  -0.00066  -0.00064   2.11515
   A15        2.12196   0.00010   0.00000   0.00034   0.00035   2.12232
   A16        2.12409   0.00004   0.00000  -0.00005  -0.00004   2.12405
   A17        2.23793   0.00002   0.00000  -0.00106  -0.00092   2.23701
   A18        1.92081  -0.00006   0.00000   0.00110   0.00096   1.92177
   A19        2.10880  -0.00009   0.00000  -0.00037  -0.00035   2.10845
   A20        1.88893   0.00048   0.00000   0.00352   0.00316   1.89209
   A21        2.28379  -0.00037   0.00000  -0.00204  -0.00189   2.28190
   A22        2.06497   0.00004   0.00000   0.00044   0.00040   2.06537
   A23        2.10624  -0.00001   0.00000  -0.00017  -0.00015   2.10608
   A24        2.11197  -0.00003   0.00000  -0.00029  -0.00027   2.11170
   A25        2.10140   0.00004   0.00000  -0.00002  -0.00001   2.10139
   A26        2.09099  -0.00006   0.00000  -0.00018  -0.00018   2.09080
   A27        2.09079   0.00002   0.00000   0.00021   0.00020   2.09099
   A28        1.83747   0.00052   0.00000   0.00625   0.00629   1.84376
   A29        1.90251   0.00101   0.00000   0.00825   0.00828   1.91079
   A30        1.96299  -0.00100   0.00000  -0.00654  -0.00659   1.95640
   A31        1.76761  -0.00035   0.00000   0.00312   0.00285   1.77045
   A32        1.99101   0.00017   0.00000  -0.00361  -0.00353   1.98747
   A33        1.98690  -0.00018   0.00000  -0.00530  -0.00520   1.98170
   A34        1.88038   0.00011   0.00000   0.00339   0.00289   1.88327
   A35        2.20461  -0.00003   0.00000  -0.00161  -0.00161   2.20300
   A36        2.19819  -0.00009   0.00000  -0.00181  -0.00181   2.19638
   A37        1.93539  -0.00008   0.00000   0.00231   0.00213   1.93752
   A38        2.17137  -0.00011   0.00000  -0.00135  -0.00126   2.17011
   A39        2.16647   0.00016   0.00000  -0.00068  -0.00059   2.16588
   A40        1.91837  -0.00158   0.00000  -0.00805  -0.00806   1.91031
   A41        1.92876   0.00019   0.00000   0.00091   0.00091   1.92967
   A42        1.92451  -0.00005   0.00000  -0.00015  -0.00015   1.92436
   A43        1.88156  -0.00006   0.00000  -0.00034  -0.00034   1.88122
   A44        1.90657  -0.00007   0.00000  -0.00029  -0.00029   1.90629
   A45        1.91037  -0.00011   0.00000  -0.00079  -0.00079   1.90958
   A46        1.91187   0.00010   0.00000   0.00066   0.00066   1.91253
   A47        1.94100  -0.00005   0.00000  -0.00032  -0.00040   1.94060
   A48        1.83929   0.00007   0.00000  -0.00007   0.00025   1.83955
   A49        1.62021  -0.00030   0.00000  -0.00167  -0.00155   1.61866
   A50        3.08711  -0.00033   0.00000  -0.06808  -0.06806   3.01905
   A51        3.30594   0.00141   0.00000   0.28895   0.28885   3.59479
    D1       -0.62272  -0.00014   0.00000   0.00311   0.00310  -0.61962
    D2       -2.72166  -0.00014   0.00000   0.00321   0.00323  -2.71843
    D3        1.49971   0.00045   0.00000   0.01504   0.01503   1.51475
    D4        2.57110   0.00003   0.00000   0.02332   0.02330   2.59440
    D5        0.47216   0.00003   0.00000   0.02341   0.02343   0.49559
    D6       -1.58965   0.00062   0.00000   0.03524   0.03524  -1.55442
    D7       -3.01921  -0.00117   0.00000  -0.11958  -0.11949  -3.13870
    D8       -1.13480  -0.00093   0.00000  -0.10994  -0.11002  -1.24482
    D9        1.08589  -0.00113   0.00000  -0.11534  -0.11534   0.97055
   D10       -0.94661  -0.00037   0.00000  -0.10572  -0.10564  -1.05225
   D11        0.93779  -0.00014   0.00000  -0.09609  -0.09616   0.84163
   D12       -3.12470  -0.00033   0.00000  -0.10149  -0.10149   3.05700
   D13        1.22399  -0.00029   0.00000  -0.10509  -0.10502   1.11897
   D14        3.10839  -0.00005   0.00000  -0.09546  -0.09554   3.01284
   D15       -0.95410  -0.00025   0.00000  -0.10086  -0.10087  -1.05497
   D16       -0.00242  -0.00001   0.00000   0.00045   0.00046  -0.00196
   D17        3.12968  -0.00008   0.00000   0.00191   0.00191   3.13158
   D18       -3.13663  -0.00001   0.00000  -0.00183  -0.00183  -3.13846
   D19       -0.00453  -0.00009   0.00000  -0.00038  -0.00038  -0.00491
   D20        0.01766  -0.00011   0.00000  -0.00602  -0.00601   0.01165
   D21       -3.12661  -0.00007   0.00000  -0.00278  -0.00278  -3.12939
   D22       -3.13136  -0.00010   0.00000  -0.00372  -0.00371  -3.13507
   D23        0.00756  -0.00006   0.00000  -0.00048  -0.00048   0.00708
   D24       -0.01579   0.00010   0.00000   0.00583   0.00582  -0.00997
   D25        3.09441  -0.00021   0.00000   0.00570   0.00568   3.10009
   D26        3.13533   0.00018   0.00000   0.00437   0.00437   3.13970
   D27       -0.03765  -0.00014   0.00000   0.00424   0.00423  -0.03342
   D28        0.01911  -0.00008   0.00000  -0.00668  -0.00667   0.01245
   D29       -3.06690  -0.00037   0.00000  -0.02511  -0.02514  -3.09204
   D30       -3.09623   0.00018   0.00000  -0.00654  -0.00652  -3.10275
   D31        0.10094  -0.00011   0.00000  -0.02496  -0.02500   0.07594
   D32       -3.05247   0.00019   0.00000  -0.00852  -0.00852  -3.06099
   D33       -0.05699  -0.00003   0.00000  -0.00650  -0.00649  -0.06348
   D34        0.06070  -0.00010   0.00000  -0.00865  -0.00866   0.05204
   D35        3.05618  -0.00031   0.00000  -0.00663  -0.00662   3.04955
   D36       -0.00350  -0.00003   0.00000   0.00097   0.00097  -0.00252
   D37        3.13204   0.00000   0.00000  -0.00189  -0.00188   3.13015
   D38        3.06829   0.00036   0.00000   0.02434   0.02431   3.09260
   D39       -0.07936   0.00039   0.00000   0.02148   0.02145  -0.05791
   D40        1.78341   0.00142   0.00000   0.05598   0.05600   1.83942
   D41       -0.19750   0.00028   0.00000   0.04369   0.04370  -0.15380
   D42       -2.33936   0.00064   0.00000   0.04996   0.04999  -2.28937
   D43       -1.29508   0.00108   0.00000   0.03496   0.03496  -1.26011
   D44        3.00720  -0.00006   0.00000   0.02266   0.02266   3.02986
   D45        0.86534   0.00030   0.00000   0.02893   0.02895   0.89428
   D46       -0.01441   0.00012   0.00000   0.00520   0.00520  -0.00921
   D47        3.12987   0.00009   0.00000   0.00196   0.00197   3.13183
   D48        3.13327   0.00009   0.00000   0.00807   0.00806   3.14133
   D49       -0.00564   0.00006   0.00000   0.00484   0.00483  -0.00082
   D50       -1.69747  -0.00115   0.00000  -0.06027  -0.06029  -1.75776
   D51        1.44492  -0.00069   0.00000  -0.02750  -0.02750   1.41742
   D52        0.23398  -0.00038   0.00000  -0.04911  -0.04910   0.18487
   D53       -2.90682   0.00008   0.00000  -0.01634  -0.01632  -2.92314
   D54        2.37867  -0.00049   0.00000  -0.05422  -0.05424   2.32443
   D55       -0.76213  -0.00004   0.00000  -0.02144  -0.02145  -0.78358
   D56       -1.25216  -0.00054   0.00000  -0.01685  -0.01685  -1.26900
   D57        2.93990  -0.00060   0.00000  -0.01751  -0.01761   2.92229
   D58        0.92282  -0.00014   0.00000  -0.01529  -0.01519   0.90763
   D59       -0.19039   0.00028   0.00000   0.03751   0.03753  -0.15287
   D60        3.09682   0.00052   0.00000   0.03556   0.03557   3.13239
   D61        2.95041  -0.00017   0.00000   0.00488   0.00490   2.95530
   D62       -0.04556   0.00007   0.00000   0.00293   0.00293  -0.04263
   D63       -0.98182   0.00007   0.00000  -0.00380  -0.00379  -0.98561
   D64        1.12782   0.00009   0.00000  -0.00366  -0.00365   1.12417
   D65       -3.06892   0.00013   0.00000  -0.00315  -0.00315  -3.07206
   D66        1.99470  -0.00019   0.00000  -0.00128  -0.00129   1.99341
   D67       -2.17885  -0.00018   0.00000  -0.00114  -0.00115  -2.18000
   D68       -0.09240  -0.00013   0.00000  -0.00064  -0.00064  -0.09304
   D69        1.30199  -0.00016   0.00000  -0.02693  -0.02762   1.27437
   D70       -0.55368   0.00010   0.00000   0.01581   0.01648  -0.53720
   D71        1.87979  -0.00006   0.00000  -0.00084  -0.00045   1.87934
         Item               Value     Threshold  Converged?
 Maximum Force            0.001584     0.000015     NO 
 RMS     Force            0.000397     0.000010     NO 
 Maximum Displacement     0.950140     0.000060     NO 
 RMS     Displacement     0.176965     0.000040     NO 
 Predicted change in Energy=-1.031071D-03
 GradGradGradGradGradGradGradGradGradGradGradGradGradGradGradGradGradGrad

                          Input orientation:                          
 ---------------------------------------------------------------------
 Center     Atomic      Atomic             Coordinates (Angstroms)
 Number     Number       Type             X           Y           Z
 ---------------------------------------------------------------------
      1          7           0        2.306121   -0.802085    1.176657
      2          8           0        2.787901    0.273218    1.434524
      3          8           0        2.938596   -1.781617    0.851027
      4          6           0        0.819843   -0.916246    1.163332
      5          1           0        0.435008   -0.261189    1.951910
      6          1           0        0.592123   -1.970029    1.352484
      7          1           0        3.613042    0.037271   -0.659904
      8          6           0       -3.969297   -0.369000    0.188500
      9          6           0       -3.172630    0.781095    0.104811
     10          6           0       -1.806963    0.596493   -0.058781
     11          6           0       -1.240269   -0.681912   -0.125920
     12          6           0       -2.032369   -1.813060   -0.045162
     13          6           0       -3.416398   -1.646936    0.108689
     14          1           0       -5.047173   -0.257053    0.314287
     15          1           0       -3.611930    1.777229    0.158623
     16          1           0       -1.589343   -2.808768   -0.108437
     17          1           0       -4.064200   -2.521994    0.165743
     18          6           0        0.259191   -0.533953   -0.234257
     19          6           0        0.403410    1.002949   -0.449496
     20          7           0       -0.811200    1.574866   -0.213807
     21          8           0        1.408232    1.587144   -0.801969
     22          8           0        0.823219   -1.287166   -1.243491
     23          6           0       -1.069714    2.994565   -0.303665
     24          1           0       -1.764031    3.209179   -1.128684
     25          1           0       -1.501004    3.362935    0.637093
     26          1           0       -0.114861    3.497289   -0.491375
     27          8           0        3.008282    0.166322   -1.403663
     28          1           0        1.758011   -0.994558   -1.390439
     29          1           0        2.408796    0.883642   -1.128278
 ---------------------------------------------------------------------
                    Distance matrix (angstroms):
                    1          2          3          4          5
     1  N    0.000000
     2  O    1.206186   0.000000
     3  O    1.210596   2.141384   0.000000
     4  C    1.490716   2.315518   2.309874   0.000000
     5  H    2.096342   2.467668   3.129153   1.095013   0.000000
     6  H    2.081537   3.140116   2.406843   1.094575   1.817727
     7  H    2.405310   2.263440   2.458890   3.469200   4.124385
     8  C    6.367487   6.901068   7.081908   4.917890   4.745433
     9  C    5.802761   6.128133   6.668690   4.465566   4.184875
    10  C    4.516612   4.842235   5.385489   3.268340   3.131282
    11  C    3.779951   4.424185   4.430202   2.441546   2.702024
    12  C    4.619243   5.456833   5.051201   3.224879   3.533348
    13  C    5.882309   6.628587   6.399622   4.426276   4.488996
    14  H    7.423724   7.932497   8.147693   5.964670   5.721550
    15  H    6.535487   6.696851   7.486936   5.282505   4.873267
    16  H    4.566496   5.571322   4.741080   3.317109   3.851387
    17  H    6.675405   7.508282   7.075092   5.237126   5.342705
    18  C    2.500500   3.135400   3.148606   1.553620   2.210122
    19  C    3.085908   3.125354   3.984010   2.541248   2.713999
    20  N    4.159444   4.167110   5.144008   3.280618   3.100720
    21  O    3.229486   2.937991   4.052525   3.236598   3.456494
    22  O    2.879483   3.669679   3.017667   2.435240   3.378450
    23  C    5.291707   5.030728   6.341276   4.584424   4.236949
    24  H    6.162059   5.992494   7.137367   5.380415   5.135103
    25  H    5.668573   5.345742   6.798693   4.896391   4.314065
    26  H    5.208464   4.746551   6.244397   4.805311   4.516431
    27  O    2.844099   2.848737   2.980428   3.542695   4.250221
    28  H    2.632005   3.263180   2.652812   2.721771   3.668714
    29  H    2.857437   2.661634   3.361836   3.319013   3.833280
                    6          7          8          9         10
     6  H    0.000000
     7  H    4.147880   0.000000
     8  C    4.972395   7.640466   0.000000
     9  C    4.826877   6.869019   1.401571   0.000000
    10  C    3.786069   5.481837   2.380969   1.387764   0.000000
    11  C    2.683763   4.935280   2.764845   2.434676   1.399989
    12  C    2.977585   5.972629   2.427262   2.837663   2.420111
    13  C    4.209472   7.269135   1.394700   2.440241   2.766098
    14  H    5.984463   8.719805   1.090950   2.153031   3.371451
    15  H    5.756849   7.476474   2.175983   1.090029   2.167789
    16  H    2.756187   5.955574   3.421231   3.929299   3.412568
    17  H    4.836772   8.134591   2.155205   3.421843   3.856227
    18  C    2.165850   3.428672   4.252769   3.690761   2.361713
    19  C    3.481572   3.358355   4.627078   3.625540   2.281143
    20  N    4.121755   4.705010   3.730154   2.511562   1.404562
    21  O    4.238063   2.698792   5.807352   4.738804   3.445460
    22  O    2.694215   3.142900   5.085454   4.697067   3.445224
    23  C    5.491059   5.549838   4.468040   3.080351   2.520765
    24  H    6.207403   6.260485   4.404717   3.066145   2.823590
    25  H    5.773514   6.236643   4.496781   3.121466   2.868981
    26  H    5.813020   5.088948   5.501554   4.133170   3.385995
    27  O    4.242425   0.967247   7.176919   6.391958   5.018002
    28  H    3.135995   2.244882   5.973812   5.449765   4.124778
    29  H    4.194987   1.544645   6.631974   5.716934   4.358773
                   11         12         13         14         15
    11  C    0.000000
    12  C    1.383272   0.000000
    13  C    2.392039   1.402428   0.000000
    14  H    3.855750   3.411658   2.152550   0.000000
    15  H    3.428282   3.927687   3.430107   2.494486   0.000000
    16  H    2.155383   1.091654   2.176035   4.318163   5.019318
    17  H    3.383128   2.162269   1.090242   2.473511   4.322953
    18  C    1.510631   2.631181   3.855683   5.341823   4.525649
    19  C    2.375950   3.745185   4.682349   5.646222   4.134280
    20  N    2.298885   3.605238   4.155848   4.645243   2.832622
    21  O    3.552493   4.896108   5.879254   6.805831   5.114772
    22  O    2.423485   3.141168   4.464547   6.160301   5.570188
    23  C    3.684721   4.909867   5.217327   5.174463   2.856305
    24  H    4.052215   5.144794   5.276671   4.987580   2.668776
    25  H    4.124434   5.247737   5.389504   5.077778   2.683170
    26  H    4.343480   5.663546   6.141928   6.250750   3.951025
    27  O    4.516892   5.583157   6.844825   8.247482   6.990205
    28  H    3.269011   4.104472   5.426554   7.054114   6.238482
    29  H    4.095284   5.307474   6.470455   7.679430   6.221234
                   16         17         18         19         20
    16  H    0.000000
    17  H    2.506458   0.000000
    18  C    2.933886   4.775354   0.000000
    19  C    4.314692   5.723922   1.558588   0.000000
    20  N    4.453410   5.245029   2.365010   1.363054   0.000000
    21  O    5.365676   6.911511   2.478234   1.214573   2.296075
    22  O    3.069866   5.234272   1.379859   2.459938   3.452941
    23  C    5.829820   6.294419   3.771107   2.481511   1.445838
    24  H    6.106316   6.309727   4.347926   3.166472   2.101396
    25  H    6.217196   6.436189   4.363860   3.221335   2.096914
    26  H    6.487456   7.229166   4.056715   2.547958   2.063405
    27  O    5.627338   7.727230   3.068453   2.897540   4.241249
    28  H    4.017420   6.217145   1.948172   2.590434   3.819325
    29  H    5.537064   7.427820   2.725739   2.120507   3.417955
                   21         22         23         24         25
    21  O    0.000000
    22  O    2.966283   0.000000
    23  C    2.892984   4.774902   0.000000
    24  H    3.577847   5.188849   1.099451   0.000000
[...]
 -0.00000691,-0.00005907,-0.00019196,-0.00001494,-0.00028442,-0.0004082
 3,-0.00000892,-0.00002655,-0.00004285,-0.00001875,-0.00431566,-0.00103
 674,0.00153158,0.00205939,0.03373941,-0.00483018,-0.11827072,0.0347817
 7,0.00407091,0.00073130,-0.00196219,0.00000974,0.00001645,0.00193582,0
 .00044479,0.62765284,0.00073439,-0.00045949,-0.00026898,-0.00029204,0.
 00021584,-0.00009243,-0.00044687,0.00027403,0.00017804,0.00023912,0.00
 009079,0.00021833,0.00008052,-0.00019080,0.00020658,-0.00016279,0.0000
 5650,-0.00008218,0.00016088,0.00000115,0.00001676,0.00025134,-0.001316
 15,0.00005055,0.00294167,0.00365355,-0.00055082,-0.00408358,-0.0264960
 5,0.00244165,-0.00080799,0.00341130,0.00007337,0.00050263,-0.00062788,
 -0.00015264,0.00044880,0.00131244,-0.00003534,0.00021538,0.00016708,-0
 .00002318,0.00040442,0.00035392,-0.00015661,-0.00006872,0.00013543,-0.
 00000885,0.00004197,0.00002204,-0.00000461,0.00028500,0.00066249,0.000
 50758,0.02879182,-0.01476739,-0.00375444,0.02840111,-0.24502744,0.0122
 6051,-0.01261509,-0.00441359,0.00254913,-0.00086788,0.00137010,0.00068
 651,0.02051733,0.51140099,-0.00031206,0.00007874,-0.00002399,0.0001094
 9,0.00000442,0.00001873,0.00012650,-0.00002169,-0.00004215,-0.00029547
 ,-0.00177844,-0.00006443,-0.00001292,0.00000408,-0.00009007,0.00034854
 ,-0.00010951,0.00037891,-0.00001703,-0.00001239,0.00001212,-0.00002896
 ,0.00040079,0.00036197,-0.00036493,-0.00050392,-0.00010652,-0.00118351
 ,0.00324264,-0.00219939,0.00117734,0.00024934,0.00159848,-0.00044057,-
 0.00007669,0.00084964,0.00031540,-0.00022341,0.00015122,-0.00000833,-0
 .00000786,-0.00004335,-0.00005928,0.00000815,-0.00044318,0.00000627,0.
 00001617,-0.00017782,-0.00000889,-0.00000346,-0.00012467,0.00126807,-0
 .00061728,0.00714701,-0.00174647,-0.00408208,-0.00152205,0.00355958,0.
 01651734,-0.06768889,0.00008268,-0.00050557,-0.00239155,-0.00030289,0.
 00144018,-0.00018716,-0.00833561,0.00725440,0.58843932,0.00012651,-0.0
 0006071,-0.00004850,-0.00005207,0.00002660,-0.00001331,-0.00007239,0.0
 0004119,0.00003062,0.00003085,0.00002055,0.00001419,0.00000505,-0.0000
 2053,0.00002377,-0.00001626,0.00000713,-0.00001143,0.00002614,-0.00000
 263,-0.00000192,-0.00019127,-0.00043215,-0.00026928,0.00043118,0.00068
 909,-0.00014681,-0.00024503,-0.00064592,0.00075393,0.00006642,0.000049
 78,-0.00012842,0.00029808,0.00007536,-0.00006645,-0.00013172,0.0004153
 9,-0.00000591,0.00004069,0.00002069,0.00001137,-0.00000943,-0.00006221
 ,0.00040578,0.00000367,0.00003227,0.00000295,0.00000512,0.00001582,0.0
 0004394,-0.00002659,-0.00023119,0.00006433,0.00135135,0.00013517,-0.00
 145095,-0.00398559,0.00576355,-0.00200003,-0.00050435,0.00036614,0.000
 34913,-0.00015958,0.00024188,0.00015598,-0.14674730,0.02336666,-0.1293
 5524,0.15166012,-0.00020263,0.00011869,0.00002276,0.00006605,-0.000057
 82,0.00002470,0.00009939,-0.00006112,-0.00003078,-0.00007899,0.0000816
 4,-0.00002588,-0.00001280,0.00004536,-0.00004003,0.00002688,-0.0000101
 2,0.00000686,-0.00004149,0.00000217,-0.00000553,-0.00016606,-0.0005764
 9,-0.00020998,-0.00014390,0.00050572,-0.00014972,0.00191858,0.00339146
 ,-0.00005856,0.00008007,-0.00135431,-0.00033225,0.00061187,0.00054697,
 -0.00012293,-0.00066211,0.00029076,0.00002103,-0.00000817,-0.00000939,
 0.00002184,-0.00026910,-0.00025644,0.00052577,0.00002649,-0.00000169,0
 .00004876,-0.00002079,0.00001478,0.00003947,0.00036786,0.00059001,-0.0
 0158323,-0.00672060,-0.00271813,0.00394698,0.02856149,-0.01976867,0.02
 732248,0.00261758,0.00199505,-0.00030201,0.00026730,-0.00096584,-0.000
 24346,0.01978297,-0.05091874,0.02767344,-0.03230510,0.06347339,0.00002
 899,-0.00004431,-0.00000638,-0.00000778,0.00002311,-0.00000781,-0.0000
 1715,0.00001749,0.00000926,0.00002318,0.00004634,0.00001504,0.00000138
 ,-0.00000726,0.00000723,-0.00001486,0.00000355,-0.00001443,0.00000767,
 0.00000038,0.00000217,0.00009069,-0.00010996,-0.00007396,-0.00035564,0
 .00010818,-0.00022254,-0.00070151,-0.00035538,0.00026515,0.00011068,0.
 00039156,-0.00015345,-0.00005045,-0.00012512,-0.00000592,0.00008506,0.
 00001473,-0.00003300,-0.00000235,-0.00000144,0.00000602,0.00039291,0.0
 0022633,-0.00016577,0.00000201,0.00000814,-0.00000289,0.00001139,-0.00
 002205,0.00001710,0.00013584,-0.00009535,-0.00014633,0.00211743,-0.000
 84842,-0.00039730,0.00089696,0.00466748,0.00536952,-0.00084078,-0.0002
 8365,-0.00008407,-0.00001897,-0.00003233,-0.00000848,-0.13033560,0.031
 72045,-0.21980721,0.14045389,-0.03708474,0.22723254,0.00012405,-0.0000
 4064,-0.00003918,-0.00005442,0.00000691,-0.00001048,-0.00006459,0.0000
 3053,0.00002546,0.00002832,0.00004968,0.00004641,0.00000255,-0.0000180
 6,0.00001552,-0.00001446,0.00000487,-0.00002052,0.00002192,0.00000016,
 0.00000310,-0.00013623,-0.00034908,0.00028574,0.00050214,0.00052616,-0
 .00009759,-0.00040990,-0.00062598,-0.00043094,0.00000594,0.00002307,0.
 00003016,0.00027376,0.00009465,-0.00003974,-0.00012701,0.00036433,0.00
 001063,0.00003882,0.00002267,-0.00001737,-0.00040032,-0.00020229,-0.00
 030062,0.00000318,0.00003122,0.00000307,-0.00000329,0.00001963,-0.0000
 3512,0.00001142,-0.00013189,-0.00003591,0.00078502,0.00035664,0.000977
 38,-0.00379991,0.00503618,0.00327878,-0.00053179,0.00082227,-0.0002658
 5,-0.00016270,0.00022140,0.00013399,-0.10166417,0.03516453,0.10267123,
 0.00938213,-0.00643927,-0.01631519,0.10362952,-0.00027857,0.00013372,0
 .00002519,0.00009522,-0.00005328,0.00002974,0.00013171,-0.00006124,-0.
 00004730,-0.00018691,-0.00060862,-0.00007050,-0.00001558,0.00003015,-0
 .00006076,0.00015750,-0.00004242,0.00015468,-0.00004488,0.00000125,0.0
 0000390,-0.00010232,-0.00031252,0.00020125,-0.00020594,0.00034196,0.00
 009373,0.00192607,0.00295549,-0.00043129,0.00034508,-0.00117627,0.0003
 6727,0.00041560,0.00041502,0.00005475,-0.00047561,0.00015433,0.0000392
 5,-0.00001245,-0.00000938,-0.00000967,-0.00043668,-0.00045435,-0.00031
 369,0.00001324,-0.00000808,-0.00003517,-0.00002569,0.00001400,-0.00003
 044,0.00071514,0.00034031,0.00154152,-0.00752519,-0.00325553,-0.000701
 17,0.02298790,-0.02419815,-0.02792118,0.00219631,0.00204198,-0.0010158
 0,0.00012281,-0.00026030,-0.00027704,0.03245374,-0.06920506,-0.0658065
 7,-0.00287844,0.00211870,0.00361892,-0.04455142,0.08495841,0.00001220,
 0.00001277,0.00001064,-0.00000442,-0.00000702,-0.00000120,0.00000254,-
 0.00000601,0.00000014,0.00000198,0.00010749,-0.00000327,-0.00000916,0.
 00001917,-0.00002012,-0.00001009,0.00000785,-0.00003283,-0.00000205,0.
 00000046,-0.00000258,-0.00006570,0.00026249,-0.00017210,0.00026979,-0.
 00020042,-0.00025010,0.00051245,-0.00011514,0.00024802,-0.00014767,-0.
 00010024,-0.00016035,-0.00009711,-0.00001294,0.00001003,0.00006133,-0.
 00009879,-0.00002640,-0.00000131,-0.00000218,0.00000852,-0.00023062,-0
 .00010980,0.00020973,-0.00000687,-0.00001084,0.00000332,-0.00000229,0.
 00001546,0.00003395,-0.00026930,0.00006216,-0.00037036,-0.00114757,0.0
 0132347,0.00005343,-0.00336052,-0.00003582,0.01060519,0.00022483,-0.00
 009487,-0.00009314,0.00003548,-0.00007581,0.00000706,0.10456787,-0.071
 03096,-0.25151863,0.01169931,-0.00632895,-0.01729890,-0.11112546,0.076
 41197,0.25956075,-0.00007404,0.00003997,0.00000443,0.00002290,-0.00001
 658,0.00001092,0.00003339,-0.00001791,-0.00001395,-0.00004970,-0.00010
 445,-0.00003493,0.00000295,0.00000072,-0.00000241,0.00002633,-0.000011
 51,0.00003655,-0.00001303,-0.00000103,-0.00000367,0.00006725,-0.000005
 90,0.00000642,-0.00022295,0.00003988,0.00002880,-0.00034516,0.00235289
 ,-0.00011189,0.00021865,0.00008117,0.00004440,-0.00014092,0.00005688,0
 .00000433,0.00001320,-0.00005544,-0.00000706,-0.00000181,0.00000165,0.
 00000439,0.00018268,-0.00007775,-0.00005065,0.00002226,0.00002871,-0.0
 0000840,0.00000142,-0.00000468,-0.00000003,0.00001284,0.00013269,0.000
 13433,-0.00110101,0.00109306,0.00037492,0.01067073,0.00367389,-0.00163
 019,-0.00092943,0.00151125,-0.00031969,0.00007638,-0.00015741,-0.00007
 272,-0.27012723,-0.12419047,0.03263402,-0.01142741,-0.00700171,0.00425
 460,-0.00756155,-0.00457840,-0.00088327,0.28073970,0.00000818,-0.00011
 431,0.00003505,0.00001315,0.00007210,-0.00003284,0.00000109,0.00002685
 ,0.00000602,0.00004195,0.00006090,0.00000310,-0.00000757,0.00000959,-0
 .00001599,-0.00001168,0.00001151,-0.00003064,0.00001181,0.00000053,0.0
 0001041,-0.00020089,0.00006616,0.00000639,0.00052932,-0.00004734,-0.00
 006891,0.00455442,-0.00326428,0.00000132,-0.00132499,-0.00100566,0.000
 21691,0.00049369,-0.00031538,-0.00004052,-0.00003325,0.00003621,0.0000
 1349,-0.00003173,-0.00003503,0.00000038,-0.00015990,0.00014967,0.00000
 749,-0.00009127,-0.00011529,0.00000104,-0.00001697,-0.00000054,-0.0000
 0161,-0.00026483,-0.00001759,-0.00003589,-0.00530840,-0.00080672,0.001
 11469,-0.03149862,-0.02532749,0.00498250,0.00167214,0.00238698,-0.0004
 2260,0.00011822,0.00013862,-0.00002323,-0.11077449,-0.10928984,0.01692
 640,0.00541131,0.00336758,-0.00179915,0.00961539,0.00603221,-0.0000075
 3,0.12716887,0.12803442,0.00001936,-0.00000904,-0.00000192,-0.00001076
 ,-0.00000073,-0.00000743,-0.00000917,0.00000240,0.00000298,0.00000736,
 0.00003364,0.00001157,0.00000179,-0.00000204,0.00000282,-0.00000667,0.
 00000168,-0.00000514,0.00000510,-0.00000064,-0.00000051,0.00002330,0.0
 0001529,0.00004750,-0.00002876,-0.00001162,-0.00001847,-0.00038183,-0.
 00007206,0.00028320,0.00014562,0.00015642,0.00026126,-0.00004917,0.000
 00061,0.00000377,0.00002481,0.00000033,-0.00000712,0.00000475,0.000003
 83,0.00000893,-0.00002357,-0.00002339,-0.00016703,0.00000205,0.0000090
 3,-0.00004416,0.00000235,0.00000011,-0.00000448,0.00008692,-0.00005996
 ,0.00000698,0.00055363,-0.00002973,0.00113530,0.00174648,0.00189351,-0
 .00222006,-0.00021033,-0.00032375,-0.00099577,-0.00004794,0.00003347,0
 .00002230,0.03172134,0.01834275,-0.05251941,-0.02045643,-0.01323120,0.
 00551843,0.02128855,0.01408535,-0.00080869,-0.03442706,-0.02080606,0.0
 4950567,-0.00197963,-0.00049147,0.00099362,0.00059241,-0.00059531,-0.0
 0020715,0.00072523,-0.00003573,0.00105430,0.00033247,0.00045845,0.0005
 8012,0.00023478,-0.00004600,0.00033013,0.00007704,0.00002161,-0.000072
 47,-0.22835619,0.10162444,-0.24409126,-0.00022073,-0.00006181,0.000037
 82,-0.00035217,-0.00006838,-0.00008075,0.00032000,0.00100910,-0.000176
 08,-0.00015474,0.00040610,0.00150682,0.00007425,0.00054902,-0.00013266
 ,-0.00030343,-0.00007105,0.00000335,-0.00006880,-0.00002149,0.00001030
 ,-0.00006103,0.00004772,-0.00001032,0.00014192,0.00002610,-0.00002672,
 -0.00010974,-0.00003146,0.00001558,0.00391191,-0.00489663,-0.00734453,
 0.00882865,0.00123581,-0.00123713,-0.00449650,0.00112472,0.00056387,-0
 .01292747,0.00806536,0.00556315,-0.03039102,-0.01094333,0.00681582,-0.
 00008651,-0.00099803,0.00000570,-0.00013664,0.00027236,-0.00005005,-0.
 00015279,0.00021146,0.00002640,0.00011542,-0.00013711,-0.00002319,0.32
 770480,0.00196077,-0.00857505,-0.00234844,0.00121764,0.00327672,-0.000
 10817,-0.00403247,0.00108488,0.00751322,0.00047621,0.00062981,0.000027
 07,0.00003106,-0.00006915,0.00022673,-0.00010622,0.00010659,-0.0001724
 8,0.12417911,-0.08737966,0.11502366,-0.00010625,-0.00006229,0.00000720
 ,0.00021488,0.00030243,-0.00006045,-0.00097024,-0.00158321,0.00029151,
 -0.00028785,0.00114219,0.00068354,0.00006547,0.00008887,-0.00004829,0.
 00005866,0.00015993,-0.00001812,0.00001267,0.00002050,-0.00000338,-0.0
 0006079,0.00000591,0.00000987,0.00005441,0.00003783,-0.00000733,-0.000
 02577,-0.00000329,0.00000184,0.00088706,-0.00273869,-0.00360954,-0.007
 54224,-0.00591869,0.00265028,0.00413205,0.00067904,-0.00088834,0.01437
 180,-0.00028628,-0.00517247,-0.01496939,0.00113769,0.00307945,-0.00006
 146,0.00045998,-0.00006830,0.00003740,-0.00008476,0.00003544,0.0000519
 2,-0.00008087,-0.00001620,-0.00006499,0.00011265,0.00001025,-0.2566157
 4,0.46694437,-0.00394083,0.00073490,-0.00116405,0.00232526,0.00208719,
 -0.00342224,0.00279105,0.00171399,-0.00594176,-0.00139303,-0.00053005,
 0.00123819,0.00016114,0.00001333,0.00003491,0.00013624,-0.00001421,0.0
 0000155,-0.21625412,0.07919126,-0.25865351,0.00006289,0.00000057,0.000
 00409,0.00014070,0.00006338,-0.00003127,-0.00026519,-0.00051320,0.0000
 0150,-0.00015942,0.00018109,0.00035251,0.00004436,-0.00016126,0.000000
 50,0.00009645,0.00004597,-0.00002735,0.00002403,0.00000793,0.00000039,
 0.00001268,-0.00001485,-0.00000474,-0.00002930,-0.00000786,0.00001435,
 0.00003621,0.00000941,-0.00000855,-0.00172912,-0.00012890,-0.00017498,
 -0.00363786,-0.00071542,0.00080472,0.00165084,-0.00025413,-0.00057799,
 0.00505576,-0.00161557,0.00186527,0.00121311,0.00065219,0.00495802,0.0
 0001009,0.00035365,-0.00004735,0.00005736,-0.00007719,0.00001678,0.000
 04807,-0.00008975,-0.00000464,-0.00003870,0.00006155,0.00001468,0.1836
 6786,0.05427874,0.37160562,0.00624296,-0.00088189,-0.00326557,-0.00166
 583,-0.00050270,0.00105768,-0.00281698,0.00068037,0.00212777,0.0011691
 4,-0.00114173,-0.00365937,-0.00075579,0.00018976,-0.00101680,-0.000120
 97,-0.00012636,0.00040148,-0.00361366,0.00298394,-0.00208909,0.0003263
 0,0.00011829,0.00000079,0.00007546,-0.00024123,0.00007646,0.00021651,0
 .00039456,0.00014194,0.00078101,-0.00041481,-0.00164620,0.00003536,-0.
 00054959,0.00049168,0.00016180,0.00002347,-0.00008625,0.00006092,-0.00
 000102,0.00000287,0.00010968,-0.00006014,-0.00001724,-0.00024818,-0.00
 009398,0.00002812,0.00014855,0.00003267,-0.00002445,-0.01555675,0.0054
 7293,0.01401475,0.00366752,0.00505001,-0.00424604,-0.00036534,-0.00283
 792,0.00058222,-0.00512918,-0.00149185,0.00185836,-0.36127071,-0.10833
 607,0.05486503,0.00039876,0.00058462,0.00026903,0.00012336,-0.00028210
 ,0.00000802,0.00009200,-0.00015586,-0.00001266,-0.00005244,-0.00000273
 ,0.00001554,0.01258721,0.01147792,0.00083039,0.36081147,0.00152860,0.0
 0436095,0.00029015,-0.00110719,-0.00215785,0.00034877,-0.00016775,-0.0
 0157578,-0.00059378,-0.00054732,-0.00004273,-0.00150785,-0.00019503,0.
 00003049,-0.00038778,-0.00005860,-0.00011630,0.00030078,0.00123394,0.0
 0373722,-0.00154200,0.00019808,0.00012002,-0.00006015,-0.00013541,-0.0
 0036823,0.00028771,0.00170407,0.00128100,-0.00001805,0.00106764,-0.002
 57598,-0.00416438,0.00001271,-0.00024823,-0.00005369,0.00015358,-0.000
 15967,0.00029008,-0.00000166,-0.00000876,-0.00002914,0.00012107,-0.000
 02396,-0.00001100,0.00005601,0.00011052,-0.00023844,0.00006361,0.00001
 217,-0.00000272,0.02528527,0.00584649,-0.00233181,0.00781455,0.0011990
 7,-0.00220529,-0.00253219,0.00041857,0.00029727,-0.00415412,0.00156987
 ,0.00226193,-0.13242415,-0.07040885,0.00237595,-0.00017458,-0.00024786
 ,-0.00005794,-0.00002249,0.00011140,-0.00002647,-0.00002802,0.00005965
 ,0.00001008,0.00004877,-0.00011271,-0.00000476,0.01003948,-0.00696690,
 0.00091325,0.09742998,0.07280443,-0.00128873,-0.00372820,-0.00493219,0
 .00055770,0.00128071,0.00018039,-0.00113146,0.00202254,0.00063628,0.00
 198791,0.00067761,0.00028195,-0.00008477,-0.00024852,0.00041580,-0.000
 03081,-0.00001819,-0.00022473,-0.00294687,-0.00296217,0.00025831,-0.00
 007026,0.00004419,-0.00003696,-0.00009831,-0.00014555,0.00013723,0.000
 75926,0.00024703,-0.00017581,0.00012803,-0.00198745,-0.00157240,-0.000
 09450,0.00015423,0.00000495,0.00000032,-0.00003870,0.00011853,-0.00001
 663,0.00000407,-0.00000314,0.00001550,0.00001725,0.00000413,0.00004606
 ,0.00007638,-0.00008336,-0.00003963,-0.00000527,0.00001033,0.03370095,
 0.00661228,-0.01274347,0.00120510,-0.00143912,0.00138209,-0.00067184,0
 .00066005,-0.00011456,-0.00070958,0.00049045,-0.00048249,0.02971884,-0
 .00914970,-0.03756462,-0.00008847,-0.00020561,-0.00002231,-0.00003807,
 0.00007819,-0.00000503,-0.00003122,0.00005649,0.00000423,0.00001304,-0
 .00002039,-0.00000102,0.00121665,0.00249514,-0.00935017,-0.05997331,0.
 00621375,0.06295471,0.00169926,-0.00163696,-0.00011269,-0.00084342,0.0
 0055810,0.00047009,-0.00077859,0.00036885,0.00098366,-0.00001989,0.000
 38417,0.00014316,-0.00001760,-0.00005844,0.00009801,-0.00017920,0.0000
 6965,-0.00020027,-0.01023745,0.02524963,0.01089611,0.00001060,-0.00005
 280,-0.00002681,0.00059697,0.00042022,-0.00004424,-0.00169346,-0.00290
 637,0.00058745,-0.00039217,0.00130428,-0.00004296,0.00013374,-0.000335
 73,0.00000298,0.00031852,0.00031239,-0.00002070,0.00007232,0.00004133,
 -0.00001172,-0.00002443,-0.00002901,0.00002218,-0.00003153,0.00004189,
 -0.00000083,0.00005959,0.00001922,-0.00000761,-0.00027398,-0.00108970,
 -0.00013402,-0.01920441,-0.00610057,0.00480198,0.00913093,-0.00040045,
 -0.00160672,0.01169074,0.00442523,-0.00515137,-0.00195987,0.00169128,0
 .00057528,0.00002327,0.00140129,-0.00010167,0.00015497,-0.00034405,0.0
 0008963,0.00018235,-0.00029784,-0.00003809,-0.00015940,0.00022489,0.00
 002593,-0.07584868,0.12561436,0.02908308,0.00458783,-0.00520884,-0.002
 03491,0.08300300,-0.00199064,-0.00041481,0.00148882,0.00097482,0.00029
 966,-0.00080902,0.00086981,-0.00033662,-0.00084449,-0.00051919,-0.0005
 1138,0.00008090,0.00001152,0.00007707,-0.00015067,0.00016460,-0.000056
 37,0.00009878,0.00219881,-0.01111504,-0.00724784,0.00006995,0.00007352
 ,-0.00000003,-0.00029596,-0.00028301,0.00002212,0.00095806,0.00167767,
 -0.00028781,0.00014636,-0.00074393,-0.00005666,-0.00003224,0.00002161,
 0.00000927,-0.00009461,-0.00017384,-0.00000391,-0.00002400,-0.00002271
 ,0.00000718,0.00003968,0.00000340,-0.00001113,-0.00002532,-0.00004119,
 0.00001407,0.00000695,-0.00000300,0.00000231,-0.00255068,0.00107136,0.
 00217072,0.00546948,0.00620203,-0.00182165,-0.00479604,-0.00054473,0.0
 0114945,-0.00458551,-0.01050019,0.00137084,0.00503683,0.00144415,-0.00
 102115,0.00008244,-0.00062734,0.00005903,-0.00005462,0.00012983,-0.000
 04648,-0.00005557,0.00012890,0.00002018,0.00005785,-0.00005382,-0.0000
 1366,0.14992180,-0.36244058,-0.13618599,-0.00731855,-0.00664805,-0.001
 18151,-0.14366600,0.38338742,0.00095524,0.00665927,0.00054476,-0.00170
 445,-0.00346893,0.00039254,0.00130562,-0.00193621,-0.00155949,0.000307
 12,0.00020891,-0.00052707,-0.00006345,-0.00001431,-0.00005448,-0.00004
 745,-0.00002130,0.00006805,-0.01234524,0.02951816,0.00918635,-0.000027
 18,0.00002194,-0.00002048,-0.00021067,-0.00012987,0.00002375,0.0005511
 9,0.00094997,0.00003242,0.00020444,-0.00045472,-0.00015175,-0.00008920
 ,0.00015086,-0.00003097,-0.00011067,-0.00011051,0.00001498,-0.00002731
 ,-0.00001329,0.00000282,0.00000126,0.00001292,0.00000617,0.00001608,-0
 .00001240,-0.00000066,-0.00002989,-0.00000803,0.00001397,-0.00022468,0
 .00040306,0.00049361,0.00633674,0.00190143,-0.00174902,-0.00287807,0.0
 0014204,0.00115461,-0.00466154,-0.00241878,-0.00209828,0.00073085,-0.0
 0004719,-0.00074091,0.00000372,-0.00049359,0.00006275,-0.00007380,0.00
 009417,-0.00002578,-0.00005290,0.00012631,0.00000830,0.00005346,-0.000
 08138,-0.00002416,0.05106083,-0.17381244,-0.10150449,-0.00073513,-0.00
 035445,0.00092332,-0.03824494,0.14318835,0.09555915\\-0.00000241,0.000
 00381,0.00000943,-0.00000414,0.00000103,0.00000777,-0.00000172,0.00000
 060,0.00001182,-0.00000441,0.00000176,0.00000483,-0.00000509,0.0000034
 4,0.00000307,-0.00000373,0.00000232,0.00000618,0.00000235,-0.00000182,
 0.00001222,-0.00000055,0.00000038,-0.00000849,0.00000014,0.00000058,-0
 .00000874,-0.00000010,-0.00000014,-0.00000443,0.00000008,-0.00000028,-
 0.00000082,0.00000009,0.00000030,-0.00000091,-0.00000068,0.00000060,-0
 .00000500,-0.00000076,0.00000081,-0.00001164,-0.00000019,0.00000044,-0
 .00001165,-0.00000014,0.,0.00000205,-0.00000064,0.00000053,-0.00000489
 ,0.00000109,-0.00000041,0.00000297,-0.00000033,-0.00000099,0.00000031,
 0.00000096,-0.00000023,-0.00000439,0.00000237,-0.00000102,0.00000157,0
 .00000304,-0.00000170,0.00000526,0.00000105,-0.00000061,-0.00000690,0.
 00000331,-0.00000181,-0.00000941,-0.00000153,0.00000114,-0.00000922,0.
 00000135,-0.00000073,-0.00000572,0.00000535,-0.00000351,0.00000939,0.0
 0000318,-0.00000241,0.00000752,0.00000204,-0.00000206,0.00000785\\\@


 A SLIP OF THE FOOT YOU MAY SOON RECOVER, BUT A SLIP OF THE TONGUE
 YOU MAY NEVER GET OVER. -- BEN FRANKLIN
 Job cpu time:       0 days  1 hours 11 minutes  2.8 seconds.
 File lengths (MBytes):  RWF=    356 Int=      0 D2E=      0 Chk=     16 Scr=      1
 Normal termination of Gaussian 09 at Tue Aug 24 16:22:02 2021.
