 Entering Gaussian System, Link 0=g09
 Input=MeNO2_H2O_TS3_freq.com
 Output=MeNO2_H2O_TS3_freq.log
 Initial command:
 /apps/applications/gaussian/G09.D01/2/default/g09/l1.exe "/nobackup/chmbnn/Gau-153264.inp" -scrdir="/nobackup/chmbnn/"
 Entering Link 1 = /apps/applications/gaussian/G09.D01/2/default/g09/l1.exe PID=    153265.
  
 Copyright (c) 1988,1990,1992,1993,1995,1998,2003,2009,2013,
            Gaussian, Inc.  All Rights Reserved.
  
 This is part of the Gaussian(R) 09 program.  It is based on
 the Gaussian(R) 03 system (copyright 2003, Gaussian, Inc.),
 the Gaussian(R) 98 system (copyright 1998, Gaussian, Inc.),
 the Gaussian(R) 94 system (copyright 1995, Gaussian, Inc.),
 the Gaussian 92(TM) system (copyright 1992, Gaussian, Inc.),
 the Gaussian 90(TM) system (copyright 1990, Gaussian, Inc.),
 the Gaussian 88(TM) system (copyright 1988, Gaussian, Inc.),
 the Gaussian 86(TM) system (copyright 1986, Carnegie Mellon
 University), and the Gaussian 82(TM) system (copyright 1983,
 Carnegie Mellon University). Gaussian is a federally registered
 trademark of Gaussian, Inc.
  
 This software contains proprietary and confidential information,
 including trade secrets, belonging to Gaussian, Inc.
  
 This software is provided under written license and may be
 used, copied, transmitted, or stored only in accord with that
 written license.
  
 The following legend is applicable only to US Government
 contracts under FAR:
  
                    RESTRICTED RIGHTS LEGEND
  
 Use, reproduction and disclosure by the US Government is
 subject to restrictions as set forth in subparagraphs (a)
 and (c) of the Commercial Computer Software - Restricted
 Rights clause in FAR 52.227-19.
  
 Gaussian, Inc.
 340 Quinnipiac St., Bldg. 40, Wallingford CT 06492
  
  
 ---------------------------------------------------------------
 Warning -- This program may not be used in any manner that
 competes with the business of Gaussian, Inc. or will provide
 assistance to any competitor of Gaussian, Inc.  The licensee
 of this program is prohibited from giving any competitor of
 Gaussian, Inc. access to this program.  By using this program,
 the user acknowledges that Gaussian, Inc. is engaged in the
 business of creating and licensing software in the field of
 computational chemistry and represents and warrants to the
 licensee that it is not a competitor of Gaussian, Inc. and that
 it will not use this program in any manner prohibited above.
 ---------------------------------------------------------------
  

 Cite this work as:
 Gaussian 09, Revision D.01,
 M. J. Frisch, G. W. Trucks, H. B. Schlegel, G. E. Scuseria, 
 M. A. Robb, J. R. Cheeseman, G. Scalmani, V. Barone, B. Mennucci, 
 G. A. Petersson, H. Nakatsuji, M. Caricato, X. Li, H. P. Hratchian, 
 A. F. Izmaylov, J. Bloino, G. Zheng, J. L. Sonnenberg, M. Hada, 
 M. Ehara, K. Toyota, R. Fukuda, J. Hasegawa, M. Ishida, T. Nakajima, 
 Y. Honda, O. Kitao, H. Nakai, T. Vreven, J. A. Montgomery, Jr., 
 J. E. Peralta, F. Ogliaro, M. Bearpark, J. J. Heyd, E. Brothers, 
 K. N. Kudin, V. N. Staroverov, T. Keith, R. Kobayashi, J. Normand, 
 K. Raghavachari, A. Rendell, J. C. Burant, S. S. Iyengar, J. Tomasi, 
 M. Cossi, N. Rega, J. M. Millam, M. Klene, J. E. Knox, J. B. Cross, 
 V. Bakken, C. Adamo, J. Jaramillo, R. Gomperts, R. E. Stratmann, 
 O. Yazyev, A. J. Austin, R. Cammi, C. Pomelli, J. W. Ochterski, 
 R. L. Martin, K. Morokuma, V. G. Zakrzewski, G. A. Voth, 
 P. Salvador, J. J. Dannenberg, S. Dapprich, A. D. Daniels, 
 O. Farkas, J. B. Foresman, J. V. Ortiz, J. Cioslowski, 
 and D. J. Fox, Gaussian, Inc., Wallingford CT, 2013.
 
 ******************************************
 Gaussian 09:  ES64L-G09RevD.01 24-Apr-2013
                23-Oct-2020 
 ******************************************
 %nprocshared=4
 Will use up to    4 processors via shared memory.
 %chk=MeNO2_H2O_TS3_freq.chk
 -------------------------------------------------------------
 # freq scrf=(cpcm,solvent=nitromethane) pop=nbo def2svp m062x
 -------------------------------------------------------------
 1/10=4,30=1,38=1/1,3;
 2/12=2,17=6,18=5,40=1/2;
 3/5=43,7=101,11=2,16=1,25=1,30=1,70=2101,71=2,72=15,74=-55,140=1/1,2,3;
 4//1;
 5/5=2,38=5,53=15,98=1/2;
 8/6=4,10=90,11=11/1;
 11/6=1,8=1,9=11,15=111,16=1/1,2,10;
 10/6=1/2;
 6/7=2,8=2,9=2,10=2,18=1,28=1,40=1/1,7;
 7/8=1,10=1,25=1/1,2,3,16;
 1/10=4,30=1/3;
 99//99;
 -------------------
 MeNO2+2H2O TS3 freq
 -------------------
 Symbolic Z-matrix:
 Charge =  0 Multiplicity = 1
 N                     1.20229  -0.05781   0.07098 
 O                     2.17385   0.2106   -0.6185 
 O                     0.71166  -1.22737   0.01505 
 C                     0.58497   0.89063   0.85213 
 H                     0.06998   0.4575    1.71078 
 H                     1.20496   1.7731    1.0044 
 H                    -0.77972   1.27966  -0.02448 
 O                    -1.73108   1.2041   -0.49664 
 H                    -2.35277   1.74807   0.01148 
 H                    -1.90815   0.0866   -0.28532 
 O                    -1.80309  -1.14402  -0.01658 
 H                    -2.18829  -1.35715   0.84504 
 H                    -0.78252  -1.27334   0.06175 
 

 GradGradGradGradGradGradGradGradGradGradGradGradGradGradGradGradGradGrad
 Berny optimization.
 Initialization pass.
 Trust Radius=3.00D-01 FncErr=1.00D-07 GrdErr=1.00D-07
 Number of steps in this run=      2 maximum allowed number of steps=      2.
 GradGradGradGradGradGradGradGradGradGradGradGradGradGradGradGradGradGrad

                          Input orientation:                          
 ---------------------------------------------------------------------
 Center     Atomic      Atomic             Coordinates (Angstroms)
 Number     Number       Type             X           Y           Z
 ---------------------------------------------------------------------
      1          7           0        1.202294   -0.057814    0.070981
      2          8           0        2.173845    0.210596   -0.618495
      3          8           0        0.711659   -1.227368    0.015048
      4          6           0        0.584969    0.890630    0.852132
      5          1           0        0.069976    0.457501    1.710776
      6          1           0        1.204963    1.773102    1.004404
      7          1           0       -0.779717    1.279661   -0.024483
      8          8           0       -1.731083    1.204100   -0.496640
      9          1           0       -2.352768    1.748074    0.011483
     10          1           0       -1.908151    0.086602   -0.285318
     11          8           0       -1.803091   -1.144020   -0.016577
     12          1           0       -2.188290   -1.357148    0.845043
     13          1           0       -0.782517   -1.273338    0.061746
 ---------------------------------------------------------------------
                    Distance matrix (angstroms):
                    1          2          3          4          5
     1  N    0.000000
     2  O    1.221201   0.000000
     3  O    1.269531   2.146417   0.000000
     4  C    1.375076   2.269299   2.280937   0.000000
     5  H    2.058305   3.148449   2.475083   1.090912   0.000000
     6  H    2.055125   2.452337   3.197655   1.089191   1.875623
     7  H    2.392973   3.196761   2.917355   1.667983   2.099774
     8  O    3.243350   4.031174   3.484372   2.698434   2.945150
     9  H    3.987886   4.821922   4.271297   3.173673   3.228446
    10  H    3.134114   4.097447   2.946208   2.855854   2.834598
    11  O    3.196850   4.244209   2.516330   3.255347   3.009485
    12  H    3.712614   4.860863   3.019178   3.569807   3.023609
    13  H    2.327458   3.377109   1.495612   2.679083   2.538080
                    6          7          8          9         10
     6  H    0.000000
     7  H    2.289333   0.000000
     8  O    3.346231   1.064772   0.000000
     9  H    3.693774   1.641705   0.969840   0.000000
    10  H    3.768175   1.662765   1.151005   1.745355   0.000000
    11  O    4.312817   2.630891   2.397773   2.944001   1.263998
    12  H    4.619310   3.113345   2.927310   3.219360   1.854888
    13  H    3.757589   2.554456   2.710954   3.405458   1.799150
                   11         12         13
    11  O    0.000000
    12  H    0.967570   0.000000
    13  H    1.031712   1.611452   0.000000
 Stoichiometry    CH7NO4
 Framework group  C1[X(CH7NO4)]
 Deg. of freedom    33
 Full point group                 C1      NOp   1
 Largest Abelian subgroup         C1      NOp   1
 Largest concise Abelian subgroup C1      NOp   1
                         Standard orientation:                         
 ---------------------------------------------------------------------
 Center     Atomic      Atomic             Coordinates (Angstroms)
 Number     Number       Type             X           Y           Z
 ---------------------------------------------------------------------
      1          7           0        1.202294   -0.057814    0.070981
      2          8           0        2.173845    0.210596   -0.618495
      3          8           0        0.711659   -1.227368    0.015048
      4          6           0        0.584969    0.890630    0.852132
      5          1           0        0.069976    0.457501    1.710776
      6          1           0        1.204963    1.773102    1.004404
      7          1           0       -0.779717    1.279661   -0.024483
      8          8           0       -1.731083    1.204100   -0.496640
      9          1           0       -2.352768    1.748074    0.011483
     10          1           0       -1.908151    0.086602   -0.285318
     11          8           0       -1.803091   -1.144020   -0.016577
     12          1           0       -2.188290   -1.357148    0.845043
     13          1           0       -0.782517   -1.273338    0.061746
 ---------------------------------------------------------------------
 Rotational constants (GHZ):      4.4510929      2.0397078      1.6077777
 Standard basis: def2SVP (5D, 7F)
 There are   125 symmetry adapted cartesian basis functions of A   symmetry.
 There are   119 symmetry adapted basis functions of A   symmetry.
   119 basis functions,   199 primitive gaussians,   125 cartesian basis functions
    26 alpha electrons       26 beta electrons
       nuclear repulsion energy       272.1084339107 Hartrees.
 NAtoms=   13 NActive=   13 NUniq=   13 SFac= 1.00D+00 NAtFMM=   60 NAOKFM=F Big=F
 Integral buffers will be    131072 words long.
 Raffenetti 2 integral format.
 Two-electron integral symmetry is turned on.
 Force inversion solution in PCM.
 ------------------------------------------------------------------------------
 Polarizable Continuum Model (PCM)
 =================================
 Model                : C-PCM.
 Atomic radii         : UFF (Universal Force Field).
 Polarization charges : Total charges.
 Charge compensation  : None.
 Solution method      : Matrix inversion.
 Cavity type          : Scaled VdW (van der Waals Surface) (Alpha=1.100).
 Cavity algorithm     : GePol (No added spheres)
                        Default sphere list used, NSphG=   13.
                        Lebedev-Laikov grids with approx.  5.0 points / Ang**2.
                        Smoothing algorithm: Karplus/York (Gamma=1.0000).
                        Polarization charges: spherical gaussians, with
                                              point-specific exponents (IZeta= 3).
                        Self-potential: point-specific (ISelfS= 7).
                        Self-field    : sphere-specific E.n sum rule (ISelfD= 2).
 1st derivatives      : Analytical E(r).r(x)/FMM algorithm (CHGder, D1EAlg=3).
                        Cavity 1st derivative terms included.
 2nd derivatives      : Analytical E(r).r(xy)/FMM algorithm (CHGder, D2EAlg=3).
                        Cavity 2nd derivative terms included.
 Solvent              : NitroMethane, Eps=  36.562000 Eps(inf)=   1.909095
 ------------------------------------------------------------------------------
 Spheres list:
 ISph  on   Nord     Re0    Alpha      Xe            Ye            Ze
    1   N      1    1.8300  1.100      1.202294     -0.057814      0.070981
    2   O      2    1.7500  1.100      2.173845      0.210596     -0.618495
    3   O      3    1.7500  1.100      0.711659     -1.227368      0.015048
    4   C      4    1.9255  1.100      0.584969      0.890630      0.852132
    5   H      5    1.4430  1.100      0.069976      0.457501      1.710776
    6   H      6    1.4430  1.100      1.204963      1.773102      1.004404
    7   H      7    1.4430  1.100     -0.779717      1.279661     -0.024483
    8   O      8    1.7500  1.100     -1.731083      1.204100     -0.496640
    9   H      9    1.4430  1.100     -2.352768      1.748074      0.011483
   10   H     10    1.4430  1.100     -1.908151      0.086602     -0.285318
   11   O     11    1.7500  1.100     -1.803091     -1.144020     -0.016577
   12   H     12    1.4430  1.100     -2.188290     -1.357148      0.845043
   13   H     13    1.4430  1.100     -0.782517     -1.273338      0.061746
 ------------------------------------------------------------------------------
 One-electron integrals computed using PRISM.
   1 Symmetry operations used in ECPInt.
 ECPInt:  NShTT=    1653 NPrTT=    5877 LenC2=    1637 LenP2D=    4787.
 LDataN:  DoStor=T MaxTD1= 4 Len=   56
 NBasis=   119 RedAO= T EigKep=  6.14D-03  NBF=   119
 NBsUse=   119 1.00D-06 EigRej= -1.00D+00 NBFU=   119
 ExpMin= 1.22D-01 ExpMax= 2.27D+03 ExpMxC= 3.41D+02 IAcc=1 IRadAn=         1 AccDes= 0.00D+00
 Harris functional with IExCor= 1009 and IRadAn=       1 diagonalized for initial guess.
 HarFok:  IExCor= 1009 AccDes= 0.00D+00 IRadAn=         1 IDoV= 1 UseB2=F ITyADJ=14
 ICtDFT=  3500011 ScaDFX=  1.000000  1.000000  1.000000  1.000000
 FoFCou: FMM=F IPFlag=           0 FMFlag=      100000 FMFlg1=           0
         NFxFlg=           0 DoJE=T BraDBF=F KetDBF=T FulRan=T
         wScrn=  0.000000 ICntrl=     500 IOpCl=  0 I1Cent=   200000004 NGrid=           0
         NMat0=    1 NMatS0=      1 NMatT0=    0 NMatD0=    1 NMtDS0=    0 NMtDT0=    0
 Petite list used in FoFCou.
 Keep R1 ints in memory in canonical form, NReq=30151429.
 Requested convergence on RMS density matrix=1.00D-08 within 128 cycles.
 Requested convergence on MAX density matrix=1.00D-06.
 Requested convergence on             energy=1.00D-06.
 No special actions if energy rises.
 Inv3:  Mode=1 IEnd=     4241163.
 Iteration    1 A*A^-1 deviation from unit magnitude is 4.22D-15 for   1186.
 Iteration    1 A*A^-1 deviation from orthogonality  is 1.78D-15 for   1155    231.
 Iteration    1 A^-1*A deviation from unit magnitude is 4.22D-15 for   1186.
 Iteration    1 A^-1*A deviation from orthogonality  is 2.85D-15 for   1150    242.
 Error on total polarization charges =  0.00340
 SCF Done:  E(RM062X) =  -397.365707389     A.U. after   13 cycles
            NFock= 13  Conv=0.73D-08     -V/T= 2.0071
 DoSCS=F DFT=T ScalE2(SS,OS)=  1.000000  1.000000
 Range of M.O.s used for correlation:     1   119
 NBasis=   119 NAE=    26 NBE=    26 NFC=     0 NFV=     0
 NROrb=    119 NOA=    26 NOB=    26 NVA=    93 NVB=    93
   1 Symmetry operations used in ECPInt.
 ECPInt:  NShTT=    1653 NPrTT=    5877 LenC2=    1637 LenP2D=    4787.
 LDataN:  DoStor=T MaxTD1= 5 Len=  102
 Symmetrizing basis deriv contribution to polar:
 IMax=3 JMax=2 DiffMx= 0.00D+00
 G2DrvN: will do    14 centers at a time, making    1 passes.
 Calling FoFCou, ICntrl=  3107 FMM=F I1Cent=   0 AccDes= 0.00D+00.
 NEqPCM:  Using equilibrium solvation (IEInf=0, Eps=  36.5620, EpsInf=   1.9091)
 G2PCM: DoFxE=T DoFxN=T DoGrad=T DoDP/DQ/DG/TGxP=FFFF NFrqRd=   0 IEInf=0 SqF1=F DoCFld=F IF1Alg=4.
 End of G2Drv F.D. properties file   721 does not exist.
 End of G2Drv F.D. properties file   722 does not exist.
 End of G2Drv F.D. properties file   788 does not exist.
          IDoAtm=1111111111111
 NEqPCM:  Using equilibrium solvation (IEInf=0, Eps=  36.5620, EpsInf=   1.9091)
          Differentiating once with respect to electric field.
                with respect to dipole field.
          Differentiating once with respect to nuclear coordinates.
 Keep R1 ints in memory in canonical form, NReq=30134949.
          There are    42 degrees of freedom in the 1st order CPHF.  IDoFFX=6 NUNeed=     3.
     39 vectors produced by pass  0 Test12= 5.76D-15 2.38D-09 XBig12= 3.19D+01 3.78D+00.
 AX will form    39 AO Fock derivatives at one time.
     39 vectors produced by pass  1 Test12= 5.76D-15 2.38D-09 XBig12= 4.66D+00 5.06D-01.
     39 vectors produced by pass  2 Test12= 5.76D-15 2.38D-09 XBig12= 8.41D-02 4.84D-02.
     39 vectors produced by pass  3 Test12= 5.76D-15 2.38D-09 XBig12= 5.27D-04 3.78D-03.
     39 vectors produced by pass  4 Test12= 5.76D-15 2.38D-09 XBig12= 1.93D-06 1.62D-04.
     39 vectors produced by pass  5 Test12= 5.76D-15 2.38D-09 XBig12= 5.05D-09 9.59D-06.
     16 vectors produced by pass  6 Test12= 5.76D-15 2.38D-09 XBig12= 1.13D-11 3.73D-07.
      3 vectors produced by pass  7 Test12= 5.76D-15 2.38D-09 XBig12= 2.41D-14 1.70D-08.
 InvSVY:  IOpt=1 It=  1 EMax= 4.44D-15
 Solved reduced A of dimension   253 with    42 vectors.
 Isotropic polarizability for W=    0.000000       54.04 Bohr**3.
 End of Minotr F.D. properties file   721 does not exist.
 End of Minotr F.D. properties file   722 does not exist.
 End of Minotr F.D. properties file   788 does not exist.

 **********************************************************************

            Population analysis using the SCF density.

 **********************************************************************

 Orbital symmetries:
       Occupied  (A) (A) (A) (A) (A) (A) (A) (A) (A) (A) (A) (A)
                 (A) (A) (A) (A) (A) (A) (A) (A) (A) (A) (A) (A)
                 (A) (A)
       Virtual   (A) (A) (A) (A) (A) (A) (A) (A) (A) (A) (A) (A)
                 (A) (A) (A) (A) (A) (A) (A) (A) (A) (A) (A) (A)
                 (A) (A) (A) (A) (A) (A) (A) (A) (A) (A) (A) (A)
                 (A) (A) (A) (A) (A) (A) (A) (A) (A) (A) (A) (A)
                 (A) (A) (A) (A) (A) (A) (A) (A) (A) (A) (A) (A)
                 (A) (A) (A) (A) (A) (A) (A) (A) (A) (A) (A) (A)
                 (A) (A) (A) (A) (A) (A) (A) (A) (A) (A) (A) (A)
                 (A) (A) (A) (A) (A) (A) (A) (A) (A)
 The electronic state is 1-A.
 Alpha  occ. eigenvalues --  -19.68298 -19.66373 -19.63004 -19.62945 -14.97372
 Alpha  occ. eigenvalues --  -10.55383  -1.31494  -1.18158  -1.14079  -1.11698
 Alpha  occ. eigenvalues --   -0.89376  -0.68718  -0.66837  -0.63689  -0.62432
 Alpha  occ. eigenvalues --   -0.58726  -0.57875  -0.57339  -0.50693  -0.49877
 Alpha  occ. eigenvalues --   -0.46606  -0.42565  -0.37910  -0.36322  -0.34858
 Alpha  occ. eigenvalues --   -0.28534
 Alpha virt. eigenvalues --    0.00696   0.08125   0.12252   0.15702   0.18027
 Alpha virt. eigenvalues --    0.22326   0.24534   0.25685   0.28738   0.37379
 Alpha virt. eigenvalues --    0.40046   0.45307   0.51633   0.52791   0.55250
 Alpha virt. eigenvalues --    0.58644   0.60493   0.63114   0.64984   0.71326
 Alpha virt. eigenvalues --    0.72477   0.73202   0.80408   0.82956   0.88553
 Alpha virt. eigenvalues --    0.93630   0.96830   0.98539   1.00676   1.02800
 Alpha virt. eigenvalues --    1.04583   1.06756   1.07608   1.09427   1.13727
 Alpha virt. eigenvalues --    1.15133   1.20444   1.22966   1.28520   1.30170
 Alpha virt. eigenvalues --    1.36002   1.38451   1.41333   1.45628   1.47731
 Alpha virt. eigenvalues --    1.52408   1.55538   1.64438   1.66670   1.68250
 Alpha virt. eigenvalues --    1.71825   1.72061   1.80297   1.84304   1.85814
 Alpha virt. eigenvalues --    1.89995   1.95681   2.00840   2.01925   2.09748
 Alpha virt. eigenvalues --    2.13062   2.18889   2.21579   2.26718   2.30303
 Alpha virt. eigenvalues --    2.39495   2.43036   2.51554   2.52386   2.58843
 Alpha virt. eigenvalues --    2.63946   2.73337   2.74793   2.81927   2.85369
 Alpha virt. eigenvalues --    2.90301   2.93017   3.01574   3.05348   3.12460
 Alpha virt. eigenvalues --    3.15903   3.19695   3.25031   3.25806   3.31860
 Alpha virt. eigenvalues --    3.33800   3.48291   3.56384   3.72070   3.77036
 Alpha virt. eigenvalues --    3.82199   3.87185   3.94974
          Condensed to atoms (all electrons):
               1          2          3          4          5          6
     1  N    5.816030   0.310385   0.228606   0.416582  -0.019423  -0.018059
     2  O    0.310385   8.240130  -0.106067  -0.082790   0.004070   0.005760
     3  O    0.228606  -0.106067   8.358330  -0.087935   0.001598   0.005640
     4  C    0.416582  -0.082790  -0.087935   5.263463   0.376555   0.381529
     5  H   -0.019423   0.004070   0.001598   0.376555   0.579069  -0.024393
     6  H   -0.018059   0.005760   0.005640   0.381529  -0.024393   0.577017
     7  H    0.002437  -0.000761  -0.000496   0.083881  -0.001336   0.002139
     8  O   -0.000262   0.000142   0.000341  -0.092700   0.000515   0.000555
     9  H   -0.000108  -0.000013  -0.000071   0.009854  -0.000094  -0.000079
    10  H    0.000511  -0.000172   0.003265   0.009498  -0.000541  -0.000047
    11  O   -0.000452  -0.000045  -0.048854   0.002893   0.002081   0.000195
    12  H   -0.000241   0.000010   0.002412   0.000545   0.000747   0.000033
    13  H   -0.010417   0.001356   0.096303   0.001006  -0.000173  -0.000257
               7          8          9         10         11         12
     1  N    0.002437  -0.000262  -0.000108   0.000511  -0.000452  -0.000241
     2  O   -0.000761   0.000142  -0.000013  -0.000172  -0.000045   0.000010
     3  O   -0.000496   0.000341  -0.000071   0.003265  -0.048854   0.002412
     4  C    0.083881  -0.092700   0.009854   0.009498   0.002893   0.000545
     5  H   -0.001336   0.000515  -0.000094  -0.000541   0.002081   0.000747
     6  H    0.002139   0.000555  -0.000079  -0.000047   0.000195   0.000033
     7  H    0.387320   0.297446  -0.011205  -0.019230   0.008061  -0.000850
     8  O    0.297446   7.547233   0.328165   0.233342  -0.086546   0.003707
     9  H   -0.011205   0.328165   0.436159  -0.005870   0.002771   0.000184
    10  H   -0.019230   0.233342  -0.005870   0.346942   0.179939  -0.009004
    11  O    0.008061  -0.086546   0.002771   0.179939   7.631719   0.333147
    12  H   -0.000850   0.003707   0.000184  -0.009004   0.333147   0.446543
    13  H    0.000302   0.006377  -0.000666  -0.013470   0.305870  -0.011986
              13
     1  N   -0.010417
     2  O    0.001356
     3  O    0.096303
     4  C    0.001006
     5  H   -0.000173
     6  H   -0.000257
     7  H    0.000302
     8  O    0.006377
     9  H   -0.000666
    10  H   -0.013470
    11  O    0.305870
    12  H   -0.011986
    13  H    0.377763
 Mulliken charges:
               1
     1  N    0.274412
     2  O   -0.372004
     3  O   -0.453073
     4  C   -0.282381
     5  H    0.081324
     6  H    0.069968
     7  H    0.252292
     8  O   -0.238315
     9  H    0.240974
    10  H    0.274837
    11  O   -0.330779
    12  H    0.234753
    13  H    0.247994
 Sum of Mulliken charges =   0.00000
 Mulliken charges with hydrogens summed into heavy atoms:
               1
     1  N    0.274412
     2  O   -0.372004
     3  O   -0.453073
     4  C   -0.131090
     8  O    0.529788
    11  O    0.151968
 APT charges:
               1
     1  N    1.879296
     2  O   -1.043346
     3  O   -1.154504
     4  C   -0.877507
     5  H    0.122926
     6  H    0.116226
     7  H    0.840612
     8  O   -1.173577
     9  H    0.393561
    10  H    0.809815
    11  O   -1.021009
    12  H    0.380586
    13  H    0.726920
 Sum of APT charges =   0.00000
 APT charges with hydrogens summed into heavy atoms:
               1
     1  N    1.879296
     2  O   -1.043346
     3  O   -1.154504
     4  C   -0.638355
     8  O    0.870412
    11  O    0.086498
 Electronic spatial extent (au):  <R**2>=            741.2515
 Charge=              0.0000 electrons
 Dipole moment (field-independent basis, Debye):
    X=             -8.1048    Y=              2.6053    Z=              4.3128  Tot=              9.5433
 Quadrupole moment (field-independent basis, Debye-Ang):
   XX=            -34.5384   YY=            -34.6866   ZZ=            -36.3410
   XY=             -1.8605   XZ=             -2.6414   YZ=             -0.5262
 Traceless Quadrupole moment (field-independent basis, Debye-Ang):
   XX=              0.6503   YY=              0.5021   ZZ=             -1.1523
   XY=             -1.8605   XZ=             -2.6414   YZ=             -0.5262
 Octapole moment (field-independent basis, Debye-Ang**2):
  XXX=            -56.3436  YYY=              7.9779  ZZZ=              0.3939  XYY=            -16.3777
  XXY=              7.7505  XXZ=             18.4622  XZZ=             -7.1930  YZZ=             -4.2439
  YYZ=              6.2048  XYZ=              3.2395
 Hexadecapole moment (field-independent basis, Debye-Ang**3):
 XXXX=           -478.3148 YYYY=           -219.6152 ZZZZ=            -90.8050 XXXY=            -32.8656
 XXXZ=            -13.1362 YYYX=            -12.5855 YYYZ=             -4.5822 ZZZX=             -8.8753
 ZZZY=             -5.3900 XXYY=            -96.8832 XXZZ=           -100.9953 YYZZ=            -53.8987
 XXYZ=             -6.6044 YYXZ=            -11.9087 ZZXY=              5.5743
 N-N= 2.721084339107D+02 E-N=-1.479273120300D+03  KE= 3.945760389423D+02
  Exact polarizability:  66.132  -3.480  56.713 -10.968   4.219  39.271
 Approx polarizability:  63.374  -2.984  55.830 -12.676   3.316  39.466
 ******************************Gaussian NBO Version 3.1******************************
             N A T U R A L   A T O M I C   O R B I T A L   A N D
          N A T U R A L   B O N D   O R B I T A L   A N A L Y S I S
 ******************************Gaussian NBO Version 3.1******************************
       /RESON  / : Allow strongly delocalized NBO set

 Analyzing the SCF density

 Job title: MeNO2+2H2O TS3 freq                                             

 Storage needed:     43122 in NPA,     57184 in NBO (  33553483 available)


 NATURAL POPULATIONS:  Natural atomic orbital occupancies 
                                                          
   NAO  Atom  No  lang   Type(AO)    Occupancy      Energy
 ----------------------------------------------------------
     1    N    1  S      Cor( 1S)     1.99929     -14.82774
     2    N    1  S      Val( 2S)     1.06423      -0.50095
     3    N    1  S      Ryd( 3S)     0.00498       0.81730
     4    N    1  px     Val( 2p)     1.09699      -0.28405
     5    N    1  px     Ryd( 3p)     0.00919       0.92738
     6    N    1  py     Val( 2p)     1.11485      -0.28852
     7    N    1  py     Ryd( 3p)     0.01054       1.01920
     8    N    1  pz     Val( 2p)     1.18095      -0.31112
     9    N    1  pz     Ryd( 3p)     0.00582       0.92303
    10    N    1  dxy    Ryd( 3d)     0.00390       2.65257
    11    N    1  dxz    Ryd( 3d)     0.00189       2.68779
    12    N    1  dyz    Ryd( 3d)     0.00363       2.52597
    13    N    1  dx2y2  Ryd( 3d)     0.00377       2.65094
    14    N    1  dz2    Ryd( 3d)     0.00336       2.42315

    15    O    2  S      Cor( 1S)     1.99975     -19.41736
    16    O    2  S      Val( 2S)     1.71900      -0.92904
    17    O    2  S      Ryd( 3S)     0.00315       1.26559
    18    O    2  px     Val( 2p)     1.38799      -0.28419
    19    O    2  px     Ryd( 3p)     0.00184       1.08376
    20    O    2  py     Val( 2p)     1.84279      -0.34286
    21    O    2  py     Ryd( 3p)     0.00311       1.12155
    22    O    2  pz     Val( 2p)     1.51801      -0.30006
    23    O    2  pz     Ryd( 3p)     0.00219       1.09087
    24    O    2  dxy    Ryd( 3d)     0.00112       2.94753
    25    O    2  dxz    Ryd( 3d)     0.00138       3.21142
    26    O    2  dyz    Ryd( 3d)     0.00073       2.84633
    27    O    2  dx2y2  Ryd( 3d)     0.00138       2.98176
    28    O    2  dz2    Ryd( 3d)     0.00153       2.84752

    29    O    3  S      Cor( 1S)     1.99976     -19.44256
    30    O    3  S      Val( 2S)     1.72102      -0.93637
    31    O    3  S      Ryd( 3S)     0.00341       1.33691
    32    O    3  px     Val( 2p)     1.70450      -0.33418
    33    O    3  px     Ryd( 3p)     0.00250       1.35931
    34    O    3  py     Val( 2p)     1.37167      -0.29068
    35    O    3  py     Ryd( 3p)     0.00180       1.11484
    36    O    3  pz     Val( 2p)     1.79583      -0.34642
    37    O    3  pz     Ryd( 3p)     0.00247       1.09157
    38    O    3  dxy    Ryd( 3d)     0.00148       3.06751
    39    O    3  dxz    Ryd( 3d)     0.00012       2.74906
    40    O    3  dyz    Ryd( 3d)     0.00148       2.90654
    41    O    3  dx2y2  Ryd( 3d)     0.00136       3.13342
    42    O    3  dz2    Ryd( 3d)     0.00055       2.93296

    43    C    4  S      Cor( 1S)     1.99929     -10.44596
    44    C    4  S      Val( 2S)     1.10343      -0.24916
    45    C    4  S      Ryd( 3S)     0.00505       0.79037
    46    C    4  px     Val( 2p)     1.24685      -0.11066
    47    C    4  px     Ryd( 3p)     0.00874       0.66721
    48    C    4  py     Val( 2p)     1.06530      -0.06641
    49    C    4  py     Ryd( 3p)     0.00488       0.61190
    50    C    4  pz     Val( 2p)     1.13933      -0.08849
    51    C    4  pz     Ryd( 3p)     0.00816       0.59681
    52    C    4  dxy    Ryd( 3d)     0.00104       2.35392
    53    C    4  dxz    Ryd( 3d)     0.00038       2.27912
    54    C    4  dyz    Ryd( 3d)     0.00097       2.28030
    55    C    4  dx2y2  Ryd( 3d)     0.00016       2.21082
    56    C    4  dz2    Ryd( 3d)     0.00065       2.18743

    57    H    5  S      Val( 1S)     0.77362       0.08673
    58    H    5  S      Ryd( 2S)     0.00162       0.37332
    59    H    5  px     Ryd( 2p)     0.00026       1.92336
    60    H    5  py     Ryd( 2p)     0.00019       1.87432
    61    H    5  pz     Ryd( 2p)     0.00056       2.19067

    62    H    6  S      Val( 1S)     0.77245       0.09866
    63    H    6  S      Ryd( 2S)     0.00159       0.35624
    64    H    6  px     Ryd( 2p)     0.00033       1.97233
    65    H    6  py     Ryd( 2p)     0.00054       2.19355
    66    H    6  pz     Ryd( 2p)     0.00008       1.79801

    67    H    7  S      Val( 1S)     0.49164       0.08878
    68    H    7  S      Ryd( 2S)     0.00120       0.52975
    69    H    7  px     Ryd( 2p)     0.00167       2.26921
    70    H    7  py     Ryd( 2p)     0.00071       1.77733
    71    H    7  pz     Ryd( 2p)     0.00093       1.85545

    72    O    8  S      Cor( 1S)     1.99980     -19.50590
    73    O    8  S      Val( 2S)     1.71305      -1.04491
    74    O    8  S      Ryd( 3S)     0.00124       1.54867
    75    O    8  px     Val( 2p)     1.63082      -0.41276
    76    O    8  px     Ryd( 3p)     0.00197       1.12897
    77    O    8  py     Val( 2p)     1.70644      -0.41980
    78    O    8  py     Ryd( 3p)     0.00134       1.16398
    79    O    8  pz     Val( 2p)     1.87670      -0.44523
    80    O    8  pz     Ryd( 3p)     0.00121       0.98445
    81    O    8  dxy    Ryd( 3d)     0.00020       3.02744
    82    O    8  dxz    Ryd( 3d)     0.00123       3.20026
    83    O    8  dyz    Ryd( 3d)     0.00106       2.99595
    84    O    8  dx2y2  Ryd( 3d)     0.00016       3.22652
    85    O    8  dz2    Ryd( 3d)     0.00087       2.91304

    86    H    9  S      Val( 1S)     0.47235       0.11973
    87    H    9  S      Ryd( 2S)     0.00090       0.48510
    88    H    9  px     Ryd( 2p)     0.00147       2.04833
    89    H    9  py     Ryd( 2p)     0.00132       1.98616
    90    H    9  pz     Ryd( 2p)     0.00138       1.90709

    91    H   10  S      Val( 1S)     0.44141       0.12554
    92    H   10  S      Ryd( 2S)     0.00085       0.48792
    93    H   10  px     Ryd( 2p)     0.00077       1.78143
    94    H   10  py     Ryd( 2p)     0.00212       2.55809
    95    H   10  pz     Ryd( 2p)     0.00078       1.76077

    96    O   11  S      Cor( 1S)     1.99982     -19.49420
    97    O   11  S      Val( 2S)     1.71540      -1.02164
    98    O   11  S      Ryd( 3S)     0.00148       1.54259
    99    O   11  px     Val( 2p)     1.68169      -0.40330
   100    O   11  px     Ryd( 3p)     0.00163       1.10477
   101    O   11  py     Val( 2p)     1.84646      -0.41943
   102    O   11  py     Ryd( 3p)     0.00184       1.16895
   103    O   11  pz     Val( 2p)     1.70731      -0.39678
   104    O   11  pz     Ryd( 3p)     0.00185       1.02680
   105    O   11  dxy    Ryd( 3d)     0.00009       2.85294
   106    O   11  dxz    Ryd( 3d)     0.00081       3.05500
   107    O   11  dyz    Ryd( 3d)     0.00059       2.90472
   108    O   11  dx2y2  Ryd( 3d)     0.00066       3.31914
   109    O   11  dz2    Ryd( 3d)     0.00122       3.24698

   110    H   12  S      Val( 1S)     0.48252       0.12705
   111    H   12  S      Ryd( 2S)     0.00081       0.49584
   112    H   12  px     Ryd( 2p)     0.00119       1.87390
   113    H   12  py     Ryd( 2p)     0.00099       1.77625
   114    H   12  pz     Ryd( 2p)     0.00195       2.32054

   115    H   13  S      Val( 1S)     0.45902       0.14620
   116    H   13  S      Ryd( 2S)     0.00270       0.51911
   117    H   13  px     Ryd( 2p)     0.00203       2.62797
   118    H   13  py     Ryd( 2p)     0.00074       1.79398
   119    H   13  pz     Ryd( 2p)     0.00086       1.75116


 Summary of Natural Population Analysis:                  
                                                          
                                       Natural Population 
                Natural  -----------------------------------------------
    Atom  No    Charge         Core      Valence    Rydberg      Total
 -----------------------------------------------------------------------
      N    1    0.49663      1.99929     4.45702    0.04706     6.50337
      O    2   -0.48396      1.99975     6.46779    0.01642     8.48396
      O    3   -0.60796      1.99976     6.59301    0.01519     8.60796
      C    4   -0.58423      1.99929     4.55491    0.03003     6.58423
      H    5    0.22374      0.00000     0.77362    0.00264     0.77626
      H    6    0.22502      0.00000     0.77245    0.00253     0.77498
      H    7    0.50385      0.00000     0.49164    0.00450     0.49615
      O    8   -0.93610      1.99980     6.92702    0.00929     8.93610
      H    9    0.52258      0.00000     0.47235    0.00507     0.47742
      H   10    0.55408      0.00000     0.44141    0.00452     0.44592
      O   11   -0.96084      1.99982     6.95086    0.01016     8.96084
      H   12    0.51255      0.00000     0.48252    0.00493     0.48745
      H   13    0.53465      0.00000     0.45902    0.00634     0.46535
 =======================================================================
   * Total *    0.00000     11.99770    39.84361    0.15869    52.00000

                                 Natural Population      
 --------------------------------------------------------
   Core                      11.99770 ( 99.9809% of  12)
   Valence                   39.84361 ( 99.6090% of  40)
   Natural Minimal Basis     51.84131 ( 99.6948% of  52)
   Natural Rydberg Basis      0.15869 (  0.3052% of  52)
 --------------------------------------------------------

    Atom  No          Natural Electron Configuration
 ----------------------------------------------------------------------------
      N    1      [core]2S( 1.06)2p( 3.39)3p( 0.03)3d( 0.02)
      O    2      [core]2S( 1.72)2p( 4.75)3p( 0.01)3d( 0.01)
      O    3      [core]2S( 1.72)2p( 4.87)3p( 0.01)3d( 0.01)
      C    4      [core]2S( 1.10)2p( 3.45)3S( 0.01)3p( 0.02)
      H    5            1S( 0.77)
      H    6            1S( 0.77)
      H    7            1S( 0.49)
      O    8      [core]2S( 1.71)2p( 5.21)
      H    9            1S( 0.47)
      H   10            1S( 0.44)
      O   11      [core]2S( 1.72)2p( 5.24)3p( 0.01)
      H   12            1S( 0.48)
      H   13            1S( 0.46)


 NATURAL BOND ORBITAL ANALYSIS:

                       Occupancies       Lewis Structure    Low   High
           Occ.    -------------------  -----------------   occ   occ
  Cycle   Thresh.   Lewis   Non-Lewis     CR  BD  3C  LP    (L)   (NL)   Dev
 =============================================================================
   1(1)    1.90    50.01020   1.98980      6  12   0   8     6      6    0.55
   2(2)    1.90    50.24266   1.75734      6  12   0   8     6      6    0.30
   3(3)    1.90    50.18187   1.81813      6  12   0   8     6      6    0.39
   4(4)    1.90    50.24266   1.75734      6  12   0   8     6      6    0.30
   5(1)    1.80    50.54293   1.45707      6  11   0   9     2      4    0.30
   6(2)    1.80    50.54293   1.45707      6  11   0   9     2      4    0.30
   7(1)    1.70    50.28349   1.71651      6  10   0  10     2      4    0.39
   8(2)    1.70    50.28349   1.71651      6  10   0  10     2      4    0.39
   9(1)    1.60    49.84358   2.15642      6   9   0  11     0      4    0.55
  10(2)    1.60    49.84358   2.15642      6   9   0  11     0      4    0.55
  11(1)    1.50    48.66793   3.33207      6   6   0  14     0      6    0.74
  12(2)    1.50    48.66793   3.33207      6   6   0  14     0      6    0.74
  13(1)    1.80    50.54293   1.45707      6  11   0   9     2      4    0.30
 -----------------------------------------------------------------------------

 Structure accepted: RESONANCE keyword permits strongly delocalized structure

 --------------------------------------------------------
   Core                     11.99770 ( 99.981% of  12)
   Valence Lewis            38.54523 ( 96.363% of  40)
  ==================       ============================
   Total Lewis              50.54293 ( 97.198% of  52)
  -----------------------------------------------------
   Valence non-Lewis         1.36335 (  2.622% of  52)
   Rydberg non-Lewis         0.09372 (  0.180% of  52)
  ==================       ============================
   Total non-Lewis           1.45707 (  2.802% of  52)
 --------------------------------------------------------


       (Occupancy)   Bond orbital/ Coefficients/ Hybrids
 ---------------------------------------------------------------------------------
     1. (1.99602) BD ( 1) N   1 - O   2  
                ( 48.44%)   0.6960* N   1 s( 30.43%)p 2.28( 69.43%)d 0.00(  0.14%)
                                            0.0000 -0.5506 -0.0337 -0.6925  0.0416
                                           -0.1343 -0.0011  0.4402 -0.0352 -0.0091
                                            0.0286  0.0069 -0.0201  0.0020
                ( 51.56%)   0.7181* O   2 s( 28.33%)p 2.52( 71.51%)d 0.01(  0.16%)
                                            0.0000 -0.5303  0.0462  0.6389 -0.0231
                                            0.2020 -0.0114 -0.5150  0.0157 -0.0123
                                            0.0302  0.0105 -0.0195 -0.0009
     2. (1.99216) BD ( 2) N   1 - O   2  
                ( 35.76%)   0.5980* N   1 s(  0.01%)p 1.00( 99.64%)d 0.00(  0.35%)
                                            0.0000  0.0085  0.0028  0.5438  0.0216
                                           -0.3539 -0.0058  0.7580  0.0184 -0.0072
                                            0.0144  0.0203  0.0304 -0.0437
                ( 64.24%)   0.8015* O   2 s(  0.09%)p99.99( 99.72%)d 2.12(  0.19%)
                                            0.0000 -0.0297  0.0018  0.6389 -0.0068
                                           -0.3167  0.0015  0.6991 -0.0073  0.0048
                                           -0.0086 -0.0140 -0.0250  0.0310
     3. (1.99469) BD ( 1) N   1 - O   3  
                ( 47.43%)   0.6887* N   1 s( 27.85%)p 2.58( 72.00%)d 0.01(  0.15%)
                                            0.0001  0.5273  0.0220 -0.3455  0.0028
                                           -0.7649  0.0448 -0.1158  0.0085  0.0261
                                            0.0058  0.0105 -0.0164 -0.0206
                ( 52.57%)   0.7250* O   3 s( 25.66%)p 2.89( 74.19%)d 0.01(  0.15%)
                                            0.0000  0.5051  0.0385  0.1897  0.0180
                                            0.8324  0.0253 -0.1096 -0.0034  0.0176
                                            0.0005 -0.0027 -0.0280 -0.0206
     4. (1.99462) BD ( 1) N   1 - C   4  
                ( 65.47%)   0.8091* N   1 s( 41.56%)p 1.41( 58.42%)d 0.00(  0.02%)
                                            0.0000 -0.6436  0.0361  0.3181  0.0173
                                           -0.5174 -0.0189 -0.4629 -0.0192  0.0085
                                            0.0063 -0.0099  0.0034 -0.0003
                ( 34.53%)   0.5876* C   4 s( 25.62%)p 2.90( 74.22%)d 0.01(  0.16%)
                                           -0.0002 -0.5043 -0.0434 -0.4044 -0.0424
                                            0.5980  0.0555  0.4628  0.0453  0.0229
                                            0.0180 -0.0250  0.0095  0.0048
     5. (1.97555) BD ( 1) C   4 - H   5  
                ( 61.17%)   0.7821* C   4 s( 34.45%)p 1.90( 65.52%)d 0.00(  0.04%)
                                           -0.0003  0.5869 -0.0041 -0.4727  0.0014
                                           -0.2859  0.0078  0.5904  0.0367  0.0066
                                           -0.0081 -0.0143 -0.0036  0.0060
                ( 38.83%)   0.6232* H   5 s( 99.90%)p 0.00(  0.10%)
                                            0.9995 -0.0015  0.0127  0.0110 -0.0262
     6. (1.98195) BD ( 1) C   4 - H   6  
                ( 61.24%)   0.7826* C   4 s( 34.28%)p 1.92( 65.69%)d 0.00(  0.04%)
                                           -0.0003  0.5854  0.0072  0.3972  0.0083
                                            0.7020  0.0206  0.0749  0.0149  0.0162
                                            0.0021  0.0028  0.0022 -0.0086
                ( 38.76%)   0.6226* H   6 s( 99.90%)p 0.00(  0.10%)
                                            0.9995 -0.0011 -0.0173 -0.0250 -0.0056
     7. (1.99038) BD ( 1) H   7 - O   8  
                ( 17.68%)   0.4205* H   7 s( 99.59%)p 0.00(  0.41%)
                                            0.9977  0.0228 -0.0591 -0.0035 -0.0238
                ( 82.32%)   0.9073* O   8 s( 28.28%)p 2.53( 71.67%)d 0.00(  0.05%)
                                            0.0000  0.5318  0.0031  0.7683  0.0017
                                            0.1519  0.0063  0.3213 -0.0089 -0.0012
                                            0.0198  0.0062  0.0070  0.0009
     8. (1.99777) BD ( 1) O   8 - H   9  
                ( 76.30%)   0.8735* O   8 s( 21.71%)p 3.60( 78.21%)d 0.00(  0.08%)
                                            0.0001  0.4657  0.0151 -0.5941 -0.0302
                                            0.5106  0.0220  0.4087  0.0044 -0.0107
                                           -0.0185  0.0179  0.0028  0.0032
                ( 23.70%)   0.4868* H   9 s( 99.55%)p 0.00(  0.45%)
                                            0.9977 -0.0008  0.0438 -0.0391 -0.0331
     9. (1.99692) BD ( 1) O   8 - H  10  
                ( 86.12%)   0.9280* O   8 s( 27.97%)p 2.57( 72.00%)d 0.00(  0.03%)
                                            0.0000 -0.5288  0.0072  0.2349  0.0050
                                            0.8122 -0.0054 -0.0711  0.0104 -0.0017
                                            0.0053  0.0154  0.0061  0.0062
                ( 13.88%)   0.3726* H  10 s( 99.59%)p 0.00(  0.41%)
                                           -0.9978  0.0151 -0.0106 -0.0628  0.0063
    10. (1.99828) BD ( 1) O  11 - H  12  
                ( 75.78%)   0.8705* O  11 s( 22.64%)p 3.41( 77.28%)d 0.00(  0.08%)
                                            0.0000  0.4756  0.0166 -0.3959 -0.0294
                                           -0.2013 -0.0113  0.7575  0.0248 -0.0015
                                           -0.0117 -0.0086  0.0026  0.0242
                ( 24.22%)   0.4921* H  12 s( 99.58%)p 0.00(  0.42%)
                                            0.9979 -0.0001  0.0272  0.0159 -0.0569
    11. (1.99385) BD ( 1) O  11 - H  13  
                ( 81.30%)   0.9017* O  11 s( 34.75%)p 1.88( 65.20%)d 0.00(  0.05%)
                                           -0.0001  0.5895  0.0048  0.8016  0.0073
                                           -0.0927 -0.0106  0.0248 -0.0073 -0.0016
                                            0.0103 -0.0060  0.0170 -0.0074
                ( 18.70%)   0.4324* H  13 s( 99.65%)p 0.00(  0.35%)
                                            0.9977 -0.0333 -0.0579  0.0109 -0.0009
    12. (1.99929) CR ( 1) N   1           s(100.00%)
                                            1.0000  0.0000  0.0000  0.0000  0.0000
                                            0.0000  0.0000  0.0000  0.0000  0.0000
                                            0.0000  0.0000  0.0000  0.0000
    13. (1.99975) CR ( 1) O   2           s(100.00%)p 0.00(  0.00%)
                                            1.0000 -0.0004  0.0000 -0.0002  0.0000
                                           -0.0002  0.0000  0.0001  0.0000  0.0000
                                            0.0000  0.0000  0.0000  0.0000
    14. (1.99976) CR ( 1) O   3           s(100.00%)p 0.00(  0.00%)
                                            1.0000 -0.0001  0.0000  0.0000  0.0000
                                            0.0001  0.0000  0.0000  0.0000  0.0000
                                            0.0000  0.0000  0.0000  0.0000
    15. (1.99929) CR ( 1) C   4           s(100.00%)p 0.00(  0.00%)
                                            1.0000  0.0002  0.0000 -0.0001  0.0000
                                            0.0002  0.0000  0.0003  0.0000  0.0000
                                            0.0000  0.0000  0.0000  0.0000
    16. (1.99980) CR ( 1) O   8           s(100.00%)
                                            1.0000  0.0000  0.0000  0.0001  0.0000
                                            0.0000  0.0000  0.0000  0.0000  0.0000
                                            0.0000  0.0000  0.0000  0.0000
    17. (1.99982) CR ( 1) O  11           s(100.00%)
                                            1.0000  0.0001  0.0000  0.0000  0.0000
                                            0.0001  0.0000  0.0000  0.0000  0.0000
                                            0.0000  0.0000  0.0000  0.0000
    18. (1.98254) LP ( 1) O   2           s( 71.73%)p 0.39( 28.26%)d 0.00(  0.01%)
                                            0.0004  0.8468  0.0140  0.4231 -0.0035
                                            0.0973 -0.0010 -0.3067  0.0025 -0.0027
                                            0.0076  0.0010 -0.0040  0.0005
    19. (1.91513) LP ( 2) O   2           s(  0.03%)p99.99( 99.89%)d 2.72(  0.08%)
                                            0.0001  0.0170  0.0009  0.0344  0.0010
                                            0.9210  0.0081  0.3865  0.0029 -0.0209
                                           -0.0080  0.0125  0.0045  0.0106
    20. (1.96771) LP ( 1) O   3           s( 50.37%)p 0.98( 49.60%)d 0.00(  0.03%)
                                            0.0002  0.7097 -0.0045  0.2660 -0.0052
                                           -0.5389 -0.0056 -0.3671  0.0008  0.0074
                                           -0.0002 -0.0090  0.0113  0.0024
    21. (1.87984) LP ( 2) O   3           s( 24.05%)p 3.16( 75.91%)d 0.00(  0.04%)
                                            0.0001  0.4903 -0.0121 -0.6100  0.0066
                                           -0.0762 -0.0087  0.6173 -0.0035 -0.0112
                                            0.0016  0.0157  0.0010 -0.0011
    22. (1.65873) LP ( 3) O   3           s(  0.07%)p99.99( 99.83%)d 1.47(  0.10%)
                                            0.0000  0.0192  0.0174  0.7206 -0.0064
                                           -0.0867  0.0103  0.6865 -0.0037  0.0215
                                            0.0070  0.0211  0.0052  0.0024
    23. (1.42956) LP ( 1) C   4           s(  5.77%)p16.32( 94.18%)d 0.01(  0.05%)
                                            0.0000  0.2365 -0.0426 -0.6696  0.0555
                                            0.2505 -0.0113 -0.6526  0.0401  0.0098
                                            0.0031  0.0119  0.0003  0.0167
    24. (1.99550) LP ( 1) O   8           s( 22.01%)p 3.54( 77.95%)d 0.00(  0.04%)
                                            0.0000  0.4691 -0.0034 -0.0152 -0.0035
                                            0.2352 -0.0048 -0.8506  0.0196 -0.0017
                                            0.0001  0.0057  0.0004 -0.0197
    25. (1.99623) LP ( 1) O  11           s( 19.79%)p 4.05( 80.17%)d 0.00(  0.04%)
                                            0.0000  0.4448 -0.0019 -0.3697  0.0043
                                           -0.5353  0.0144 -0.6149  0.0149 -0.0053
                                           -0.0123 -0.0124  0.0003 -0.0084
    26. (1.80779) LP ( 2) O  11           s( 22.80%)p 3.38( 77.17%)d 0.00(  0.03%)
                                           -0.0001  0.4773 -0.0154 -0.2500 -0.0052
                                            0.8144 -0.0173 -0.2137  0.0001  0.0034
                                           -0.0077  0.0074 -0.0098 -0.0073
    27. (0.01235) RY*( 1) N   1           s(  4.08%)p22.30( 91.04%)d 1.19(  4.87%)
                                            0.0000 -0.0251  0.2005 -0.0420 -0.7256
                                           -0.0283 -0.4350  0.0259  0.4376 -0.0529
                                           -0.1272 -0.0906  0.1321  0.0640
    28. (0.01084) RY*( 2) N   1           s( 11.06%)p 6.12( 67.64%)d 1.93( 21.30%)
                                            0.0000 -0.0503  0.3287 -0.0020 -0.1644
                                            0.0328  0.7277  0.0197  0.3440  0.3483
                                            0.0587 -0.2471 -0.0498 -0.1573
    29. (0.00763) RY*( 3) N   1           s(  0.04%)p22.01(  0.85%)d99.99( 99.12%)
                                            0.0000  0.0094  0.0172  0.0316  0.0103
                                           -0.0254 -0.0100  0.0425 -0.0692  0.0150
                                           -0.2799 -0.4160 -0.6149  0.6011
    30. (0.00319) RY*( 4) N   1           s(  4.56%)p 3.49( 15.89%)d17.45( 79.55%)
                                            0.0000 -0.0162  0.2129  0.0082 -0.1556
                                           -0.0026  0.3612  0.0004  0.0647 -0.5121
                                            0.0124  0.6345 -0.1259  0.3386
    31. (0.00284) RY*( 5) N   1           s(  0.01%)p 1.00(  3.90%)d24.62( 96.09%)
                                            0.0000  0.0004  0.0082  0.0092 -0.1076
                                            0.0042 -0.0857  0.0151 -0.1407  0.7339
                                            0.1955  0.4027  0.1192  0.4558
    32. (0.00196) RY*( 6) N   1           s(  0.38%)p16.41(  6.21%)d99.99( 93.42%)
                                            0.0000 -0.0007  0.0615 -0.0197  0.1253
                                           -0.0160  0.1888  0.0125 -0.0996 -0.0860
                                           -0.4823 -0.1988  0.7218  0.3655
    33. (0.00016) RY*( 7) N   1           s(  1.30%)p67.58( 88.00%)d 8.22( 10.70%)
                                            0.0000  0.0061  0.1139 -0.0145  0.5773
                                            0.0076 -0.2034 -0.0151  0.7105 -0.0238
                                            0.2136  0.0090  0.0631  0.2382
    34. (0.00010) RY*( 8) N   1           s( 77.48%)p 0.25( 19.33%)d 0.04(  3.20%)
                                            0.0000  0.0166  0.8800 -0.0227  0.1996
                                            0.0324 -0.2505  0.0227 -0.2977  0.0380
                                           -0.0799  0.0252 -0.0548 -0.1432
    35. (0.00002) RY*( 9) N   1           s(  1.25%)p 6.11(  7.65%)d72.80( 91.10%)
    36. (0.00340) RY*( 1) O   2           s(  0.19%)p99.99( 95.93%)d20.73(  3.88%)
                                            0.0000  0.0026  0.0432 -0.0136 -0.5258
                                            0.0057 -0.3141 -0.0072 -0.7641 -0.0596
                                           -0.0801  0.0017 -0.0658  0.1567
    37. (0.00312) RY*( 2) O   2           s(  1.63%)p58.35( 95.01%)d 2.06(  3.36%)
                                            0.0000 -0.0009  0.1276 -0.0072 -0.3578
                                            0.0003  0.8995 -0.0071 -0.1138  0.1258
                                           -0.0010 -0.1148 -0.0578  0.0352
    38. (0.00118) RY*( 3) O   2           s( 69.83%)p 0.36( 25.36%)d 0.07(  4.81%)
                                            0.0000  0.0140  0.8355 -0.0340 -0.3107
                                           -0.0122 -0.1934  0.0280  0.3429 -0.0150
                                           -0.1116 -0.0566  0.1781  0.0228
    39. (0.00007) RY*( 4) O   2           s(  6.03%)p 8.26( 49.84%)d 7.31( 44.13%)
    40. (0.00001) RY*( 5) O   2           s(  0.27%)p15.05(  4.02%)d99.99( 95.71%)
    41. (0.00001) RY*( 6) O   2           s(  6.51%)p 1.57( 10.22%)d12.80( 83.28%)
    42. (0.00000) RY*( 7) O   2           s(  1.74%)p 1.84(  3.19%)d54.69( 95.07%)
    43. (0.00001) RY*( 8) O   2           s( 13.42%)p 1.07( 14.36%)d 5.38( 72.22%)
    44. (0.00001) RY*( 9) O   2           s(  0.21%)p13.04(  2.69%)d99.99( 97.11%)
    45. (0.00264) RY*( 1) O   3           s(  3.46%)p26.98( 93.24%)d 0.96(  3.31%)
                                            0.0000  0.0038  0.1859 -0.0088 -0.4219
                                           -0.0008  0.2114 -0.0012  0.8424 -0.0727
                                            0.0430  0.1569 -0.0192  0.0310
    46. (0.00230) RY*( 2) O   3           s( 28.10%)p 2.44( 68.63%)d 0.12(  3.27%)
                                            0.0000 -0.0034  0.5301 -0.0212 -0.5204
                                           -0.0193  0.4373  0.0001 -0.4727 -0.1054
                                           -0.0869 -0.1128 -0.0145  0.0324
    47. (0.00175) RY*( 3) O   3           s( 44.88%)p 1.11( 49.61%)d 0.12(  5.52%)
                                            0.0000 -0.0119  0.6698 -0.0169  0.6676
                                           -0.0311  0.1576 -0.0013  0.1558  0.0518
                                           -0.0458  0.0062  0.2195  0.0463
    48. (0.00060) RY*( 4) O   3           s( 18.70%)p 4.06( 75.97%)d 0.29(  5.33%)
                                            0.0000  0.0005  0.4324 -0.0050 -0.2870
                                            0.0120 -0.8226 -0.0023 -0.0229  0.1660
                                            0.0584  0.0324  0.1412 -0.0369
    49. (0.00006) RY*( 5) O   3           s(  0.49%)p 5.73(  2.78%)d99.99( 96.73%)
    50. (0.00003) RY*( 6) O   3           s(  1.50%)p 0.84(  1.26%)d64.74( 97.24%)
    51. (0.00000) RY*( 7) O   3           s(  0.01%)p99.99(  3.91%)d99.99( 96.08%)
    52. (0.00001) RY*( 8) O   3           s(  2.50%)p 1.74(  4.36%)d37.19( 93.14%)
    53. (0.00001) RY*( 9) O   3           s(  0.21%)p 3.33(  0.71%)d99.99( 99.08%)
    54. (0.00393) RY*( 1) C   4           s(  1.87%)p52.03( 97.36%)d 0.41(  0.77%)
                                            0.0000 -0.0145  0.1360 -0.0136  0.6915
                                            0.0013  0.5554  0.0227 -0.4315 -0.0260
                                           -0.0361 -0.0104  0.0727  0.0185
    55. (0.00293) RY*( 2) C   4           s( 17.23%)p 4.76( 81.97%)d 0.05(  0.80%)
                                            0.0000  0.0315  0.4140 -0.0663 -0.5970
                                            0.0268  0.1273 -0.0282 -0.6642  0.0571
                                            0.0201  0.0121  0.0078  0.0640
    56. (0.00145) RY*( 3) C   4           s( 20.15%)p 3.86( 77.74%)d 0.10(  2.11%)
                                            0.0000 -0.0283  0.4480 -0.0403  0.3775
                                            0.0603 -0.7605  0.0538 -0.2198 -0.1201
                                           -0.0114  0.0326  0.0197 -0.0712
    57. (0.00054) RY*( 4) C   4           s( 51.24%)p 0.63( 32.38%)d 0.32( 16.38%)
                                            0.0000 -0.0094  0.7158 -0.0055 -0.0280
                                           -0.0149  0.2561 -0.0350  0.5059  0.0805
                                            0.1310 -0.2779  0.0938 -0.2328
    58. (0.00012) RY*( 5) C   4           s(  0.90%)p 1.71(  1.53%)d99.99( 97.57%)
                                            0.0000 -0.0094  0.0943  0.0193  0.0440
                                           -0.0027 -0.0762 -0.0042  0.0849  0.4027
                                           -0.4788 -0.2934  0.1856  0.6809
    59. (0.00009) RY*( 6) C   4           s(  0.12%)p14.19(  1.66%)d99.99( 98.22%)
    60. (0.00004) RY*( 7) C   4           s(  4.32%)p 0.69(  2.99%)d21.48( 92.69%)
    61. (0.00001) RY*( 8) C   4           s(  0.15%)p 2.74(  0.41%)d99.99( 99.45%)
    62. (0.00002) RY*( 9) C   4           s(  3.90%)p 1.12(  4.36%)d23.50( 91.73%)
    63. (0.00163) RY*( 1) H   5           s( 99.46%)p 0.01(  0.54%)
                                            0.0020  0.9973 -0.0246 -0.0656 -0.0212
    64. (0.00017) RY*( 2) H   5           s(  0.01%)p99.99( 99.99%)
                                           -0.0075  0.0091 -0.7291  0.5459 -0.4126
    65. (0.00007) RY*( 3) H   5           s(  0.46%)p99.99( 99.54%)
    66. (0.00002) RY*( 4) H   5           s(  0.16%)p99.99( 99.84%)
    67. (0.00159) RY*( 1) H   6           s( 99.65%)p 0.00(  0.35%)
                                            0.0012  0.9982  0.0023  0.0151 -0.0574
    68. (0.00011) RY*( 2) H   6           s(  0.06%)p99.99( 99.94%)
                                            0.0111  0.0221  0.8993 -0.2572  0.3528
    69. (0.00007) RY*( 3) H   6           s(  0.27%)p99.99( 99.73%)
    70. (0.00002) RY*( 4) H   6           s(  0.12%)p99.99( 99.88%)
    71. (0.00314) RY*( 1) H   7           s( 40.25%)p 1.48( 59.75%)
                                           -0.0637  0.6312 -0.7156  0.0228 -0.2914
    72. (0.00084) RY*( 2) H   7           s( 11.74%)p 7.52( 88.26%)
                                            0.0070  0.3425 -0.0300 -0.5339  0.7724
    73. (0.00067) RY*( 3) H   7           s(  0.09%)p99.99( 99.91%)
                                           -0.0032  0.0305  0.2284 -0.7983 -0.5564
    74. (0.00020) RY*( 4) H   7           s( 48.33%)p 1.07( 51.67%)
                                            0.0218  0.6948  0.6568  0.2777 -0.0909
    75. (0.00090) RY*( 1) O   8           s( 80.58%)p 0.23( 18.37%)d 0.01(  1.06%)
                                            0.0000  0.0042  0.8976 -0.0040  0.1557
                                           -0.0075 -0.3910 -0.0016 -0.0804 -0.0503
                                            0.0410  0.0356  0.0262 -0.0664
    76. (0.00080) RY*( 2) O   8           s(  1.80%)p53.66( 96.77%)d 0.79(  1.43%)
                                            0.0000  0.0043  0.1342 -0.0088  0.7577
                                           -0.0001  0.5635  0.0023  0.2755 -0.0009
                                            0.0243 -0.0404  0.1075 -0.0227
    77. (0.00009) RY*( 3) O   8           s( 13.65%)p 5.90( 80.55%)d 0.43(  5.80%)
    78. (0.00003) RY*( 4) O   8           s(  2.17%)p37.55( 81.61%)d 7.46( 16.22%)
    79. (0.00001) RY*( 5) O   8           s(  0.22%)p 8.05(  1.79%)d99.99( 97.99%)
    80. (0.00000) RY*( 6) O   8           s(  0.03%)p26.28(  0.69%)d99.99( 99.28%)
    81. (0.00001) RY*( 7) O   8           s(  0.34%)p48.27( 16.38%)d99.99( 83.29%)
    82. (0.00000) RY*( 8) O   8           s(  0.08%)p15.33(  1.24%)d99.99( 98.68%)
    83. (0.00000) RY*( 9) O   8           s(  1.17%)p 2.37(  2.78%)d81.89( 96.05%)
    84. (0.00120) RY*( 1) H   9           s( 39.80%)p 1.51( 60.20%)
                                            0.0108  0.6308 -0.3013 -0.5045  0.5066
    85. (0.00099) RY*( 2) H   9           s(  3.91%)p24.58( 96.09%)
                                           -0.0016  0.1977 -0.6299 -0.1210 -0.7413
    86. (0.00072) RY*( 3) H   9           s( 53.55%)p 0.87( 46.45%)
                                            0.0072  0.7317  0.2808  0.6046 -0.1422
    87. (0.00003) RY*( 4) H   9           s(  3.20%)p30.27( 96.80%)
    88. (0.00363) RY*( 1) H  10           s( 11.65%)p 7.59( 88.35%)
                                            0.0647  0.3351 -0.0480 -0.9220  0.1764
    89. (0.00103) RY*( 2) H  10           s( 34.56%)p 1.89( 65.44%)
                                            0.0027  0.5879 -0.6572  0.1633 -0.4425
    90. (0.00068) RY*( 3) H  10           s(  0.35%)p99.99( 99.65%)
                                           -0.0019  0.0589 -0.4710  0.2093  0.8549
    91. (0.00033) RY*( 4) H  10           s( 53.86%)p 0.86( 46.14%)
                                           -0.0111  0.7338  0.5864  0.2747  0.2052
    92. (0.00104) RY*( 1) O  11           s( 37.33%)p 1.67( 62.24%)d 0.01(  0.43%)
                                            0.0000  0.0103  0.6109 -0.0037 -0.1978
                                            0.0167  0.6298 -0.0028 -0.4316 -0.0010
                                           -0.0017 -0.0619  0.0172  0.0143
    93. (0.00038) RY*( 2) O  11           s( 59.60%)p 0.64( 38.32%)d 0.03(  2.08%)
                                            0.0000 -0.0116  0.7719  0.0000  0.2810
                                            0.0101 -0.4263 -0.0159  0.3495 -0.0096
                                           -0.1153 -0.0307  0.0796 -0.0103
    94. (0.00024) RY*( 3) O  11           s(  0.04%)p99.99( 98.00%)d55.38(  1.97%)
                                            0.0000  0.0137 -0.0130 -0.0285  0.5338
                                           -0.0173 -0.3311  0.0174 -0.7642  0.0075
                                            0.0662  0.0931 -0.0451 -0.0674
    95. (0.00004) RY*( 4) O  11           s(  0.31%)p99.99( 84.94%)d47.47( 14.75%)
    96. (0.00001) RY*( 5) O  11           s(  0.00%)p 1.00(  0.39%)d99.99( 99.60%)
    97. (0.00001) RY*( 6) O  11           s(  1.37%)p 4.22(  5.77%)d68.02( 92.87%)
    98. (0.00000) RY*( 7) O  11           s(  0.57%)p 4.73(  2.70%)d99.99( 96.74%)
    99. (0.00000) RY*( 8) O  11           s(  0.81%)p 7.46(  6.01%)d99.99( 93.18%)
   100. (0.00000) RY*( 9) O  11           s(  0.00%)p 1.00(  1.82%)d54.01( 98.18%)
   101. (0.00120) RY*( 1) H  12           s( 19.15%)p 4.22( 80.85%)
                                            0.0086  0.4375  0.5978  0.3911  0.5461
   102. (0.00094) RY*( 2) H  12           s(  2.15%)p45.60( 97.85%)
                                            0.0023  0.1465 -0.5985  0.7872 -0.0259
   103. (0.00073) RY*( 3) H  12           s( 76.90%)p 0.30( 23.10%)
                                            0.0053  0.8769 -0.2689 -0.3723 -0.1416
   104. (0.00003) RY*( 4) H  12           s(  2.23%)p43.88( 97.77%)
   105. (0.00489) RY*( 1) H  13           s( 64.18%)p 0.56( 35.82%)
                                            0.0617  0.7987  0.5977 -0.0298 -0.0072
   106. (0.00093) RY*( 2) H  13           s(  2.75%)p35.41( 97.25%)
                                           -0.0055  0.1656 -0.2507 -0.3903 -0.8703
   107. (0.00074) RY*( 3) H  13           s(  1.61%)p61.28( 98.39%)
                                            0.0019  0.1267 -0.2064 -0.8513  0.4654
   108. (0.00012) RY*( 4) H  13           s( 31.82%)p 2.14( 68.18%)
                                           -0.0273  0.5634 -0.7307  0.3491  0.1613
   109. (0.04629) BD*( 1) N   1 - O   2  
                ( 51.56%)   0.7181* N   1 s( 30.43%)p 2.28( 69.43%)d 0.00(  0.14%)
                                            0.0000 -0.5506 -0.0337 -0.6925  0.0416
                                           -0.1343 -0.0011  0.4402 -0.0352 -0.0091
                                            0.0286  0.0069 -0.0201  0.0020
                ( 48.44%)  -0.6960* O   2 s( 28.33%)p 2.52( 71.51%)d 0.01(  0.16%)
                                            0.0000 -0.5303  0.0462  0.6389 -0.0231
                                            0.2020 -0.0114 -0.5150  0.0157 -0.0123
                                            0.0302  0.0105 -0.0195 -0.0009
   110. (0.69164) BD*( 2) N   1 - O   2  
                ( 64.24%)   0.8015* N   1 s(  0.01%)p 1.00( 99.64%)d 0.00(  0.35%)
                                            0.0000  0.0085  0.0028  0.5438  0.0216
                                           -0.3539 -0.0058  0.7580  0.0184 -0.0072
                                            0.0144  0.0203  0.0304 -0.0437
                ( 35.76%)  -0.5980* O   2 s(  0.09%)p99.99( 99.72%)d 2.12(  0.19%)
                                            0.0000 -0.0297  0.0018  0.6389 -0.0068
                                           -0.3167  0.0015  0.6991 -0.0073  0.0048
                                           -0.0086 -0.0140 -0.0250  0.0310
   111. (0.09694) BD*( 1) N   1 - O   3  
                ( 52.57%)   0.7250* N   1 s( 27.85%)p 2.58( 72.00%)d 0.01(  0.15%)
                                            0.0001  0.5273  0.0220 -0.3455  0.0028
                                           -0.7649  0.0448 -0.1158  0.0085  0.0261
                                            0.0058  0.0105 -0.0164 -0.0206
                ( 47.43%)  -0.6887* O   3 s( 25.66%)p 2.89( 74.19%)d 0.01(  0.15%)
                                            0.0000  0.5051  0.0385  0.1897  0.0180
                                            0.8324  0.0253 -0.1096 -0.0034  0.0176
                                            0.0005 -0.0027 -0.0280 -0.0206
   112. (0.04231) BD*( 1) N   1 - C   4  
                ( 34.53%)   0.5876* N   1 s( 41.56%)p 1.41( 58.42%)d 0.00(  0.02%)
                                            0.0000  0.6436 -0.0361 -0.3181 -0.0173
                                            0.5174  0.0189  0.4629  0.0192 -0.0085
                                           -0.0063  0.0099 -0.0034  0.0003
                ( 65.47%)  -0.8091* C   4 s( 25.62%)p 2.90( 74.22%)d 0.01(  0.16%)
                                            0.0002  0.5043  0.0434  0.4044  0.0424
                                           -0.5980 -0.0555 -0.4628 -0.0453 -0.0229
                                           -0.0180  0.0250 -0.0095 -0.0048
   113. (0.01174) BD*( 1) C   4 - H   5  
                ( 38.83%)   0.6232* C   4 s( 34.45%)p 1.90( 65.52%)d 0.00(  0.04%)
                                            0.0003 -0.5869  0.0041  0.4727 -0.0014
                                            0.2859 -0.0078 -0.5904 -0.0367 -0.0066
                                            0.0081  0.0143  0.0036 -0.0060
                ( 61.17%)  -0.7821* H   5 s( 99.90%)p 0.00(  0.10%)
                                           -0.9995  0.0015 -0.0127 -0.0110  0.0262
   114. (0.00813) BD*( 1) C   4 - H   6  
                ( 38.76%)   0.6226* C   4 s( 34.28%)p 1.92( 65.69%)d 0.00(  0.04%)
                                            0.0003 -0.5854 -0.0072 -0.3972 -0.0083
                                           -0.7020 -0.0206 -0.0749 -0.0149 -0.0162
                                           -0.0021 -0.0028 -0.0022  0.0086
                ( 61.24%)  -0.7826* H   6 s( 99.90%)p 0.00(  0.10%)
                                           -0.9995  0.0011  0.0173  0.0250  0.0056
   115. (0.16926) BD*( 1) H   7 - O   8  
                ( 82.32%)   0.9073* H   7 s( 99.59%)p 0.00(  0.41%)
                                            0.9977  0.0228 -0.0591 -0.0035 -0.0238
                ( 17.68%)  -0.4205* O   8 s( 28.28%)p 2.53( 71.67%)d 0.00(  0.05%)
                                            0.0000  0.5318  0.0031  0.7683  0.0017
                                            0.1519  0.0063  0.3213 -0.0089 -0.0012
                                            0.0198  0.0062  0.0070  0.0009
   116. (0.00137) BD*( 1) O   8 - H   9  
                ( 23.70%)   0.4868* O   8 s( 21.71%)p 3.60( 78.21%)d 0.00(  0.08%)
                                           -0.0001 -0.4657 -0.0151  0.5941  0.0302
                                           -0.5106 -0.0220 -0.4087 -0.0044  0.0107
                                            0.0185 -0.0179 -0.0028 -0.0032
                ( 76.30%)  -0.8735* H   9 s( 99.55%)p 0.00(  0.45%)
                                           -0.9977  0.0008 -0.0438  0.0391  0.0331
   117. (0.18930) BD*( 1) O   8 - H  10  
                ( 13.88%)   0.3726* O   8 s( 27.97%)p 2.57( 72.00%)d 0.00(  0.03%)
                                            0.0000  0.5288 -0.0072 -0.2349 -0.0050
                                           -0.8122  0.0054  0.0711 -0.0104  0.0017
                                           -0.0053 -0.0154 -0.0061 -0.0062
                ( 86.12%)  -0.9280* H  10 s( 99.59%)p 0.00(  0.41%)
                                            0.9978 -0.0151  0.0106  0.0628 -0.0063
   118. (0.00081) BD*( 1) O  11 - H  12  
                ( 24.22%)   0.4921* O  11 s( 22.64%)p 3.41( 77.28%)d 0.00(  0.08%)
                                            0.0000 -0.4756 -0.0166  0.3959  0.0294
                                            0.2013  0.0113 -0.7575 -0.0248  0.0015
                                            0.0117  0.0086 -0.0026 -0.0242
                ( 75.78%)  -0.8705* H  12 s( 99.58%)p 0.00(  0.42%)
                                           -0.9979  0.0001 -0.0272 -0.0159  0.0569
   119. (0.10556) BD*( 1) O  11 - H  13  
                ( 18.70%)   0.4324* O  11 s( 34.75%)p 1.88( 65.20%)d 0.00(  0.05%)
                                            0.0001 -0.5895 -0.0048 -0.8016 -0.0073
                                            0.0927  0.0106 -0.0248  0.0073  0.0016
                                           -0.0103  0.0060 -0.0170  0.0074
                ( 81.30%)  -0.9017* H  13 s( 99.65%)p 0.00(  0.35%)
                                           -0.9977  0.0333  0.0579 -0.0109  0.0009


 NHO Directionality and "Bond Bending" (deviations from line of nuclear centers)

         [Thresholds for printing:  angular deviation  >  1.0 degree]
                                    hybrid p-character > 25.0%
                                    orbital occupancy  >  0.10e

                                Line of Centers        Hybrid 1              Hybrid 2
                                ---------------  -------------------   ------------------
                NBO               Theta   Phi    Theta   Phi    Dev    Theta   Phi    Dev
 ========================================================================================
     1. BD (   1) N   1 - O   2   124.4   15.4   121.3   11.8   4.3     52.2  197.2   3.7
     2. BD (   2) N   1 - O   2   124.4   15.4    40.8  327.5  93.8    134.4  153.5  87.5
     3. BD (   1) N   1 - O   3    92.5  247.2    97.7  244.5   5.8     97.3   76.4  13.4
     4. BD (   1) N   1 - C   4    55.4  123.1    52.7  122.0   2.8    122.7  304.4   2.2
     5. BD (   1) C   4 - H   5    38.1  220.1    41.1  210.5   6.8      --     --    --
     6. BD (   1) C   4 - H   6    82.0   54.9    83.8   60.7   6.0      --     --    --
     7. BD (   1) H   7 - O   8   116.3  184.5     --     --    --      68.3   11.6   8.0
     8. BD (   1) O   8 - H   9    58.4  138.8    63.3  139.5   4.9      --     --    --
     9. BD (   1) O   8 - H  10    79.4  261.0    85.9  253.4   9.9      --     --    --
    10. BD (   1) O  11 - H  12    27.1  209.0    31.3  206.6   4.4      --     --    --
    11. BD (   1) O  11 - H  13    85.6  352.8    88.8  352.7   3.1      --     --    --
    18. LP (   1) O   2             --     --    125.2   12.9   --       --     --    --
    19. LP (   2) O   2             --     --     67.3   87.8   --       --     --    --
    20. LP (   1) O   3             --     --    121.2  295.6   --       --     --    --
    21. LP (   2) O   3             --     --     44.8  188.0   --       --     --    --
    22. LP (   3) O   3             --     --     46.5  353.9   --       --     --    --
    23. LP (   1) C   4             --     --    132.9  158.7   --       --     --    --
    24. LP (   1) O   8             --     --    164.5   94.6   --       --     --    --
    25. LP (   1) O  11             --     --    133.3  235.0   --       --     --    --
    26. LP (   2) O  11             --     --    104.3  107.8   --       --     --    --
   110. BD*(   2) N   1 - O   2   124.4   15.4    40.8  327.5  93.8    134.4  153.5  87.5
   115. BD*(   1) H   7 - O   8   116.3  184.5     --     --    --      68.3   11.6   8.0
   117. BD*(   1) O   8 - H  10    79.4  261.0    85.9  253.4   9.9      --     --    --
   119. BD*(   1) O  11 - H  13    85.6  352.8    88.8  352.7   3.1      --     --    --


 Second Order Perturbation Theory Analysis of Fock Matrix in NBO Basis

     Threshold for printing:   0.50 kcal/mol
    (Intermolecular threshold: 0.05 kcal/mol)
                                                                              E(2)  E(j)-E(i) F(i,j)
         Donor NBO (i)                     Acceptor NBO (j)                 kcal/mol   a.u.    a.u. 
 ===================================================================================================

 within unit  1
   1. BD (   1) N   1 - O   2        / 27. RY*(   1) N   1                    0.73    2.18    0.036
   1. BD (   1) N   1 - O   2        / 54. RY*(   1) C   4                    0.74    1.88    0.033
   1. BD (   1) N   1 - O   2        /112. BD*(   1) N   1 - C   4            2.34    1.66    0.056
   2. BD (   2) N   1 - O   2        / 23. LP (   1) C   4                    5.22    0.32    0.068
   2. BD (   2) N   1 - O   2        / 46. RY*(   2) O   3                    0.69    1.85    0.032
   2. BD (   2) N   1 - O   2        / 55. RY*(   2) C   4                    0.94    1.30    0.031
   2. BD (   2) N   1 - O   2        /110. BD*(   2) N   1 - O   2            8.31    0.41    0.064
   2. BD (   2) N   1 - O   2        /113. BD*(   1) C   4 - H   5            0.59    1.05    0.022
   3. BD (   1) N   1 - O   3        / 54. RY*(   1) C   4                    1.10    1.80    0.040
   3. BD (   1) N   1 - O   3        /112. BD*(   1) N   1 - C   4            1.69    1.58    0.047
   3. BD (   1) N   1 - O   3        /114. BD*(   1) C   4 - H   6            0.79    1.66    0.032
   4. BD (   1) N   1 - C   4        / 23. LP (   1) C   4                    1.27    0.75    0.051
   4. BD (   1) N   1 - C   4        / 36. RY*(   1) O   2                    0.60    2.07    0.032
   4. BD (   1) N   1 - C   4        / 37. RY*(   2) O   2                    1.28    2.09    0.046
   4. BD (   1) N   1 - C   4        / 45. RY*(   1) O   3                    1.48    2.17    0.051
   4. BD (   1) N   1 - C   4        /109. BD*(   1) N   1 - O   2            1.61    1.49    0.044
   4. BD (   1) N   1 - C   4        /111. BD*(   1) N   1 - O   3            0.82    1.38    0.031
   5. BD (   1) C   4 - H   5        /109. BD*(   1) N   1 - O   2            5.93    1.14    0.074
   5. BD (   1) C   4 - H   5        /110. BD*(   2) N   1 - O   2            0.99    0.50    0.024
   6. BD (   1) C   4 - H   6        / 23. LP (   1) C   4                    0.60    0.40    0.026
   6. BD (   1) C   4 - H   6        /111. BD*(   1) N   1 - O   3            6.51    1.03    0.074
  12. CR (   1) N   1                / 56. RY*(   3) C   4                    3.01   15.36    0.192
  12. CR (   1) N   1                /112. BD*(   1) N   1 - C   4            0.95   15.31    0.109
  13. CR (   1) O   2                / 27. RY*(   1) N   1                    4.75   20.42    0.279
  13. CR (   1) O   2                / 28. RY*(   2) N   1                    0.54   20.65    0.094
  13. CR (   1) O   2                /111. BD*(   1) N   1 - O   3            0.58   19.86    0.098
  13. CR (   1) O   2                /112. BD*(   1) N   1 - C   4            1.65   19.90    0.163
  14. CR (   1) O   3                / 27. RY*(   1) N   1                    1.25   20.44    0.143
  14. CR (   1) O   3                / 28. RY*(   2) N   1                    2.43   20.67    0.200
  14. CR (   1) O   3                /112. BD*(   1) N   1 - C   4            1.34   19.93    0.147
  15. CR (   1) C   4                / 23. LP (   1) C   4                    1.31   10.26    0.194
  15. CR (   1) C   4                / 28. RY*(   2) N   1                    1.00   11.67    0.097
  15. CR (   1) C   4                / 63. RY*(   1) H   5                    0.79   10.83    0.083
  15. CR (   1) C   4                / 67. RY*(   1) H   6                    0.82   10.81    0.084
  15. CR (   1) C   4                /109. BD*(   1) N   1 - O   2            1.07   11.00    0.098
  15. CR (   1) C   4                /111. BD*(   1) N   1 - O   3            0.89   10.88    0.090
  18. LP (   1) O   2                / 27. RY*(   1) N   1                    8.99    1.84    0.115
  18. LP (   1) O   2                / 28. RY*(   2) N   1                    0.76    2.07    0.035
  18. LP (   1) O   2                /111. BD*(   1) N   1 - O   3            1.42    1.28    0.039
  18. LP (   1) O   2                /112. BD*(   1) N   1 - C   4            5.78    1.33    0.079
  19. LP (   2) O   2                / 28. RY*(   2) N   1                    3.09    1.58    0.064
  19. LP (   2) O   2                / 30. RY*(   4) N   1                    1.94    2.74    0.066
  19. LP (   2) O   2                /111. BD*(   1) N   1 - O   3           25.67    0.79    0.128
  19. LP (   2) O   2                /112. BD*(   1) N   1 - C   4           10.28    0.84    0.084
  19. LP (   2) O   2                /113. BD*(   1) C   4 - H   5            0.93    0.90    0.026
  20. LP (   1) O   3                / 27. RY*(   1) N   1                    0.57    1.69    0.028
  20. LP (   1) O   3                / 28. RY*(   2) N   1                    3.86    1.92    0.077
  20. LP (   1) O   3                / 32. RY*(   6) N   1                    0.72    3.49    0.045
  20. LP (   1) O   3                /109. BD*(   1) N   1 - O   2            1.11    1.24    0.033
  20. LP (   1) O   3                /112. BD*(   1) N   1 - C   4           10.14    1.17    0.098
  21. LP (   2) O   3                / 27. RY*(   1) N   1                    2.51    1.52    0.057
  21. LP (   2) O   3                / 30. RY*(   4) N   1                    2.07    2.91    0.071
  21. LP (   2) O   3                /109. BD*(   1) N   1 - O   2           13.94    1.07    0.111
  21. LP (   2) O   3                /110. BD*(   2) N   1 - O   2            2.69    0.42    0.036
  21. LP (   2) O   3                /112. BD*(   1) N   1 - C   4            0.58    1.00    0.022
  22. LP (   3) O   3                / 23. LP (   1) C   4                    2.89    0.14    0.027
  22. LP (   3) O   3                / 29. RY*(   3) N   1                    2.40    2.64    0.078
  22. LP (   3) O   3                / 31. RY*(   5) N   1                    1.65    2.62    0.064
  22. LP (   3) O   3                / 33. RY*(   7) N   1                    0.58    1.35    0.027
  22. LP (   3) O   3                / 47. RY*(   3) O   3                    0.63    1.70    0.032
  22. LP (   3) O   3                /110. BD*(   2) N   1 - O   2          118.15    0.23    0.162
  22. LP (   3) O   3                /111. BD*(   1) N   1 - O   3           18.10    0.77    0.112
  23. LP (   1) C   4                / 29. RY*(   3) N   1                    0.62    2.50    0.041
  23. LP (   1) C   4                / 31. RY*(   5) N   1                    2.23    2.48    0.078
  23. LP (   1) C   4                / 57. RY*(   4) C   4                    0.58    1.13    0.027
  23. LP (   1) C   4                /109. BD*(   1) N   1 - O   2            0.92    0.73    0.027
[...]
 Vibration    10          0.936              1.077              0.487
                       Q            Log10(Q)             Ln(Q)
 Total Bot       0.665455D-29        -29.176881        -67.182251
 Total V=0       0.481951D+15         14.683003         33.808864
 Vib (Bot)       0.779679D-42        -42.108084        -96.957447
 Vib (Bot)    1  0.351190D+01          0.545542          1.256157
 Vib (Bot)    2  0.218079D+01          0.338613          0.779685
 Vib (Bot)    3  0.135388D+01          0.131580          0.302974
 Vib (Bot)    4  0.576398D+00         -0.239278         -0.550958
 Vib (Bot)    5  0.408892D+00         -0.388391         -0.894303
 Vib (Bot)    6  0.385026D+00         -0.414510         -0.954445
 Vib (Bot)    7  0.345384D+00         -0.461698         -1.063098
 Vib (Bot)    8  0.293122D+00         -0.532952         -1.227167
 Vib (Bot)    9  0.277496D+00         -0.556744         -1.281950
 Vib (Bot)   10  0.263445D+00         -0.579309         -1.333909
 Vib (V=0)       0.564677D+02          1.751800          4.033668
 Vib (V=0)    1  0.404731D+01          0.607167          1.398054
 Vib (V=0)    2  0.273737D+01          0.437334          1.006998
 Vib (V=0)    3  0.194326D+01          0.288530          0.664365
 Vib (V=0)    4  0.126304D+01          0.101418          0.233524
 Vib (V=0)    5  0.114590D+01          0.059149          0.136194
 Vib (V=0)    6  0.113107D+01          0.053488          0.123161
 Vib (V=0)    7  0.110769D+01          0.044419          0.102279
 Vib (V=0)    8  0.107959D+01          0.033257          0.076578
 Vib (V=0)    9  0.107184D+01          0.030131          0.069379
 Vib (V=0)   10  0.106516D+01          0.027414          0.063123
 Electronic      0.100000D+01          0.000000          0.000000
 Translational   0.375720D+08          7.574865         17.441770
 Rotational      0.227163D+06          5.356339         12.333425
 ***** Axes restored to original set *****
 -------------------------------------------------------------------
 Center     Atomic                   Forces (Hartrees/Bohr)
 Number     Number              X              Y              Z
 -------------------------------------------------------------------
      1        7          -0.000234906   -0.000281134    0.000084854
      2        8          -0.000026997    0.000294690    0.000200742
      3        8           0.000183527   -0.000065847   -0.000263195
      4        6           0.000043437   -0.000011452   -0.000027254
      5        1          -0.000022079   -0.000062828   -0.000017742
      6        1           0.000027047   -0.000016107   -0.000015851
      7        1           0.000000266   -0.000047349    0.000037868
      8        8           0.000070694    0.000162247    0.000022142
      9        1          -0.000012150   -0.000000513   -0.000066935
     10        1          -0.000049491   -0.000058175   -0.000008565
     11        8          -0.000032630    0.000038475   -0.000018941
     12        1           0.000047423   -0.000048635   -0.000005210
     13        1           0.000005859    0.000096628    0.000078087
 -------------------------------------------------------------------
 Cartesian Forces:  Max     0.000294690 RMS     0.000107937

 GradGradGradGradGradGradGradGradGradGradGradGradGradGradGradGradGradGrad
 Berny optimization.
 Search for a local minimum.
 Step number   1 out of a maximum of    2
 All quantities printed in internal units (Hartrees-Bohrs-Radians)
 Second derivative matrix not updated -- analytic derivatives used.
 ITU=  0
     Eigenvalues ---   -0.03970   0.00079   0.00259   0.00568   0.00852
     Eigenvalues ---    0.00970   0.01229   0.01792   0.02375   0.02933
     Eigenvalues ---    0.03325   0.03914   0.05029   0.06622   0.07577
     Eigenvalues ---    0.07898   0.09701   0.12126   0.13646   0.14958
     Eigenvalues ---    0.20942   0.24739   0.26096   0.36257   0.40056
     Eigenvalues ---    0.47968   0.55031   0.79773   0.95555   1.02279
     Eigenvalues ---    1.03116   1.11457   1.41555
 Eigenvalue     1 is  -3.97D-02 should be greater than     0.000000 Eigenvector:
                          Y10       X7        X13       X4        Z7
   1                    0.61797   0.37819  -0.29470  -0.27546   0.25639
                          Z4        X3        Y7        Z10       Y11
   1                   -0.19996   0.17686  -0.17359  -0.15651  -0.14615
 Angle between quadratic step and forces=  74.56 degrees.
 Linear search not attempted -- first point.
 TrRot=  0.000523  0.003610 -0.005135 -0.937439  0.002176  0.938564
 Variable       Old X    -DE/DX   Delta X   Delta X   Delta X     New X
                                 (Linear)    (Quad)   (Total)
    X1        2.27201  -0.00023   0.00000  -0.00149  -0.00070   2.27131
    Y1       -0.10925  -0.00028   0.00000   0.00232   0.00827  -0.10098
    Z1        0.13413   0.00008   0.00000  -0.01184  -0.02008   0.11406
    X2        4.10797  -0.00003   0.00000   0.01808   0.01665   4.12462
    Y2        0.39797   0.00029   0.00000   0.02715   0.03741   0.43538
    Z2       -1.16879   0.00020   0.00000   0.02598   0.01629  -1.15250
    X3        1.34484   0.00018   0.00000  -0.00608  -0.00302   1.34182
    Y3       -2.31939  -0.00007   0.00000   0.00814   0.01334  -2.30605
    Z3        0.02844  -0.00026   0.00000  -0.07605  -0.08696  -0.05852
    X4        1.10543   0.00004   0.00000  -0.01727  -0.01653   1.08891
    Y4        1.68305  -0.00001   0.00000  -0.02474  -0.02275   1.66030
    Z4        1.61030  -0.00003   0.00000   0.00969   0.00606   1.61636
    X5        0.13224  -0.00002   0.00000  -0.03832  -0.03457   0.09767
    Y5        0.86455  -0.00006   0.00000  -0.05606  -0.05798   0.80657
    Z5        3.23290  -0.00002   0.00000  -0.01855  -0.02239   3.21051
    X6        2.27705   0.00003   0.00000  -0.01487  -0.01555   2.26150
    Y6        3.35068  -0.00002   0.00000  -0.03530  -0.03258   3.31809
    Z6        1.89805  -0.00002   0.00000   0.06064   0.05841   1.95646
    X7       -1.47345   0.00000   0.00000   0.00548   0.00322  -1.47024
    Y7        2.41821  -0.00005   0.00000  -0.00681  -0.00475   2.41346
    Z7       -0.04627   0.00004   0.00000  -0.01345  -0.01247  -0.05874
    X8       -3.27127   0.00007   0.00000   0.01380   0.01054  -3.26073
    Y8        2.27542   0.00016   0.00000  -0.01246  -0.01082   2.26460
    Z8       -0.93851   0.00002   0.00000  -0.03160  -0.02857  -0.96708
    X9       -4.44609  -0.00001   0.00000   0.00900   0.00572  -4.44036
    Y9        3.30338   0.00000   0.00000   0.02199   0.02070   3.32408
    Z9        0.02170  -0.00007   0.00000  -0.07467  -0.06827  -0.04657
   X10       -3.60588  -0.00005   0.00000  -0.00332  -0.00365  -3.60953
   Y10        0.16365  -0.00006   0.00000  -0.00106  -0.00059   0.16306
   Z10       -0.53917  -0.00001   0.00000   0.01635   0.01614  -0.52303
   X11       -3.40735  -0.00003   0.00000  -0.00584  -0.00285  -3.41020
   Y11       -2.16188   0.00004   0.00000   0.00813   0.00785  -2.15403
   Z11       -0.03133  -0.00002   0.00000   0.06024   0.05572   0.02439
   X12       -4.13527   0.00005   0.00000   0.03310   0.03863  -4.09663
   Y12       -2.56464  -0.00005   0.00000   0.03828   0.03433  -2.53031
   Z12        1.59690  -0.00001   0.00000   0.08504   0.08074   1.67764
   X13       -1.47874   0.00001   0.00000  -0.00128   0.00210  -1.47664
   Y13       -2.40626   0.00010   0.00000   0.00586   0.00758  -2.39868
   Z13        0.11668   0.00008   0.00000   0.01282   0.00538   0.12206
         Item               Value     Threshold  Converged?
 Maximum Force            0.000295     0.000450     YES
 RMS     Force            0.000108     0.000300     YES
 Maximum Displacement     0.086960     0.001800     NO 
 RMS     Displacement     0.031964     0.001200     NO 
 Predicted change in Energy=-1.931514D-05
 GradGradGradGradGradGradGradGradGradGradGradGradGradGradGradGradGradGrad

 1\1\GINC-DC1S3B3B\Freq\RM062X\def2SVP\C1H7N1O4\CHMBNN\23-Oct-2020\0\\#
  freq scrf=(cpcm,solvent=nitromethane) pop=nbo def2svp m062x\\MeNO2+2H
 2O TS3 freq\\0,1\N,1.202294,-0.057814,0.070981\O,2.173845,0.210596,-0.
 618495\O,0.711659,-1.227368,0.015048\C,0.584969,0.89063,0.852132\H,0.0
 69976,0.457501,1.710776\H,1.204963,1.773102,1.004404\H,-0.779717,1.279
 661,-0.024483\O,-1.731083,1.2041,-0.49664\H,-2.352768,1.748074,0.01148
 3\H,-1.908151,0.086602,-0.285318\O,-1.803091,-1.14402,-0.016577\H,-2.1
 8829,-1.357148,0.845043\H,-0.782517,-1.273338,0.061746\\Version=ES64L-
 G09RevD.01\State=1-A\HF=-397.3657074\RMSD=7.299e-09\RMSF=1.079e-04\Zer
 oPoint=0.0953544\Thermal=0.1027141\Dipole=-3.1886714,1.0249986,1.69678
 13\DipoleDeriv=2.0436417,-0.0201901,-0.9302076,-0.0719501,2.4094987,0.
 4509674,-1.4262193,0.7775479,1.184747,-1.6161035,0.0446876,0.6533353,-
 0.3072533,-0.6006698,0.0248031,0.9922741,-0.2111785,-0.9132647,-1.0797
 412,-0.6306202,0.0488263,-0.2790538,-1.8267639,-0.1522274,0.0647348,-0
 .1500371,-0.5570074,-1.3147398,0.8637104,0.1737162,0.9628569,-0.878255
 9,-0.3252013,-0.1652591,-0.0800845,-0.4395257,0.3112824,-0.1597441,-0.
 0346191,-0.1234418,0.0371462,0.0693497,0.1706618,-0.0793559,0.0203498,
 0.1370113,-0.2008257,0.0045456,-0.0988673,0.1470749,-0.0153535,0.13642
 03,-0.1263439,0.0645922,1.8239452,-0.511114,0.291621,-0.1308159,0.3208
 768,-0.0809645,0.7804475,-0.3470436,0.3770145,-1.7083742,0.3717311,-0.
 2132322,-0.0481562,-1.2326213,0.1951137,-0.570574,0.3796238,-0.5797345
 ,0.4011369,-0.0718424,-0.0179069,-0.0957632,0.426216,-0.005436,-0.0078
 722,-0.0130444,0.3533293,0.3575938,0.0431887,0.0303953,0.2064619,1.675
 7888,-0.3159852,0.0440331,-0.2729382,0.3960634,-1.2713281,-0.2392425,-
 0.0053854,-0.1009945,-1.2487693,0.128824,-0.0102583,0.1429848,-0.54292
 83,0.4009179,0.0576003,-0.0485725,0.0575453,0.3984343,-0.0066468,-0.02
 48226,-0.0228311,0.3424069,1.5147575,0.4526608,0.0474839,0.0294318,0.3
 720445,0.0327568,0.0164339,0.0027006,0.2939576\Polar=66.1322381,-3.479
 818,56.7125359,-10.9676755,4.2189783,39.2707898\PG=C01 [X(C1H7N1O4)]\N
 Imag=1\\0.68895994,0.12310268,0.70109498,-0.28213665,0.08363262,0.5577
 3777,-0.38763733,-0.07696631,0.21344822,0.46965352,-0.05720738,-0.1522
 2128,0.02862499,0.11830916,0.16009892,0.21612373,0.04082801,-0.2596334
 4,-0.30185402,-0.04954599,0.26185269,-0.15224255,-0.05700410,0.0156957
 7,-0.04381326,-0.09072905,0.02142269,0.20355687,-0.09018409,-0.3406604
 0,-0.02795774,-0.06230068,-0.03202258,0.02531429,0.13717725,0.46322830
 ,0.01238494,-0.04567285,-0.11074512,0.02873618,0.04592191,0.02083849,-
 0.04018314,0.03806379,0.07705586,-0.10346419,-0.00554243,0.02196339,-0
 .05995456,0.01788353,0.07176742,0.03816522,0.01489352,-0.00479524,0.36
 898826,0.02498644,-0.17516567,-0.05395439,0.02357593,0.02526247,-0.021
 73483,-0.00849672,-0.08810394,-0.02986162,0.19794968,0.57371181,0.0758
 5342,-0.10235860,-0.18148495,0.04624391,-0.02233116,-0.01667619,0.0059
 0372,-0.01528436,0.01316686,-0.20957579,0.07618658,0.48043468,-0.02115
 299,0.00578422,0.02191843,0.00746940,0.00390886,0.00107902,-0.00445814
 ,-0.00768365,-0.00389936,-0.07881071,-0.06848430,0.10813305,0.10205556
 ,0.01474880,0.00479860,-0.02552451,0.00206118,-0.00197533,-0.00163961,
 0.00250996,0.00101738,-0.00046298,-0.07948704,-0.09933528,0.10204236,0
 .06531053,0.09943575,0.00097605,0.02029307,-0.01156454,0.00546729,-0.0
 0380723,-0.00014177,-0.00296361,-0.00363732,0.00167489,0.13330687,0.08
 174224,-0.23061477,-0.13095054,-0.09378605,0.23724679,0.00090295,0.024
 47657,0.00963614,0.00348522,0.00288762,-0.00399179,0.00027822,-0.00066
 855,0.00377071,-0.13795293,-0.17456886,-0.01469901,-0.00561939,-0.0043
 0209,-0.00629573,0.14106330,-0.01312568,-0.02716842,-0.00702820,-0.002
 29402,0.00113533,0.00616814,0.00363384,0.00165251,-0.00512392,-0.14376
 418,-0.22940940,-0.03789981,-0.00063821,-0.00289206,-0.00211339,0.1549
 2088,0.25519592,-0.02092936,-0.00705547,-0.00072956,0.00300303,0.00092
 197,-0.00302063,0.00189531,-0.00819779,0.00232805,-0.00513214,-0.04670
 023,-0.04811722,0.00948102,0.01777887,0.00720584,0.01256247,0.04503495
 ,0.04383093,-0.03491931,0.05108063,0.03659494,0.02104943,0.00049827,-0
 .01775177,-0.01308418,-0.02714150,-0.00279710,0.04606856,-0.03888724,0
 .01120533,-0.00423603,0.00073730,-0.00159409,-0.00400753,0.00250625,-0
 .00335916,0.13612115,0.01134034,-0.00704864,0.00077459,-0.00380731,-0.
 00017546,0.00224676,-0.00030802,0.00081144,-0.00076453,-0.00679733,-0.
 01414497,-0.00415876,0.00311394,-0.00124863,0.00226816,-0.00453741,0.0
 0232399,-0.00312489,0.02538083,0.07307198,-0.01063616,0.02456515,0.024
 25279,0.01200280,0.00015277,-0.01158797,-0.00735628,-0.01485862,-0.001
 77211,0.02950642,-0.02147329,-0.01248792,-0.00854751,0.00302356,-0.005
 23810,-0.00116719,0.00115187,-0.00163398,0.03052593,0.02575267,0.06524
 350,0.02179637,-0.04028681,-0.03510728,-0.01649509,-0.00059141,0.01616
 946,0.01217254,0.02050215,0.00333420,-0.06974782,0.03671957,-0.0213143
 7,0.00506822,-0.00142316,0.00250336,0.00094957,-0.00118341,0.00118680,
 -0.13252536,-0.02080978,-0.06811611,0.45843709,-0.00032744,-0.00889251
 ,-0.00479700,-0.00006288,0.00131801,0.00077769,0.00918555,0.00748253,0
 .00042400,-0.00235652,0.01245568,0.00316319,-0.00008922,-0.00002209,-0
 .00027420,0.00177045,-0.00105715,0.00136823,0.00684866,-0.05268436,-0.
 01688430,-0.15484159,0.37740316,0.00735179,-0.01598539,-0.01586854,-0.
 00742472,-0.00021322,0.00740242,0.00319810,0.00857098,0.00115698,-0.03
 484557,0.01689471,-0.00210229,0.00344598,-0.00133487,0.00226793,0.0000
 3695,-0.00048986,0.00038142,-0.04530026,-0.02372230,-0.06977064,-0.086
 85292,0.13605002,0.26465239,-0.00020979,-0.00030295,0.00034541,0.00038
 613,0.00007626,-0.00032901,0.00062061,-0.00025024,0.00009064,-0.000046
 23,-0.00116852,-0.00197452,-0.00045448,0.00018280,-0.00042948,-0.00019
 619,0.00016365,-0.00019907,-0.01492249,0.01737943,0.01865885,-0.232876
 10,0.16177946,0.15400892,0.24228184,0.00172344,-0.00232199,-0.00208891
 ,-0.00123126,-0.00017057,0.00111816,0.00043406,0.00111694,0.00014749,-
 0.00299262,0.00207835,-0.00103451,0.00041068,-0.00015946,0.00035039,0.
 00008869,-0.00008490,0.00014138,0.00159780,0.00267298,0.00688163,0.162
 96988,-0.18116343,-0.14607159,-0.17816764,0.18614308,0.00131077,-0.001
 23308,-0.00108532,-0.00076195,-0.00017413,0.00054387,0.00025853,0.0004
 4151,0.00008523,-0.00245836,0.00058012,-0.00168942,-0.00003437,0.00002
 740,-0.00006214,-0.00001428,0.00002374,-0.00005340,-0.00567116,0.01001
 263,0.01000675,0.17669316,-0.16475528,-0.15962820,-0.16514403,0.152193
 83,0.15105242,-0.00424019,0.00058668,0.00137205,0.00140485,0.00014203,
 -0.00113220,0.00027131,-0.00101992,0.00022455,0.00201722,0.00053146,0.
 00047452,-0.00081583,0.00020866,-0.00083894,0.00054675,-0.00012471,0.0
 0016410,-0.00660595,-0.02377084,0.00222884,-0.05831690,-0.01591163,0.0
 0950036,0.00633650,0.01765714,-0.00515595,0.09781808,-0.00463155,0.025
 35942,0.01227826,0.00345630,-0.00236980,-0.00391173,-0.02003978,-0.014
 66764,-0.00215907,0.01899146,-0.01352858,0.00282310,-0.00163622,0.0010
 8562,-0.00095639,-0.00091258,0.00058461,-0.00097212,-0.04214760,-0.000
 48734,-0.01700112,0.01545577,-0.04218698,0.01133923,0.00617778,-0.0050
 3110,-0.00057405,0.00817422,0.03786620,-0.00025936,-0.00382588,-0.0008
 2655,0.00035766,0.00058612,-0.00013964,0.00436495,0.00248667,-0.000034
 29,-0.00223041,0.00238993,-0.00049016,-0.00052550,0.00001156,-0.000726
 07,0.00054399,-0.00018486,0.00015153,0.00276723,-0.01062756,0.00550856
 ,0.01015223,0.01746886,-0.03899816,-0.00731537,-0.01475988,0.00193951,
 -0.00977858,0.01270760,0.06355211,0.00424448,0.04050362,0.00443542,-0.
 00642830,-0.00985374,0.00465358,-0.07323242,-0.02698803,-0.00407942,0.
 00644326,-0.00921399,-0.00092946,-0.00099438,0.00032717,-0.00029077,-0
 .00090393,0.00041651,-0.00123205,-0.00860763,0.00334784,-0.00507256,0.
 02396407,0.00904429,-0.00140924,-0.00042787,-0.00250800,0.00086570,-0.
 04137011,-0.01187461,0.01432875,0.46180587,0.00690119,-0.01248179,-0.0
 0763028,-0.00219819,0.00152504,0.00279242,0.00746868,0.01630363,0.0008
 2838,-0.00981909,0.00673946,-0.00206998,0.00172235,-0.00035503,0.00143
 581,0.00014975,-0.00022899,0.00069952,0.01997529,-0.00010191,0.0081063
 6,-0.01492661,-0.10748737,0.01689656,-0.00604965,-0.00196598,0.0033218
 1,0.00332263,0.00896736,-0.02205092,0.00104112,0.17524088,-0.00085224,
 0.00017018,0.00223880,0.00025433,-0.00025037,-0.00088995,0.00096559,-0
 .00054362,0.00771967,0.00100395,-0.00144037,-0.00033870,0.00085748,0.0
 0069199,0.00089053,-0.00030333,0.00008399,0.00006736,-0.00439591,0.000
 89364,-0.00272152,0.00031875,0.03012227,0.00976203,0.00242835,0.003097
 11,-0.00122237,0.00757457,-0.01556479,-0.02790830,-0.15529960,-0.13371
 611,0.48996571,-0.00091765,0.00100942,0.00046980,0.00053888,-0.0000269
 7,-0.00018936,-0.00251644,-0.00003886,-0.00229620,0.00085852,-0.000151
 14,0.00042353,-0.00077375,-0.00034779,-0.00049239,0.00014517,0.0000005
 0,-0.00014183,-0.00099028,-0.00024965,-0.00017049,0.00074605,0.0049809
 8,0.00010846,0.00048152,0.00010574,-0.00000136,0.00118349,-0.00849827,
 -0.00278713,-0.11244691,-0.02534684,0.15585602,0.12093394,-0.00072170,
 -0.00116823,0.00039618,0.00051325,0.00031761,-0.00046754,0.00251800,0.
 00088400,0.00037175,0.00010057,0.00043257,0.00026751,-0.00065141,-0.00
 022344,-0.00044915,0.00016405,-0.00004143,-0.00003525,0.00012369,-0.00
 028076,0.00044930,0.00166028,-0.00477737,-0.00239165,-0.00026812,-0.00
 138770,0.00040863,-0.00852089,0.00559055,0.01471916,-0.03063932,-0.044
 49585,0.10047739,0.03788199,0.04423026,0.00089170,0.00187254,-0.000245
 00,-0.00061260,-0.00053965,0.00055395,-0.00376471,-0.00102411,-0.00054
 811,0.00006462,-0.00011544,0.00006534,-0.00017187,-0.00021703,-0.00011
 640,-0.00005159,0.00002899,-0.00009820,0.00057812,0.00037323,0.0001903
 1,-0.00041813,-0.00406682,0.00084649,-0.00014839,0.00011632,0.00009671
 ,-0.00031115,0.00440680,-0.00327584,0.18883968,0.10832408,-0.42367180,
 -0.18563651,-0.10731273,0.42300781,-0.01111973,-0.06644122,-0.00863562
 ,0.01034110,0.01470281,-0.00596774,0.03428223,0.04370259,0.00950923,-0
 .01256459,0.01720768,0.00025564,0.00272250,-0.00052631,0.00160196,0.00
 130881,-0.00051142,0.00270089,0.01665961,-0.00028204,0.00814346,-0.013
 17264,-0.02002011,-0.00181785,-0.00097346,-0.00008790,0.00011330,0.001
 77078,0.03748510,-0.00961847,-0.25204613,0.01775938,-0.00840794,-0.007
 24253,-0.00216041,0.00074084,0.23003406,-0.01660504,-0.00412407,0.0032
 7438,0.00094484,-0.00072236,-0.00194576,0.01365033,-0.01704218,-0.0017
 1234,0.00094045,-0.00099250,0.00065442,-0.00106758,-0.00012602,-0.0010
 6594,0.00053147,-0.00000999,0.00014083,-0.00057238,-0.00270832,0.00013
 402,-0.00324488,-0.00038813,0.00045738,0.00044774,0.00027378,-0.000273
 15,0.01872517,-0.00118231,0.00107920,0.03639715,-0.04165943,0.01597868
 ,-0.00931913,0.00091981,-0.00184616,-0.04082815,0.06776171,-0.00007862
 ,0.00476971,-0.00204635,0.00113988,0.00065398,0.00089816,0.00056309,-0
 .00337369,-0.01092641,0.00142483,-0.00251340,0.00033473,-0.00078584,-0
 .00061069,-0.00082220,-0.00002736,0.00034835,-0.00031214,-0.00080208,0
 .00007637,0.00001033,0.00145085,0.00140333,-0.00010183,0.00000771,-0.0
 0009144,0.00001635,-0.00432215,-0.00241571,0.00124729,-0.04481005,0.02
 306236,-0.05389147,0.03485745,-0.00643359,0.00319474,0.01138230,-0.014
 87558,0.06239880\\0.00023491,0.00028113,-0.00008485,0.00002700,-0.0002
 9469,-0.00020074,-0.00018353,0.00006585,0.00026320,-0.00004344,0.00001
 145,0.00002725,0.00002208,0.00006283,0.00001774,-0.00002705,0.00001611
 ,0.00001585,-0.00000027,0.00004735,-0.00003787,-0.00007069,-0.00016225
 ,-0.00002214,0.00001215,0.00000051,0.00006694,0.00004949,0.00005818,0.
 00000857,0.00003263,-0.00003847,0.00001894,-0.00004742,0.00004864,0.00
 000521,-0.00000586,-0.00009663,-0.00007809\\\@


 SIGN SEEN IN A RESTAURANT-
 WE RESERVE THE RIGHT TO SERVE REFUSE TO ANYONE.
 Job cpu time:       0 days  0 hours  5 minutes 49.9 seconds.
 File lengths (MBytes):  RWF=     41 Int=      0 D2E=      0 Chk=      5 Scr=      1
 Normal termination of Gaussian 09 at Fri Oct 23 20:30:29 2020.
