 Entering Gaussian System, Link 0=g09
 Input=MeNO2_opt_2.com
 Output=MeNO2_opt_2.log
 Initial command:
 /apps/applications/gaussian/G09.D01/2/default/g09/l1.exe "/nobackup/chmbnn/Gau-171025.inp" -scrdir="/nobackup/chmbnn/"
 Entering Link 1 = /apps/applications/gaussian/G09.D01/2/default/g09/l1.exe PID=    171026.
  
 Copyright (c) 1988,1990,1992,1993,1995,1998,2003,2009,2013,
            Gaussian, Inc.  All Rights Reserved.
  
 This is part of the Gaussian(R) 09 program.  It is based on
 the Gaussian(R) 03 system (copyright 2003, Gaussian, Inc.),
 the Gaussian(R) 98 system (copyright 1998, Gaussian, Inc.),
 the Gaussian(R) 94 system (copyright 1995, Gaussian, Inc.),
 the Gaussian 92(TM) system (copyright 1992, Gaussian, Inc.),
 the Gaussian 90(TM) system (copyright 1990, Gaussian, Inc.),
 the Gaussian 88(TM) system (copyright 1988, Gaussian, Inc.),
 the Gaussian 86(TM) system (copyright 1986, Carnegie Mellon
 University), and the Gaussian 82(TM) system (copyright 1983,
 Carnegie Mellon University). Gaussian is a federally registered
 trademark of Gaussian, Inc.
  
 This software contains proprietary and confidential information,
 including trade secrets, belonging to Gaussian, Inc.
  
 This software is provided under written license and may be
 used, copied, transmitted, or stored only in accord with that
 written license.
  
 The following legend is applicable only to US Government
 contracts under FAR:
  
                    RESTRICTED RIGHTS LEGEND
  
 Use, reproduction and disclosure by the US Government is
 subject to restrictions as set forth in subparagraphs (a)
 and (c) of the Commercial Computer Software - Restricted
 Rights clause in FAR 52.227-19.
  
 Gaussian, Inc.
 340 Quinnipiac St., Bldg. 40, Wallingford CT 06492
  
  
 ---------------------------------------------------------------
 Warning -- This program may not be used in any manner that
 competes with the business of Gaussian, Inc. or will provide
 assistance to any competitor of Gaussian, Inc.  The licensee
 of this program is prohibited from giving any competitor of
 Gaussian, Inc. access to this program.  By using this program,
 the user acknowledges that Gaussian, Inc. is engaged in the
 business of creating and licensing software in the field of
 computational chemistry and represents and warrants to the
 licensee that it is not a competitor of Gaussian, Inc. and that
 it will not use this program in any manner prohibited above.
 ---------------------------------------------------------------
  

 Cite this work as:
 Gaussian 09, Revision D.01,
 M. J. Frisch, G. W. Trucks, H. B. Schlegel, G. E. Scuseria, 
 M. A. Robb, J. R. Cheeseman, G. Scalmani, V. Barone, B. Mennucci, 
 G. A. Petersson, H. Nakatsuji, M. Caricato, X. Li, H. P. Hratchian, 
 A. F. Izmaylov, J. Bloino, G. Zheng, J. L. Sonnenberg, M. Hada, 
 M. Ehara, K. Toyota, R. Fukuda, J. Hasegawa, M. Ishida, T. Nakajima, 
 Y. Honda, O. Kitao, H. Nakai, T. Vreven, J. A. Montgomery, Jr., 
 J. E. Peralta, F. Ogliaro, M. Bearpark, J. J. Heyd, E. Brothers, 
 K. N. Kudin, V. N. Staroverov, T. Keith, R. Kobayashi, J. Normand, 
 K. Raghavachari, A. Rendell, J. C. Burant, S. S. Iyengar, J. Tomasi, 
 M. Cossi, N. Rega, J. M. Millam, M. Klene, J. E. Knox, J. B. Cross, 
 V. Bakken, C. Adamo, J. Jaramillo, R. Gomperts, R. E. Stratmann, 
 O. Yazyev, A. J. Austin, R. Cammi, C. Pomelli, J. W. Ochterski, 
 R. L. Martin, K. Morokuma, V. G. Zakrzewski, G. A. Voth, 
 P. Salvador, J. J. Dannenberg, S. Dapprich, A. D. Daniels, 
 O. Farkas, J. B. Foresman, J. V. Ortiz, J. Cioslowski, 
 and D. J. Fox, Gaussian, Inc., Wallingford CT, 2013.
 
 ******************************************
 Gaussian 09:  ES64L-G09RevD.01 24-Apr-2013
                23-Oct-2020 
 ******************************************
 %nprocshared=4
 Will use up to    4 processors via shared memory.
 %chk=MeNO2_opt_2.chk
 ----------------------------------------------------------------------
 # opt freq int=(grid=ultrafine) scrf=(cpcm,solvent=nitromethane) def2s
 vp m062x
 ----------------------------------------------------------------------
 1/14=-1,18=20,19=15,26=4,38=1/1,3;
 2/9=110,12=2,17=6,18=5,40=1/2;
 3/5=43,7=101,11=2,16=1,25=1,30=1,70=2101,71=1,72=15,74=-55,75=-5/1,2,3;
 4//1;
 5/5=2,38=5,53=15/2;
 6/7=2,8=2,9=2,10=2,28=1/1;
 7//1,2,3,16;
 1/14=-1,18=20,19=15,26=4/3(2);
 2/9=110/2;
 99//99;
 2/9=110/2;
 3/5=43,7=101,11=2,16=1,25=1,30=1,70=2105,71=1,72=15,74=-55,75=-5/1,2,3;
 4/5=5,16=3,69=1/1;
 5/5=2,38=5,53=15/2;
 7//1,2,3,16;
 1/14=-1,18=20,19=15,26=4/3(-5);
 2/9=110/2;
 6/7=2,8=2,9=2,10=2,19=2,28=1/1;
 99/9=1/99;
 -----------
 MeNO2 opt 2
 -----------
 Symbolic Z-matrix:
 Charge =  0 Multiplicity = 1
 N                    -0.16923  -0.00041  -0.01082 
 O                    -0.74695  -1.0603    0.00293 
 O                    -0.71022   1.07929   0.00275 
 C                     1.31829  -0.01781  -0.00225 
 H                     1.623     0.14084   1.03862 
 H                     1.64853  -0.99254  -0.36618 
 H                     1.66064   0.80954  -0.62861 
 

 GradGradGradGradGradGradGradGradGradGradGradGradGradGradGradGradGradGrad
 Berny optimization.
 Initialization pass.
                           ----------------------------
                           !    Initial Parameters    !
                           ! (Angstroms and Degrees)  !
 --------------------------                            --------------------------
 ! Name  Definition              Value          Derivative Info.                !
 --------------------------------------------------------------------------------
 ! R1    R(1,2)                  1.2072         estimate D2E/DX2                !
 ! R2    R(1,3)                  1.2077         estimate D2E/DX2                !
 ! R3    R(1,4)                  1.4876         estimate D2E/DX2                !
 ! R4    R(4,5)                  1.0961         estimate D2E/DX2                !
 ! R5    R(4,6)                  1.0916         estimate D2E/DX2                !
 ! R6    R(4,7)                  1.0927         estimate D2E/DX2                !
 ! A1    A(2,1,3)              124.7789         estimate D2E/DX2                !
 ! A2    A(2,1,4)              117.9168         estimate D2E/DX2                !
 ! A3    A(3,1,4)              117.2769         estimate D2E/DX2                !
 ! A4    A(1,4,5)              106.3646         estimate D2E/DX2                !
 ! A5    A(1,4,6)              108.121          estimate D2E/DX2                !
 ! A6    A(1,4,7)              107.5247         estimate D2E/DX2                !
 ! A7    A(5,4,6)              111.2065         estimate D2E/DX2                !
 ! A8    A(5,4,7)              110.3439         estimate D2E/DX2                !
 ! A9    A(6,4,7)              112.9664         estimate D2E/DX2                !
 ! D1    D(2,1,4,5)            -97.958          estimate D2E/DX2                !
 ! D2    D(2,1,4,6)             21.5652         estimate D2E/DX2                !
 ! D3    D(2,1,4,7)            143.8328         estimate D2E/DX2                !
 ! D4    D(3,1,4,5)             80.2334         estimate D2E/DX2                !
 ! D5    D(3,1,4,6)           -160.2435         estimate D2E/DX2                !
 ! D6    D(3,1,4,7)            -37.9759         estimate D2E/DX2                !
 --------------------------------------------------------------------------------
 Trust Radius=3.00D-01 FncErr=1.00D-07 GrdErr=1.00D-06
 Number of steps in this run=     31 maximum allowed number of steps=    100.
 GradGradGradGradGradGradGradGradGradGradGradGradGradGradGradGradGradGrad

                          Input orientation:                          
 ---------------------------------------------------------------------
 Center     Atomic      Atomic             Coordinates (Angstroms)
 Number     Number       Type             X           Y           Z
 ---------------------------------------------------------------------
      1          7           0       -0.169227   -0.000411   -0.010824
      2          8           0       -0.746945   -1.060304    0.002931
      3          8           0       -0.710218    1.079289    0.002750
      4          6           0        1.318288   -0.017806   -0.002251
      5          1           0        1.622995    0.140838    1.038622
      6          1           0        1.648534   -0.992539   -0.366183
      7          1           0        1.660635    0.809535   -0.628610
 ---------------------------------------------------------------------
                    Distance matrix (angstroms):
                    1          2          3          4          5
     1  N    0.000000
     2  O    1.207195   0.000000
     3  O    1.207728   2.139908   0.000000
     4  C    1.487641   2.313443   2.306183   0.000000
     5  H    2.081669   2.851669   2.719854   1.096098   0.000000
     6  H    2.101155   2.424697   3.161059   1.091610   1.805179
     7  H    2.094294   3.113131   2.468264   1.092712   1.796729
                    6          7
     6  H    0.000000
     7  H    1.821122   0.000000
 Stoichiometry    CH3NO2
 Framework group  C1[X(CH3NO2)]
 Deg. of freedom    15
 Full point group                 C1      NOp   1
 Largest Abelian subgroup         C1      NOp   1
 Largest concise Abelian subgroup C1      NOp   1
                         Standard orientation:                         
 ---------------------------------------------------------------------
 Center     Atomic      Atomic             Coordinates (Angstroms)
 Number     Number       Type             X           Y           Z
 ---------------------------------------------------------------------
      1          7           0       -0.169227   -0.000411   -0.010824
      2          8           0       -0.746945   -1.060304    0.002931
      3          8           0       -0.710218    1.079289    0.002750
      4          6           0        1.318288   -0.017806   -0.002251
      5          1           0        1.622995    0.140838    1.038622
      6          1           0        1.648534   -0.992539   -0.366183
      7          1           0        1.660635    0.809535   -0.628610
 ---------------------------------------------------------------------
 Rotational constants (GHZ):     12.6619896     10.6055698      5.9935551
 Standard basis: def2SVP (5D, 7F)
 There are    75 symmetry adapted cartesian basis functions of A   symmetry.
 There are    71 symmetry adapted basis functions of A   symmetry.
    71 basis functions,   121 primitive gaussians,    75 cartesian basis functions
    16 alpha electrons       16 beta electrons
       nuclear repulsion energy       125.9464520896 Hartrees.
 NAtoms=    7 NActive=    7 NUniq=    7 SFac= 1.00D+00 NAtFMM=   60 NAOKFM=F Big=F
 Integral buffers will be    131072 words long.
 Raffenetti 2 integral format.
 Two-electron integral symmetry is turned on.
 ------------------------------------------------------------------------------
 Polarizable Continuum Model (PCM)
 =================================
 Model                : C-PCM.
 Atomic radii         : UFF (Universal Force Field).
 Polarization charges : Total charges.
 Charge compensation  : None.
 Solution method      : On-the-fly selection.
 Cavity type          : Scaled VdW (van der Waals Surface) (Alpha=1.100).
 Cavity algorithm     : GePol (No added spheres)
                        Default sphere list used, NSphG=    7.
                        Lebedev-Laikov grids with approx.  5.0 points / Ang**2.
                        Smoothing algorithm: Karplus/York (Gamma=1.0000).
                        Polarization charges: spherical gaussians, with
                                              point-specific exponents (IZeta= 3).
                        Self-potential: point-specific (ISelfS= 7).
                        Self-field    : sphere-specific E.n sum rule (ISelfD= 2).
 1st derivatives      : Analytical E(r).r(x)/FMM algorithm (CHGder, D1EAlg=3).
                        Cavity 1st derivative terms included.
 Solvent              : NitroMethane, Eps=  36.562000 Eps(inf)=   1.909095
 ------------------------------------------------------------------------------
 Spheres list:
 ISph  on   Nord     Re0    Alpha      Xe            Ye            Ze
    1   N      1    1.8300  1.100     -0.169227     -0.000411     -0.010824
    2   O      2    1.7500  1.100     -0.746945     -1.060304      0.002931
    3   O      3    1.7500  1.100     -0.710218      1.079289      0.002750
    4   C      4    1.9255  1.100      1.318288     -0.017806     -0.002251
    5   H      5    1.4430  1.100      1.622995      0.140838      1.038622
    6   H      6    1.4430  1.100      1.648534     -0.992539     -0.366183
    7   H      7    1.4430  1.100      1.660635      0.809535     -0.628610
 ------------------------------------------------------------------------------
 One-electron integrals computed using PRISM.
   1 Symmetry operations used in ECPInt.
 ECPInt:  NShTT=     561 NPrTT=    2077 LenC2=     562 LenP2D=    1815.
 LDataN:  DoStor=T MaxTD1= 4 Len=   56
 NBasis=    71 RedAO= T EigKep=  6.55D-03  NBF=    71
 NBsUse=    71 1.00D-06 EigRej= -1.00D+00 NBFU=    71
 ExpMin= 1.22D-01 ExpMax= 2.27D+03 ExpMxC= 3.41D+02 IAcc=3 IRadAn=         5 AccDes= 0.00D+00
 Harris functional with IExCor= 1009 and IRadAn=       5 diagonalized for initial guess.
 HarFok:  IExCor= 1009 AccDes= 0.00D+00 IRadAn=         5 IDoV= 1 UseB2=F ITyADJ=14
 ICtDFT=  3500011 ScaDFX=  1.000000  1.000000  1.000000  1.000000
 FoFCou: FMM=F IPFlag=           0 FMFlag=      100000 FMFlg1=           0
         NFxFlg=           0 DoJE=T BraDBF=F KetDBF=T FulRan=T
         wScrn=  0.000000 ICntrl=     500 IOpCl=  0 I1Cent=   200000004 NGrid=           0
         NMat0=    1 NMatS0=      1 NMatT0=    0 NMatD0=    1 NMtDS0=    0 NMtDT0=    0
 Petite list used in FoFCou.
 Keep R1 ints in memory in canonical form, NReq=6923659.
 Requested convergence on RMS density matrix=1.00D-08 within 128 cycles.
 Requested convergence on MAX density matrix=1.00D-06.
 Requested convergence on             energy=1.00D-06.
 No special actions if energy rises.
 Inv3:  Mode=1 IEnd=     1848675.
 Iteration    1 A*A^-1 deviation from unit magnitude is 2.89D-15 for    605.
 Iteration    1 A*A^-1 deviation from orthogonality  is 1.22D-15 for    785      1.
 Iteration    1 A^-1*A deviation from unit magnitude is 2.66D-15 for    196.
 Iteration    1 A^-1*A deviation from orthogonality  is 1.44D-15 for    721    227.
 Error on total polarization charges =  0.00279
 SCF Done:  E(RM062X) =  -244.721860230     A.U. after   13 cycles
            NFock= 13  Conv=0.19D-08     -V/T= 2.0070

 **********************************************************************

            Population analysis using the SCF density.

 **********************************************************************

 Orbital symmetries:
       Occupied  (A) (A) (A) (A) (A) (A) (A) (A) (A) (A) (A) (A)
                 (A) (A) (A) (A)
       Virtual   (A) (A) (A) (A) (A) (A) (A) (A) (A) (A) (A) (A)
                 (A) (A) (A) (A) (A) (A) (A) (A) (A) (A) (A) (A)
                 (A) (A) (A) (A) (A) (A) (A) (A) (A) (A) (A) (A)
                 (A) (A) (A) (A) (A) (A) (A) (A) (A) (A) (A) (A)
                 (A) (A) (A) (A) (A) (A) (A)
 The electronic state is 1-A.
 Alpha  occ. eigenvalues --  -19.66978 -19.66853 -15.00736 -10.60934  -1.36693
 Alpha  occ. eigenvalues --   -1.17800  -0.90833  -0.69826  -0.64428  -0.62706
 Alpha  occ. eigenvalues --   -0.60938  -0.50987  -0.49013  -0.39195  -0.38496
 Alpha  occ. eigenvalues --   -0.38311
 Alpha virt. eigenvalues --   -0.01540   0.11558   0.16287   0.16756   0.17531
 Alpha virt. eigenvalues --    0.34160   0.42477   0.46795   0.49147   0.51689
 Alpha virt. eigenvalues --    0.62265   0.68282   0.69258   0.69377   0.77563
 Alpha virt. eigenvalues --    0.79556   0.82001   0.95999   0.96529   1.03948
 Alpha virt. eigenvalues --    1.04848   1.07230   1.13082   1.14044   1.27630
 Alpha virt. eigenvalues --    1.34669   1.39093   1.53290   1.64696   1.68690
 Alpha virt. eigenvalues --    1.77355   1.80778   1.82128   1.85115   2.01348
 Alpha virt. eigenvalues --    2.04465   2.19561   2.34236   2.42321   2.46499
 Alpha virt. eigenvalues --    2.48558   2.50624   2.66684   2.69691   2.70055
 Alpha virt. eigenvalues --    2.73004   2.84667   2.87360   2.90995   3.12730
 Alpha virt. eigenvalues --    3.24230   3.36779   3.47282   3.76071   3.79179
          Condensed to atoms (all electrons):
               1          2          3          4          5          6
     1  N    5.911622   0.312456   0.300842   0.317540  -0.011518  -0.017377
     2  O    0.312456   8.156906  -0.114128  -0.074159  -0.000127   0.007300
     3  O    0.300842  -0.114128   8.172257  -0.073779   0.000123   0.005140
     4  C    0.317540  -0.074159  -0.073779   4.584433   0.398634   0.390343
     5  H   -0.011518  -0.000127   0.000123   0.398634   0.511722  -0.010875
     6  H   -0.017377   0.007300   0.005140   0.390343  -0.010875   0.547166
     7  H   -0.015810   0.003881   0.005252   0.391650  -0.010517  -0.017026
               7
     1  N   -0.015810
     2  O    0.003881
     3  O    0.005252
     4  C    0.391650
     5  H   -0.010517
     6  H   -0.017026
     7  H    0.540200
 Mulliken charges:
               1
     1  N    0.202245
     2  O   -0.292129
     3  O   -0.295707
     4  C    0.065336
     5  H    0.122556
     6  H    0.095329
     7  H    0.102370
 Sum of Mulliken charges =   0.00000
 Mulliken charges with hydrogens summed into heavy atoms:
               1
     1  N    0.202245
     2  O   -0.292129
     3  O   -0.295707
     4  C    0.385591
 Electronic spatial extent (au):  <R**2>=            225.7276
 Charge=              0.0000 electrons
 Dipole moment (field-independent basis, Debye):
    X=              4.2906    Y=             -0.0456    Z=              0.0538  Tot=              4.2912
 Quadrupole moment (field-independent basis, Debye-Ang):
   XX=            -21.4425   YY=            -26.6027   ZZ=            -21.0738
   XY=             -0.0214   XZ=              0.1515   YZ=              0.0035
 Traceless Quadrupole moment (field-independent basis, Debye-Ang):
   XX=              1.5972   YY=             -3.5630   ZZ=              1.9659
   XY=             -0.0214   XZ=              0.1515   YZ=              0.0035
 Octapole moment (field-independent basis, Debye-Ang**2):
  XXX=              3.6537  YYY=             -0.4747  ZZZ=              0.9760  XYY=              3.3841
  XXY=              0.1189  XXZ=              0.1557  XZZ=             -0.0774  YZZ=              0.3930
  YYZ=             -0.7422  XYZ=             -0.0043
 Hexadecapole moment (field-independent basis, Debye-Ang**3):
 XXXX=           -132.9912 YYYY=           -103.7659 ZZZZ=            -22.1405 XXXY=              0.1171
 XXXZ=              0.3592 YYYX=             -0.6085 YYYZ=              0.0197 ZZZX=              1.7110
 ZZZY=              0.0323 XXYY=            -39.0637 XXZZ=            -24.3389 YYZZ=            -19.9450
 XXYZ=             -0.0253 YYXZ=             -1.3591 ZZXY=              0.7195
 N-N= 1.259464520896D+02 E-N=-8.259999399209D+02  KE= 2.430276584162D+02
   1 Symmetry operations used in ECPInt.
 ECPInt:  NShTT=     561 NPrTT=    2077 LenC2=     562 LenP2D=    1815.
 LDataN:  DoStor=T MaxTD1= 5 Len=  102
 D1PCM: C-PCM CHGder 1st derivatives, ID1Alg=3 FixD1E=F DoIter=F DoCFld=F I1PDM=0.
 Calling FoFJK, ICntrl=      2127 FMM=F ISym2X=0 I1Cent= 0 IOpClX= 0 NMat=1 NMatS=1 NMatT=0.
 ***** Axes restored to original set *****
 -------------------------------------------------------------------
 Center     Atomic                   Forces (Hartrees/Bohr)
 Number     Number              X              Y              Z
 -------------------------------------------------------------------
      1        7          -0.000451362    0.000013536    0.000077191
      2        8           0.000318057    0.000095345   -0.000018632
      3        8           0.000102487   -0.000081118   -0.000051455
      4        6           0.000073761    0.000028960    0.000015502
      5        1           0.000030851   -0.000020486   -0.000065917
      6        1          -0.000092317    0.000043257    0.000000047
      7        1           0.000018523   -0.000079494    0.000043263
 -------------------------------------------------------------------
 Cartesian Forces:  Max     0.000451362 RMS     0.000132981

 GradGradGradGradGradGradGradGradGradGradGradGradGradGradGradGradGradGrad
 Berny optimization.
 FormGI is forming the generalized inverse of G from B-inverse, IUseBI=4.
 Internal  Forces:  Max     0.000298937 RMS     0.000115293
 Search for a local minimum.
 Step number   1 out of a maximum of   31
 All quantities printed in internal units (Hartrees-Bohrs-Radians)
 Mixed Optimization -- En-DIIS/RFO-DIIS
 Second derivative matrix not updated -- first step.
 ITU=  0
     Eigenvalues ---    0.00532   0.00537   0.07682   0.07954   0.16000
     Eigenvalues ---    0.16000   0.16000   0.25000   0.25000   0.33709
     Eigenvalues ---    0.34117   0.34501   0.34627   1.01034   1.01289
 RFO step:  Lambda=-1.77755030D-06 EMin= 5.32452498D-03
 Linear search not attempted -- first point.
 Iteration  1 RMS(Cart)=  0.00202273 RMS(Int)=  0.00000803
 Iteration  2 RMS(Cart)=  0.00000626 RMS(Int)=  0.00000516
 Iteration  3 RMS(Cart)=  0.00000000 RMS(Int)=  0.00000516
 Variable       Old X    -DE/DX   Delta X   Delta X   Delta X     New X
                                 (Linear)    (Quad)   (Total)
    R1        2.28127  -0.00024   0.00000  -0.00024  -0.00024   2.28103
    R2        2.28228  -0.00012   0.00000  -0.00012  -0.00012   2.28216
    R3        2.81123   0.00003   0.00000   0.00009   0.00009   2.81133
    R4        2.07133  -0.00005   0.00000  -0.00016  -0.00016   2.07116
    R5        2.06284  -0.00007   0.00000  -0.00019  -0.00019   2.06266
    R6        2.06493  -0.00008   0.00000  -0.00024  -0.00024   2.06469
    A1        2.17780   0.00022   0.00000   0.00097   0.00096   2.17876
    A2        2.05804  -0.00030   0.00000  -0.00110  -0.00112   2.05692
    A3        2.04687   0.00008   0.00000   0.00041   0.00040   2.04727
    A4        1.85641   0.00008   0.00000   0.00059   0.00059   1.85700
    A5        1.88707  -0.00016   0.00000  -0.00110  -0.00110   1.88597
    A6        1.87666   0.00010   0.00000   0.00065   0.00065   1.87731
    A7        1.94092   0.00001   0.00000  -0.00005  -0.00005   1.94087
    A8        1.92586  -0.00003   0.00000   0.00008   0.00008   1.92594
    A9        1.97164   0.00000   0.00000  -0.00013  -0.00013   1.97151
    D1       -1.70969   0.00001   0.00000  -0.00282  -0.00282  -1.71251
    D2        0.37638  -0.00001   0.00000  -0.00313  -0.00313   0.37325
    D3        2.51036  -0.00005   0.00000  -0.00354  -0.00354   2.50681
    D4        1.40034   0.00006   0.00000   0.00646   0.00646   1.40680
    D5       -2.79678   0.00004   0.00000   0.00615   0.00615  -2.79063
    D6       -0.66280   0.00000   0.00000   0.00574   0.00574  -0.65706
         Item               Value     Threshold  Converged?
 Maximum Force            0.000299     0.000450     YES
 RMS     Force            0.000115     0.000300     YES
 Maximum Displacement     0.004898     0.001800     NO 
 RMS     Displacement     0.002023     0.001200     NO 
 Predicted change in Energy=-8.896867D-07
 GradGradGradGradGradGradGradGradGradGradGradGradGradGradGradGradGradGrad

                          Input orientation:                          
 ---------------------------------------------------------------------
 Center     Atomic      Atomic             Coordinates (Angstroms)
 Number     Number       Type             X           Y           Z
 ---------------------------------------------------------------------
      1          7           0       -0.169409   -0.000133   -0.008232
      2          8           0       -0.745842   -1.060621    0.002256
      3          8           0       -0.710765    1.079368    0.000175
      4          6           0        1.318165   -0.017523   -0.001651
      5          1           0        1.624848    0.140061    1.038713
      6          1           0        1.646760   -0.992256   -0.366775
      7          1           0        1.660305    0.809706   -0.628051
 ---------------------------------------------------------------------
                    Distance matrix (angstroms):
                    1          2          3          4          5
     1  N    0.000000
     2  O    1.207070   0.000000
     3  O    1.207667   2.140278   0.000000
     4  C    1.487690   2.312616   2.306454   0.000000
     5  H    2.082093   2.852377   2.723224   1.096013   0.000000
     6  H    2.100317   2.421859   3.159779   1.091511   1.804998
     7  H    2.094724   3.112065   2.467662   1.092586   1.796603
                    6          7
     6  H    0.000000
     7  H    1.820855   0.000000
 Stoichiometry    CH3NO2
 Framework group  C1[X(CH3NO2)]
 Deg. of freedom    15
 Full point group                 C1      NOp   1
 Largest Abelian subgroup         C1      NOp   1
 Largest concise Abelian subgroup C1      NOp   1
                         Standard orientation:                         
 ---------------------------------------------------------------------
 Center     Atomic      Atomic             Coordinates (Angstroms)
 Number     Number       Type             X           Y           Z
 ---------------------------------------------------------------------
      1          7           0       -0.169485   -0.000392   -0.007948
      2          8           0       -0.744518   -1.061644    0.002108
      3          8           0       -0.712246    1.078391    0.001924
      4          6           0        1.318116   -0.015838   -0.002732
      5          1           0        1.625539    0.141211    1.037495
      6          1           0        1.647656   -0.989811   -0.369032
      7          1           0        1.658604    0.812401   -0.628696
 ---------------------------------------------------------------------
 Rotational constants (GHZ):     12.6581179     10.6096771      5.9938588
 Standard basis: def2SVP (5D, 7F)
 There are    75 symmetry adapted cartesian basis functions of A   symmetry.
 There are    71 symmetry adapted basis functions of A   symmetry.
    71 basis functions,   121 primitive gaussians,    75 cartesian basis functions
    16 alpha electrons       16 beta electrons
       nuclear repulsion energy       125.9517077756 Hartrees.
 NAtoms=    7 NActive=    7 NUniq=    7 SFac= 1.00D+00 NAtFMM=   60 NAOKFM=F Big=F
 Integral buffers will be    131072 words long.
 Raffenetti 2 integral format.
 Two-electron integral symmetry is turned on.
 ------------------------------------------------------------------------------
 Polarizable Continuum Model (PCM)
 =================================
 Model                : C-PCM.
 Atomic radii         : UFF (Universal Force Field).
 Polarization charges : Total charges.
 Charge compensation  : None.
 Solution method      : On-the-fly selection.
 Cavity type          : Scaled VdW (van der Waals Surface) (Alpha=1.100).
 Cavity algorithm     : GePol (No added spheres)
                        Default sphere list used, NSphG=    7.
                        Lebedev-Laikov grids with approx.  5.0 points / Ang**2.
                        Smoothing algorithm: Karplus/York (Gamma=1.0000).
                        Polarization charges: spherical gaussians, with
                                              point-specific exponents (IZeta= 3).
                        Self-potential: point-specific (ISelfS= 7).
                        Self-field    : sphere-specific E.n sum rule (ISelfD= 2).
 1st derivatives      : Analytical E(r).r(x)/FMM algorithm (CHGder, D1EAlg=3).
                        Cavity 1st derivative terms included.
 Solvent              : NitroMethane, Eps=  36.562000 Eps(inf)=   1.909095
 ------------------------------------------------------------------------------
 Spheres list:
 ISph  on   Nord     Re0    Alpha      Xe            Ye            Ze
    1   N      1    1.8300  1.100     -0.169485     -0.000392     -0.007948
    2   O      2    1.7500  1.100     -0.744518     -1.061644      0.002108
    3   O      3    1.7500  1.100     -0.712246      1.078391      0.001924
    4   C      4    1.9255  1.100      1.318116     -0.015838     -0.002732
    5   H      5    1.4430  1.100      1.625539      0.141211      1.037495
    6   H      6    1.4430  1.100      1.647656     -0.989811     -0.369032
    7   H      7    1.4430  1.100      1.658604      0.812401     -0.628696
 ------------------------------------------------------------------------------
 One-electron integrals computed using PRISM.
   1 Symmetry operations used in ECPInt.
 ECPInt:  NShTT=     561 NPrTT=    2077 LenC2=     562 LenP2D=    1815.
 LDataN:  DoStor=T MaxTD1= 4 Len=   56
 NBasis=    71 RedAO= T EigKep=  6.54D-03  NBF=    71
 NBsUse=    71 1.00D-06 EigRej= -1.00D+00 NBFU=    71
 Initial guess from the checkpoint file:  "MeNO2_opt_2.chk"
 B after Tr=     0.000000    0.000000    0.000000
         Rot=    1.000000   -0.000115   -0.000148   -0.000816 Ang=  -0.10 deg.
 Keep R1 ints in memory in canonical form, NReq=6923659.
 Requested convergence on RMS density matrix=1.00D-08 within 128 cycles.
 Requested convergence on MAX density matrix=1.00D-06.
 Requested convergence on             energy=1.00D-06.
 No special actions if energy rises.
 Inv3:  Mode=1 IEnd=     1848675.
 Iteration    1 A*A^-1 deviation from unit magnitude is 4.55D-15 for    782.
 Iteration    1 A*A^-1 deviation from orthogonality  is 1.40D-15 for    760    261.
 Iteration    1 A^-1*A deviation from unit magnitude is 4.55D-15 for    782.
 Iteration    1 A^-1*A deviation from orthogonality  is 1.37D-15 for    784     47.
 Error on total polarization charges =  0.00280
 SCF Done:  E(RM062X) =  -244.721856543     A.U. after   10 cycles
            NFock= 10  Conv=0.25D-08     -V/T= 2.0070
   1 Symmetry operations used in ECPInt.
 ECPInt:  NShTT=     561 NPrTT=    2077 LenC2=     562 LenP2D=    1815.
 LDataN:  DoStor=T MaxTD1= 5 Len=  102
 D1PCM: C-PCM CHGder 1st derivatives, ID1Alg=3 FixD1E=F DoIter=F DoCFld=F I1PDM=0.
 Calling FoFJK, ICntrl=      2127 FMM=F ISym2X=0 I1Cent= 0 IOpClX= 0 NMat=1 NMatS=1 NMatT=0.
 ***** Axes restored to original set *****
 -------------------------------------------------------------------
 Center     Atomic                   Forces (Hartrees/Bohr)
 Number     Number              X              Y              Z
 -------------------------------------------------------------------
      1        7          -0.000009918    0.000061484   -0.001465694
      2        8          -0.000039701    0.000070099    0.000519544
      3        8          -0.000040317   -0.000140244    0.000499534
      4        6           0.000063700    0.000012564    0.000450089
      5        1           0.000089933   -0.000006870   -0.000012070
      6        1          -0.000023840   -0.000003785    0.000010154
      7        1          -0.000039858    0.000006751   -0.000001557
 -------------------------------------------------------------------
 Cartesian Forces:  Max     0.001465694 RMS     0.000372685

 GradGradGradGradGradGradGradGradGradGradGradGradGradGradGradGradGradGrad
 Berny optimization.
 Using GEDIIS/GDIIS optimizer.
 FormGI is forming the generalized inverse of G from B-inverse, IUseBI=4.
 Internal  Forces:  Max     0.000357200 RMS     0.000191691
 Search for a local minimum.
 Step number   2 out of a maximum of   31
 All quantities printed in internal units (Hartrees-Bohrs-Radians)
 Mixed Optimization -- En-DIIS/RFO-DIIS
 Swapping is turned off.
 Update second derivatives using D2CorX and points    1    2
 DE=  3.69D-06 DEPred=-8.90D-07 R=-4.14D+00
 Trust test=-4.14D+00 RLast= 1.21D-02 DXMaxT set to 1.50D-01
 ITU= -1  0
     Eigenvalues ---    0.00491   0.06125   0.07331   0.07886   0.12179
     Eigenvalues ---    0.16000   0.16382   0.20914   0.25280   0.33698
     Eigenvalues ---    0.34031   0.34323   0.34592   0.97984   1.01148
 En-DIIS/RFO-DIIS IScMMF=        0 using points:     2    1
 RFO step:  Lambda=-2.69182861D-06.
 DidBck=T Rises=F RFO-DIIS coefs:    0.15858    0.84142
 Iteration  1 RMS(Cart)=  0.00196912 RMS(Int)=  0.00000692
 Iteration  2 RMS(Cart)=  0.00000685 RMS(Int)=  0.00000128
 Iteration  3 RMS(Cart)=  0.00000000 RMS(Int)=  0.00000128
 Variable       Old X    -DE/DX   Delta X   Delta X   Delta X     New X
                                 (Linear)    (Quad)   (Total)
    R1        2.28103  -0.00004   0.00020  -0.00047  -0.00027   2.28076
    R2        2.28216  -0.00010   0.00010  -0.00024  -0.00015   2.28201
    R3        2.81133   0.00009  -0.00008   0.00023   0.00015   2.81147
    R4        2.07116   0.00001   0.00014  -0.00031  -0.00018   2.07099
    R5        2.06266  -0.00001   0.00016  -0.00037  -0.00022   2.06244
    R6        2.06469  -0.00001   0.00020  -0.00048  -0.00027   2.06441
    A1        2.17876  -0.00013  -0.00080   0.00164   0.00083   2.17959
    A2        2.05692   0.00003   0.00094  -0.00235  -0.00141   2.05551
    A3        2.04727   0.00008  -0.00034   0.00067   0.00033   2.04760
    A4        1.85700   0.00015  -0.00050   0.00132   0.00083   1.85783
    A5        1.88597  -0.00005   0.00092  -0.00223  -0.00130   1.88467
    A6        1.87731  -0.00006  -0.00055   0.00121   0.00067   1.87798
    A7        1.94087  -0.00004   0.00004  -0.00012  -0.00008   1.94079
    A8        1.92594  -0.00002  -0.00006   0.00015   0.00008   1.92602
    A9        1.97151   0.00003   0.00011  -0.00025  -0.00014   1.97137
    D1       -1.71251   0.00035   0.00238   0.00458   0.00696  -1.70556
    D2        0.37325   0.00036   0.00264   0.00399   0.00663   0.37988
    D3        2.50681   0.00033   0.00298   0.00311   0.00610   2.51291
    D4        1.40680  -0.00033  -0.00544   0.00277  -0.00267   1.40413
    D5       -2.79063  -0.00032  -0.00518   0.00218  -0.00299  -2.79362
    D6       -0.65706  -0.00036  -0.00483   0.00130  -0.00353  -0.66059
         Item               Value     Threshold  Converged?
 Maximum Force            0.000357     0.000450     YES
 RMS     Force            0.000192     0.000300     YES
 Maximum Displacement     0.005247     0.001800     NO 
 RMS     Displacement     0.001970     0.001200     NO 
 Predicted change in Energy=-4.967728D-06
 GradGradGradGradGradGradGradGradGradGradGradGradGradGradGradGradGradGrad

                          Input orientation:                          
 ---------------------------------------------------------------------
 Center     Atomic      Atomic             Coordinates (Angstroms)
 Number     Number       Type             X           Y           Z
 ---------------------------------------------------------------------
      1          7           0       -0.169613    0.000181   -0.011009
      2          8           0       -0.744522   -1.060903    0.004791
      3          8           0       -0.711340    1.079382    0.000519
      4          6           0        1.318026   -0.017196   -0.001932
      5          1           0        1.623795    0.139191    1.038783
      6          1           0        1.645859   -0.991940   -0.367373
      7          1           0        1.661857    0.809887   -0.627344
 ---------------------------------------------------------------------
                    Distance matrix (angstroms):
                    1          2          3          4          5
     1  N    0.000000
     2  O    1.206926   0.000000
     3  O    1.207590   2.140546   0.000000
     4  C    1.487768   2.311596   2.306689   0.000000
     5  H    2.082715   2.849262   2.723014   1.095920   0.000000
     6  H    2.099343   2.420162   3.159447   1.091397   1.804777
     7  H    2.095179   3.112894   2.469595   1.092440   1.796458
                    6          7
     6  H    0.000000
     7  H    1.820555   0.000000
 Stoichiometry    CH3NO2
 Framework group  C1[X(CH3NO2)]
 Deg. of freedom    15
 Full point group                 C1      NOp   1
 Largest Abelian subgroup         C1      NOp   1
 Largest concise Abelian subgroup C1      NOp   1
                         Standard orientation:                         
 ---------------------------------------------------------------------
 Center     Atomic      Atomic             Coordinates (Angstroms)
 Number     Number       Type             X           Y           Z
 ---------------------------------------------------------------------
      1          7           0       -0.169786   -0.000373   -0.010904
      2          8           0       -0.741694   -1.063104    0.003002
      3          8           0       -0.714555    1.077270    0.002806
      4          6           0        1.317898   -0.013568   -0.002200
      5          1           0        1.623467    0.141697    1.038743
      6          1           0        1.648396   -0.986683   -0.369575
      7          1           0        1.659247    0.815675   -0.626110
 ---------------------------------------------------------------------
 Rotational constants (GHZ):     12.6548779     10.6144626      5.9947476
 Standard basis: def2SVP (5D, 7F)
 There are    75 symmetry adapted cartesian basis functions of A   symmetry.
 There are    71 symmetry adapted basis functions of A   symmetry.
    71 basis functions,   121 primitive gaussians,    75 cartesian basis functions
    16 alpha electrons       16 beta electrons
       nuclear repulsion energy       125.9595287025 Hartrees.
 NAtoms=    7 NActive=    7 NUniq=    7 SFac= 1.00D+00 NAtFMM=   60 NAOKFM=F Big=F
 Integral buffers will be    131072 words long.
 Raffenetti 2 integral format.
 Two-electron integral symmetry is turned on.
 ------------------------------------------------------------------------------
 Polarizable Continuum Model (PCM)
 =================================
 Model                : C-PCM.
 Atomic radii         : UFF (Universal Force Field).
 Polarization charges : Total charges.
 Charge compensation  : None.
 Solution method      : On-the-fly selection.
 Cavity type          : Scaled VdW (van der Waals Surface) (Alpha=1.100).
 Cavity algorithm     : GePol (No added spheres)
                        Default sphere list used, NSphG=    7.
                        Lebedev-Laikov grids with approx.  5.0 points / Ang**2.
                        Smoothing algorithm: Karplus/York (Gamma=1.0000).
                        Polarization charges: spherical gaussians, with
                                              point-specific exponents (IZeta= 3).
                        Self-potential: point-specific (ISelfS= 7).
                        Self-field    : sphere-specific E.n sum rule (ISelfD= 2).
 1st derivatives      : Analytical E(r).r(x)/FMM algorithm (CHGder, D1EAlg=3).
                        Cavity 1st derivative terms included.
 Solvent              : NitroMethane, Eps=  36.562000 Eps(inf)=   1.909095
 ------------------------------------------------------------------------------
 Spheres list:
 ISph  on   Nord     Re0    Alpha      Xe            Ye            Ze
    1   N      1    1.8300  1.100     -0.169786     -0.000373     -0.010904
    2   O      2    1.7500  1.100     -0.741694     -1.063104      0.003002
    3   O      3    1.7500  1.100     -0.714555      1.077270      0.002806
    4   C      4    1.9255  1.100      1.317898     -0.013568     -0.002200
    5   H      5    1.4430  1.100      1.623467      0.141697      1.038743
    6   H      6    1.4430  1.100      1.648396     -0.986683     -0.369575
    7   H      7    1.4430  1.100      1.659247      0.815675     -0.626110
 ------------------------------------------------------------------------------
 One-electron integrals computed using PRISM.
   1 Symmetry operations used in ECPInt.
 ECPInt:  NShTT=     561 NPrTT=    2077 LenC2=     562 LenP2D=    1815.
 LDataN:  DoStor=T MaxTD1= 4 Len=   56
 NBasis=    71 RedAO= T EigKep=  6.54D-03  NBF=    71
 NBsUse=    71 1.00D-06 EigRej= -1.00D+00 NBFU=    71
 Initial guess from the checkpoint file:  "MeNO2_opt_2.chk"
 B after Tr=     0.000000    0.000000    0.000000
         Rot=    1.000000   -0.000129    0.000097   -0.000940 Ang=  -0.11 deg.
 Keep R1 ints in memory in canonical form, NReq=6927113.
 Requested convergence on RMS density matrix=1.00D-08 within 128 cycles.
 Requested convergence on MAX density matrix=1.00D-06.
 Requested convergence on             energy=1.00D-06.
 No special actions if energy rises.
 Inv3:  Mode=1 IEnd=     1858107.
 Iteration    1 A*A^-1 deviation from unit magnitude is 3.44D-15 for    777.
 Iteration    1 A*A^-1 deviation from orthogonality  is 2.40D-15 for    757    137.
 Iteration    1 A^-1*A deviation from unit magnitude is 3.66D-15 for    777.
 Iteration    1 A^-1*A deviation from orthogonality  is 1.54D-15 for    668    597.
 Error on total polarization charges =  0.00280
 SCF Done:  E(RM062X) =  -244.721860340     A.U. after    9 cycles
            NFock=  9  Conv=0.95D-08     -V/T= 2.0070
   1 Symmetry operations used in ECPInt.
 ECPInt:  NShTT=     561 NPrTT=    2077 LenC2=     562 LenP2D=    1815.
 LDataN:  DoStor=T MaxTD1= 5 Len=  102
 D1PCM: C-PCM CHGder 1st derivatives, ID1Alg=3 FixD1E=F DoIter=F DoCFld=F I1PDM=0.
 Calling FoFJK, ICntrl=      2127 FMM=F ISym2X=0 I1Cent= 0 IOpClX= 0 NMat=1 NMatS=1 NMatT=0.
 ***** Axes restored to original set *****
 -------------------------------------------------------------------
 Center     Atomic                   Forces (Hartrees/Bohr)
 Number     Number              X              Y              Z
 -------------------------------------------------------------------
      1        7           0.000488749    0.000117018    0.000229782
      2        8          -0.000412735   -0.000021753   -0.000025899
      3        8          -0.000166842   -0.000144470   -0.000075644
      4        6           0.000020988   -0.000009474   -0.000111692
      5        1          -0.000048782    0.000003259    0.000068754
      6        1           0.000115115   -0.000046855   -0.000024167
      7        1           0.000003506    0.000102275   -0.000061134
 -------------------------------------------------------------------
 Cartesian Forces:  Max     0.000488749 RMS     0.000166427

 GradGradGradGradGradGradGradGradGradGradGradGradGradGradGradGradGradGrad
 Berny optimization.
 Using GEDIIS/GDIIS optimizer.
 FormGI is forming the generalized inverse of G from B-inverse, IUseBI=4.
 Internal  Forces:  Max     0.000431057 RMS     0.000151672
 Search for a local minimum.
 Step number   3 out of a maximum of   31
 All quantities printed in internal units (Hartrees-Bohrs-Radians)
 Mixed Optimization -- En-DIIS/RFO-DIIS
 Swapping is turned off.
 Update second derivatives using D2CorX and points    1    2    3
 DE= -3.80D-06 DEPred=-4.97D-06 R= 7.64D-01
 TightC=F SS=  1.41D+00  RLast= 1.28D-02 DXNew= 2.5227D-01 3.8412D-02
 Trust test= 7.64D-01 RLast= 1.28D-02 DXMaxT set to 1.50D-01
 ITU=  1 -1  0
     Eigenvalues ---    0.00436   0.07238   0.07720   0.08016   0.15113
     Eigenvalues ---    0.16016   0.16804   0.23141   0.31189   0.33696
     Eigenvalues ---    0.34227   0.34584   0.37730   0.97789   1.02400
 En-DIIS/RFO-DIIS IScMMF=        0 using points:     3    2    1
 RFO step:  Lambda=-8.23570509D-07.
 DidBck=T Rises=F RFO-DIIS coefs:    0.46089    0.08961    0.44949
 Iteration  1 RMS(Cart)=  0.00079707 RMS(Int)=  0.00000070
 Iteration  2 RMS(Cart)=  0.00000047 RMS(Int)=  0.00000050
 Variable       Old X    -DE/DX   Delta X   Delta X   Delta X     New X
                                 (Linear)    (Quad)   (Total)
    R1        2.28076   0.00021   0.00025  -0.00006   0.00019   2.28095
    R2        2.28201  -0.00005   0.00013  -0.00011   0.00002   2.28204
    R3        2.81147   0.00009  -0.00012   0.00021   0.00009   2.81156
    R4        2.07099   0.00005   0.00017  -0.00003   0.00014   2.07113
    R5        2.06244   0.00009   0.00020  -0.00001   0.00019   2.06263
    R6        2.06441   0.00011   0.00026  -0.00002   0.00024   2.06465
    A1        2.17959  -0.00043  -0.00088  -0.00025  -0.00113   2.17846
    A2        2.05551   0.00039   0.00126  -0.00007   0.00119   2.05670
    A3        2.04760   0.00005  -0.00036   0.00033  -0.00003   2.04757
    A4        1.85783  -0.00013  -0.00071   0.00007  -0.00064   1.85719
    A5        1.88467   0.00017   0.00120  -0.00023   0.00097   1.88563
    A6        1.87798  -0.00005  -0.00065   0.00024  -0.00041   1.87757
    A7        1.94079  -0.00001   0.00006  -0.00007  -0.00001   1.94079
    A8        1.92602   0.00004  -0.00008   0.00005  -0.00002   1.92600
    A9        1.97137  -0.00002   0.00013  -0.00006   0.00007   1.97144
    D1       -1.70556  -0.00005  -0.00248   0.00234  -0.00015  -1.70570
    D2        0.37988  -0.00004  -0.00217   0.00217   0.00001   0.37989
    D3        2.51291   0.00000  -0.00169   0.00211   0.00042   2.51333
    D4        1.40413   0.00004  -0.00147   0.00227   0.00080   1.40493
    D5       -2.79362   0.00004  -0.00115   0.00211   0.00096  -2.79266
    D6       -0.66059   0.00009  -0.00068   0.00204   0.00137  -0.65922
         Item               Value     Threshold  Converged?
 Maximum Force            0.000431     0.000450     YES
 RMS     Force            0.000152     0.000300     YES
 Maximum Displacement     0.002185     0.001800     NO 
 RMS     Displacement     0.000797     0.001200     YES
 Predicted change in Energy=-7.503744D-07
 GradGradGradGradGradGradGradGradGradGradGradGradGradGradGradGradGradGrad

                          Input orientation:                          
 ---------------------------------------------------------------------
 Center     Atomic      Atomic             Coordinates (Angstroms)
 Number     Number       Type             X           Y           Z
 ---------------------------------------------------------------------
      1          7           0       -0.169462   -0.000035   -0.010695
      2          8           0       -0.745678   -1.060524    0.005102
      3          8           0       -0.711152    1.079204    0.000127
      4          6           0        1.318226   -0.017411   -0.002048
      5          1           0        1.623646    0.139029    1.038839
      6          1           0        1.646992   -0.991894   -0.367642
      7          1           0        1.661491    0.810234   -0.627248
 ---------------------------------------------------------------------
                    Distance matrix (angstroms):
                    1          2          3          4          5
     1  N    0.000000
     2  O    1.207026   0.000000
     3  O    1.207601   2.140012   0.000000
     4  C    1.487815   2.312539   2.306717   0.000000
     5  H    2.082330   2.849778   2.722891   1.095993   0.000000
     6  H    2.100167   2.422502   3.159991   1.091496   1.804916
     7  H    2.095009   3.113529   2.468882   1.092567   1.796606
                    6          7
     6  H    0.000000
     7  H    1.820788   0.000000
 Stoichiometry    CH3NO2
 Framework group  C1[X(CH3NO2)]
 Deg. of freedom    15
 Full point group                 C1      NOp   1
 Largest Abelian subgroup         C1      NOp   1
 Largest concise Abelian subgroup C1      NOp   1
                         Standard orientation:                         
 ---------------------------------------------------------------------
 Center     Atomic      Atomic             Coordinates (Angstroms)
 Number     Number       Type             X           Y           Z
 ---------------------------------------------------------------------
      1          7           0       -0.169483   -0.000374   -0.010623
      2          8           0       -0.743833   -1.061906    0.002898
      3          8           0       -0.713064    1.077885    0.002705
      4          6           0        1.318235   -0.015158   -0.002267
      5          1           0        1.623561    0.139490    1.038915
      6          1           0        1.648648   -0.988241   -0.370097
      7          1           0        1.659939    0.814485   -0.625673
 ---------------------------------------------------------------------
 Rotational constants (GHZ):     12.6607306     10.6078894      5.9939765
 Standard basis: def2SVP (5D, 7F)
 There are    75 symmetry adapted cartesian basis functions of A   symmetry.
 There are    71 symmetry adapted basis functions of A   symmetry.
    71 basis functions,   121 primitive gaussians,    75 cartesian basis functions
    16 alpha electrons       16 beta electrons
       nuclear repulsion energy       125.9531396451 Hartrees.
 NAtoms=    7 NActive=    7 NUniq=    7 SFac= 1.00D+00 NAtFMM=   60 NAOKFM=F Big=F
 Integral buffers will be    131072 words long.
 Raffenetti 2 integral format.
 Two-electron integral symmetry is turned on.
 ------------------------------------------------------------------------------
 Polarizable Continuum Model (PCM)
 =================================
 Model                : C-PCM.
 Atomic radii         : UFF (Universal Force Field).
 Polarization charges : Total charges.
 Charge compensation  : None.
 Solution method      : On-the-fly selection.
 Cavity type          : Scaled VdW (van der Waals Surface) (Alpha=1.100).
 Cavity algorithm     : GePol (No added spheres)
                        Default sphere list used, NSphG=    7.
                        Lebedev-Laikov grids with approx.  5.0 points / Ang**2.
                        Smoothing algorithm: Karplus/York (Gamma=1.0000).
                        Polarization charges: spherical gaussians, with
                                              point-specific exponents (IZeta= 3).
                        Self-potential: point-specific (ISelfS= 7).
                        Self-field    : sphere-specific E.n sum rule (ISelfD= 2).
 1st derivatives      : Analytical E(r).r(x)/FMM algorithm (CHGder, D1EAlg=3).
                        Cavity 1st derivative terms included.
 Solvent              : NitroMethane, Eps=  36.562000 Eps(inf)=   1.909095
 ------------------------------------------------------------------------------
 Spheres list:
 ISph  on   Nord     Re0    Alpha      Xe            Ye            Ze
    1   N      1    1.8300  1.100     -0.169483     -0.000374     -0.010623
    2   O      2    1.7500  1.100     -0.743833     -1.061906      0.002898
    3   O      3    1.7500  1.100     -0.713064      1.077885      0.002705
    4   C      4    1.9255  1.100      1.318235     -0.015158     -0.002267
    5   H      5    1.4430  1.100      1.623561      0.139490      1.038915
    6   H      6    1.4430  1.100      1.648648     -0.988241     -0.370097
    7   H      7    1.4430  1.100      1.659939      0.814485     -0.625673
 ------------------------------------------------------------------------------
 One-electron integrals computed using PRISM.
   1 Symmetry operations used in ECPInt.
 ECPInt:  NShTT=     561 NPrTT=    2077 LenC2=     562 LenP2D=    1815.
 LDataN:  DoStor=T MaxTD1= 4 Len=   56
 NBasis=    71 RedAO= T EigKep=  6.55D-03  NBF=    71
 NBsUse=    71 1.00D-06 EigRej= -1.00D+00 NBFU=    71
 Initial guess from the checkpoint file:  "MeNO2_opt_2.chk"
 B after Tr=     0.000000    0.000000    0.000000
         Rot=    1.000000   -0.000042    0.000016    0.000664 Ang=  -0.08 deg.
 Keep R1 ints in memory in canonical form, NReq=6925399.
 Requested convergence on RMS density matrix=1.00D-08 within 128 cycles.
 Requested convergence on MAX density matrix=1.00D-06.
 Requested convergence on             energy=1.00D-06.
 No special actions if energy rises.
 Inv3:  Mode=1 IEnd=     1853388.
 Iteration    1 A*A^-1 deviation from unit magnitude is 5.55D-15 for    785.
 Iteration    1 A*A^-1 deviation from orthogonality  is 2.47D-15 for    743    135.
 Iteration    1 A^-1*A deviation from unit magnitude is 5.55D-15 for    785.
 Iteration    1 A^-1*A deviation from orthogonality  is 1.24D-15 for    687     91.
 Error on total polarization charges =  0.00280
 SCF Done:  E(RM062X) =  -244.721861047     A.U. after   10 cycles
            NFock= 10  Conv=0.31D-08     -V/T= 2.0070
   1 Symmetry operations used in ECPInt.
 ECPInt:  NShTT=     561 NPrTT=    2077 LenC2=     562 LenP2D=    1815.
 LDataN:  DoStor=T MaxTD1= 5 Len=  102
 D1PCM: C-PCM CHGder 1st derivatives, ID1Alg=3 FixD1E=F DoIter=F DoCFld=F I1PDM=0.
 Calling FoFJK, ICntrl=      2127 FMM=F ISym2X=0 I1Cent= 0 IOpClX= 0 NMat=1 NMatS=1 NMatT=0.
 ***** Axes restored to original set *****
 -------------------------------------------------------------------
 Center     Atomic                   Forces (Hartrees/Bohr)
 Number     Number              X              Y              Z
 -------------------------------------------------------------------
      1        7           0.000042300    0.000048092    0.000008934
      2        8          -0.000038106   -0.000063789    0.000027179
      3        8           0.000001988    0.000001041   -0.000012853
      4        6          -0.000002196    0.000016191   -0.000018756
      5        1          -0.000007890   -0.000010052    0.000015012
      6        1           0.000017656   -0.000010391   -0.000007507
      7        1          -0.000013751    0.000018906   -0.000012010
 -------------------------------------------------------------------
 Cartesian Forces:  Max     0.000063789 RMS     0.000024675

 GradGradGradGradGradGradGradGradGradGradGradGradGradGradGradGradGradGrad
 Berny optimization.
 Using GEDIIS/GDIIS optimizer.
 FormGI is forming the generalized inverse of G from B-inverse, IUseBI=4.
 Internal  Forces:  Max     0.000071668 RMS     0.000020791
 Search for a local minimum.
 Step number   4 out of a maximum of   31
 All quantities printed in internal units (Hartrees-Bohrs-Radians)
 Mixed Optimization -- En-DIIS/RFO-DIIS
 Swapping is turned off.
 Update second derivatives using D2CorX and points    1    2    3    4
 DE= -7.06D-07 DEPred=-7.50D-07 R= 9.41D-01
 Trust test= 9.41D-01 RLast= 2.83D-03 DXMaxT set to 1.50D-01
 ITU=  0  1 -1  0
     Eigenvalues ---    0.00309   0.07290   0.07750   0.07989   0.14954
     Eigenvalues ---    0.16033   0.16683   0.23330   0.31558   0.33998
     Eigenvalues ---    0.34286   0.34591   0.38610   0.98984   1.01104
 En-DIIS/RFO-DIIS IScMMF=        0 using points:     4    3    2    1
 RFO step:  Lambda=-2.35260992D-08.
 DidBck=F Rises=F RFO-DIIS coefs:    0.97854   -0.04339    0.00689    0.05796
 Iteration  1 RMS(Cart)=  0.00139643 RMS(Int)=  0.00000102
 Iteration  2 RMS(Cart)=  0.00000107 RMS(Int)=  0.00000003
 Iteration  3 RMS(Cart)=  0.00000000 RMS(Int)=  0.00000003
 Variable       Old X    -DE/DX   Delta X   Delta X   Delta X     New X
                                 (Linear)    (Quad)   (Total)
    R1        2.28095   0.00007   0.00003   0.00003   0.00005   2.28100
    R2        2.28204   0.00000   0.00002  -0.00005  -0.00003   2.28200
    R3        2.81156  -0.00001  -0.00002   0.00006   0.00004   2.81160
    R4        2.07113   0.00001   0.00002   0.00001   0.00003   2.07116
    R5        2.06263   0.00002   0.00002   0.00003   0.00005   2.06268
    R6        2.06465   0.00001   0.00003   0.00001   0.00003   2.06468
    A1        2.17846   0.00000  -0.00008   0.00004  -0.00004   2.17841
    A2        2.05670   0.00002   0.00013  -0.00011   0.00002   2.05672
    A3        2.04757  -0.00002  -0.00004   0.00006   0.00002   2.04759
    A4        1.85719  -0.00003  -0.00007  -0.00009  -0.00016   1.85703
    A5        1.88563   0.00002   0.00013  -0.00007   0.00005   1.88569
    A6        1.87757  -0.00002  -0.00007   0.00006  -0.00001   1.87755
    A7        1.94079   0.00000   0.00001  -0.00009  -0.00008   1.94071
    A8        1.92600   0.00002  -0.00001   0.00015   0.00014   1.92614
    A9        1.97144   0.00000   0.00001   0.00003   0.00004   1.97149
    D1       -1.70570   0.00001  -0.00028   0.00331   0.00303  -1.70267
    D2        0.37989   0.00001  -0.00025   0.00313   0.00288   0.38277
    D3        2.51333   0.00001  -0.00020   0.00315   0.00295   2.51628
    D4        1.40493   0.00001  -0.00022   0.00317   0.00295   1.40788
    D5       -2.79266   0.00001  -0.00018   0.00298   0.00280  -2.78987
    D6       -0.65922   0.00001  -0.00013   0.00301   0.00287  -0.65635
         Item               Value     Threshold  Converged?
 Maximum Force            0.000072     0.000450     YES
 RMS     Force            0.000021     0.000300     YES
 Maximum Displacement     0.003529     0.001800     NO 
 RMS     Displacement     0.001396     0.001200     NO 
 Predicted change in Energy=-1.027528D-07
 GradGradGradGradGradGradGradGradGradGradGradGradGradGradGradGradGradGrad

                          Input orientation:                          
 ---------------------------------------------------------------------
 Center     Atomic      Atomic             Coordinates (Angstroms)
 Number     Number       Type             X           Y           Z
 ---------------------------------------------------------------------
      1          7           0       -0.169452   -0.000023   -0.010710
      2          8           0       -0.745712   -1.060492    0.006969
      3          8           0       -0.711148    1.079209   -0.001672
      4          6           0        1.318259   -0.017391   -0.002095
      5          1           0        1.623520    0.137737    1.039050
      6          1           0        1.647097   -0.991465   -0.368791
      7          1           0        1.661499    0.811026   -0.626316
 ---------------------------------------------------------------------
                    Distance matrix (angstroms):
                    1          2          3          4          5
     1  N    0.000000
     2  O    1.207055   0.000000
     3  O    1.207584   2.139997   0.000000
     4  C    1.487837   2.312599   2.306734   0.000000
     5  H    2.082241   2.848544   2.723995   1.096008   0.000000
     6  H    2.100245   2.423117   3.159714   1.091523   1.804902
     7  H    2.095030   3.114208   2.468108   1.092584   1.796721
                    6          7
     6  H    0.000000
     7  H    1.820852   0.000000
 Stoichiometry    CH3NO2
 Framework group  C1[X(CH3NO2)]
 Deg. of freedom    15
 Full point group                 C1      NOp   1
 Largest Abelian subgroup         C1      NOp   1
 Largest concise Abelian subgroup C1      NOp   1
                         Standard orientation:                         
 ---------------------------------------------------------------------
 Center     Atomic      Atomic             Coordinates (Angstroms)
 Number     Number       Type             X           Y           Z
 ---------------------------------------------------------------------
      1          7           0       -0.169473   -0.000357   -0.010653
      2          8           0       -0.743875   -1.061893    0.002903
      3          8           0       -0.713054    1.077882    0.002708
      4          6           0        1.318267   -0.015156   -0.002274
      5          1           0        1.623381    0.136393    1.039442
      6          1           0        1.648765   -0.987198   -0.372850
      7          1           0        1.659984    0.816318   -0.623257
 ---------------------------------------------------------------------
 Rotational constants (GHZ):     12.6608322     10.6074862      5.9938897
 Standard basis: def2SVP (5D, 7F)
 There are    75 symmetry adapted cartesian basis functions of A   symmetry.
 There are    71 symmetry adapted basis functions of A   symmetry.
    71 basis functions,   121 primitive gaussians,    75 cartesian basis functions
    16 alpha electrons       16 beta electrons
       nuclear repulsion energy       125.9521627555 Hartrees.
 NAtoms=    7 NActive=    7 NUniq=    7 SFac= 1.00D+00 NAtFMM=   60 NAOKFM=F Big=F
 Integral buffers will be    131072 words long.
 Raffenetti 2 integral format.
 Two-electron integral symmetry is turned on.
 ------------------------------------------------------------------------------
 Polarizable Continuum Model (PCM)
 =================================
 Model                : C-PCM.
 Atomic radii         : UFF (Universal Force Field).
 Polarization charges : Total charges.
 Charge compensation  : None.
 Solution method      : On-the-fly selection.
 Cavity type          : Scaled VdW (van der Waals Surface) (Alpha=1.100).
 Cavity algorithm     : GePol (No added spheres)
                        Default sphere list used, NSphG=    7.
                        Lebedev-Laikov grids with approx.  5.0 points / Ang**2.
                        Smoothing algorithm: Karplus/York (Gamma=1.0000).
                        Polarization charges: spherical gaussians, with
                                              point-specific exponents (IZeta= 3).
                        Self-potential: point-specific (ISelfS= 7).
                        Self-field    : sphere-specific E.n sum rule (ISelfD= 2).
 1st derivatives      : Analytical E(r).r(x)/FMM algorithm (CHGder, D1EAlg=3).
                        Cavity 1st derivative terms included.
 Solvent              : NitroMethane, Eps=  36.562000 Eps(inf)=   1.909095
 ------------------------------------------------------------------------------
 Spheres list:
 ISph  on   Nord     Re0    Alpha      Xe            Ye            Ze
    1   N      1    1.8300  1.100     -0.169473     -0.000357     -0.010653
    2   O      2    1.7500  1.100     -0.743875     -1.061893      0.002903
    3   O      3    1.7500  1.100     -0.713054      1.077882      0.002708
    4   C      4    1.9255  1.100      1.318267     -0.015156     -0.002274
    5   H      5    1.4430  1.100      1.623381      0.136393      1.039442
    6   H      6    1.4430  1.100      1.648765     -0.987198     -0.372850
    7   H      7    1.4430  1.100      1.659984      0.816318     -0.623257
 ------------------------------------------------------------------------------
 One-electron integrals computed using PRISM.
   1 Symmetry operations used in ECPInt.
 ECPInt:  NShTT=     561 NPrTT=    2077 LenC2=     562 LenP2D=    1815.
 LDataN:  DoStor=T MaxTD1= 4 Len=   56
 NBasis=    71 RedAO= T EigKep=  6.56D-03  NBF=    71
 NBsUse=    71 1.00D-06 EigRej= -1.00D+00 NBFU=    71
 Initial guess from the checkpoint file:  "MeNO2_opt_2.chk"
 B after Tr=     0.000000    0.000000    0.000000
         Rot=    1.000000   -0.000220    0.000009    0.000007 Ang=  -0.03 deg.
 Keep R1 ints in memory in canonical form, NReq=6925399.
 Requested convergence on RMS density matrix=1.00D-08 within 128 cycles.
 Requested convergence on MAX density matrix=1.00D-06.
 Requested convergence on             energy=1.00D-06.
 No special actions if energy rises.
 Inv3:  Mode=1 IEnd=     1853388.
 Iteration    1 A*A^-1 deviation from unit magnitude is 3.55D-15 for    781.
 Iteration    1 A*A^-1 deviation from orthogonality  is 1.57D-15 for    716    367.
 Iteration    1 A^-1*A deviation from unit magnitude is 3.55D-15 for    781.
 Iteration    1 A^-1*A deviation from orthogonality  is 2.75D-15 for    552    365.
 Error on total polarization charges =  0.00280
 SCF Done:  E(RM062X) =  -244.721861147     A.U. after    9 cycles
            NFock=  9  Conv=0.69D-08     -V/T= 2.0070
   1 Symmetry operations used in ECPInt.
 ECPInt:  NShTT=     561 NPrTT=    2077 LenC2=     562 LenP2D=    1815.
 LDataN:  DoStor=T MaxTD1= 5 Len=  102
 D1PCM: C-PCM CHGder 1st derivatives, ID1Alg=3 FixD1E=F DoIter=F DoCFld=F I1PDM=0.
 Calling FoFJK, ICntrl=      2127 FMM=F ISym2X=0 I1Cent= 0 IOpClX= 0 NMat=1 NMatS=1 NMatT=0.
 ***** Axes restored to original set *****
 -------------------------------------------------------------------
 Center     Atomic                   Forces (Hartrees/Bohr)
 Number     Number              X              Y              Z
 -------------------------------------------------------------------
      1        7           0.000025025    0.000010918   -0.000007934
      2        8          -0.000000762   -0.000040521    0.000029204
      3        8          -0.000006412    0.000019762   -0.000008326
      4        6          -0.000013744    0.000025954   -0.000019662
      5        1           0.000003218   -0.000014605    0.000005286
      6        1           0.000006429   -0.000001736    0.000000545
      7        1          -0.000013753    0.000000227    0.000000887
 -------------------------------------------------------------------
 Cartesian Forces:  Max     0.000040521 RMS     0.000016242

 GradGradGradGradGradGradGradGradGradGradGradGradGradGradGradGradGradGrad
 Berny optimization.
 Using GEDIIS/GDIIS optimizer.
 FormGI is forming the generalized inverse of G from B-inverse, IUseBI=4.
 Internal  Forces:  Max     0.000033454 RMS     0.000012999
 Search for a local minimum.
 Step number   5 out of a maximum of   31
 All quantities printed in internal units (Hartrees-Bohrs-Radians)
 Mixed Optimization -- En-DIIS/RFO-DIIS
 Swapping is turned off.
 Update second derivatives using D2CorX and points    1    2    3    4    5
 DE= -1.01D-07 DEPred=-1.03D-07 R= 9.80D-01
 Trust test= 9.80D-01 RLast= 7.14D-03 DXMaxT set to 1.50D-01
 ITU=  0  0  1 -1  0
     Eigenvalues ---    0.00024   0.07241   0.07917   0.08102   0.15657
     Eigenvalues ---    0.16239   0.17735   0.25369   0.31326   0.34078
     Eigenvalues ---    0.34547   0.34806   0.47464   0.99086   1.09252
 En-DIIS/RFO-DIIS IScMMF=        0 using points:     5    4    3    2    1
 RFO step:  Lambda=-4.05127279D-08.
 DidBck=F Rises=F RFO-DIIS coefs:    2.67636    0.00000   -0.94871   -0.13151   -0.59614
 Iteration  1 RMS(Cart)=  0.01758230 RMS(Int)=  0.00016275
 Iteration  2 RMS(Cart)=  0.00016918 RMS(Int)=  0.00000085
 Iteration  3 RMS(Cart)=  0.00000001 RMS(Int)=  0.00000085
 Variable       Old X    -DE/DX   Delta X   Delta X   Delta X     New X
                                 (Linear)    (Quad)   (Total)
    R1        2.28100   0.00003   0.00007   0.00030   0.00037   2.28137
    R2        2.28200   0.00002  -0.00020  -0.00019  -0.00038   2.28162
    R3        2.81160  -0.00002   0.00038   0.00011   0.00049   2.81209
    R4        2.07116   0.00001   0.00006   0.00014   0.00020   2.07135
    R5        2.06268   0.00000   0.00013   0.00023   0.00036   2.06304
    R6        2.06468  -0.00001   0.00011  -0.00012  -0.00001   2.06467
    A1        2.17841   0.00002  -0.00080   0.00050  -0.00030   2.17811
    A2        2.05672  -0.00001   0.00035  -0.00094  -0.00060   2.05612
    A3        2.04759   0.00000   0.00045   0.00041   0.00086   2.04845
    A4        1.85703   0.00000  -0.00038  -0.00066  -0.00104   1.85599
    A5        1.88569   0.00000   0.00011  -0.00046  -0.00036   1.88533
    A6        1.87755  -0.00001   0.00016   0.00042   0.00058   1.87813
    A7        1.94071  -0.00001  -0.00023  -0.00117  -0.00140   1.93931
    A8        1.92614   0.00001   0.00030   0.00140   0.00170   1.92784
    A9        1.97149   0.00000   0.00002   0.00041   0.00043   1.97192
    D1       -1.70267   0.00002   0.00821   0.03053   0.03874  -1.66394
    D2        0.38277   0.00001   0.00779   0.02856   0.03635   0.41912
    D3        2.51628   0.00001   0.00798   0.02902   0.03700   2.55328
    D4        1.40788   0.00001   0.00820   0.02919   0.03739   1.44527
    D5       -2.78987   0.00000   0.00778   0.02722   0.03500  -2.75486
    D6       -0.65635   0.00001   0.00796   0.02769   0.03565  -0.62070
         Item               Value     Threshold  Converged?
 Maximum Force            0.000033     0.000450     YES
 RMS     Force            0.000013     0.000300     YES
 Maximum Displacement     0.044287     0.001800     NO 
 RMS     Displacement     0.017583     0.001200     NO 
 Predicted change in Energy=-1.150015D-06
 GradGradGradGradGradGradGradGradGradGradGradGradGradGradGradGradGradGrad

                          Input orientation:                          
 ---------------------------------------------------------------------
 Center     Atomic      Atomic             Coordinates (Angstroms)
 Number     Number       Type             X           Y           Z
 ---------------------------------------------------------------------
      1          7           0       -0.169443    0.000391   -0.011070
      2          8           0       -0.745174   -1.059925    0.030405
      3          8           0       -0.711963    1.078939   -0.024411
      4          6           0        1.318529   -0.016821   -0.002561
      5          1           0        1.622570    0.121247    1.041451
      6          1           0        1.647271   -0.985842   -0.383042
      7          1           0        1.662272    0.820614   -0.614336
 ---------------------------------------------------------------------
                    Distance matrix (angstroms):
                    1          2          3          4          5
     1  N    0.000000
     2  O    1.207252   0.000000
     3  O    1.207382   2.139824   0.000000
     4  C    1.488096   2.312579   2.307394   0.000000
     5  H    2.081758   2.832594   2.739212   1.096113   0.000000
     6  H    2.100350   2.429036   3.155618   1.091714   1.804283
     7  H    2.095680   3.122165   2.460028   1.092577   1.797866
                    6          7
     6  H    0.000000
     7  H    1.821265   0.000000
 Stoichiometry    CH3NO2
 Framework group  C1[X(CH3NO2)]
 Deg. of freedom    15
 Full point group                 C1      NOp   1
 Largest Abelian subgroup         C1      NOp   1
 Largest concise Abelian subgroup C1      NOp   1
                         Standard orientation:                         
 ---------------------------------------------------------------------
 Center     Atomic      Atomic             Coordinates (Angstroms)
 Number     Number       Type             X           Y           Z
 ---------------------------------------------------------------------
      1          7           0       -0.169441   -0.000176   -0.011119
      2          8           0       -0.741807   -1.063027    0.003004
      3          8           0       -0.715389    1.076634    0.002811
      4          6           0        1.318575   -0.012876   -0.002340
      5          1           0        1.621759    0.099465    1.045002
      6          1           0        1.650554   -0.970822   -0.407271
      7          1           0        1.659892    0.840988   -0.592378
 ---------------------------------------------------------------------
 Rotational constants (GHZ):     12.6620920     10.6041194      5.9932487
 Standard basis: def2SVP (5D, 7F)
 There are    75 symmetry adapted cartesian basis functions of A   symmetry.
 There are    71 symmetry adapted basis functions of A   symmetry.
    71 basis functions,   121 primitive gaussians,    75 cartesian basis functions
    16 alpha electrons       16 beta electrons
       nuclear repulsion energy       125.9461139485 Hartrees.
 NAtoms=    7 NActive=    7 NUniq=    7 SFac= 1.00D+00 NAtFMM=   60 NAOKFM=F Big=F
 Integral buffers will be    131072 words long.
 Raffenetti 2 integral format.
 Two-electron integral symmetry is turned on.
 ------------------------------------------------------------------------------
 Polarizable Continuum Model (PCM)
 =================================
 Model                : C-PCM.
 Atomic radii         : UFF (Universal Force Field).
 Polarization charges : Total charges.
 Charge compensation  : None.
 Solution method      : On-the-fly selection.
 Cavity type          : Scaled VdW (van der Waals Surface) (Alpha=1.100).
 Cavity algorithm     : GePol (No added spheres)
                        Default sphere list used, NSphG=    7.
                        Lebedev-Laikov grids with approx.  5.0 points / Ang**2.
                        Smoothing algorithm: Karplus/York (Gamma=1.0000).
                        Polarization charges: spherical gaussians, with
                                              point-specific exponents (IZeta= 3).
                        Self-potential: point-specific (ISelfS= 7).
                        Self-field    : sphere-specific E.n sum rule (ISelfD= 2).
 1st derivatives      : Analytical E(r).r(x)/FMM algorithm (CHGder, D1EAlg=3).
                        Cavity 1st derivative terms included.
 Solvent              : NitroMethane, Eps=  36.562000 Eps(inf)=   1.909095
 ------------------------------------------------------------------------------
 Spheres list:
 ISph  on   Nord     Re0    Alpha      Xe            Ye            Ze
    1   N      1    1.8300  1.100     -0.169441     -0.000176     -0.011119
    2   O      2    1.7500  1.100     -0.741807     -1.063027      0.003004
    3   O      3    1.7500  1.100     -0.715389      1.076634      0.002811
    4   C      4    1.9255  1.100      1.318575     -0.012876     -0.002340
    5   H      5    1.4430  1.100      1.621759      0.099465      1.045002
    6   H      6    1.4430  1.100      1.650554     -0.970822     -0.407271
    7   H      7    1.4430  1.100      1.659892      0.840988     -0.592378
 ------------------------------------------------------------------------------
 One-electron integrals computed using PRISM.
   1 Symmetry operations used in ECPInt.
 ECPInt:  NShTT=     561 NPrTT=    2077 LenC2=     562 LenP2D=    1814.
 LDataN:  DoStor=T MaxTD1= 4 Len=   56
 NBasis=    71 RedAO= T EigKep=  6.61D-03  NBF=    71
 NBsUse=    71 1.00D-06 EigRej= -1.00D+00 NBFU=    71
 Initial guess from the checkpoint file:  "MeNO2_opt_2.chk"
 B after Tr=     0.000000    0.000000    0.000000
         Rot=    0.999996   -0.002779    0.000081   -0.000842 Ang=  -0.33 deg.
 ExpMin= 1.22D-01 ExpMax= 2.27D+03 ExpMxC= 3.41D+02 IAcc=2 IRadAn=         4 AccDes= 0.00D+00
 Harris functional with IExCor= 1009 and IRadAn=       4 diagonalized for initial guess.
 HarFok:  IExCor= 1009 AccDes= 0.00D+00 IRadAn=         4 IDoV= 1 UseB2=F ITyADJ=14
 ICtDFT=  3500011 ScaDFX=  1.000000  1.000000  1.000000  1.000000
 FoFCou: FMM=F IPFlag=           0 FMFlag=      100000 FMFlg1=           0
         NFxFlg=           0 DoJE=T BraDBF=F KetDBF=T FulRan=T
         wScrn=  0.000000 ICntrl=     500 IOpCl=  0 I1Cent=   200000004 NGrid=           0
         NMat0=    1 NMatS0=      1 NMatT0=    0 NMatD0=    1 NMtDS0=    0 NMtDT0=    0
 Petite list used in FoFCou.
 Keep R1 ints in memory in canonical form, NReq=6928885.
 Requested convergence on RMS density matrix=1.00D-08 within 128 cycles.
 Requested convergence on MAX density matrix=1.00D-06.
 Requested convergence on             energy=1.00D-06.
 No special actions if energy rises.
 Inv3:  Mode=1 IEnd=     1862832.
 Iteration    1 A*A^-1 deviation from unit magnitude is 3.11D-15 for    756.
 Iteration    1 A*A^-1 deviation from orthogonality  is 1.27D-15 for    716    556.
 Iteration    1 A^-1*A deviation from unit magnitude is 3.33D-15 for    756.
 Iteration    1 A^-1*A deviation from orthogonality  is 3.06D-15 for    553    366.
 Error on total polarization charges =  0.00281
 SCF Done:  E(RM062X) =  -244.721861498     A.U. after   11 cycles
            NFock= 11  Conv=0.51D-08     -V/T= 2.0070
   1 Symmetry operations used in ECPInt.
 ECPInt:  NShTT=     561 NPrTT=    2077 LenC2=     562 LenP2D=    1814.
 LDataN:  DoStor=T MaxTD1= 5 Len=  102
 D1PCM: C-PCM CHGder 1st derivatives, ID1Alg=3 FixD1E=F DoIter=F DoCFld=F I1PDM=0.
 Calling FoFJK, ICntrl=      2127 FMM=F ISym2X=0 I1Cent= 0 IOpClX= 0 NMat=1 NMatS=1 NMatT=0.
 ***** Axes restored to original set *****
 -------------------------------------------------------------------
 Center     Atomic                   Forces (Hartrees/Bohr)
 Number     Number              X              Y              Z
 -------------------------------------------------------------------
      1        7           0.000007972   -0.000274767   -0.000056882
      2        8           0.000208961    0.000064691    0.000020701
      3        8          -0.000067285    0.000220401    0.000000976
      4        6          -0.000155117    0.000096583   -0.000036978
      5        1           0.000070090   -0.000043768   -0.000046449
      6        1          -0.000046562    0.000038086    0.000054780
      7        1          -0.000018058   -0.000101227    0.000063851
 -------------------------------------------------------------------
 Cartesian Forces:  Max     0.000274767 RMS     0.000108054

 GradGradGradGradGradGradGradGradGradGradGradGradGradGradGradGradGradGrad
 Berny optimization.
 Using GEDIIS/GDIIS optimizer.
 FormGI is forming the generalized inverse of G from B-inverse, IUseBI=4.
 Internal  Forces:  Max     0.000229926 RMS     0.000100165
 Search for a local minimum.
 Step number   6 out of a maximum of   31
 All quantities printed in internal units (Hartrees-Bohrs-Radians)
 Mixed Optimization -- En-DIIS/RFO-DIIS
 Swapping is turned off.
 Update second derivatives using D2CorX and points    1    2    3    4    5
                                                      6
 DE= -3.51D-07 DEPred=-1.15D-06 R= 3.05D-01
 Trust test= 3.05D-01 RLast= 9.00D-02 DXMaxT set to 1.50D-01
 ITU=  0  0  0  1 -1  0
     Eigenvalues ---    0.00014   0.07322   0.07816   0.08063   0.15431
     Eigenvalues ---    0.16254   0.17139   0.24067   0.32189   0.34080
     Eigenvalues ---    0.34561   0.34892   0.40303   1.00236   1.09945
 En-DIIS/RFO-DIIS IScMMF=        0 using points:     6    5    4    3    2
 RFO step:  Lambda=-3.20443308D-07.
 DidBck=F Rises=F RFO-DIIS coefs:    1.78288   -1.68453    0.00000    0.82438    0.07726
 Iteration  1 RMS(Cart)=  0.01705878 RMS(Int)=  0.00015396
 Iteration  2 RMS(Cart)=  0.00015952 RMS(Int)=  0.00000101
 Iteration  3 RMS(Cart)=  0.00000001 RMS(Int)=  0.00000101
 Variable       Old X    -DE/DX   Delta X   Delta X   Delta X     New X
                                 (Linear)    (Quad)   (Total)
    R1        2.28137  -0.00016   0.00009  -0.00010   0.00000   2.28137
    R2        2.28162   0.00023  -0.00028   0.00017  -0.00011   2.28151
    R3        2.81209  -0.00015   0.00025  -0.00028  -0.00002   2.81207
    R4        2.07135  -0.00003   0.00002  -0.00001   0.00001   2.07136
    R5        2.06304  -0.00007   0.00008  -0.00008   0.00001   2.06305
    R6        2.06467  -0.00012  -0.00023  -0.00034  -0.00057   2.06410
    A1        2.17811   0.00015   0.00076  -0.00044   0.00032   2.17844
    A2        2.05612  -0.00019  -0.00146  -0.00033  -0.00179   2.05434
    A3        2.04845   0.00004   0.00066   0.00076   0.00142   2.04987
    A4        1.85599   0.00012  -0.00016   0.00053   0.00036   1.85636
    A5        1.88533  -0.00008  -0.00110  -0.00045  -0.00155   1.88378
    A6        1.87813   0.00005   0.00079   0.00065   0.00143   1.87957
    A7        1.93931  -0.00006  -0.00101  -0.00116  -0.00217   1.93714
    A8        1.92784  -0.00003   0.00122   0.00042   0.00164   1.92948
    A9        1.97192   0.00001   0.00024   0.00009   0.00032   1.97224
    D1       -1.66394   0.00004   0.02719   0.01096   0.03815  -1.62578
    D2        0.41912   0.00000   0.02534   0.00965   0.03500   0.45412
    D3        2.55328  -0.00001   0.02545   0.00988   0.03533   2.58861
    D4        1.44527   0.00003   0.02610   0.01071   0.03680   1.48208
    D5       -2.75486  -0.00002   0.02425   0.00940   0.03365  -2.72121
    D6       -0.62070  -0.00002   0.02436   0.00962   0.03398  -0.58671
         Item               Value     Threshold  Converged?
 Maximum Force            0.000230     0.000450     YES
 RMS     Force            0.000100     0.000300     YES
 Maximum Displacement     0.042457     0.001800     NO 
 RMS     Displacement     0.017059     0.001200     NO 
 Predicted change in Energy=-7.614368D-07
 GradGradGradGradGradGradGradGradGradGradGradGradGradGradGradGradGradGrad

                          Input orientation:                          
 ---------------------------------------------------------------------
 Center     Atomic      Atomic             Coordinates (Angstroms)
 Number     Number       Type             X           Y           Z
 ---------------------------------------------------------------------
      1          7           0       -0.169508    0.001089   -0.011553
[...]
 and normal coordinates:
                      1                      2                      3
                      A                      A                      A
 Frequencies --     26.1860               503.8327               635.2340
 Red. masses --      1.0969                 3.2527                 3.1303
 Frc consts  --      0.0004                 0.4865                 0.7442
 IR Inten    --      0.1557                 0.9576                11.7971
  Atom  AN      X      Y      Z        X      Y      Z        X      Y      Z
     1   7     0.00   0.01   0.00     0.00   0.15   0.00     0.01   0.00   0.34
     2   8     0.01   0.00   0.05     0.22   0.05  -0.01    -0.05   0.03  -0.13
     3   8    -0.01   0.00  -0.05    -0.22   0.05   0.01    -0.05  -0.03  -0.13
     4   6     0.00  -0.01   0.00     0.00  -0.21   0.00     0.09   0.00   0.00
     5   1     0.00  -0.62   0.00     0.00  -0.29   0.00     0.75   0.00  -0.19
     6   1    -0.02   0.25  -0.49    -0.44  -0.42   0.09    -0.22   0.03  -0.26
     7   1     0.02   0.25   0.49     0.44  -0.42  -0.09    -0.22  -0.02  -0.26
                      4                      5                      6
                      A                      A                      A
 Frequencies --    703.0990               988.6229              1111.2078
 Red. masses --      6.0349                 8.8516                 1.4057
 Frc consts  --      1.7577                 5.0972                 1.0227
 IR Inten    --     44.6431                16.8162                13.6540
  Atom  AN      X      Y      Z        X      Y      Z        X      Y      Z
     1   7    -0.07   0.00   0.14     0.39   0.00   0.02     0.00   0.01   0.00
     2   8     0.23  -0.17  -0.05     0.00   0.38  -0.01     0.04   0.04   0.00
     3   8     0.23   0.17  -0.05     0.00  -0.38  -0.01    -0.04   0.04   0.00
     4   6    -0.44   0.00  -0.01    -0.37   0.00  -0.02     0.00  -0.16   0.00
     5   1    -0.20   0.00  -0.08    -0.38   0.00  -0.02     0.00   0.28   0.00
     6   1    -0.53   0.01  -0.07    -0.37  -0.01   0.03     0.64   0.13  -0.11
     7   1    -0.53  -0.01  -0.07    -0.37   0.01   0.03    -0.64   0.13   0.11
                      7                      8                      9
                      A                      A                      A
 Frequencies --   1138.4117              1391.2907              1426.4258
 Red. masses --      1.6275                 1.1943                 1.0464
 Frc consts  --      1.2427                 1.3620                 1.2545
 IR Inten    --      6.3154                11.1379                57.8052
  Atom  AN      X      Y      Z        X      Y      Z        X      Y      Z
     1   7     0.00   0.00   0.16     0.00   0.00   0.01     0.00   0.01   0.00
     2   8     0.00   0.00  -0.03     0.00   0.00   0.00    -0.01  -0.01   0.00
     3   8     0.00   0.00  -0.03     0.00   0.00   0.00     0.01  -0.01   0.00
     4   6     0.01   0.00  -0.16     0.13   0.00   0.01     0.00  -0.05   0.00
     5   1    -0.69   0.00   0.05    -0.59   0.00   0.21     0.00   0.71   0.00
     6   1     0.35  -0.13   0.31    -0.49  -0.12  -0.19    -0.30   0.07  -0.39
     7   1     0.35   0.13   0.31    -0.49   0.12  -0.19     0.30   0.07   0.39
                     10                     11                     12
                      A                      A                      A
 Frequencies --   1445.4960              1557.1701              1763.5124
 Red. masses --      1.0515                13.3675                11.4246
 Frc consts  --      1.2945                19.0974                20.9338
 IR Inten    --     23.5677               143.1984               601.1211
  Atom  AN      X      Y      Z        X      Y      Z        X      Y      Z
     1   7    -0.01   0.00   0.03     0.70   0.00   0.00     0.00   0.74   0.00
     2   8     0.01   0.01   0.00    -0.26  -0.36   0.01    -0.14  -0.30   0.00
     3   8     0.01  -0.01   0.00    -0.26   0.36   0.01     0.14  -0.30   0.00
     4   6    -0.02   0.00   0.05    -0.10   0.00   0.01     0.00  -0.05   0.00
     5   1    -0.31   0.00   0.12    -0.22   0.00   0.05     0.00  -0.11   0.00
     6   1     0.28   0.39  -0.47    -0.06   0.10  -0.12     0.32   0.03   0.09
     7   1     0.28  -0.39  -0.46    -0.06  -0.10  -0.12    -0.32   0.03  -0.09
                     13                     14                     15
                      A                      A                      A
 Frequencies --   3112.6127              3233.2991              3269.9421
 Red. masses --      1.0317                 1.1063                 1.1138
 Frc consts  --      5.8890                 6.8140                 7.0169
 IR Inten    --      0.7655                 3.1251                 1.7121
  Atom  AN      X      Y      Z        X      Y      Z        X      Y      Z
     1   7     0.00   0.00   0.00     0.00   0.00   0.00     0.00   0.00   0.00
     2   8     0.00   0.00   0.00     0.00   0.00   0.00     0.00   0.00   0.00
     3   8     0.00   0.00   0.00     0.00   0.00   0.00     0.00   0.00   0.00
     4   6    -0.04   0.00  -0.02    -0.01   0.00   0.09     0.00   0.10   0.00
     5   1     0.19   0.00   0.67    -0.19   0.00  -0.67     0.00   0.01   0.00
     6   1     0.15  -0.42  -0.23     0.15  -0.42  -0.22     0.21  -0.59  -0.32
     7   1     0.15   0.42  -0.24     0.15   0.42  -0.22    -0.21  -0.59   0.32

 -------------------
 - Thermochemistry -
 -------------------
 Temperature   298.150 Kelvin.  Pressure   1.00000 Atm.
 Atom     1 has atomic number  7 and mass  14.00307
 Atom     2 has atomic number  8 and mass  15.99491
 Atom     3 has atomic number  8 and mass  15.99491
 Atom     4 has atomic number  6 and mass  12.00000
 Atom     5 has atomic number  1 and mass   1.00783
 Atom     6 has atomic number  1 and mass   1.00783
 Atom     7 has atomic number  1 and mass   1.00783
 Molecular mass:    61.01638 amu.
 Principal axes and moments of inertia in atomic units:
                           1         2         3
     Eigenvalues --   142.56316 170.11673 301.08677
           X            1.00000  -0.00004   0.00102
           Y            0.00004   1.00000   0.00000
           Z           -0.00102   0.00000   1.00000
 This molecule is an asymmetric top.
 Rotational symmetry number  1.
 Rotational temperatures (Kelvin)      0.60755     0.50914     0.28767
 Rotational constants (GHZ):          12.65924    10.60884     5.99409
 Zero-point vibrational energy     133421.6 (Joules/Mol)
                                   31.88852 (Kcal/Mol)
 Warning -- explicit consideration of   2 degrees of freedom as
           vibrations may cause significant error
 Vibrational temperatures:     37.68   724.90   913.96  1011.60  1422.41
          (Kelvin)           1598.78  1637.92  2001.75  2052.31  2079.74
                             2240.42  2537.30  4478.35  4651.99  4704.71
 
 Zero-point correction=                           0.050818 (Hartree/Particle)
 Thermal correction to Energy=                    0.055120
 Thermal correction to Enthalpy=                  0.056064
 Thermal correction to Gibbs Free Energy=         0.023058
 Sum of electronic and zero-point Energies=           -244.671044
 Sum of electronic and thermal Energies=              -244.666741
 Sum of electronic and thermal Enthalpies=            -244.665797
 Sum of electronic and thermal Free Energies=         -244.698803
 
                     E (Thermal)             CV                S
                      KCal/Mol        Cal/Mol-Kelvin    Cal/Mol-Kelvin
 Total                   34.588             12.265             69.467
 Electronic               0.000              0.000              0.000
 Translational            0.889              2.981             38.245
 Rotational               0.889              2.981             23.505
 Vibrational             32.811              6.303              7.716
 Vibration     1          0.593              1.985              6.099
 Vibration     2          0.859              1.242              0.649
                       Q            Log10(Q)             Ln(Q)
 Total Bot       0.247791D-10        -10.605914        -24.421020
 Total V=0       0.586819D+13         12.768504         29.400567
 Vib (Bot)       0.432406D-22        -22.364109        -51.495263
 Vib (Bot)    1  0.790832D+01          0.898084          2.067916
 Vib (Bot)    2  0.325094D+00         -0.487990         -1.123640
 Vib (V=0)       0.102402D+02          1.010310          2.326324
 Vib (V=0)    1  0.842411D+01          0.925524          2.131098
 Vib (V=0)    2  0.109639D+01          0.039967          0.092027
 Electronic      0.100000D+01          0.000000          0.000000
 Translational   0.187338D+08          7.272625         16.745838
 Rotational      0.305893D+05          4.485569         10.328405
 ***** Axes restored to original set *****
 -------------------------------------------------------------------
 Center     Atomic                   Forces (Hartrees/Bohr)
 Number     Number              X              Y              Z
 -------------------------------------------------------------------
      1        7          -0.000000277   -0.000000044   -0.000002442
      2        8           0.000000481    0.000001014    0.000010707
      3        8          -0.000000327    0.000001193    0.000010546
      4        6           0.000000014   -0.000001298   -0.000004424
      5        1           0.000006656   -0.000000379   -0.000005130
      6        1          -0.000003040   -0.000000201   -0.000004629
      7        1          -0.000003507   -0.000000285   -0.000004627
 -------------------------------------------------------------------
 Cartesian Forces:  Max     0.000010707 RMS     0.000004316
 FormGI is forming the generalized inverse of G from B-inverse, IUseBI=4.

 GradGradGradGradGradGradGradGradGradGradGradGradGradGradGradGradGradGrad
 Berny optimization.
 Internal  Forces:  Max     0.000002266 RMS     0.000001054
 Search for a local minimum.
 Step number   1 out of a maximum of    2
 All quantities printed in internal units (Hartrees-Bohrs-Radians)
 Second derivative matrix not updated -- analytic derivatives used.
 ITU=  0
     Eigenvalues ---   -0.00006   0.05499   0.05664   0.07529   0.13161
     Eigenvalues ---    0.15730   0.16378   0.25689   0.27394   0.35664
     Eigenvalues ---    0.36614   0.36909   0.39848   0.69369   0.93414
 Eigenvalue     1 is  -5.89D-05 should be greater than     0.000000 Eigenvector:
                          D1        D4        D3        D2        D6
   1                   -0.42802  -0.42794  -0.39759  -0.39755  -0.39751
                          D5        A7        A8        A2        A3
   1                   -0.39748   0.02076  -0.02074   0.01357  -0.01357
 Angle between quadratic step and forces=  85.95 degrees.
 Linear search not attempted -- first point.
 Iteration  1 RMS(Cart)=  0.00019357 RMS(Int)=  0.00000002
 Iteration  2 RMS(Cart)=  0.00000002 RMS(Int)=  0.00000000
 Variable       Old X    -DE/DX   Delta X   Delta X   Delta X     New X
                                 (Linear)    (Quad)   (Total)
    R1        2.28154   0.00000   0.00000   0.00000   0.00000   2.28155
    R2        2.28155   0.00000   0.00000   0.00000   0.00000   2.28155
    R3        2.81149   0.00000   0.00000   0.00000   0.00000   2.81149
    R4        2.07138   0.00000   0.00000   0.00000   0.00000   2.07138
    R5        2.06353   0.00000   0.00000   0.00000   0.00000   2.06353
    R6        2.06354   0.00000   0.00000   0.00000   0.00000   2.06353
    A1        2.17844   0.00000   0.00000   0.00000   0.00000   2.17844
    A2        2.05212   0.00000   0.00000  -0.00002  -0.00002   2.05210
    A3        2.05207   0.00000   0.00000   0.00001   0.00001   2.05209
    A4        1.85663   0.00000   0.00000   0.00000   0.00000   1.85663
    A5        1.88186   0.00000   0.00000  -0.00001  -0.00001   1.88185
    A6        1.88183   0.00000   0.00000   0.00001   0.00001   1.88184
    A7        1.93297   0.00000   0.00000  -0.00003  -0.00003   1.93294
    A8        1.93290   0.00000   0.00000   0.00001   0.00001   1.93292
    A9        1.97243   0.00000   0.00000   0.00001   0.00001   1.97244
    D1       -1.55452   0.00000   0.00000   0.00044   0.00044  -1.55408
    D2        0.51966   0.00000   0.00000   0.00041   0.00041   0.52007
    D3        2.65458   0.00000   0.00000   0.00043   0.00043   2.65501
    D4        1.55314   0.00000   0.00000   0.00040   0.00040   1.55354
    D5       -2.65587   0.00000   0.00000   0.00036   0.00036  -2.65550
    D6       -0.52095   0.00000   0.00000   0.00038   0.00038  -0.52057
         Item               Value     Threshold  Converged?
 Maximum Force            0.000002     0.000450     YES
 RMS     Force            0.000001     0.000300     YES
 Maximum Displacement     0.000494     0.001800     YES
 RMS     Displacement     0.000194     0.001200     YES
 Predicted change in Energy=-2.262808D-10
 Optimization completed.
    -- Stationary point found.
                           ----------------------------
                           !   Optimized Parameters   !
                           ! (Angstroms and Degrees)  !
 --------------------------                            --------------------------
 ! Name  Definition              Value          Derivative Info.                !
 --------------------------------------------------------------------------------
 ! R1    R(1,2)                  1.2073         -DE/DX =    0.0                 !
 ! R2    R(1,3)                  1.2073         -DE/DX =    0.0                 !
 ! R3    R(1,4)                  1.4878         -DE/DX =    0.0                 !
 ! R4    R(4,5)                  1.0961         -DE/DX =    0.0                 !
 ! R5    R(4,6)                  1.092          -DE/DX =    0.0                 !
 ! R6    R(4,7)                  1.092          -DE/DX =    0.0                 !
 ! A1    A(2,1,3)              124.8156         -DE/DX =    0.0                 !
 ! A2    A(2,1,4)              117.5778         -DE/DX =    0.0                 !
 ! A3    A(3,1,4)              117.575          -DE/DX =    0.0                 !
 ! A4    A(1,4,5)              106.3773         -DE/DX =    0.0                 !
 ! A5    A(1,4,6)              107.8227         -DE/DX =    0.0                 !
 ! A6    A(1,4,7)              107.8208         -DE/DX =    0.0                 !
 ! A7    A(5,4,6)              110.751          -DE/DX =    0.0                 !
 ! A8    A(5,4,7)              110.7472         -DE/DX =    0.0                 !
 ! A9    A(6,4,7)              113.0118         -DE/DX =    0.0                 !
 ! D1    D(2,1,4,5)            -89.0674         -DE/DX =    0.0                 !
 ! D2    D(2,1,4,6)             29.7744         -DE/DX =    0.0                 !
 ! D3    D(2,1,4,7)            152.0962         -DE/DX =    0.0                 !
 ! D4    D(3,1,4,5)             88.9883         -DE/DX =    0.0                 !
 ! D5    D(3,1,4,6)           -152.1699         -DE/DX =    0.0                 !
 ! D6    D(3,1,4,7)            -29.8481         -DE/DX =    0.0                 !
 --------------------------------------------------------------------------------
 GradGradGradGradGradGradGradGradGradGradGradGradGradGradGradGradGradGrad

 1\1\GINC-DC1S3B1C\Freq\RM062X\def2SVP\C1H3N1O2\CHMBNN\23-Oct-2020\0\\#
 N Geom=AllCheck Guess=TCheck SCRF=Check GenChk RM062X/def2SVP Freq\\Me
 NO2 opt 2\\0,1\N,-0.1694051654,0.0021258805,-0.0117256859\O,-0.7406190
 522,-1.056147531,0.0952526448\O,-0.7161124689,1.0758177797,-0.08902205
 51\C,1.3182583231,-0.0141925831,-0.0030823\H,1.622214094,0.0737595169,
 1.0463766667\H,1.6444703784,-0.9685313242,-0.4216809174\H,1.6652558911
 ,0.8457702612,-0.5796833531\\Version=ES64L-G09RevD.01\State=1-A\HF=-24
 4.7218615\RMSD=3.459e-09\RMSF=4.316e-06\ZeroPoint=0.0508176\Thermal=0.
 05512\Dipole=1.6871298,-0.0173715,0.0228234\DipoleDeriv=1.3686017,0.01
 25597,0.0118279,0.0139453,2.3567859,-0.1765179,0.02772,-0.1766924,0.33
 15573,-0.7968391,-0.5234186,0.0488198,-0.0907027,-1.3394551,0.0826248,
 0.0100274,0.1029095,-0.3373922,-0.7830573,0.5111313,-0.0405003,0.07817
 91,-1.3550837,0.0933348,-0.0049329,0.0730758,-0.3356977,0.0320514,-0.0
 021674,-0.0308911,-0.0098245,0.0802997,-0.0004755,-0.1180972,0.0005286
 ,0.0706734,0.0650882,0.0053475,0.0503843,0.0025121,0.1454314,-0.009797
 4,0.0178382,-0.0093862,0.0407986,0.0565387,-0.0537881,-0.0158671,0.009
 8485,0.0484382,-0.0438626,0.0326187,-0.0381955,0.1231025,0.0576164,0.0
 503356,-0.0237735,-0.0039577,0.0635836,0.0546938,0.0348258,0.0477603,0
 .1069581\Polar=28.2182199,0.1439383,39.1134243,0.1830139,-1.7440954,19
 .1114955\PG=C01 [X(C1H3N1O2)]\NImag=0\\0.79448049,0.00298220,1.1057532
 1,-0.00779377,-0.07173268,0.28103119,-0.29741019,-0.22324500,0.0250474
 4,0.27844290,-0.24023319,-0.49721018,0.04115019,0.27243284,0.65094066,
 0.02658003,0.04148328,-0.08802196,-0.03019635,-0.06006171,0.03457025,-
 0.28683543,0.21932633,-0.01333170,0.05801070,-0.01038156,-0.00043956,0
 .26609010,0.23632245,-0.50963334,0.03122957,0.00543484,-0.14722487,0.0
 1512167,-0.26464464,0.66537532,-0.01474384,0.03089524,-0.08616800,-0.0
 0180433,0.01534385,0.02751658,0.01637133,-0.04857794,0.03248635,-0.170
 44819,0.00085214,-0.00055553,-0.03060599,-0.02000784,0.00294088,-0.028
 98243,0.02064742,-0.00052371,0.43806768,0.00118393,-0.09218107,-0.0016
 4821,-0.04998047,-0.01042213,0.00092740,0.05098557,-0.01156299,0.00533
 539,0.00123687,0.68234355,0.00313772,-0.00169025,-0.11116783,0.0076710
 0,0.00245635,0.02537799,-0.00104284,0.00375798,0.02488381,-0.01783646,
 -0.00652344,0.60511914,-0.01596999,-0.00347896,-0.04176865,-0.00113573
 ,0.00056952,0.00476080,-0.00109758,0.00027278,0.00476013,-0.06456762,-
 0.00583762,-0.06973520,0.07449278,0.00016187,-0.00224628,0.00116598,-0
 .00140860,-0.00003007,0.00107377,0.00151049,-0.00042921,-0.00120064,-0
 .00635979,-0.04608500,-0.02306212,0.00670643,0.04264366,0.00009880,0.0
 0068476,0.00559214,0.00060827,0.00095420,-0.00052437,0.00033271,-0.000
 98121,-0.00015343,-0.07571668,-0.02299099,-0.31801372,0.08142028,0.024
 30168,0.33025398,-0.01156767,0.03340541,0.01648123,0.00159609,-0.00068
 841,-0.00186694,-0.00885134,0.00161565,-0.00208273,-0.07012218,0.06439
 744,0.03205168,0.00402291,-0.00904865,-0.00257677,0.08019858,-0.002378
 12,-0.00210659,0.00310572,-0.00254345,0.00164315,0.00054138,0.00064983
 ,0.00216542,-0.00109110,0.07890907,-0.28282419,-0.10295777,-0.00053897
 ,0.00142991,0.00201280,-0.08112921,0.29150515,-0.00342450,0.00242041,-
 0.00111134,0.00031135,0.00076004,0.00016137,-0.00173971,0.00041914,0.0
 0101393,0.03780273,-0.10169489,-0.09293970,0.01013941,-0.02420939,-0.0
 0681443,-0.03600976,0.10846145,0.09089001,-0.01224904,-0.02984212,0.02
 192099,-0.00889778,-0.00169137,-0.00177886,0.00166597,0.00035150,-0.00
 197685,-0.07334128,-0.06198572,0.04575410,0.00425523,0.00843825,-0.004
 16660,0.00472361,0.00703084,-0.00707952,0.08384329,0.00196084,-0.00237
 576,-0.00327057,-0.00069017,0.00230344,0.00091421,0.00255398,0.0013096
 8,-0.00070478,-0.07527787,-0.23926818,0.12801925,0.00230682,0.00471697
 ,-0.00398124,-0.00855222,-0.01181285,0.01384324,0.07769862,0.24512670,
 -0.00385444,-0.00206076,-0.00015420,-0.00163737,-0.00060291,0.00092015
 ,-0.00015024,-0.00096920,0.00042076,0.05388876,0.12659472,-0.13325969,
 0.01042324,0.02193072,-0.01034017,-0.00599669,-0.01007248,0.00880017,-
 0.05267326,-0.13482009,0.13361299\\0.00000028,0.00000004,0.00000244,-0
 .00000048,-0.00000101,-0.00001071,0.00000033,-0.00000119,-0.00001055,-
 0.00000001,0.00000130,0.00000442,-0.00000666,0.00000038,0.00000513,0.0
 0000304,0.00000020,0.00000463,0.00000351,0.00000028,0.00000463\\\@


 Change starts when someone sees the next step.
                            -- William Drayton
 Job cpu time:       0 days  0 hours  2 minutes 33.5 seconds.
 File lengths (MBytes):  RWF=     19 Int=      0 D2E=      0 Chk=      4 Scr=      1
 Normal termination of Gaussian 09 at Fri Oct 23 20:23:20 2020.
