 Entering Gaussian System, Link 0=g09
 Input=MeNO2_isatin_TS4_freq.com
 Output=MeNO2_isatin_TS4_freq.log
 Initial command:
 /apps/applications/gaussian/G09.D01/2/default/g09/l1.exe "/nobackup/chmbnn/Gau-108324.inp" -scrdir="/nobackup/chmbnn/"
 Entering Link 1 = /apps/applications/gaussian/G09.D01/2/default/g09/l1.exe PID=    108325.
  
 Copyright (c) 1988,1990,1992,1993,1995,1998,2003,2009,2013,
            Gaussian, Inc.  All Rights Reserved.
  
 This is part of the Gaussian(R) 09 program.  It is based on
 the Gaussian(R) 03 system (copyright 2003, Gaussian, Inc.),
 the Gaussian(R) 98 system (copyright 1998, Gaussian, Inc.),
 the Gaussian(R) 94 system (copyright 1995, Gaussian, Inc.),
 the Gaussian 92(TM) system (copyright 1992, Gaussian, Inc.),
 the Gaussian 90(TM) system (copyright 1990, Gaussian, Inc.),
 the Gaussian 88(TM) system (copyright 1988, Gaussian, Inc.),
 the Gaussian 86(TM) system (copyright 1986, Carnegie Mellon
 University), and the Gaussian 82(TM) system (copyright 1983,
 Carnegie Mellon University). Gaussian is a federally registered
 trademark of Gaussian, Inc.
  
 This software contains proprietary and confidential information,
 including trade secrets, belonging to Gaussian, Inc.
  
 This software is provided under written license and may be
 used, copied, transmitted, or stored only in accord with that
 written license.
  
 The following legend is applicable only to US Government
 contracts under FAR:
  
                    RESTRICTED RIGHTS LEGEND
  
 Use, reproduction and disclosure by the US Government is
 subject to restrictions as set forth in subparagraphs (a)
 and (c) of the Commercial Computer Software - Restricted
 Rights clause in FAR 52.227-19.
  
 Gaussian, Inc.
 340 Quinnipiac St., Bldg. 40, Wallingford CT 06492
  
  
 ---------------------------------------------------------------
 Warning -- This program may not be used in any manner that
 competes with the business of Gaussian, Inc. or will provide
 assistance to any competitor of Gaussian, Inc.  The licensee
 of this program is prohibited from giving any competitor of
 Gaussian, Inc. access to this program.  By using this program,
 the user acknowledges that Gaussian, Inc. is engaged in the
 business of creating and licensing software in the field of
 computational chemistry and represents and warrants to the
 licensee that it is not a competitor of Gaussian, Inc. and that
 it will not use this program in any manner prohibited above.
 ---------------------------------------------------------------
  

 Cite this work as:
 Gaussian 09, Revision D.01,
 M. J. Frisch, G. W. Trucks, H. B. Schlegel, G. E. Scuseria, 
 M. A. Robb, J. R. Cheeseman, G. Scalmani, V. Barone, B. Mennucci, 
 G. A. Petersson, H. Nakatsuji, M. Caricato, X. Li, H. P. Hratchian, 
 A. F. Izmaylov, J. Bloino, G. Zheng, J. L. Sonnenberg, M. Hada, 
 M. Ehara, K. Toyota, R. Fukuda, J. Hasegawa, M. Ishida, T. Nakajima, 
 Y. Honda, O. Kitao, H. Nakai, T. Vreven, J. A. Montgomery, Jr., 
 J. E. Peralta, F. Ogliaro, M. Bearpark, J. J. Heyd, E. Brothers, 
 K. N. Kudin, V. N. Staroverov, T. Keith, R. Kobayashi, J. Normand, 
 K. Raghavachari, A. Rendell, J. C. Burant, S. S. Iyengar, J. Tomasi, 
 M. Cossi, N. Rega, J. M. Millam, M. Klene, J. E. Knox, J. B. Cross, 
 V. Bakken, C. Adamo, J. Jaramillo, R. Gomperts, R. E. Stratmann, 
 O. Yazyev, A. J. Austin, R. Cammi, C. Pomelli, J. W. Ochterski, 
 R. L. Martin, K. Morokuma, V. G. Zakrzewski, G. A. Voth, 
 P. Salvador, J. J. Dannenberg, S. Dapprich, A. D. Daniels, 
 O. Farkas, J. B. Foresman, J. V. Ortiz, J. Cioslowski, 
 and D. J. Fox, Gaussian, Inc., Wallingford CT, 2013.
 
 ******************************************
 Gaussian 09:  ES64L-G09RevD.01 24-Apr-2013
                29-Oct-2020 
 ******************************************
 %nprocshared=4
 Will use up to    4 processors via shared memory.
 %chk=MeNO2_isatin_TS4_freq.chk
 -------------------------------------------------------------
 # freq scrf=(cpcm,solvent=nitromethane) pop=nbo def2svp m062x
 -------------------------------------------------------------
 1/10=4,30=1,38=1/1,3;
 2/12=2,17=6,18=5,40=1/2;
 3/5=43,7=101,11=2,16=1,25=1,30=1,70=2101,71=2,72=15,74=-55,140=1/1,2,3;
 4//1;
 5/5=2,38=5,53=15,98=1/2;
 8/6=4,10=90,11=11/1;
 11/6=1,8=1,9=11,15=111,16=1/1,2,10;
 10/6=1/2;
 6/7=2,8=2,9=2,10=2,18=1,28=1,40=1/1,7;
 7/8=1,10=1,25=1/1,2,3,16;
 1/10=4,30=1/3;
 99//99;
 -----------------------
 MeNO2 + isatin TS4 freq
 -----------------------
 Symbolic Z-matrix:
 Charge =  0 Multiplicity = 1
 N                     2.12254  -0.41756   1.31287 
 O                     2.57045   0.71246   1.47347 
 O                     2.87687  -1.33586   0.83917 
 C                     0.80697  -0.70831   1.47777 
 H                     0.24002   0.03044   2.04075 
 H                     0.5765   -1.76889   1.51267 
 H                     3.32377  -0.77888  -0.39299 
 C                    -3.89438  -0.42431   0.34646 
 C                    -3.08421   0.71807   0.31 
 C                    -1.755     0.54327  -0.04967 
 C                    -1.24245  -0.72987  -0.35149 
 C                    -2.05311  -1.85526  -0.32078 
 C                    -3.39598  -1.69212   0.03292 
 H                    -4.94422  -0.31607   0.62276 
 H                    -3.48711   1.70264   0.54739 
 H                    -1.64351  -2.83681  -0.56483 
 H                    -4.05903  -2.55674   0.06422 
 C                     0.18669  -0.55165  -0.68131 
 C                     0.41137   0.9728   -0.60902 
 N                    -0.75926   1.52346  -0.18283 
 O                     1.43379   1.56456  -0.90562 
 O                     0.92154  -1.31491  -1.33135 
 C                    -0.96149   2.9378    0.04168 
 H                    -1.72999   3.32985  -0.63901 
 H                    -1.26801   3.12015   1.08083 
 H                    -0.0104    3.44555  -0.15259 
 O                     3.21517  -0.3888   -1.37752 
 H                     2.2671   -0.82426  -1.55133 
 H                     2.93875   0.54953  -1.24274 
 

 GradGradGradGradGradGradGradGradGradGradGradGradGradGradGradGradGradGrad
 Berny optimization.
 Initialization pass.
 Trust Radius=3.00D-01 FncErr=1.00D-07 GrdErr=1.00D-07
 Number of steps in this run=      2 maximum allowed number of steps=      2.
 GradGradGradGradGradGradGradGradGradGradGradGradGradGradGradGradGradGrad

                          Input orientation:                          
 ---------------------------------------------------------------------
 Center     Atomic      Atomic             Coordinates (Angstroms)
 Number     Number       Type             X           Y           Z
 ---------------------------------------------------------------------
      1          7           0        2.122540   -0.417557    1.312869
      2          8           0        2.570454    0.712461    1.473473
      3          8           0        2.876873   -1.335859    0.839172
      4          6           0        0.806966   -0.708305    1.477768
      5          1           0        0.240019    0.030442    2.040746
      6          1           0        0.576503   -1.768888    1.512671
      7          1           0        3.323773   -0.778878   -0.392994
      8          6           0       -3.894378   -0.424312    0.346462
      9          6           0       -3.084206    0.718065    0.310004
     10          6           0       -1.754997    0.543273   -0.049668
     11          6           0       -1.242445   -0.729866   -0.351488
     12          6           0       -2.053106   -1.855258   -0.320781
     13          6           0       -3.395976   -1.692122    0.032915
     14          1           0       -4.944221   -0.316069    0.622755
     15          1           0       -3.487114    1.702640    0.547388
     16          1           0       -1.643505   -2.836810   -0.564830
     17          1           0       -4.059034   -2.556741    0.064222
     18          6           0        0.186687   -0.551652   -0.681305
     19          6           0        0.411373    0.972796   -0.609022
     20          7           0       -0.759260    1.523455   -0.182834
     21          8           0        1.433790    1.564561   -0.905616
     22          8           0        0.921535   -1.314905   -1.331352
     23          6           0       -0.961490    2.937800    0.041681
     24          1           0       -1.729986    3.329846   -0.639005
     25          1           0       -1.268007    3.120150    1.080831
     26          1           0       -0.010399    3.445552   -0.152587
     27          8           0        3.215172   -0.388797   -1.377524
     28          1           0        2.267095   -0.824259   -1.551330
     29          1           0        2.938749    0.549532   -1.242737
 ---------------------------------------------------------------------
                    Distance matrix (angstroms):
                    1          2          3          4          5
     1  N    0.000000
     2  O    1.226116   0.000000
     3  O    1.279330   2.166067   0.000000
     4  C    1.357373   2.264616   2.255248   0.000000
     5  H    2.067461   2.493567   3.203679   1.088173   0.000000
     6  H    2.063067   3.183468   2.435737   1.085895   1.905170
     7  H    2.117423   2.505051   1.424142   3.136726   4.010939
     8  C    6.094037   6.660065   6.850075   4.843877   4.491173
     9  C    5.422691   5.773116   6.327170   4.305743   3.810350
    10  C    4.220781   4.588912   5.076947   3.234681   2.934777
    11  C    3.767061   4.466429   4.330552   2.747131   2.915227
    12  C    4.708696   5.584786   5.091165   3.567953   3.793560
    13  C    5.806618   6.592080   6.334478   4.551947   4.496562
    14  H    7.101103   7.632296   7.890267   5.827611   5.385825
    15  H    6.045611   6.207432   7.058183   5.011725   4.349469
    16  H    4.854033   5.874475   4.965671   3.835042   4.307879
    17  H    6.659361   7.524877   7.085048   5.393773   5.392775
    18  C    2.782488   3.453027   3.188092   2.251862   2.784105
    19  C    2.924866   3.011012   3.675030   2.708743   2.817563
    20  N    3.782780   3.806318   4.737260   3.192400   2.858663
    21  O    3.053661   2.770946   3.679567   3.352514   3.529824
    22  O    3.039663   3.833561   2.921465   2.876151   3.693977
    23  C    4.731340   4.413252   5.799412   4.299286   3.727280
    24  H    5.717937   5.459583   6.721381   5.217616   4.684875
    25  H    4.905611   4.548067   6.090521   4.372658   3.569576
    26  H    4.649796   4.095688   5.672902   4.536592   4.066497
    27  O    2.903943   3.123558   2.434156   3.748898   4.551029
    28  H    2.896539   3.406313   2.519536   3.364648   4.212192
    29  H    2.851768   2.745903   2.809426   3.678016   4.281806
                    6          7          8          9         10
     6  H    0.000000
     7  H    3.487000   0.000000
     8  C    4.812141   7.264586   0.000000
     9  C    4.586080   6.617948   1.400976   0.000000
    10  C    3.636328   5.259264   2.381195   1.388061   0.000000
    11  C    2.804145   4.566670   2.759211   2.434370   1.405236
    12  C    3.206844   5.484035   2.425511   2.843070   2.432144
    13  C    4.239830   6.794883   1.397876   2.446013   2.774279
    14  H    5.777632   8.343001   1.090974   2.151024   3.370723
    15  H    5.431046   7.309612   2.174893   1.089988   2.168141
    16  H    3.222562   5.379448   3.423015   3.934220   3.420933
    17  H    4.920053   7.607607   2.157319   3.425646   3.864149
    18  C    2.539124   3.158491   4.210417   3.646041   2.316886
    19  C    3.470689   3.405452   4.626484   3.623337   2.278273
    20  N    3.936816   4.692128   3.728661   2.509366   1.403561
    21  O    4.206535   3.053936   5.823460   4.754637   3.456015
    22  O    2.900623   2.634120   5.176991   4.782570   3.501337
    23  C    5.165476   5.689123   4.471971   3.083041   2.524234
    24  H    5.995556   6.517869   4.444034   3.091267   2.848321
    25  H    5.243224   6.201534   4.472173   3.108499   2.855781
    26  H    5.505263   5.387050   5.505469   4.135392   3.387837
    27  O    4.149753   1.064545   7.315674   6.614761   5.228244
    28  H    3.624711   1.568557   6.459514   5.871946   4.505814
    29  H    4.306687   1.623262   7.082764   6.222170   4.843006
                   11         12         13         14         15
    11  C    0.000000
    12  C    1.387307   0.000000
    13  C    2.389853   1.398218   0.000000
    14  H    3.850133   3.408505   2.153717   0.000000
    15  H    3.429811   3.933031   3.434734   2.490788   0.000000
    16  H    2.155360   1.091227   2.176870   4.319632   5.024194
    17  H    3.382818   2.159642   1.090042   2.473080   4.324681
    18  C    1.477484   2.616494   3.827043   5.299272   4.482001
    19  C    2.387571   3.762264   4.691458   5.644540   4.131363
    20  N    2.310707   3.620603   4.163983   4.641845   2.829579
    21  O    3.568429   4.918906   5.900294   6.822881   5.132795
    22  O    2.446470   3.187746   4.543613   6.262851   5.663164
    23  C    3.699364   4.929139   5.230963   5.175660   2.856595
    24  H    4.098978   5.204899   5.333588   5.021558   2.672607
    25  H    4.107897   5.228344   5.365104   5.052918   2.686695
    26  H    4.357937   5.683267   6.155667   6.252483   3.951614
    27  O    4.586876   5.569737   6.884422   8.401315   7.280112
    28  H    3.710175   4.608834   5.944190   7.549038   6.625765
    29  H    4.462462   5.617084   6.839667   8.146812   6.769485
                   16         17         18         19         20
    16  H    0.000000
    17  H    2.511757   0.000000
    18  C    2.930037   4.754192   0.000000
    19  C    4.328692   5.735454   1.542612   0.000000
    20  N    4.465391   5.253337   2.334386   1.362073   0.000000
    21  O    5.381259   6.935188   2.466564   1.217986   2.309453
    22  O    3.079477   5.319384   1.243028   2.452672   3.492915
    23  C    5.846291   6.307556   3.743968   2.483829   1.446263
    24  H    6.167708   6.369529   4.329140   3.184651   2.100821
    25  H    6.191492   6.407060   4.324741   3.207343   2.098835
    26  H    6.504233   7.243340   4.036834   2.549656   2.063047
    27  O    5.500907   7.726104   3.111746   3.210268   4.569475
    28  H    4.507365   6.755103   2.271421   2.749737   4.067354
    29  H    5.737937   7.766984   3.016895   2.639768   3.968273
                   21         22         23         24         25
    21  O    0.000000
    22  O    2.955500   0.000000
    23  C    2.918994   4.849382   0.000000
    24  H    3.632739   5.392923   1.098917   0.000000
    25  H    3.696693   5.502948   1.098652   1.793107   0.000000
    26  H    2.488144   4.991987   1.095503   1.790801   1.791308
    27  O    2.685447   2.473980   5.524934   6.231236   6.201219
    28  H    2.611093   1.449019   5.207162   5.836573   5.914692
    29  H    1.846303   2.748296   4.750307   5.467333   5.450123
                   26         27         28         29
    26  H    0.000000
    27  O    5.158198   0.000000
    28  H    5.037335   1.057679   0.000000
    29  H    4.274673   0.987440   1.560016   0.000000
 Stoichiometry    C10H12N2O5
 Framework group  C1[X(C10H12N2O5)]
 Deg. of freedom    81
 Full point group                 C1      NOp   1
 Largest Abelian subgroup         C1      NOp   1
 Largest concise Abelian subgroup C1      NOp   1
                         Standard orientation:                         
 ---------------------------------------------------------------------
 Center     Atomic      Atomic             Coordinates (Angstroms)
 Number     Number       Type             X           Y           Z
 ---------------------------------------------------------------------
      1          7           0        2.122540   -0.417557    1.312869
      2          8           0        2.570454    0.712461    1.473473
      3          8           0        2.876873   -1.335859    0.839172
      4          6           0        0.806966   -0.708305    1.477768
      5          1           0        0.240019    0.030442    2.040746
      6          1           0        0.576503   -1.768888    1.512671
      7          1           0        3.323773   -0.778878   -0.392994
      8          6           0       -3.894378   -0.424312    0.346462
      9          6           0       -3.084206    0.718065    0.310004
     10          6           0       -1.754997    0.543273   -0.049668
     11          6           0       -1.242445   -0.729866   -0.351488
     12          6           0       -2.053106   -1.855258   -0.320781
     13          6           0       -3.395976   -1.692122    0.032915
     14          1           0       -4.944221   -0.316069    0.622755
     15          1           0       -3.487114    1.702640    0.547388
     16          1           0       -1.643505   -2.836810   -0.564830
     17          1           0       -4.059034   -2.556741    0.064222
     18          6           0        0.186687   -0.551652   -0.681305
     19          6           0        0.411373    0.972796   -0.609022
     20          7           0       -0.759260    1.523455   -0.182834
     21          8           0        1.433790    1.564561   -0.905616
     22          8           0        0.921535   -1.314905   -1.331352
     23          6           0       -0.961490    2.937800    0.041681
     24          1           0       -1.729986    3.329846   -0.639005
     25          1           0       -1.268007    3.120150    1.080831
     26          1           0       -0.010399    3.445552   -0.152587
     27          8           0        3.215172   -0.388797   -1.377524
     28          1           0        2.267095   -0.824259   -1.551330
     29          1           0        2.938749    0.549532   -1.242737
 ---------------------------------------------------------------------
 Rotational constants (GHZ):      0.8259344      0.3698901      0.3190697
 Standard basis: def2SVP (5D, 7F)
 There are   315 symmetry adapted cartesian basis functions of A   symmetry.
 There are   298 symmetry adapted basis functions of A   symmetry.
   298 basis functions,   509 primitive gaussians,   315 cartesian basis functions
    63 alpha electrons       63 beta electrons
       nuclear repulsion energy      1311.6868005398 Hartrees.
 NAtoms=   29 NActive=   29 NUniq=   29 SFac= 1.00D+00 NAtFMM=   60 NAOKFM=F Big=F
 Integral buffers will be    131072 words long.
 Raffenetti 2 integral format.
 Two-electron integral symmetry is turned on.
 Force inversion solution in PCM.
 ------------------------------------------------------------------------------
 Polarizable Continuum Model (PCM)
 =================================
 Model                : C-PCM.
 Atomic radii         : UFF (Universal Force Field).
 Polarization charges : Total charges.
 Charge compensation  : None.
 Solution method      : Matrix inversion.
 Cavity type          : Scaled VdW (van der Waals Surface) (Alpha=1.100).
 Cavity algorithm     : GePol (No added spheres)
                        Default sphere list used, NSphG=   29.
                        Lebedev-Laikov grids with approx.  5.0 points / Ang**2.
                        Smoothing algorithm: Karplus/York (Gamma=1.0000).
                        Polarization charges: spherical gaussians, with
                                              point-specific exponents (IZeta= 3).
                        Self-potential: point-specific (ISelfS= 7).
                        Self-field    : sphere-specific E.n sum rule (ISelfD= 2).
 1st derivatives      : Analytical E(r).r(x)/FMM algorithm (CHGder, D1EAlg=3).
                        Cavity 1st derivative terms included.
 2nd derivatives      : Analytical E(r).r(xy)/FMM algorithm (CHGder, D2EAlg=3).
                        Cavity 2nd derivative terms included.
 Solvent              : NitroMethane, Eps=  36.562000 Eps(inf)=   1.909095
 ------------------------------------------------------------------------------
 One-electron integrals computed using PRISM.
   1 Symmetry operations used in ECPInt.
 ECPInt:  NShTT=    9591 NPrTT=   35237 LenC2=    9132 LenP2D=   24300.
 LDataN:  DoStor=T MaxTD1= 4 Len=   56
 NBasis=   298 RedAO= T EigKep=  2.44D-04  NBF=   298
 NBsUse=   298 1.00D-06 EigRej= -1.00D+00 NBFU=   298
 ExpMin= 1.22D-01 ExpMax= 2.27D+03 ExpMxC= 3.41D+02 IAcc=1 IRadAn=         1 AccDes= 0.00D+00
 Harris functional with IExCor= 1009 and IRadAn=       1 diagonalized for initial guess.
 HarFok:  IExCor= 1009 AccDes= 0.00D+00 IRadAn=         1 IDoV= 1 UseB2=F ITyADJ=14
 ICtDFT=  3500011 ScaDFX=  1.000000  1.000000  1.000000  1.000000
 FoFCou: FMM=F IPFlag=           0 FMFlag=      100000 FMFlg1=           0
         NFxFlg=           0 DoJE=T BraDBF=F KetDBF=T FulRan=T
         wScrn=  0.000000 ICntrl=     500 IOpCl=  0 I1Cent=   200000004 NGrid=           0
         NMat0=    1 NMatS0=      1 NMatT0=    0 NMatD0=    1 NMtDS0=    0 NMtDT0=    0
 Petite list used in FoFCou.
 Requested convergence on RMS density matrix=1.00D-08 within 128 cycles.
 Requested convergence on MAX density matrix=1.00D-06.
 Requested convergence on             energy=1.00D-06.
 No special actions if energy rises.
 Inv3:  Mode=1 IEnd=    14061675.
 Iteration    1 A*A^-1 deviation from unit magnitude is 6.99D-15 for   2149.
 Iteration    1 A*A^-1 deviation from orthogonality  is 3.60D-15 for   2147   1437.
 Iteration    1 A^-1*A deviation from unit magnitude is 6.99D-15 for   2149.
 Iteration    1 A^-1*A deviation from orthogonality  is 2.24D-15 for   2155   1793.
 Error on total polarization charges =  0.00781
 SCF Done:  E(RM062X) =  -872.804270164     A.U. after   15 cycles
            NFock= 15  Conv=0.56D-08     -V/T= 2.0087
 DoSCS=F DFT=T ScalE2(SS,OS)=  1.000000  1.000000
 Range of M.O.s used for correlation:     1   298
 NBasis=   298 NAE=    63 NBE=    63 NFC=     0 NFV=     0
 NROrb=    298 NOA=    63 NOB=    63 NVA=   235 NVB=   235

 **** Warning!!: The largest alpha MO coefficient is  0.12196135D+02

   1 Symmetry operations used in ECPInt.
 ECPInt:  NShTT=    9591 NPrTT=   35237 LenC2=    9132 LenP2D=   24300.
 LDataN:  DoStor=T MaxTD1= 5 Len=  102
 Number of processors reduced to   2 by ecpmxn.
 Symmetrizing basis deriv contribution to polar:
 IMax=3 JMax=2 DiffMx= 0.00D+00
 G2DrvN: will do    30 centers at a time, making    1 passes.
 Calling FoFCou, ICntrl=  3107 FMM=F I1Cent=   0 AccDes= 0.00D+00.
 NEqPCM:  Using equilibrium solvation (IEInf=0, Eps=  36.5620, EpsInf=   1.9091)
 G2PCM: DoFxE=T DoFxN=T DoGrad=T DoDP/DQ/DG/TGxP=FFFF NFrqRd=   0 IEInf=0 SqF1=F DoCFld=F IF1Alg=4.
 End of G2Drv F.D. properties file   721 does not exist.
 End of G2Drv F.D. properties file   722 does not exist.
 End of G2Drv F.D. properties file   788 does not exist.
          IDoAtm=11111111111111111111111111111
 NEqPCM:  Using equilibrium solvation (IEInf=0, Eps=  36.5620, EpsInf=   1.9091)
          Differentiating once with respect to electric field.
                with respect to dipole field.
          Differentiating once with respect to nuclear coordinates.
          There are    90 degrees of freedom in the 1st order CPHF.  IDoFFX=6 NUNeed=     3.
     87 vectors produced by pass  0 Test12= 1.65D-14 1.11D-09 XBig12= 1.68D+02 6.95D+00.
 AX will form    87 AO Fock derivatives at one time.
     87 vectors produced by pass  1 Test12= 1.65D-14 1.11D-09 XBig12= 1.76D+01 6.20D-01.
     87 vectors produced by pass  2 Test12= 1.65D-14 1.11D-09 XBig12= 3.16D-01 8.25D-02.
     87 vectors produced by pass  3 Test12= 1.65D-14 1.11D-09 XBig12= 2.85D-03 6.63D-03.
     87 vectors produced by pass  4 Test12= 1.65D-14 1.11D-09 XBig12= 2.15D-05 5.99D-04.
     87 vectors produced by pass  5 Test12= 1.65D-14 1.11D-09 XBig12= 8.47D-08 2.77D-05.
     63 vectors produced by pass  6 Test12= 1.65D-14 1.11D-09 XBig12= 2.47D-10 1.33D-06.
      7 vectors produced by pass  7 Test12= 1.65D-14 1.11D-09 XBig12= 6.69D-13 7.08D-08.
      3 vectors produced by pass  8 Test12= 1.65D-14 1.11D-09 XBig12= 1.98D-15 2.99D-09.
 InvSVY:  IOpt=1 It=  1 EMax= 2.31D-14
 Solved reduced A of dimension   595 with    90 vectors.
 Isotropic polarizability for W=    0.000000      203.21 Bohr**3.
 End of Minotr F.D. properties file   721 does not exist.
 End of Minotr F.D. properties file   722 does not exist.
 End of Minotr F.D. properties file   788 does not exist.

 **********************************************************************

            Population analysis using the SCF density.

 **********************************************************************

 Orbital symmetries:
       Occupied  (A) (A) (A) (A) (A) (A) (A) (A) (A) (A) (A) (A)
                 (A) (A) (A) (A) (A) (A) (A) (A) (A) (A) (A) (A)
                 (A) (A) (A) (A) (A) (A) (A) (A) (A) (A) (A) (A)
                 (A) (A) (A) (A) (A) (A) (A) (A) (A) (A) (A) (A)
                 (A) (A) (A) (A) (A) (A) (A) (A) (A) (A) (A) (A)
                 (A) (A) (A)
       Virtual   (A) (A) (A) (A) (A) (A) (A) (A) (A) (A) (A) (A)
                 (A) (A) (A) (A) (A) (A) (A) (A) (A) (A) (A) (A)
                 (A) (A) (A) (A) (A) (A) (A) (A) (A) (A) (A) (A)
                 (A) (A) (A) (A) (A) (A) (A) (A) (A) (A) (A) (A)
                 (A) (A) (A) (A) (A) (A) (A) (A) (A) (A) (A) (A)
                 (A) (A) (A) (A) (A) (A) (A) (A) (A) (A) (A) (A)
                 (A) (A) (A) (A) (A) (A) (A) (A) (A) (A) (A) (A)
                 (A) (A) (A) (A) (A) (A) (A) (A) (A) (A) (A) (A)
                 (A) (A) (A) (A) (A) (A) (A) (A) (A) (A) (A) (A)
                 (A) (A) (A) (A) (A) (A) (A) (A) (A) (A) (A) (A)
                 (A) (A) (A) (A) (A) (A) (A) (A) (A) (A) (A) (A)
                 (A) (A) (A) (A) (A) (A) (A) (A) (A) (A) (A) (A)
                 (A) (A) (A) (A) (A) (A) (A) (A) (A) (A) (A) (A)
                 (A) (A) (A) (A) (A) (A) (A) (A) (A) (A) (A) (A)
                 (A) (A) (A) (A) (A) (A) (A) (A) (A) (A) (A) (A)
                 (A) (A) (A) (A) (A) (A) (A) (A) (A) (A) (A) (A)
                 (A) (A) (A) (A) (A) (A) (A) (A) (A) (A) (A) (A)
                 (A) (A) (A) (A) (A) (A) (A) (A) (A) (A) (A) (A)
                 (A) (A) (A) (A) (A) (A) (A) (A) (A) (A) (A) (A)
                 (A) (A) (A) (A) (A) (A) (A)
 The electronic state is 1-A.
 Alpha  occ. eigenvalues --  -19.69397 -19.65166 -19.64941 -19.64884 -19.64540
 Alpha  occ. eigenvalues --  -14.98302 -14.82461 -10.68764 -10.68020 -10.62043
 Alpha  occ. eigenvalues --  -10.59976 -10.59597 -10.58107 -10.57793 -10.57749
 Alpha  occ. eigenvalues --  -10.57608 -10.56834  -1.32931  -1.20850  -1.18715
 Alpha  occ. eigenvalues --   -1.16298  -1.13238  -1.09498  -0.96629  -0.92372
 Alpha  occ. eigenvalues --   -0.89504  -0.85520  -0.81945  -0.76733  -0.71194
 Alpha  occ. eigenvalues --   -0.69661  -0.68465  -0.67606  -0.65179  -0.64005
 Alpha  occ. eigenvalues --   -0.62397  -0.60721  -0.59934  -0.59619  -0.58028
 Alpha  occ. eigenvalues --   -0.56665  -0.55936  -0.53768  -0.52758  -0.52353
 Alpha  occ. eigenvalues --   -0.51915  -0.51312  -0.50035  -0.49664  -0.47204
 Alpha  occ. eigenvalues --   -0.47090  -0.45539  -0.44554  -0.43194  -0.41396
 Alpha  occ. eigenvalues --   -0.39734  -0.38767  -0.37613  -0.36367  -0.34376
 Alpha  occ. eigenvalues --   -0.33519  -0.29130  -0.28301
 Alpha virt. eigenvalues --   -0.06924   0.00721   0.02170   0.04325   0.09707
 Alpha virt. eigenvalues --    0.10964   0.11665   0.12711   0.14444   0.15326
 Alpha virt. eigenvalues --    0.15704   0.17264   0.17884   0.18963   0.19369
 Alpha virt. eigenvalues --    0.19923   0.20679   0.21851   0.22741   0.23220
 Alpha virt. eigenvalues --    0.25604   0.26775   0.28748   0.29779   0.30663
 Alpha virt. eigenvalues --    0.32157   0.34233   0.34742   0.36169   0.37338
 Alpha virt. eigenvalues --    0.38041   0.39462   0.41351   0.43737   0.44835
 Alpha virt. eigenvalues --    0.45600   0.46681   0.47594   0.48913   0.50428
 Alpha virt. eigenvalues --    0.50859   0.51357   0.51814   0.52834   0.53550
 Alpha virt. eigenvalues --    0.55977   0.57279   0.57721   0.58684   0.59874
 Alpha virt. eigenvalues --    0.61561   0.62939   0.63665   0.64889   0.65656
 Alpha virt. eigenvalues --    0.66774   0.67707   0.68725   0.69386   0.70117
 Alpha virt. eigenvalues --    0.70551   0.70873   0.71175   0.72168   0.73254
 Alpha virt. eigenvalues --    0.73627   0.74011   0.75831   0.76159   0.77207
 Alpha virt. eigenvalues --    0.77681   0.79160   0.79512   0.80157   0.83418
 Alpha virt. eigenvalues --    0.86088   0.87886   0.89072   0.90797   0.92986
 Alpha virt. eigenvalues --    0.94864   0.95980   0.96842   0.97532   0.97723
 Alpha virt. eigenvalues --    1.01220   1.03244   1.03854   1.06287   1.06864
 Alpha virt. eigenvalues --    1.08615   1.09326   1.11850   1.13874   1.15351
 Alpha virt. eigenvalues --    1.16732   1.19095   1.20880   1.21772   1.22686
 Alpha virt. eigenvalues --    1.23277   1.25100   1.26363   1.27408   1.27905
 Alpha virt. eigenvalues --    1.29280   1.29565   1.31916   1.33868   1.34467
 Alpha virt. eigenvalues --    1.35707   1.37063   1.38285   1.39842   1.43983
 Alpha virt. eigenvalues --    1.45601   1.46341   1.47018   1.50778   1.51585
 Alpha virt. eigenvalues --    1.52875   1.54711   1.56088   1.56718   1.60286
 Alpha virt. eigenvalues --    1.62998   1.64270   1.66103   1.71053   1.71331
 Alpha virt. eigenvalues --    1.71987   1.73020   1.73804   1.74510   1.77083
 Alpha virt. eigenvalues --    1.77243   1.79018   1.80453   1.81042   1.82068
 Alpha virt. eigenvalues --    1.82548   1.83053   1.83418   1.84063   1.85915
 Alpha virt. eigenvalues --    1.86773   1.88693   1.89665   1.91685   1.94289
 Alpha virt. eigenvalues --    1.95959   1.96933   1.97946   1.98198   1.99213
 Alpha virt. eigenvalues --    2.00831   2.01516   2.03132   2.04979   2.05970
 Alpha virt. eigenvalues --    2.08386   2.10039   2.12059   2.13127   2.14539
 Alpha virt. eigenvalues --    2.17109   2.18830   2.19502   2.20431   2.22193
 Alpha virt. eigenvalues --    2.24215   2.27680   2.28503   2.29850   2.30586
 Alpha virt. eigenvalues --    2.32157   2.34376   2.36727   2.38862   2.39533
 Alpha virt. eigenvalues --    2.42789   2.45954   2.48513   2.49787   2.50487
 Alpha virt. eigenvalues --    2.52398   2.56327   2.59701   2.60785   2.60967
 Alpha virt. eigenvalues --    2.62363   2.65550   2.68008   2.70750   2.71045
 Alpha virt. eigenvalues --    2.72966   2.73647   2.74456   2.75823   2.77014
 Alpha virt. eigenvalues --    2.78094   2.79078   2.81032   2.83518   2.84360
 Alpha virt. eigenvalues --    2.86860   2.90177   2.94102   2.95414   2.96527
 Alpha virt. eigenvalues --    2.96848   2.99681   3.03111   3.06107   3.10811
 Alpha virt. eigenvalues --    3.11767   3.12741   3.17676   3.19602   3.21406
 Alpha virt. eigenvalues --    3.23327   3.24419   3.28140   3.33066   3.35028
 Alpha virt. eigenvalues --    3.39561   3.49685   3.51882   3.64127   3.67453
 Alpha virt. eigenvalues --    3.72346   3.73600   3.80559   3.85697   3.91661
          Condensed to atoms (all electrons):
               1          2          3          4          5          6
     1  N    5.951421   0.278032   0.191143   0.415341  -0.012766  -0.008976
     2  O    0.278032   8.218090  -0.104803  -0.082067   0.004615   0.004866
     3  O    0.191143  -0.104803   8.354308  -0.081822   0.005251   0.004267
     4  C    0.415341  -0.082067  -0.081822   5.008922   0.370977   0.367154
     5  H   -0.012766   0.004615   0.005251   0.370977   0.565903  -0.023266
     6  H   -0.008976   0.004866   0.004267   0.367154  -0.023266   0.572915
     7  H   -0.015532   0.009857   0.112218   0.000509  -0.000244  -0.000283
     8  C    0.000000   0.000000   0.000000   0.000198   0.000030  -0.000083
     9  C    0.000003   0.000001   0.000000  -0.001128   0.000268   0.000042
    10  C    0.000362  -0.000368  -0.000060   0.011672   0.000571  -0.003638
    11  C    0.000228   0.000683   0.001045  -0.084789   0.005134  -0.005229
    12  C    0.000031   0.000009   0.000038  -0.016240  -0.000021   0.003902
    13  C    0.000000   0.000000   0.000000  -0.000160   0.000144   0.000258
    14  H    0.000000   0.000000   0.000000   0.000001  -0.000002  -0.000001
    15  H    0.000000   0.000000   0.000000  -0.000007   0.000002   0.000004
    16  H   -0.000006   0.000000  -0.000005   0.000002  -0.000028   0.000215
    17  H    0.000000   0.000000   0.000000  -0.000004   0.000001   0.000004
    18  C    0.001169  -0.012795   0.001059   0.178901  -0.018886   0.004762
    19  C   -0.005083   0.019245  -0.001748  -0.068575   0.012380   0.002483
    20  N   -0.001197  -0.000243  -0.000030   0.001405  -0.003126   0.000539
    21  O    0.002636  -0.003110   0.000105  -0.006819   0.000196  -0.000102
    22  O   -0.004773   0.000388   0.002252  -0.035982   0.000905   0.000315
    23  C    0.000008   0.000096   0.000001  -0.001382  -0.000037   0.000027
    24  H   -0.000002   0.000002   0.000000  -0.000006   0.000018   0.000001
    25  H    0.000028  -0.000010   0.000000   0.000213   0.000065  -0.000016
    26  H   -0.000005   0.000099   0.000001  -0.000235   0.000010   0.000004
    27  O    0.007440  -0.000628  -0.065846  -0.000135  -0.000009   0.000124
    28  H   -0.000225  -0.001113   0.008380   0.001510   0.000069  -0.000139
    29  H    0.001520   0.004942   0.001905  -0.001351   0.000045  -0.000059
               7          8          9         10         11         12
     1  N   -0.015532   0.000000   0.000003   0.000362   0.000228   0.000031
     2  O    0.009857   0.000000   0.000001  -0.000368   0.000683   0.000009
     3  O    0.112218   0.000000   0.000000  -0.000060   0.001045   0.000038
     4  C    0.000509   0.000198  -0.001128   0.011672  -0.084789  -0.016240
     5  H   -0.000244   0.000030   0.000268   0.000571   0.005134  -0.000021
     6  H   -0.000283  -0.000083   0.000042  -0.003638  -0.005229   0.003902
     7  H    0.375492   0.000000   0.000000  -0.000006   0.000225   0.000004
     8  C    0.000000   5.139278   0.219689   0.159080  -0.185582   0.111166
     9  C    0.000000   0.219689   5.188307   0.274066   0.069450  -0.134385
    10  C   -0.000006   0.159080   0.274066   5.216250   0.149841   0.072104
    11  C    0.000225  -0.185582   0.069450   0.149841   5.894091   0.278774
    12  C    0.000004   0.111166  -0.134385   0.072104   0.278774   5.152666
    13  C    0.000000   0.241499   0.096869  -0.170730   0.116991   0.227309
    14  H    0.000000   0.451899  -0.064818   0.014206  -0.001360   0.013116
    15  H    0.000000  -0.074398   0.472258  -0.078779   0.019135  -0.002656
    16  H   -0.000002   0.012939  -0.001806   0.015208  -0.078166   0.467669
    17  H    0.000000  -0.068990   0.013354  -0.001530   0.014862  -0.070191
    18  C    0.000147  -0.001147   0.019157  -0.010730  -0.024165  -0.101567
    19  C    0.000112  -0.000707   0.004327  -0.091037  -0.076686   0.017833
    20  N   -0.000017   0.008188  -0.083754   0.321972  -0.044383   0.007105
    21  O    0.000386   0.000001  -0.000060   0.001427   0.007716  -0.000032
    22  O    0.006794  -0.000015  -0.000029   0.003233  -0.085181   0.005089
    23  C    0.000002  -0.000242   0.001965  -0.044469   0.007565  -0.000098
    24  H    0.000000   0.000250   0.002762  -0.005911   0.000285   0.000008
    25  H    0.000000   0.000232   0.001631  -0.005370   0.000464  -0.000003
    26  H    0.000000  -0.000011   0.000410   0.005433  -0.001140   0.000017
    27  O    0.283187   0.000000   0.000000  -0.000007   0.000032   0.000005
    28  H   -0.019915   0.000000   0.000008  -0.000109   0.002204  -0.000140
    29  H   -0.006165   0.000000   0.000002  -0.000063   0.000573   0.000002
              13         14         15         16         17         18
     1  N    0.000000   0.000000   0.000000  -0.000006   0.000000   0.001169
     2  O    0.000000   0.000000   0.000000   0.000000   0.000000  -0.012795
     3  O    0.000000   0.000000   0.000000  -0.000005   0.000000   0.001059
     4  C   -0.000160   0.000001  -0.000007   0.000002  -0.000004   0.178901
     5  H    0.000144  -0.000002   0.000002  -0.000028   0.000001  -0.018886
     6  H    0.000258  -0.000001   0.000004   0.000215   0.000004   0.004762
     7  H    0.000000   0.000000   0.000000  -0.000002   0.000000   0.000147
     8  C    0.241499   0.451899  -0.074398   0.012939  -0.068990  -0.001147
     9  C    0.096869  -0.064818   0.472258  -0.001806   0.013354   0.019157
    10  C   -0.170730   0.014206  -0.078779   0.015208  -0.001530  -0.010730
    11  C    0.116991  -0.001360   0.019135  -0.078166   0.014862  -0.024165
    12  C    0.227309   0.013116  -0.002656   0.467669  -0.070191  -0.101567
    13  C    5.158351  -0.067201   0.013595  -0.065336   0.457855   0.019552
    14  H   -0.067201   0.624109  -0.010501  -0.000189  -0.011298   0.000012
    15  H    0.013595  -0.010501   0.635431   0.000013  -0.000146  -0.000485
    16  H   -0.065336  -0.000189   0.000013   0.631628  -0.009844  -0.015841
    17  H    0.457855  -0.011298  -0.000146  -0.009844   0.630944  -0.000375
    18  C    0.019552   0.000012  -0.000485  -0.015841  -0.000375   5.538253
    19  C   -0.000314   0.000003   0.000161   0.000696   0.000013   0.085588
    20  N   -0.000505  -0.000108  -0.012463  -0.000197   0.000010  -0.148897
    21  O    0.000000   0.000000   0.000000  -0.000001   0.000000  -0.075272
    22  O    0.000414   0.000000   0.000001   0.003268  -0.000001   0.566932
    23  C    0.000073  -0.000024   0.007485   0.000010   0.000000   0.007648
    24  H   -0.000027   0.000005  -0.000236  -0.000001   0.000000  -0.000472
    25  H   -0.000022   0.000005  -0.000044   0.000000   0.000000  -0.000604
    26  H    0.000002   0.000000  -0.000093   0.000000   0.000000   0.003368
    27  O    0.000000   0.000000   0.000000   0.000003   0.000000   0.009847
    28  H    0.000003   0.000000   0.000000  -0.000064   0.000000  -0.017851
    29  H    0.000000   0.000000   0.000000  -0.000002   0.000000  -0.002762
              19         20         21         22         23         24
     1  N   -0.005083  -0.001197   0.002636  -0.004773   0.000008  -0.000002
     2  O    0.019245  -0.000243  -0.003110   0.000388   0.000096   0.000002
     3  O   -0.001748  -0.000030   0.000105   0.002252   0.000001   0.000000
     4  C   -0.068575   0.001405  -0.006819  -0.035982  -0.001382  -0.000006
     5  H    0.012380  -0.003126   0.000196   0.000905  -0.000037   0.000018
     6  H    0.002483   0.000539  -0.000102   0.000315   0.000027   0.000001
     7  H    0.000112  -0.000017   0.000386   0.006794   0.000002   0.000000
     8  C   -0.000707   0.008188   0.000001  -0.000015  -0.000242   0.000250
     9  C    0.004327  -0.083754  -0.000060  -0.000029   0.001965   0.002762
    10  C   -0.091037   0.321972   0.001427   0.003233  -0.044469  -0.005911
    11  C   -0.076686  -0.044383   0.007716  -0.085181   0.007565   0.000285
    12  C    0.017833   0.007105  -0.000032   0.005089  -0.000098   0.000008
    13  C   -0.000314  -0.000505   0.000000   0.000414   0.000073  -0.000027
    14  H    0.000003  -0.000108   0.000000   0.000000  -0.000024   0.000005
    15  H    0.000161  -0.012463   0.000000   0.000001   0.007485  -0.000236
    16  H    0.000696  -0.000197  -0.000001   0.003268   0.000010  -0.000001
    17  H    0.000013   0.000010   0.000000  -0.000001   0.000000   0.000000
    18  C    0.085588  -0.148897  -0.075272   0.566932   0.007648  -0.000472
    19  C    4.977858   0.291495   0.648873  -0.059765  -0.024892   0.000590
    20  N    0.291495   6.875895  -0.087253   0.002916   0.279908  -0.024598
    21  O    0.648873  -0.087253   7.778210   0.000316  -0.004963   0.000120
    22  O   -0.059765   0.002916   0.000316   7.878043  -0.000065   0.000003
    23  C   -0.024892   0.279908  -0.004963  -0.000065   4.497730   0.409726
    24  H    0.000590  -0.024598   0.000120   0.000003   0.409726   0.576640
    25  H    0.003530  -0.026184   0.000240   0.000000   0.406760  -0.027238
    26  H   -0.004343  -0.025479   0.014797  -0.000017   0.397691  -0.016953
    27  O    0.003749  -0.000012  -0.020064  -0.059331   0.000002   0.000000
    28  H   -0.003734   0.000389   0.006670   0.108322  -0.000011   0.000002
    29  H   -0.002211   0.000989   0.043644   0.005404  -0.000041   0.000001
              25         26         27         28         29
     1  N    0.000028  -0.000005   0.007440  -0.000225   0.001520
     2  O   -0.000010   0.000099  -0.000628  -0.001113   0.004942
     3  O    0.000000   0.000001  -0.065846   0.008380   0.001905
     4  C    0.000213  -0.000235  -0.000135   0.001510  -0.001351
     5  H    0.000065   0.000010  -0.000009   0.000069   0.000045
     6  H   -0.000016   0.000004   0.000124  -0.000139  -0.000059
     7  H    0.000000   0.000000   0.283187  -0.019915  -0.006165
     8  C    0.000232  -0.000011   0.000000   0.000000   0.000000
     9  C    0.001631   0.000410   0.000000   0.000008   0.000002
    10  C   -0.005370   0.005433  -0.000007  -0.000109  -0.000063
    11  C    0.000464  -0.001140   0.000032   0.002204   0.000573
    12  C   -0.000003   0.000017   0.000005  -0.000140   0.000002
    13  C   -0.000022   0.000002   0.000000   0.000003   0.000000
    14  H    0.000005   0.000000   0.000000   0.000000   0.000000
    15  H   -0.000044  -0.000093   0.000000   0.000000   0.000000
    16  H    0.000000   0.000000   0.000003  -0.000064  -0.000002
    17  H    0.000000   0.000000   0.000000   0.000000   0.000000
    18  C   -0.000604   0.003368   0.009847  -0.017851  -0.002762
    19  C    0.003530  -0.004343   0.003749  -0.003734  -0.002211
    20  N   -0.026184  -0.025479  -0.000012   0.000389   0.000989
    21  O    0.000240   0.014797  -0.020064   0.006670   0.043644
    22  O    0.000000  -0.000017  -0.059331   0.108322   0.005404
    23  C    0.406760   0.397691   0.000002  -0.000011  -0.000041
    24  H   -0.027238  -0.016953   0.000000   0.000002   0.000001
    25  H    0.577870  -0.016056   0.000000  -0.000001   0.000002
    26  H   -0.016056   0.558222   0.000006  -0.000022  -0.000036
    27  O    0.000000   0.000006   7.380870   0.302381   0.334209
    28  H   -0.000001  -0.000022   0.302381   0.370900  -0.017415
    29  H    0.000002  -0.000036   0.334209  -0.017415   0.406893
 Mulliken charges:
               1
     1  N    0.199200
     2  O   -0.335789
     3  O   -0.427660
     4  C    0.023896
     5  H    0.091799
     6  H    0.079909
     7  H    0.253231
     8  C   -0.013274
     9  C   -0.078589
    10  C    0.167382
    11  C    0.017383
    12  C   -0.031512
    13  C   -0.028619
    14  H    0.052145
    15  H    0.031725
    16  H    0.039839
    17  H    0.045336
    18  C   -0.004547
    19  C    0.270159
    20  N   -0.332364
    21  O   -0.307664
    22  O   -0.339436
    23  C    0.059529
    24  H    0.085031
    25  H    0.084508
    26  H    0.084331
    27  O   -0.175824
    28  H    0.259900
    29  H    0.229974
 Sum of Mulliken charges =   0.00000
 Mulliken charges with hydrogens summed into heavy atoms:
               1
     1  N    0.199200
     2  O   -0.335789
     3  O   -0.427660
     4  C    0.195605
     8  C    0.038872
     9  C   -0.046864
    10  C    0.167382
    11  C    0.017383
    12  C    0.008327
    13  C    0.016717
    18  C   -0.004547
    19  C    0.270159
    20  N   -0.332364
    21  O   -0.307664
    22  O   -0.339436
    23  C    0.313399
    27  O    0.567281
 APT charges:
               1
     1  N    1.882651
     2  O   -1.025193
     3  O   -1.178658
     4  C   -0.997022
     5  H    0.123768
     6  H    0.141521
     7  H    0.716239
     8  C    0.085560
     9  C   -0.240620
    10  C    0.596604
    11  C   -0.432527
    12  C    0.133577
    13  C   -0.234161
    14  H    0.063943
    15  H    0.093256
    16  H    0.081486
    17  H    0.060950
    18  C    1.577542
    19  C    1.202387
    20  N   -1.156659
    21  O   -1.068554
    22  O   -1.191471
    23  C    0.348932
    24  H    0.002565
    25  H    0.005178
    26  H    0.071656
    27  O   -0.945452
    28  H    0.725920
    29  H    0.556582
 Sum of APT charges =   0.00000
 APT charges with hydrogens summed into heavy atoms:
               1
     1  N    1.882651
     2  O   -1.025193
     3  O   -1.178658
     4  C   -0.731734
     8  C    0.149503
     9  C   -0.147363
    10  C    0.596604
    11  C   -0.432527
    12  C    0.215062
    13  C   -0.173211
    18  C    1.577542
    19  C    1.202387
    20  N   -1.156659
    21  O   -1.068554
    22  O   -1.191471
    23  C    0.428332
    27  O    1.053288
 Electronic spatial extent (au):  <R**2>=           3670.9635
 Charge=              0.0000 electrons
 Dipole moment (field-independent basis, Debye):
    X=             -7.8592    Y=              1.9604    Z=              0.1172  Tot=              8.1009
 Quadrupole moment (field-independent basis, Debye-Ang):
   XX=            -98.7543   YY=            -91.5884   ZZ=           -102.3280
   XY=             -1.4515   XZ=             -7.7042   YZ=             -1.1008
 Traceless Quadrupole moment (field-independent basis, Debye-Ang):
   XX=             -1.1974   YY=              5.9685   ZZ=             -4.7711
   XY=             -1.4515   XZ=             -7.7042   YZ=             -1.1008
 Octapole moment (field-independent basis, Debye-Ang**2):
  XXX=            -42.7909  YYY=             19.5135  ZZZ=             -1.1112  XYY=            -25.2672
  XXY=              4.6626  XXZ=             -8.8719  XZZ=             12.1601  YZZ=              4.1792
  YYZ=              1.0533  XYZ=             -4.5719
 Hexadecapole moment (field-independent basis, Debye-Ang**3):
 XXXX=          -2794.6670 YYYY=          -1047.1082 ZZZZ=           -550.2455 XXXY=             33.0801
 XXXZ=           -112.7122 YYYX=            -13.2461 YYYZ=             12.6817 ZZZX=             -7.1888
 ZZZY=             -5.2605 XXYY=           -656.2287 XXZZ=           -643.6274 YYZZ=           -296.4837
 XXYZ=              1.4870 YYXZ=            -10.9581 ZZXY=            -17.1655
 N-N= 1.311686800540D+03 E-N=-4.661272121426D+03  KE= 8.652356804838D+02
  Exact polarizability: 281.583  13.262 191.231  -0.790  10.833 136.803
 Approx polarizability: 250.788  14.036 195.506  -5.329  15.821 142.876
 ******************************Gaussian NBO Version 3.1******************************
             N A T U R A L   A T O M I C   O R B I T A L   A N D
          N A T U R A L   B O N D   O R B I T A L   A N A L Y S I S
 ******************************Gaussian NBO Version 3.1******************************
       /RESON  / : Allow strongly delocalized NBO set

 Analyzing the SCF density

 Job title: MeNO2 + isatin TS4 freq                                         

 Storage needed:    269262 in NPA,    356965 in NBO (  33549937 available)


 NATURAL POPULATIONS:  Natural atomic orbital occupancies 
                                                          
   NAO  Atom  No  lang   Type(AO)    Occupancy      Energy
 ----------------------------------------------------------
     1    N    1  S      Cor( 1S)     1.99921     -14.83573
     2    N    1  S      Val( 2S)     1.06130      -0.51721
     3    N    1  S      Ryd( 3S)     0.00442       0.88247
     4    N    1  px     Val( 2p)     1.22544      -0.34509
     5    N    1  px     Ryd( 3p)     0.00963       1.02052
     6    N    1  py     Val( 2p)     1.02187      -0.27200
     7    N    1  py     Ryd( 3p)     0.01367       1.07317
     8    N    1  pz     Val( 2p)     1.18705      -0.32891
     9    N    1  pz     Ryd( 3p)     0.00293       0.91666
    10    N    1  dxy    Ryd( 3d)     0.00390       2.79673
    11    N    1  dxz    Ryd( 3d)     0.00237       2.38841
    12    N    1  dyz    Ryd( 3d)     0.00412       2.43659
    13    N    1  dx2y2  Ryd( 3d)     0.00409       2.78276
    14    N    1  dz2    Ryd( 3d)     0.00163       2.54712

    15    O    2  S      Cor( 1S)     1.99976     -19.43556
    16    O    2  S      Val( 2S)     1.72208      -0.94714
    17    O    2  S      Ryd( 3S)     0.00300       1.32542
    18    O    2  px     Val( 2p)     1.80055      -0.35334
    19    O    2  px     Ryd( 3p)     0.00262       1.14075
    20    O    2  py     Val( 2p)     1.37267      -0.29616
    21    O    2  py     Ryd( 3p)     0.00159       1.10692
    22    O    2  pz     Val( 2p)     1.56487      -0.32085
    23    O    2  pz     Ryd( 3p)     0.00314       1.12717
    24    O    2  dxy    Ryd( 3d)     0.00154       3.13389
    25    O    2  dxz    Ryd( 3d)     0.00039       2.75302
    26    O    2  dyz    Ryd( 3d)     0.00196       2.90292
    27    O    2  dx2y2  Ryd( 3d)     0.00170       3.12712
    28    O    2  dz2    Ryd( 3d)     0.00053       2.88475

    29    O    3  S      Cor( 1S)     1.99978     -19.45609
    30    O    3  S      Val( 2S)     1.72515      -0.95663
    31    O    3  S      Ryd( 3S)     0.00316       1.39134
    32    O    3  px     Val( 2p)     1.66309      -0.34110
    33    O    3  px     Ryd( 3p)     0.00231       1.17984
    34    O    3  py     Val( 2p)     1.59657      -0.33872
    35    O    3  py     Ryd( 3p)     0.00230       1.11640
    36    O    3  pz     Val( 2p)     1.60487      -0.33571
    37    O    3  pz     Ryd( 3p)     0.00251       1.23577
    38    O    3  dxy    Ryd( 3d)     0.00155       3.10537
    39    O    3  dxz    Ryd( 3d)     0.00048       2.90779
    40    O    3  dyz    Ryd( 3d)     0.00137       2.96029
    41    O    3  dx2y2  Ryd( 3d)     0.00123       2.96093
    42    O    3  dz2    Ryd( 3d)     0.00054       2.86978

    43    C    4  S      Cor( 1S)     1.99925     -10.48730
    44    C    4  S      Val( 2S)     1.07187      -0.26643
    45    C    4  S      Ryd( 3S)     0.00609       0.85995
    46    C    4  px     Val( 2p)     0.87192      -0.06966
    47    C    4  px     Ryd( 3p)     0.00716       0.59741
    48    C    4  py     Val( 2p)     1.23209      -0.10185
    49    C    4  py     Ryd( 3p)     0.00625       0.89178
    50    C    4  pz     Val( 2p)     1.13033      -0.13933
    51    C    4  pz     Ryd( 3p)     0.00842       0.67260
    52    C    4  dxy    Ryd( 3d)     0.00040       2.39761
    53    C    4  dxz    Ryd( 3d)     0.00101       2.10824
    54    C    4  dyz    Ryd( 3d)     0.00035       2.16267
    55    C    4  dx2y2  Ryd( 3d)     0.00128       2.44780
    56    C    4  dz2    Ryd( 3d)     0.00052       2.18444

    57    H    5  S      Val( 1S)     0.75768       0.08427
    58    H    5  S      Ryd( 2S)     0.00173       0.38401
    59    H    5  px     Ryd( 2p)     0.00029       2.00092
    60    H    5  py     Ryd( 2p)     0.00042       2.09806
    61    H    5  pz     Ryd( 2p)     0.00031       1.96782

    62    H    6  S      Val( 1S)     0.74969       0.08983
    63    H    6  S      Ryd( 2S)     0.00165       0.38099
    64    H    6  px     Ryd( 2p)     0.00009       1.86771
    65    H    6  py     Ryd( 2p)     0.00084       2.38961
    66    H    6  pz     Ryd( 2p)     0.00008       1.78164

    67    H    7  S      Val( 1S)     0.45335       0.11027
    68    H    7  S      Ryd( 2S)     0.00446       0.51577
    69    H    7  px     Ryd( 2p)     0.00110       1.80270
    70    H    7  py     Ryd( 2p)     0.00098       1.89099
    71    H    7  pz     Ryd( 2p)     0.00197       2.42823

    72    C    8  S      Cor( 1S)     1.99903     -10.44312
    73    C    8  S      Val( 2S)     0.94530      -0.16576
    74    C    8  S      Ryd( 3S)     0.00108       0.60239
    75    C    8  px     Val( 2p)     1.18682      -0.08497
    76    C    8  px     Ryd( 3p)     0.00597       1.02113
    77    C    8  py     Val( 2p)     1.06616      -0.06160
    78    C    8  py     Ryd( 3p)     0.00410       0.68849
    79    C    8  pz     Val( 2p)     0.97914      -0.11754
    80    C    8  pz     Ryd( 3p)     0.00123       0.62703
    81    C    8  dxy    Ryd( 3d)     0.00061       2.40295
    82    C    8  dxz    Ryd( 3d)     0.00042       2.02630
    83    C    8  dyz    Ryd( 3d)     0.00064       2.01711
    84    C    8  dx2y2  Ryd( 3d)     0.00065       2.49646
    85    C    8  dz2    Ryd( 3d)     0.00035       2.17846

    86    C    9  S      Cor( 1S)     1.99894     -10.43734
    87    C    9  S      Val( 2S)     0.92958      -0.15340
    88    C    9  S      Ryd( 3S)     0.00151       0.56583
    89    C    9  px     Val( 2p)     1.07897      -0.07327
    90    C    9  px     Ryd( 3p)     0.00399       0.72959
    91    C    9  py     Val( 2p)     1.20025      -0.09724
    92    C    9  py     Ryd( 3p)     0.00496       1.01722
    93    C    9  pz     Val( 2p)     1.04471      -0.12551
    94    C    9  pz     Ryd( 3p)     0.00162       0.61907
    95    C    9  dxy    Ryd( 3d)     0.00048       2.47604
    96    C    9  dxz    Ryd( 3d)     0.00049       2.04901
    97    C    9  dyz    Ryd( 3d)     0.00047       2.00483
    98    C    9  dx2y2  Ryd( 3d)     0.00069       2.45472
    99    C    9  dz2    Ryd( 3d)     0.00041       2.18770

   100    C   10  S      Cor( 1S)     1.99887     -10.47988
   101    C   10  S      Val( 2S)     0.79149      -0.10277
   102    C   10  S      Ryd( 3S)     0.00245       0.59700
   103    C   10  px     Val( 2p)     1.01895      -0.08329
   104    C   10  px     Ryd( 3p)     0.00374       1.00400
   105    C   10  py     Val( 2p)     0.96181      -0.06485
   106    C   10  py     Ryd( 3p)     0.00607       0.96050
   107    C   10  pz     Val( 2p)     0.99711      -0.13659
   108    C   10  pz     Ryd( 3p)     0.00169       0.66728
   109    C   10  dxy    Ryd( 3d)     0.00113       2.42768
   110    C   10  dxz    Ryd( 3d)     0.00116       2.03993
   111    C   10  dyz    Ryd( 3d)     0.00093       1.98410
   112    C   10  dx2y2  Ryd( 3d)     0.00077       2.43134
   113    C   10  dz2    Ryd( 3d)     0.00061       2.15019

   114    C   11  S      Cor( 1S)     1.99879     -10.43325
   115    C   11  S      Val( 2S)     0.84337      -0.11520
   116    C   11  S      Ryd( 3S)     0.00297       0.68284
   117    C   11  px     Val( 2p)     1.09939      -0.11077
   118    C   11  px     Ryd( 3p)     0.00512       1.11695
   119    C   11  py     Val( 2p)     1.11703      -0.10552
   120    C   11  py     Ryd( 3p)     0.00505       1.00417
   121    C   11  pz     Val( 2p)     1.08610      -0.13359
   122    C   11  pz     Ryd( 3p)     0.00277       0.73807
   123    C   11  dxy    Ryd( 3d)     0.00054       2.44287
   124    C   11  dxz    Ryd( 3d)     0.00040       2.03021
   125    C   11  dyz    Ryd( 3d)     0.00061       2.00774
   126    C   11  dx2y2  Ryd( 3d)     0.00077       2.42974
   127    C   11  dz2    Ryd( 3d)     0.00044       2.19958

   128    C   12  S      Cor( 1S)     1.99894     -10.44074
   129    C   12  S      Val( 2S)     0.93036      -0.14988
   130    C   12  S      Ryd( 3S)     0.00136       0.59268
   131    C   12  px     Val( 2p)     1.08806      -0.07038
   132    C   12  px     Ryd( 3p)     0.00506       0.74316
   133    C   12  py     Val( 2p)     1.17698      -0.08148
   134    C   12  py     Ryd( 3p)     0.00587       0.95183
   135    C   12  pz     Val( 2p)     0.96684      -0.11667
   136    C   12  pz     Ryd( 3p)     0.00147       0.62315
   137    C   12  dxy    Ryd( 3d)     0.00067       2.46203
   138    C   12  dxz    Ryd( 3d)     0.00057       2.04087
   139    C   12  dyz    Ryd( 3d)     0.00048       2.02941
   140    C   12  dx2y2  Ryd( 3d)     0.00057       2.47172
   141    C   12  dz2    Ryd( 3d)     0.00038       2.18330

   142    C   13  S      Cor( 1S)     1.99901     -10.43453
   143    C   13  S      Val( 2S)     0.94206      -0.15867
   144    C   13  S      Ryd( 3S)     0.00108       0.60213
   145    C   13  px     Val( 2p)     1.11056      -0.06864
   146    C   13  px     Ryd( 3p)     0.00470       0.81752
   147    C   13  py     Val( 2p)     1.15739      -0.07661
   148    C   13  py     Ryd( 3p)     0.00538       0.91503
   149    C   13  pz     Val( 2p)     1.02457      -0.11708
   150    C   13  pz     Ryd( 3p)     0.00148       0.60563
   151    C   13  dxy    Ryd( 3d)     0.00062       2.49927
   152    C   13  dxz    Ryd( 3d)     0.00048       2.03996
   153    C   13  dyz    Ryd( 3d)     0.00045       2.00904
   154    C   13  dx2y2  Ryd( 3d)     0.00061       2.41279
   155    C   13  dz2    Ryd( 3d)     0.00038       2.19165

   156    H   14  S      Val( 1S)     0.75178       0.10953
   157    H   14  S      Ryd( 2S)     0.00144       0.34730
   158    H   14  px     Ryd( 2p)     0.00081       2.35655
   159    H   14  py     Ryd( 2p)     0.00006       2.01688
   160    H   14  pz     Ryd( 2p)     0.00013       1.73983

   161    H   15  S      Val( 1S)     0.74146       0.10217
   162    H   15  S      Ryd( 2S)     0.00125       0.37734
   163    H   15  px     Ryd( 2p)     0.00017       2.05528
   164    H   15  py     Ryd( 2p)     0.00070       2.34288
   165    H   15  pz     Ryd( 2p)     0.00013       1.74088

   166    H   16  S      Val( 1S)     0.74519       0.10468
   167    H   16  S      Ryd( 2S)     0.00201       0.35009
   168    H   16  px     Ryd( 2p)     0.00018       2.06532
   169    H   16  py     Ryd( 2p)     0.00072       2.32320
   170    H   16  pz     Ryd( 2p)     0.00013       1.74549

   171    H   17  S      Val( 1S)     0.75225       0.11225
   172    H   17  S      Ryd( 2S)     0.00141       0.34811
   173    H   17  px     Ryd( 2p)     0.00035       2.14387
   174    H   17  py     Ryd( 2p)     0.00055       2.25735
   175    H   17  pz     Ryd( 2p)     0.00009       1.71952

   176    C   18  S      Cor( 1S)     1.99895     -10.55951
   177    C   18  S      Val( 2S)     0.82546      -0.17659
   178    C   18  S      Ryd( 3S)     0.00844       0.81378
   179    C   18  px     Val( 2p)     0.93501      -0.08712
   180    C   18  px     Ryd( 3p)     0.00884       0.80544
   181    C   18  py     Val( 2p)     0.94847      -0.09592
   182    C   18  py     Ryd( 3p)     0.01298       0.76540
   183    C   18  pz     Val( 2p)     0.78598      -0.11077
   184    C   18  pz     Ryd( 3p)     0.00715       0.72694
   185    C   18  dxy    Ryd( 3d)     0.00145       2.25260
   186    C   18  dxz    Ryd( 3d)     0.00154       2.09875
   187    C   18  dyz    Ryd( 3d)     0.00125       2.04350
   188    C   18  dx2y2  Ryd( 3d)     0.00297       2.34656
   189    C   18  dz2    Ryd( 3d)     0.00264       2.15743

   190    C   19  S      Cor( 1S)     1.99908     -10.56475
   191    C   19  S      Val( 2S)     0.75420      -0.13178
   192    C   19  S      Ryd( 3S)     0.00989       0.64527
   193    C   19  px     Val( 2p)     0.75304       0.00170
   194    C   19  px     Ryd( 3p)     0.01548       0.69785
   195    C   19  py     Val( 2p)     0.94568      -0.07666
   196    C   19  py     Ryd( 3p)     0.01159       0.72696
   197    C   19  pz     Val( 2p)     0.79010      -0.12374
   198    C   19  pz     Ryd( 3p)     0.00409       0.62470
   199    C   19  dxy    Ryd( 3d)     0.00240       2.37839
   200    C   19  dxz    Ryd( 3d)     0.00343       2.10005
   201    C   19  dyz    Ryd( 3d)     0.00107       1.95231
   202    C   19  dx2y2  Ryd( 3d)     0.00352       2.38839
   203    C   19  dz2    Ryd( 3d)     0.00159       2.11194

   204    N   20  S      Cor( 1S)     1.99902     -14.65530
   205    N   20  S      Val( 2S)     1.16687      -0.52903
   206    N   20  S      Ryd( 3S)     0.00114       1.25756
   207    N   20  px     Val( 2p)     1.36674      -0.31915
   208    N   20  px     Ryd( 3p)     0.00139       1.30671
   209    N   20  py     Val( 2p)     1.35414      -0.32362
   210    N   20  py     Ryd( 3p)     0.00165       1.53350
   211    N   20  pz     Val( 2p)     1.60498      -0.32207
   212    N   20  pz     Ryd( 3p)     0.00265       1.02854
   213    N   20  dxy    Ryd( 3d)     0.00089       2.81777
   214    N   20  dxz    Ryd( 3d)     0.00046       2.42903
   215    N   20  dyz    Ryd( 3d)     0.00070       2.37390
   216    N   20  dx2y2  Ryd( 3d)     0.00054       2.70628
   217    N   20  dz2    Ryd( 3d)     0.00060       2.56376

   218    O   21  S      Cor( 1S)     1.99970     -19.39845
   219    O   21  S      Val( 2S)     1.67148      -0.96662
   220    O   21  S      Ryd( 3S)     0.00140       1.68135
   221    O   21  px     Val( 2p)     1.64620      -0.38934
   222    O   21  px     Ryd( 3p)     0.00143       1.27003
   223    O   21  py     Val( 2p)     1.80785      -0.37715
   224    O   21  py     Ryd( 3p)     0.00259       1.25099
   225    O   21  pz     Val( 2p)     1.52766      -0.32559
   226    O   21  pz     Ryd( 3p)     0.00147       1.16476
   227    O   21  dxy    Ryd( 3d)     0.00119       3.20436
   228    O   21  dxz    Ryd( 3d)     0.00128       2.93933
   229    O   21  dyz    Ryd( 3d)     0.00068       2.78507
   230    O   21  dx2y2  Ryd( 3d)     0.00140       3.05033
   231    O   21  dz2    Ryd( 3d)     0.00057       2.87898

   232    O   22  S      Cor( 1S)     1.99967     -19.40808
   233    O   22  S      Val( 2S)     1.65105      -0.96387
   234    O   22  S      Ryd( 3S)     0.00124       1.64408
   235    O   22  px     Val( 2p)     1.67887      -0.37346
   236    O   22  px     Ryd( 3p)     0.00229       1.42179
   237    O   22  py     Val( 2p)     1.76748      -0.39175
   238    O   22  py     Ryd( 3p)     0.00292       1.19537
   239    O   22  pz     Val( 2p)     1.57078      -0.35325
   240    O   22  pz     Ryd( 3p)     0.00193       1.17856
   241    O   22  dxy    Ryd( 3d)     0.00108       3.10290
   242    O   22  dxz    Ryd( 3d)     0.00051       2.99551
   243    O   22  dyz    Ryd( 3d)     0.00105       3.01322
   244    O   22  dx2y2  Ryd( 3d)     0.00078       2.91184
   245    O   22  dz2    Ryd( 3d)     0.00106       2.88374

   246    C   23  S      Cor( 1S)     1.99936     -10.48541
   247    C   23  S      Val( 2S)     1.06829      -0.25178
   248    C   23  S      Ryd( 3S)     0.00123       0.85014
   249    C   23  px     Val( 2p)     1.25146      -0.11800
   250    C   23  px     Ryd( 3p)     0.00394       0.66060
   251    C   23  py     Val( 2p)     0.84842      -0.05713
   252    C   23  py     Ryd( 3p)     0.00273       0.53933
   253    C   23  pz     Val( 2p)     1.22770      -0.11081
   254    C   23  pz     Ryd( 3p)     0.00223       0.59458
   255    C   23  dxy    Ryd( 3d)     0.00043       2.34901
   256    C   23  dxz    Ryd( 3d)     0.00051       2.33836
   257    C   23  dyz    Ryd( 3d)     0.00063       2.13682
   258    C   23  dx2y2  Ryd( 3d)     0.00095       2.28908
   259    C   23  dz2    Ryd( 3d)     0.00072       2.39377

   260    H   24  S      Val( 1S)     0.76994       0.08142
   261    H   24  S      Ryd( 2S)     0.00123       0.38116
   262    H   24  px     Ryd( 2p)     0.00042       2.10500
   263    H   24  py     Ryd( 2p)     0.00016       1.83089
   264    H   24  pz     Ryd( 2p)     0.00039       2.03595

   265    H   25  S      Val( 1S)     0.76883       0.08181
   266    H   25  S      Ryd( 2S)     0.00117       0.38334
   267    H   25  px     Ryd( 2p)     0.00015       1.88062
   268    H   25  py     Ryd( 2p)     0.00008       1.76509
   269    H   25  pz     Ryd( 2p)     0.00074       2.32412

   270    H   26  S      Val( 1S)     0.75290       0.08987
   271    H   26  S      Ryd( 2S)     0.00250       0.38515
   272    H   26  px     Ryd( 2p)     0.00062       2.24410
   273    H   26  py     Ryd( 2p)     0.00023       1.91000
   274    H   26  pz     Ryd( 2p)     0.00013       1.80386

   275    O   27  S      Cor( 1S)     1.99980     -19.50287
   276    O   27  S      Val( 2S)     1.70528      -1.06708
   277    O   27  S      Ryd( 3S)     0.00074       1.60077
   278    O   27  px     Val( 2p)     1.80706      -0.45520
   279    O   27  px     Ryd( 3p)     0.00131       1.12846
   280    O   27  py     Val( 2p)     1.61519      -0.41897
   281    O   27  py     Ryd( 3p)     0.00132       1.13309
   282    O   27  pz     Val( 2p)     1.79016      -0.44969
   283    O   27  pz     Ryd( 3p)     0.00119       1.13266
   284    O   27  dxy    Ryd( 3d)     0.00076       3.12937
   285    O   27  dxz    Ryd( 3d)     0.00076       2.84620
   286    O   27  dyz    Ryd( 3d)     0.00045       3.01383
   287    O   27  dx2y2  Ryd( 3d)     0.00097       3.18747
   288    O   27  dz2    Ryd( 3d)     0.00125       3.28240

   289    H   28  S      Val( 1S)     0.44756       0.12068
   290    H   28  S      Ryd( 2S)     0.00353       0.53379
   291    H   28  px     Ryd( 2p)     0.00197       2.46484
   292    H   28  py     Ryd( 2p)     0.00106       1.91877
   293    H   28  pz     Ryd( 2p)     0.00098       1.76057

   294    H   29  S      Val( 1S)     0.44952       0.13235
   295    H   29  S      Ryd( 2S)     0.00287       0.50483
   296    H   29  px     Ryd( 2p)     0.00111       1.87725
   297    H   29  py     Ryd( 2p)     0.00193       2.43361
   298    H   29  pz     Ryd( 2p)     0.00109       1.71592

 WARNING:  1 low occupancy (<1.9990e) core orbital  found on  C    9
           1 low occupancy (<1.9990e) core orbital  found on  C   10
           1 low occupancy (<1.9990e) core orbital  found on  C   11
           1 low occupancy (<1.9990e) core orbital  found on  C   12
           1 low occupancy (<1.9990e) core orbital  found on  C   18


 Summary of Natural Population Analysis:                  
                                                          
                                       Natural Population 
                Natural  -----------------------------------------------
    Atom  No    Charge         Core      Valence    Rydberg      Total
 -----------------------------------------------------------------------
      N    1    0.45838      1.99921     4.49566    0.04675     6.54162
      O    2   -0.47640      1.99976     6.46018    0.01647     8.47640
      O    3   -0.60492      1.99978     6.58969    0.01544     8.60492
      C    4   -0.33693      1.99925     4.30620    0.03147     6.33693
      H    5    0.23959      0.00000     0.75768    0.00273     0.76041
      H    6    0.24764      0.00000     0.74969    0.00267     0.75236
      H    7    0.53815      0.00000     0.45335    0.00850     0.46185
      C    8   -0.19151      1.99903     4.17743    0.01505     6.19151
      C    9   -0.26705      1.99894     4.25351    0.01461     6.26705
      C   10    0.21323      1.99887     3.76935    0.01855     5.78677
      C   11   -0.16337      1.99879     4.14590    0.01868     6.16337
      C   12   -0.17760      1.99894     4.16224    0.01641     6.17760
      C   13   -0.24879      1.99901     4.23459    0.01519     6.24879
      H   14    0.24579      0.00000     0.75178    0.00244     0.75421
      H   15    0.25628      0.00000     0.74146    0.00225     0.74372
      H   16    0.25176      0.00000     0.74519    0.00305     0.74824
      H   17    0.24535      0.00000     0.75225    0.00240     0.75465
      C   18    0.45889      1.99895     3.49491    0.04725     5.54111
      C   19    0.70482      1.99908     3.24303    0.05307     5.29518
      N   20   -0.50177      1.99902     5.49274    0.01002     7.50177
      O   21   -0.66489      1.99970     6.65319    0.01200     8.66489
      O   22   -0.68070      1.99967     6.66818    0.01285     8.68070
      C   23   -0.40861      1.99936     4.39587    0.01337     6.40861
      H   24    0.22786      0.00000     0.76994    0.00220     0.77214
      H   25    0.22903      0.00000     0.76883    0.00214     0.77097
      H   26    0.24362      0.00000     0.75290    0.00348     0.75638
      O   27   -0.92623      1.99980     6.91768    0.00874     8.92623
      H   28    0.54489      0.00000     0.44756    0.00755     0.45511
      H   29    0.54349      0.00000     0.44952    0.00699     0.45651
 =======================================================================
   * Total *    0.00000     33.98718    91.60049    0.41233   126.00000

                                 Natural Population      
 --------------------------------------------------------
   Core                      33.98718 ( 99.9623% of  34)
   Valence                   91.60049 ( 99.5658% of  92)
   Natural Minimal Basis    125.58767 ( 99.6728% of 126)
   Natural Rydberg Basis      0.41233 (  0.3272% of 126)
 --------------------------------------------------------

    Atom  No          Natural Electron Configuration
 ----------------------------------------------------------------------------
      N    1      [core]2S( 1.06)2p( 3.43)3p( 0.03)3d( 0.02)
      O    2      [core]2S( 1.72)2p( 4.74)3p( 0.01)3d( 0.01)
      O    3      [core]2S( 1.73)2p( 4.86)3p( 0.01)3d( 0.01)
      C    4      [core]2S( 1.07)2p( 3.23)3S( 0.01)3p( 0.02)
      H    5            1S( 0.76)
      H    6            1S( 0.75)
      H    7            1S( 0.45)
      C    8      [core]2S( 0.95)2p( 3.23)3p( 0.01)
      C    9      [core]2S( 0.93)2p( 3.32)3p( 0.01)
      C   10      [core]2S( 0.79)2p( 2.98)3p( 0.01)
      C   11      [core]2S( 0.84)2p( 3.30)3p( 0.01)
      C   12      [core]2S( 0.93)2p( 3.23)3p( 0.01)
      C   13      [core]2S( 0.94)2p( 3.29)3p( 0.01)
      H   14            1S( 0.75)
      H   15            1S( 0.74)
      H   16            1S( 0.75)
      H   17            1S( 0.75)
      C   18      [core]2S( 0.83)2p( 2.67)3S( 0.01)3p( 0.03)3d( 0.01)
      C   19      [core]2S( 0.75)2p( 2.49)3S( 0.01)3p( 0.03)3d( 0.01)
      N   20      [core]2S( 1.17)2p( 4.33)3p( 0.01)
      O   21      [core]2S( 1.67)2p( 4.98)3p( 0.01)3d( 0.01)
      O   22      [core]2S( 1.65)2p( 5.02)3p( 0.01)
      C   23      [core]2S( 1.07)2p( 3.33)3p( 0.01)
      H   24            1S( 0.77)
      H   25            1S( 0.77)
      H   26            1S( 0.75)
      O   27      [core]2S( 1.71)2p( 5.21)
      H   28            1S( 0.45)
      H   29            1S( 0.45)


 NATURAL BOND ORBITAL ANALYSIS:

                       Occupancies       Lewis Structure    Low   High
           Occ.    -------------------  -----------------   occ   occ
  Cycle   Thresh.   Lewis   Non-Lewis     CR  BD  3C  LP    (L)   (NL)   Dev
 =============================================================================
   1(1)    1.90   119.58037   6.41963     17  32   0  14    10     10    0.50
   2(2)    1.90   119.78338   6.21662     17  32   0  14    10     10    0.49
   3(3)    1.90   119.95927   6.04073     17  32   0  14    10     10    0.44
   4(4)    1.90   119.95927   6.04073     17  32   0  14    10     10    0.44
   5(1)    1.80   120.33906   5.66094     17  31   0  15     6      9    0.44
   6(2)    1.80   120.33906   5.66094     17  31   0  15     6      9    0.44
   7(1)    1.70   120.48286   5.51714     17  32   0  14     5      9    0.44
   8(2)    1.70   120.48286   5.51714     17  32   0  14     5      9    0.44
   9(1)    1.60   120.87380   5.12620     17  31   0  15     2      9    0.50
  10(2)    1.60   120.87380   5.12620     17  31   0  15     2      9    0.50
  11(1)    1.50   119.73396   6.26604     17  28   0  18     1     10    0.65
  12(2)    1.50   119.73396   6.26604     17  28   0  18     1     10    0.65
  13(1)    1.60   120.87380   5.12620     17  31   0  15     2      9    0.50
 -----------------------------------------------------------------------------

 Structure accepted: RESONANCE keyword permits strongly delocalized structure

 WARNING:  1 low occupancy (<1.9990e) core orbital  found on  C    9
           1 low occupancy (<1.9990e) core orbital  found on  C   10
           1 low occupancy (<1.9990e) core orbital  found on  C   11
           1 low occupancy (<1.9990e) core orbital  found on  C   12
           1 low occupancy (<1.9990e) core orbital  found on  C   18

 --------------------------------------------------------
   Core                     33.98718 ( 99.962% of  34)
   Valence Lewis            86.88662 ( 94.442% of  92)
  ==================       ============================
   Total Lewis             120.87380 ( 95.932% of 126)
  -----------------------------------------------------
   Valence non-Lewis         4.83592 (  3.838% of 126)
   Rydberg non-Lewis         0.29028 (  0.230% of 126)
  ==================       ============================
   Total non-Lewis           5.12620 (  4.068% of 126)
 --------------------------------------------------------


       (Occupancy)   Bond orbital/ Coefficients/ Hybrids
 ---------------------------------------------------------------------------------
     1. (1.99523) BD ( 1) N   1 - O   2  
                ( 48.60%)   0.6971* N   1 s( 30.24%)p 2.30( 69.62%)d 0.00(  0.14%)
                                            0.0000  0.5491  0.0309  0.3325 -0.0324
                                            0.7566 -0.0461  0.0994 -0.0087  0.0221
                                            0.0022  0.0054 -0.0226 -0.0182
                ( 51.40%)   0.7169* O   2 s( 27.92%)p 2.58( 71.92%)d 0.01(  0.16%)
                                            0.0000  0.5266 -0.0435 -0.3132 -0.0044
                                           -0.7795 -0.0294 -0.1125 -0.0033  0.0230
                                            0.0042  0.0086 -0.0254 -0.0175
     2. (1.98681) BD ( 2) N   1 - O   2  
                ( 36.65%)   0.6054* N   1 s(  0.05%)p99.99( 99.63%)d 5.87(  0.32%)
                                           -0.0001  0.0115  0.0203  0.2532  0.0004
                                           -0.2432 -0.0106  0.9336  0.0352  0.0097
                                            0.0214  0.0470  0.0171  0.0112
                ( 63.35%)   0.7959* O   2 s(  0.00%)p 1.00( 99.81%)d 0.00(  0.19%)
                                            0.0000 -0.0038 -0.0003  0.2569  0.0027
                                           -0.2407 -0.0012  0.9349  0.0101 -0.0064
                                           -0.0162 -0.0356 -0.0139 -0.0096
     3. (1.99420) BD ( 1) N   1 - O   3  
                ( 48.45%)   0.6961* N   1 s( 27.91%)p 2.58( 71.95%)d 0.01(  0.14%)
                                            0.0000  0.5280  0.0168  0.5377 -0.0350
                                           -0.5799  0.0242 -0.3038  0.0076 -0.0273
                                           -0.0159  0.0181 -0.0041 -0.0099
                ( 51.55%)   0.7180* O   3 s( 23.97%)p 3.17( 75.87%)d 0.01(  0.16%)
                                            0.0000  0.4883  0.0352 -0.5145 -0.0137
                                            0.6133  0.0221  0.3417  0.0212 -0.0304
                                           -0.0129  0.0166 -0.0086 -0.0123
     4. (1.99001) BD ( 1) N   1 - C   4  
                ( 65.23%)   0.8077* N   1 s( 41.65%)p 1.40( 58.33%)d 0.00(  0.03%)
                                            0.0000 -0.6446  0.0317  0.7299  0.0305
                                            0.1667  0.0057 -0.1474  0.0039 -0.0055
                                            0.0027  0.0022 -0.0122  0.0080
                ( 34.77%)   0.5896* C   4 s( 27.22%)p 2.67( 72.63%)d 0.01(  0.16%)
                                           -0.0003 -0.5199 -0.0433 -0.8288 -0.0742
                                           -0.1733 -0.0138  0.0605 -0.0051 -0.0134
                                            0.0043  0.0007 -0.0312  0.0201
     5. (1.98248) BD ( 1) C   4 - H   5  
                ( 61.99%)   0.7873* C   4 s( 34.11%)p 1.93( 65.86%)d 0.00(  0.03%)
                                           -0.0002  0.5840 -0.0025 -0.4522 -0.0137
                                            0.5529 -0.0084  0.3840  0.0245 -0.0081
                                           -0.0056  0.0136 -0.0070 -0.0004
                ( 38.01%)   0.6165* H   5 s( 99.89%)p 0.00(  0.11%)
                                            0.9995 -0.0014  0.0180 -0.0208 -0.0179
     6. (1.97690) BD ( 1) C   4 - H   6  
                ( 62.26%)   0.7890* C   4 s( 34.00%)p 1.94( 65.97%)d 0.00(  0.03%)
                                           -0.0002  0.5831 -0.0008 -0.1990 -0.0117
                                           -0.7869 -0.0114  0.0095  0.0218  0.0000
                                            0.0007 -0.0017 -0.0155 -0.0093
                ( 37.74%)   0.6143* H   6 s( 99.89%)p 0.00(  0.11%)
                                            0.9995 -0.0020  0.0081  0.0319 -0.0022
     7. (1.97293) BD ( 1) C   8 - C   9  
                ( 49.27%)   0.7019* C   8 s( 35.35%)p 1.83( 64.61%)d 0.00(  0.04%)
                                            0.0001  0.5945  0.0081  0.4534 -0.0255
                                            0.6623  0.0306 -0.0133  0.0109  0.0161
                                           -0.0016 -0.0005 -0.0036 -0.0112
                ( 50.73%)   0.7123* C   9 s( 35.69%)p 1.80( 64.27%)d 0.00(  0.04%)
                                           -0.0001  0.5973  0.0115 -0.4840 -0.0357
                                           -0.6368  0.0166  0.0344  0.0110  0.0133
                                           -0.0011  0.0008 -0.0084 -0.0117
     8. (1.97801) BD ( 1) C   8 - C  13  
                ( 50.14%)   0.7081* C   8 s( 36.04%)p 1.77( 63.93%)d 0.00(  0.04%)
                                            0.0000  0.6002  0.0078  0.2730 -0.0316
                                           -0.7294 -0.0264 -0.1762  0.0039 -0.0116
                                           -0.0040  0.0071 -0.0095 -0.0096
                ( 49.86%)   0.7061* C  13 s( 35.53%)p 1.81( 64.43%)d 0.00(  0.04%)
                                            0.0000  0.5960  0.0092 -0.3015 -0.0407
                                            0.7199 -0.0034  0.1827  0.0096 -0.0084
                                           -0.0029  0.0070 -0.0130 -0.0103
     9. (1.65996) BD ( 2) C   8 - C  13  
                ( 47.74%)   0.6910* C   8 s(  0.00%)p 1.00( 99.95%)d 0.00(  0.05%)
                                            0.0000 -0.0002 -0.0004  0.2377 -0.0025
                                           -0.1432  0.0016  0.9604 -0.0104 -0.0057
                                            0.0153 -0.0119  0.0022 -0.0107
                ( 52.26%)   0.7229* C  13 s(  0.00%)p 1.00( 99.95%)d 0.00(  0.05%)
                                            0.0000  0.0007 -0.0002  0.2381 -0.0031
                                           -0.1446  0.0017  0.9601 -0.0126  0.0042
                                            0.0058  0.0200  0.0043  0.0030
    10. (1.97893) BD ( 1) C   8 - H  14  
                ( 62.37%)   0.7898* C   8 s( 28.51%)p 2.51( 71.47%)d 0.00(  0.02%)
                                            0.0003 -0.5338  0.0133  0.8137 -0.0078
                                           -0.0827  0.0010 -0.2138  0.0020  0.0027
                                            0.0065 -0.0009 -0.0116  0.0066
                ( 37.63%)   0.6134* H  14 s( 99.90%)p 0.00(  0.10%)
                                           -0.9995  0.0021 -0.0310  0.0027  0.0081
    11. (1.97142) BD ( 1) C   9 - C  10  
                ( 48.23%)   0.6945* C   9 s( 34.49%)p 1.90( 65.46%)d 0.00(  0.05%)
                                            0.0001  0.5872  0.0122  0.7808  0.0113
                                           -0.0534  0.0272 -0.2032  0.0011 -0.0042
                                           -0.0098  0.0019  0.0152 -0.0107
                ( 51.77%)   0.7195* C  10 s( 38.82%)p 1.58( 61.16%)d 0.00(  0.03%)
                                           -0.0001  0.6230  0.0047 -0.7358  0.0114
                                            0.1636  0.0246  0.2065  0.0010 -0.0037
                                           -0.0078  0.0021  0.0104 -0.0092
    12. (1.97719) BD ( 1) C   9 - H  15  
                ( 62.89%)   0.7930* C   9 s( 29.74%)p 2.36( 70.23%)d 0.00(  0.02%)
                                           -0.0003  0.5451 -0.0178 -0.3097 -0.0093
                                            0.7567 -0.0089  0.1834  0.0014 -0.0073
                                           -0.0024  0.0051 -0.0090 -0.0078
                ( 37.11%)   0.6092* H  15 s( 99.89%)p 0.00(  0.11%)
                                            0.9995 -0.0014  0.0129 -0.0288 -0.0072
    13. (1.95438) BD ( 1) C  10 - C  11  
[...]
 02516,-0.00003371,-0.00003060,-0.00002648,-0.00533659,-0.00171701,0.00
 336763,0.00575037,0.03185929,0.00094683,-0.11159422,0.02497859,0.01655
 679,-0.00043976,-0.00235115,-0.00074184,0.00063970,0.00229398,0.000227
 19,0.62602852,0.00285653,0.00009584,-0.00038434,-0.00085682,-0.0005515
 4,-0.00041122,-0.00117789,0.00071855,0.00052845,-0.00125348,0.00067751
 ,-0.00084310,0.00013347,-0.00016612,0.00071965,-0.00019999,-0.00001946
 ,-0.00001779,0.00039003,0.00001721,-0.00027371,0.00001287,-0.00202911,
 -0.00032053,0.00365329,0.00402466,-0.00042806,-0.00684350,-0.02603388,
 -0.00123146,-0.00170214,0.00336925,0.00029874,0.00115598,-0.00025141,-
 0.00044039,-0.00012826,0.00173267,0.00023359,0.00021222,0.00014641,-0.
 00002701,0.00031484,0.00023671,0.00004199,-0.00001378,0.00015189,0.000
 06582,0.00004598,0.00002608,0.00001228,0.00071774,0.00136480,-0.000559
 35,0.02621964,-0.01639195,-0.00976838,0.01969329,-0.24533003,-0.026758
 79,-0.01158395,-0.00292761,0.00399182,-0.00085359,0.00155134,0.0009214
 1,0.01318384,0.50848823,-0.00064332,-0.00016211,-0.00002660,0.00014760
 ,0.00012293,0.00007113,0.00013964,-0.00008931,-0.00013385,0.00040628,-
 0.00051266,0.00077385,-0.00002178,0.00006553,0.00000818,-0.00000310,-0
 .00002776,0.00008353,-0.00001562,-0.00005513,0.00015011,-0.00004071,-0
 .00050971,0.00032279,0.00052018,0.00086999,-0.00040834,-0.00464965,0.0
 0306143,-0.00037037,0.00121271,0.00062770,0.00115130,0.00021074,0.0003
 0302,0.00077756,-0.00011605,0.00037595,0.00022322,0.00005021,0.0000347
 0,-0.00002846,0.00001380,0.00016719,-0.00050409,0.00004135,0.00014898,
 -0.00014959,-0.00000449,0.00002626,-0.00008494,0.00294354,0.00017969,0
 .00419573,0.00190602,-0.01124184,-0.00354666,0.01563192,-0.02727464,-0
 .07146089,-0.00241339,0.00011090,-0.00183854,-0.00047178,0.00031908,0.
 00016075,-0.00911414,-0.01294446,0.58988119,0.00035045,0.00001612,-0.0
 0006598,-0.00011069,-0.00008256,-0.00004555,-0.00015230,0.00009746,0.0
 0006541,-0.00017084,0.00000180,-0.00011484,0.00000857,-0.00000313,0.00
 006264,-0.00000496,-0.00001231,0.00002290,0.00005472,0.00000139,-0.000
 03581,-0.00028752,-0.00050477,-0.00033583,0.00057487,0.00068970,-0.000
 15724,-0.00033981,-0.00055825,0.00070347,-0.00016083,-0.00007477,-0.00
 012604,0.00044164,0.00018108,-0.00011941,-0.00023908,0.00048213,0.0001
 0953,0.00003989,0.00001420,0.00001044,-0.00012221,-0.00007891,0.000481
 15,0.00001398,0.00002940,0.00001056,0.00001334,0.00000823,0.00005376,0
 .00020786,-0.00009673,-0.00000318,0.00079563,-0.00011615,-0.00137292,-
 0.00095436,0.00447585,0.00206556,-0.00023314,0.00052271,0.00037674,-0.
 00017448,0.00026062,0.00016778,-0.18494690,0.06347473,-0.12302357,0.19
 161318,-0.00059188,0.00001841,0.00004519,0.00016689,0.00007670,0.00009
 879,0.00022419,-0.00014414,-0.00008310,0.00022130,-0.00015055,0.000087
 38,-0.00001530,-0.00000103,-0.00011189,0.00005156,0.00001042,0.0000295
 3,-0.00009000,0.00001205,0.00003025,-0.00018991,-0.00030953,-0.0002062
 8,-0.00021735,0.00040632,0.00008025,0.00244782,0.00305779,-0.00002956,
 -0.00011399,-0.00128898,-0.00025735,0.00047857,0.00047353,-0.00013500,
 -0.00049967,0.00018833,0.00013109,-0.00000850,-0.00001085,0.00001665,-
 0.00027900,-0.00014330,0.00041075,0.00002481,-0.00002438,0.00004093,-0
 .00001584,0.00001383,0.00003155,0.00051380,0.00047966,-0.00129284,-0.0
 0648979,-0.00242763,0.00407267,0.02997979,-0.02603296,0.01603865,0.002
 57324,0.00158298,-0.00028549,0.00005058,-0.00080873,-0.00024291,0.0593
 0181,-0.07445568,0.05490155,-0.07452052,0.09102862,-0.00012630,-0.0000
 3808,0.00002264,0.00004011,0.00005413,0.00000430,0.00004634,-0.0000223
 4,-0.00001886,0.00007757,-0.00000647,0.00002100,0.00000351,-0.00000574
 ,-0.00003521,0.00000601,0.00000103,-0.00000800,-0.00001422,-0.00000527
 ,0.00001747,0.00006658,-0.00014305,-0.00011837,-0.00048270,0.00015269,
 -0.00013777,-0.00016941,0.00042631,0.00018778,0.00008615,0.00005515,-0
 .00012749,0.00002177,-0.00001118,-0.00002031,-0.00003805,-0.00000256,-
 0.00001714,-0.00000963,-0.00000722,0.00000668,0.00037476,0.00010087,-0
 .00005223,0.00000652,-0.00000149,0.00000729,0.00000786,-0.00002202,0.0
 0001379,0.00015348,0.00008078,-0.00044612,0.00051778,-0.00137227,0.000
 15174,0.00856329,-0.00278832,0.00922906,-0.00020069,0.00001822,-0.0000
 9052,0.00004703,-0.00023478,-0.00005197,-0.12479747,0.05856132,-0.1616
 3650,0.13141430,-0.06044984,0.16358227,0.00030442,0.00007169,-0.000061
 33,-0.00007888,-0.00011444,-0.00000417,-0.00011122,0.00006339,0.000028
 99,-0.00017155,-0.00003662,-0.00008528,-0.00000214,0.00001003,0.000009
 47,0.00001266,-0.00001340,0.00002820,0.00004021,-0.00000158,-0.0000101
 0,-0.00015768,-0.00045193,0.00023289,0.00060001,0.00054630,-0.00010164
 ,-0.00034640,-0.00041697,-0.00052738,-0.00014618,-0.00017274,0.0000637
 7,0.00040044,0.00017835,-0.00005270,-0.00021450,0.00041826,0.00010759,
 0.00003359,0.00001967,-0.00001728,-0.00031081,-0.00012095,-0.00034328,
 0.00000725,0.00002680,-0.00000058,-0.00001029,0.00002879,-0.00002961,0
 .00015255,-0.00008695,0.00013045,0.00031994,0.00009366,0.00080549,-0.0
 0194117,0.00281408,0.00380685,-0.00019428,0.00083727,-0.00010428,-0.00
 016504,0.00027074,0.00009322,-0.06900005,0.00997621,0.07177042,0.00733
 299,-0.00372782,-0.02106502,0.06732230,-0.00090216,-0.00004356,0.00006
 814,0.00022807,0.00016409,0.00015857,0.00030056,-0.00019794,-0.0001374
 1,0.00045744,-0.00033943,0.00035749,-0.00000374,-0.00002148,-0.0000446
 6,0.00002329,0.00001627,0.00006104,-0.00010373,-0.00000675,0.00009593,
 -0.00006747,-0.00043155,0.00018764,-0.00022595,0.00038497,0.00025655,0
 .00198407,0.00302919,-0.00036581,0.00006895,-0.00133127,0.00027943,0.0
 0052048,0.00044534,0.00001434,-0.00050177,0.00020312,0.00016237,-0.000
 01307,-0.00000630,-0.00001139,-0.00038032,-0.00026845,-0.00038019,0.00
 000346,-0.00000435,-0.00004414,-0.00002515,0.00001776,-0.00002402,0.00
 117020,0.00025196,0.00068412,-0.00725168,-0.00239393,-0.00038085,0.016
 63333,-0.01919454,-0.03676850,0.00201984,0.00168337,-0.00097987,-0.000
 05870,-0.00050456,-0.00014514,0.00774582,-0.04985729,-0.02962527,-0.00
 404313,0.00211280,0.00908320,-0.01567386,0.06332474,-0.00022774,-0.000
 00709,0.00002664,0.00006646,0.00004646,0.00002840,0.00009441,-0.000052
 05,-0.00005156,0.00003236,-0.00012650,0.00005819,0.00000465,-0.0000254
 8,-0.00012190,0.00005234,-0.00000589,0.00001762,-0.00003242,0.00000019
 ,0.00001788,-0.00003371,0.00040077,-0.00012003,-0.00011078,-0.00029490
 ,-0.00032289,0.00113525,0.00053309,0.00016404,0.00004653,-0.00017752,-
 0.00003661,-0.00019427,-0.00002522,0.00004193,0.00008240,-0.00021138,-
 0.00007197,-0.00001015,-0.00000699,0.00001121,-0.00032305,-0.00023411,
 0.00014892,-0.00000905,-0.00001903,-0.00000328,0.00000042,0.00000593,0
 .00003623,-0.00021405,0.00005081,-0.00005652,-0.00260358,0.00090314,0.
 00013359,0.00197285,-0.00633106,0.00304176,0.00064595,0.00009307,-0.00
 029665,0.00013603,-0.00019257,-0.00005373,0.07281543,-0.03518215,-0.30
 077255,0.00665392,-0.00212739,-0.01520241,-0.07914560,0.04313258,0.315
 10567,-0.00018857,-0.00001269,0.00004486,0.00005086,0.00000320,0.00001
 786,0.00007579,-0.00005609,-0.00002614,0.00011742,-0.00001926,0.000081
 66,0.00000046,-0.00000738,-0.00000975,-0.00000180,0.00000503,-0.000004
 34,-0.00002951,0.00000685,-0.00000021,0.00006011,0.00000153,-0.0000034
 2,-0.00020851,0.00004382,0.00005787,0.00011108,0.00214205,0.00030668,0
 .00017862,-0.00007579,0.00003867,-0.00012049,0.00004653,0.00003122,0.0
 0001430,-0.00005604,-0.00001568,-0.00000163,0.00000026,0.00000508,0.00
 015775,-0.00006722,-0.00009169,0.00001624,0.00002435,-0.00001285,0.000
 00029,-0.00000445,-0.00000145,-0.00003617,0.00023774,-0.00000896,-0.00
 111335,0.00092317,0.00099058,0.00823651,0.00230160,-0.00245426,-0.0003
 7589,0.00124636,-0.00015581,0.00006872,-0.00018014,-0.00007130,-0.2700
 7049,-0.11849866,0.04535446,-0.01368990,-0.00894808,0.00551158,-0.0038
 0669,-0.00164811,-0.00073189,0.28064856,-0.00011709,-0.00011329,0.0000
 0057,0.00005749,0.00015079,-0.00000287,0.00003366,0.00001239,-0.000036
 68,0.00007752,-0.00003840,0.00001667,-0.00001180,0.00000260,-0.0000373
 6,0.00000341,0.00000352,-0.00000761,0.00001483,-0.00004270,0.00008540,
 -0.00019038,0.00007361,0.00004879,0.00053131,-0.00009527,-0.00015608,0
 .00403629,-0.00342456,-0.00145100,-0.00128930,-0.00089272,0.00019699,0
 .00046205,-0.00029751,-0.00014007,-0.00003334,0.00002307,0.00001320,-0
 .00003220,-0.00003389,0.00000127,-0.00014487,0.00016038,0.00007628,-0.
 00009762,-0.00011082,0.00001215,-0.00001753,0.00000084,0.00000347,-0.0
 0045289,-0.00025231,0.00003906,-0.00500651,-0.00068797,0.00133751,-0.0
 3199359,-0.02492023,0.00564036,0.00153916,0.00226548,-0.00001925,0.000
 17152,0.00018344,-0.00001037,-0.10554296,-0.10414091,0.02110854,0.0098
 5713,0.00621475,-0.00341716,0.00548429,0.00283648,-0.00018569,0.122563
 87,0.12312707,0.00008576,0.00003893,0.00000095,-0.00001079,-0.00006712
 ,-0.00001990,-0.00001882,0.00000850,-0.00000594,-0.00005370,0.00001001
 ,-0.00005083,0.00000578,-0.00000349,-0.00000308,0.00000076,0.00000053,
 0.00000186,0.00001236,-0.00001346,0.00002582,-0.00002426,-0.00000232,0
 .00005384,0.00011033,-0.00002791,-0.00004845,0.00049640,-0.00103988,-0
 .00006031,-0.00011429,-0.00009883,0.00031694,0.00009067,-0.00005413,-0
 .00002619,-0.00000988,0.00002379,-0.00000389,-0.00000107,-0.00000558,0
 .00000815,-0.00009088,0.00005840,-0.00012476,-0.00002604,-0.00001284,-
 0.00003412,-0.00000239,0.00000100,-0.00000249,0.00000684,-0.00014827,0
 .00007709,0.00003795,-0.00043855,0.00119698,-0.00649085,-0.00325175,-0
 .00057074,-0.00007919,0.00007899,-0.00087304,-0.00000872,0.00008255,-0
 .00000266,0.04716503,0.02450790,-0.05676630,-0.01674744,-0.01087578,0.
 00471795,0.02450072,0.01428689,-0.00174536,-0.04887803,-0.02305334,0.0
 5397195,-0.01374525,0.00104786,0.00336704,0.00344667,0.00307940,-0.000
 94685,0.01533426,-0.00425482,-0.00545266,0.00881787,-0.00006160,0.0065
 0637,0.00019311,-0.00002048,-0.00006628,-0.00044099,0.00020044,-0.0010
 1416,-0.03858063,-0.00365142,-0.01217532,-0.00014751,-0.00021511,0.000
 00869,-0.00042273,0.00021664,-0.00011683,-0.00034393,-0.00052455,0.000
 10525,-0.00347249,0.00142405,0.00468623,0.00084702,0.00117823,-0.00008
 776,-0.00065103,0.00010624,0.00004510,-0.00006907,-0.00002198,0.000031
 84,-0.00011757,0.00005623,0.00004506,0.00025406,-0.00002908,-0.0000038
 2,-0.00015163,-0.00003127,0.00003227,0.01235716,-0.02216104,-0.0243401
 9,0.00797678,0.00302910,-0.00168619,-0.00262724,0.00166736,0.00119771,
 -0.01328388,0.01251324,0.00361086,-0.08431993,-0.01528544,0.01917360,-
 0.00015263,-0.00103992,-0.00020569,-0.00015463,0.00026775,0.00004024,-
 0.00013367,0.00020202,0.00009520,0.00012438,-0.00014025,-0.00007038,0.
 33870481,0.00790306,-0.01626382,-0.00157213,0.00092240,0.00526047,-0.0
 0000044,-0.01657971,0.00456171,0.03918466,-0.00364414,0.00185123,-0.00
 015759,-0.00005799,-0.00014418,0.00020703,0.00010892,0.00021315,0.0002
 6159,0.00452415,-0.06853813,0.03947154,-0.00028365,-0.00045182,0.00003
 191,0.00052977,0.00051868,-0.00008359,-0.00201694,-0.00295710,0.000079
 07,-0.00196063,0.00204091,0.00229492,0.00076739,0.00061719,-0.00010920
 ,-0.00034856,0.00059562,0.00013695,0.00001252,0.00002451,-0.00000740,-
 0.00011738,0.00002886,0.00003096,0.00009349,0.00001112,-0.00001366,-0.
 00006683,-0.00001400,0.00000725,0.00350547,-0.00945145,-0.00568651,-0.
 01394537,-0.00962429,0.00481095,0.00670259,0.00133988,-0.00263725,0.02
 811902,-0.00526693,-0.00699349,-0.03733894,0.00546233,0.00718938,-0.00
 003033,0.00058674,0.00008697,0.00004590,-0.00010766,0.00001623,0.00003
 845,-0.00010989,-0.00004223,-0.00008848,0.00020118,0.00007001,-0.03416
 506,0.55302576,-0.03418964,0.02816810,0.01193430,0.00242910,-0.0031025
 2,-0.00267933,0.03853080,0.01649026,-0.08581939,0.01508025,-0.00266090
 ,0.00786689,0.00027668,0.00031997,-0.00043735,-0.00066473,-0.00030926,
 -0.00157335,-0.01728399,0.02148772,-0.15966416,0.00035758,0.00005687,-
 0.00006620,0.00011902,0.00035361,-0.00011460,-0.00036912,-0.00085980,0
 .00020058,-0.00014319,0.00060882,0.00113076,-0.00020263,-0.00031506,0.
 00009573,0.00019649,-0.00030234,-0.00019537,0.00002896,0.00000406,0.00
 001815,0.00000382,-0.00003853,-0.00002217,0.00003069,-0.00001132,0.000
 07190,0.00005456,0.00003606,-0.00001839,0.00054242,-0.00948043,-0.0144
 4766,0.00054911,0.00395093,0.00113690,0.00134501,-0.00009650,-0.000720
 95,0.00056333,-0.00274041,0.00463764,-0.01680763,0.00354269,0.01850901
 ,-0.00007096,0.00047627,-0.00009371,0.00006490,-0.00007438,-0.00001227
 ,0.00002878,-0.00013736,-0.00003560,-0.00002647,0.00000469,0.00001351,
 0.02503694,-0.00561987,0.31732158,0.02861165,-0.00146389,-0.00750640,-
 0.00632339,-0.00655653,0.00087166,-0.01387514,0.00284012,0.01995728,-0
 .01534053,-0.00038051,-0.01201891,-0.00018343,-0.00008389,0.00013338,0
 .00075587,-0.00041473,0.00178621,-0.00554675,0.01101819,-0.03736905,0.
 00027969,0.00062140,0.00001667,0.00006131,-0.00068412,0.00016185,0.001
 77115,0.00332201,-0.00014511,0.00675471,-0.00240199,-0.00659601,-0.001
 51610,-0.00197149,0.00007756,0.00105455,-0.00048936,-0.00018362,0.0000
 6778,0.00000429,-0.00003433,0.00021548,-0.00008000,-0.00007559,-0.0003
 7958,0.00001504,0.00000882,0.00023142,0.00003753,-0.00004717,-0.026788
 44,0.03447244,0.04248043,0.00392248,0.00276287,-0.00374811,-0.00310387
 ,-0.00361486,0.00109418,-0.00839223,-0.00073311,0.00217257,0.04701515,
 -0.01404539,-0.02986976,0.00038920,0.00065204,0.00025231,0.00013933,-0
 .00026063,-0.00006936,0.00012709,-0.00013703,-0.00007645,-0.00005896,-
 0.00002547,0.00001143,-0.16197198,-0.05430167,-0.02082259,0.13573252,0
 .00940080,0.00043555,-0.00287636,-0.00219333,-0.00293258,0.00042294,-0
 .00537446,-0.00058019,0.00762097,-0.00525739,-0.00026492,-0.00437631,-
 0.00009620,-0.00003140,-0.00000964,0.00025247,-0.00013595,0.00069819,0
 .00959382,0.01350160,-0.01106196,0.00011814,0.00035698,-0.00000397,-0.
 00021207,-0.00043532,0.00018942,0.00146672,0.00215508,-0.00028915,0.00
 223738,-0.00161332,-0.00385459,-0.00069686,-0.00071115,0.00004108,0.00
 044196,-0.00036188,0.00000192,0.00000137,-0.00000424,-0.00001935,0.000
 10394,-0.00002435,-0.00002032,-0.00007388,0.00004601,-0.00007108,0.000
 06665,0.00000809,-0.00001051,0.00297121,0.01592896,0.01192409,0.008556
 22,0.00008316,-0.00331294,-0.00341135,-0.00069452,0.00113361,-0.006159
 20,0.00239689,0.00293947,0.01493499,-0.03078200,-0.01076114,-0.0000106
 4,-0.00012447,0.00003210,0.00000743,0.00003410,-0.00001332,0.00000022,
 0.00004387,0.00000899,0.00002504,-0.00009288,-0.00002287,-0.03791025,-
 0.07946707,0.00189857,0.04161085,0.10654831,0.00281975,-0.00394144,-0.
 00284727,-0.00005815,0.00093685,0.00016523,-0.00105670,0.00220785,0.00
 360384,-0.00054114,0.00040974,-0.00019135,0.00001294,-0.00011221,0.000
 20489,0.00002617,0.00008179,0.00002623,-0.02852601,-0.01087633,-0.0128
 1420,-0.00012881,-0.00007064,0.00004043,-0.00015774,-0.00017375,-0.000
 11500,0.00041582,0.00020953,-0.00007502,-0.00035927,-0.00136628,0.0026
 2887,0.00018466,0.00038135,-0.00004874,-0.00023252,0.00015587,-0.00002
 811,-0.00001490,-0.00000535,0.00001198,0.,0.00002510,-0.00000601,0.000
 04794,0.00000706,0.00002852,-0.00004038,-0.00001524,0.00000510,0.01023
 301,0.00050352,-0.00398727,0.00149430,-0.00123799,-0.00166147,-0.00074
 605,0.00049942,0.00052545,-0.00137751,0.00126275,-0.00047417,-0.003801
 32,-0.00172624,-0.01817655,-0.00003647,-0.00032371,0.00003398,-0.00005
 110,0.00007142,0.00000833,-0.00003512,0.00008533,0.00002332,0.00002350
 ,-0.00002850,-0.00001363,-0.02258379,-0.00330629,-0.04566649,0.0482243
 8,0.02016112,0.07858135,0.00464577,-0.00169486,-0.00064726,-0.00099084
 ,-0.00003702,0.00002285,-0.00293050,0.00042761,0.00402279,-0.00237319,
 0.00032575,-0.00104628,0.00004390,-0.00005979,0.00025585,0.00002963,-0
 .00002732,0.00006054,-0.00159869,0.00773215,-0.00459650,-0.00009109,-0
 .00036745,-0.00001934,0.00090658,0.00056095,-0.00011331,-0.00233247,-0
 .00327190,0.00025865,-0.00039281,0.00174461,0.00047992,0.00037956,-0.0
 0019811,-0.00009274,0.00008813,0.00050705,0.00005079,0.00006892,0.0000
 3746,-0.00001632,-0.00004546,-0.00001791,0.00000292,-0.00000893,0.0000
 4694,0.00000406,0.00005011,0.00001745,-0.00001834,0.00015435,-0.002294
 99,0.00057750,-0.02165640,-0.00719439,0.00682758,0.00947561,-0.0001305
 8,-0.00358237,0.01688673,0.00264873,-0.00455126,-0.00477501,0.00230225
 ,0.00102160,0.00008309,0.00145929,0.00012212,0.00015521,-0.00033383,-0
 .00001202,0.00013709,-0.00032164,-0.00012147,-0.00015912,0.00026325,0.
 00010268,-0.06726930,0.11167255,0.00534252,0.01635104,-0.03039359,-0.0
 0373548,0.05516809,-0.00591645,0.00446582,0.00355004,0.00038459,-0.001
 34429,-0.00023639,0.00513015,0.00004958,-0.00832037,0.00204721,-0.0006
 4230,0.00061612,-0.00000098,0.00011075,-0.00027707,-0.00000144,-0.0000
 7127,-0.00010666,0.00117032,-0.01439361,0.01119923,0.00017130,0.000353
 73,-0.00000615,-0.00061455,-0.00042752,0.00008368,0.00173488,0.0026212
 2,-0.00009412,0.00109932,-0.00125911,-0.00079855,-0.00045117,-0.000120
 66,0.00006280,0.00010066,-0.00047940,-0.00009593,-0.00003623,-0.000027
 58,0.00001043,0.00005792,-0.00000381,-0.00001533,-0.00003917,-0.000039
 89,0.00001552,0.00000678,-0.00000126,0.00000553,-0.00550004,0.00329544
 ,0.00259211,0.00941049,0.00906588,-0.00357688,-0.00690258,-0.00080405,
 0.00271576,-0.01269314,-0.01287613,0.00282088,0.00945772,0.00150419,-0
 .00210230,0.00002009,-0.00090845,-0.00009964,-0.00007463,0.00019511,-0
 .00000881,-0.00006096,0.00019733,0.00007221,0.00009098,-0.00011215,-0.
 00005139,0.09452370,-0.38394301,-0.05164990,-0.00971213,-0.02328235,-0
 .00381474,-0.08340266,0.41887778,0.00337009,0.00675885,-0.00188284,-0.
 00206143,-0.00413653,0.00207030,0.00223166,-0.00221185,-0.00401489,-0.
 00115784,-0.00038581,-0.00094464,0.00007448,-0.00011586,0.00013905,-0.
 00001963,0.00002220,0.00010006,-0.00772145,0.02932814,0.01318787,-0.00
 004357,0.00004415,-0.00001931,-0.00021388,-0.00013530,0.00003529,0.000
 63766,0.00075787,0.00011205,-0.00005485,-0.00038953,-0.00018493,-0.000
 02186,0.00016468,-0.00002449,-0.00009622,-0.00006740,0.00002769,-0.000
 02266,-0.00000884,0.00000334,0.00000339,0.00001125,0.00001288,0.000006
 44,-0.00001489,-0.00001192,-0.00002524,-0.00001193,0.00001952,-0.00021
 948,0.00107467,0.00132007,0.00538495,0.00086254,-0.00211128,-0.0020415
 7,0.00018561,0.00153661,-0.00443566,-0.00087628,-0.00407662,0.00101908
 ,-0.00007934,-0.00112900,-0.00001460,-0.00044479,-0.00001193,-0.000064
 15,0.00008517,0.00000485,-0.00002348,0.00013098,0.00003565,0.00002823,
 -0.00003898,-0.00003336,0.00476754,-0.06764979,-0.05136996,0.00131373,
 -0.01036896,0.00021778,-0.00059969,0.04750993,0.04699218\\-0.00000032,
 0.00001279,-0.00000379,-0.00000562,-0.00000486,-0.00000292,-0.00000404
 ,0.00000233,-0.00002091,-0.00001031,0.00000322,-0.00001560,0.00000507,
 -0.00000260,0.00000541,0.00000317,0.00000120,0.00000888,-0.00000889,0.
 00000983,0.00001466,0.00000030,-0.00000166,0.00000035,-0.00000064,-0.0
 0000124,0.00000047,-0.00000195,-0.00000271,0.00000112,-0.00000462,0.00
 000552,-0.00001235,0.00000194,0.00000033,0.00000233,0.00000022,-0.0000
 0043,0.00000056,0.00000016,-0.00000170,0.00000039,-0.00000049,-0.00000
 146,0.00000154,0.00000098,-0.00000035,-0.00000130,0.00000093,-0.000001
 15,-0.00000047,0.00003067,-0.00002436,0.00001399,-0.00000110,-0.000004
 31,0.00000594,0.00000058,0.,-0.00000468,0.00000456,0.00000108,0.000002
 77,-0.00001423,0.00001378,-0.00000279,0.00000087,0.00000084,0.00000736
 ,-0.00000195,-0.00000058,0.00000180,0.00000036,-0.00000060,0.00000129,
 -0.00000177,0.00000094,-0.00000063,-0.00003673,-0.00002428,-0.00002349
 ,0.00004342,0.00000910,0.00001492,-0.00000058,0.00001134,0.00000515\\\
 @


 This summer one third of the nation will be ill-housed
 ill-nourished and ill-clad. Only they call it a vacation.
 -- Jonas Salk
 Job cpu time:       0 days  1 hours 28 minutes 19.5 seconds.
 File lengths (MBytes):  RWF=    355 Int=      0 D2E=      0 Chk=     13 Scr=      1
 Normal termination of Gaussian 09 at Thu Oct 29 07:43:06 2020.
