 Entering Gaussian System, Link 0=g09
 Input=freq_m062x_TS_4H2O_associated_cycloaddition_PM6_toluene_3_6_water.com
 Output=freq_m062x_TS_4H2O_associated_cycloaddition_PM6_toluene_3_6_water.log
 Initial command:
 /apps/applications/gaussian/G09.D01/2/default/g09/l1.exe "/local/743725.1.40core-192G.q/Gau-248128.inp" -scrdir="/local/743725.1.40core-192G.q/"
 Entering Link 1 = /apps/applications/gaussian/G09.D01/2/default/g09/l1.exe PID=    248129.
  
 Copyright (c) 1988,1990,1992,1993,1995,1998,2003,2009,2013,
            Gaussian, Inc.  All Rights Reserved.
  
 This is part of the Gaussian(R) 09 program.  It is based on
 the Gaussian(R) 03 system (copyright 2003, Gaussian, Inc.),
 the Gaussian(R) 98 system (copyright 1998, Gaussian, Inc.),
 the Gaussian(R) 94 system (copyright 1995, Gaussian, Inc.),
 the Gaussian 92(TM) system (copyright 1992, Gaussian, Inc.),
 the Gaussian 90(TM) system (copyright 1990, Gaussian, Inc.),
 the Gaussian 88(TM) system (copyright 1988, Gaussian, Inc.),
 the Gaussian 86(TM) system (copyright 1986, Carnegie Mellon
 University), and the Gaussian 82(TM) system (copyright 1983,
 Carnegie Mellon University). Gaussian is a federally registered
 trademark of Gaussian, Inc.
  
 This software contains proprietary and confidential information,
 including trade secrets, belonging to Gaussian, Inc.
  
 This software is provided under written license and may be
 used, copied, transmitted, or stored only in accord with that
 written license.
  
 The following legend is applicable only to US Government
 contracts under FAR:
  
                    RESTRICTED RIGHTS LEGEND
  
 Use, reproduction and disclosure by the US Government is
 subject to restrictions as set forth in subparagraphs (a)
 and (c) of the Commercial Computer Software - Restricted
 Rights clause in FAR 52.227-19.
  
 Gaussian, Inc.
 340 Quinnipiac St., Bldg. 40, Wallingford CT 06492
  
  
 ---------------------------------------------------------------
 Warning -- This program may not be used in any manner that
 competes with the business of Gaussian, Inc. or will provide
 assistance to any competitor of Gaussian, Inc.  The licensee
 of this program is prohibited from giving any competitor of
 Gaussian, Inc. access to this program.  By using this program,
 the user acknowledges that Gaussian, Inc. is engaged in the
 business of creating and licensing software in the field of
 computational chemistry and represents and warrants to the
 licensee that it is not a competitor of Gaussian, Inc. and that
 it will not use this program in any manner prohibited above.
 ---------------------------------------------------------------
  

 Cite this work as:
 Gaussian 09, Revision D.01,
 M. J. Frisch, G. W. Trucks, H. B. Schlegel, G. E. Scuseria, 
 M. A. Robb, J. R. Cheeseman, G. Scalmani, V. Barone, B. Mennucci, 
 G. A. Petersson, H. Nakatsuji, M. Caricato, X. Li, H. P. Hratchian, 
 A. F. Izmaylov, J. Bloino, G. Zheng, J. L. Sonnenberg, M. Hada, 
 M. Ehara, K. Toyota, R. Fukuda, J. Hasegawa, M. Ishida, T. Nakajima, 
 Y. Honda, O. Kitao, H. Nakai, T. Vreven, J. A. Montgomery, Jr., 
 J. E. Peralta, F. Ogliaro, M. Bearpark, J. J. Heyd, E. Brothers, 
 K. N. Kudin, V. N. Staroverov, T. Keith, R. Kobayashi, J. Normand, 
 K. Raghavachari, A. Rendell, J. C. Burant, S. S. Iyengar, J. Tomasi, 
 M. Cossi, N. Rega, J. M. Millam, M. Klene, J. E. Knox, J. B. Cross, 
 V. Bakken, C. Adamo, J. Jaramillo, R. Gomperts, R. E. Stratmann, 
 O. Yazyev, A. J. Austin, R. Cammi, C. Pomelli, J. W. Ochterski, 
 R. L. Martin, K. Morokuma, V. G. Zakrzewski, G. A. Voth, 
 P. Salvador, J. J. Dannenberg, S. Dapprich, A. D. Daniels, 
 O. Farkas, J. B. Foresman, J. V. Ortiz, J. Cioslowski, 
 and D. J. Fox, Gaussian, Inc., Wallingford CT, 2013.
 
 ******************************************
 Gaussian 09:  ES64L-G09RevD.01 24-Apr-2013
                16-Sep-2020 
 ******************************************
 %nprocshared=4
 Will use up to    4 processors via shared memory.
 %chk=TS_4H2O_associated_cycloaddition_PM6_toluene_6.chk
 ----------------------------------------------------------------------
 # freq scrf=(cpcm,solvent=water) geom=connectivity def2svp empiricaldi
 spersion=gd3 m062x
 ----------------------------------------------------------------------
 1/10=4,30=1,38=1,57=2/1,3;
 2/12=2,17=6,18=5,40=1/2;
 3/5=43,7=101,11=2,16=1,25=1,30=1,70=2101,71=2,72=1,74=-55,124=31,140=1/1,2,3;
 4//1;
 5/5=2,38=5,53=1,98=1/2;
 8/6=4,10=90,11=11/1;
 11/6=1,8=1,9=11,15=111,16=1/1,2,10;
 10/6=1/2;
 6/7=2,8=2,9=2,10=2,18=1,28=1/1;
 7/8=1,10=1,25=1/1,2,3,16;
 1/10=4,30=1/3;
 99//99;
 -------------------
 Title Card Required
 -------------------
 Symbolic Z-matrix:
 Charge =  0 Multiplicity = 1
 C                    -0.83019   0.99696   1.05696 
 C                    -2.10649   1.41926   0.26946 
 C                    -0.45428   2.8701   -0.40941 
 C                     0.14958   2.1086    0.74258 
 H                    -0.84173   0.43083   1.98565 
 H                     1.19796   2.11823   1.03199 
 C                    -1.59383   2.06455  -1.00863 
 H                    -2.36714   2.69904  -1.46383 
 H                    -1.23991   1.32344  -1.73747 
 C                    -1.91387   2.34462   1.36372 
 H                    -2.41794   2.30355   2.32725 
 C                    -0.81643   3.27703   0.98372 
 H                    -0.5589    4.20457   1.48747 
 H                    -2.93478   0.71056   0.25949 
 H                     0.19444   3.50981  -1.00545 
 N                     0.72891  -0.02435  -0.92138 
 N                    -0.01262  -0.51061   0.01131 
 C                     2.03762   0.21914  -0.52096 
 C                    -1.18195  -1.17891  -0.46061 
 O                    -1.42651  -1.40884  -1.61776 
 O                     2.85851   0.68504  -1.28619 
 O                    -1.92042  -1.5544    0.56564 
 O                     2.33105  -0.11801   0.74157 
 C                     3.65162   0.17737   1.18833 
 H                     3.76086  -0.30398   2.1649 
 H                     4.39506  -0.20333   0.47857 
 H                     3.77811   1.26487   1.29186 
 C                    -2.97219  -2.47356   0.27614 
 H                    -3.68538  -2.02551  -0.42673 
 H                    -2.53482  -3.38967  -0.14116 
 H                    -3.46008  -2.68241   1.23249 
 O                     0.06795  -3.60146   0.19292 
 H                     0.20119  -3.14866   1.04799 
 H                     0.80449  -3.27878  -0.33983 
 O                    -3.96147  -0.11549  -1.76448 
 H                    -4.05816   0.65719  -2.33342 
 H                    -3.14385  -0.53926  -2.06679 
 O                     0.56373  -1.90733   2.37888 
 H                     1.48094  -1.93254   2.67786 
 H                     0.57733  -1.27748   1.6286 
 O                     5.50288  -0.30127  -1.61997 
 H                     4.64331   0.15052  -1.58903 
 H                     5.25167  -1.22324  -1.75249 
 

 GradGradGradGradGradGradGradGradGradGradGradGradGradGradGradGradGradGrad
 Berny optimization.
 Initialization pass.
 Trust Radius=3.00D-01 FncErr=1.00D-07 GrdErr=1.00D-07
 Number of steps in this run=      2 maximum allowed number of steps=      2.
 GradGradGradGradGradGradGradGradGradGradGradGradGradGradGradGradGradGrad

                          Input orientation:                          
 ---------------------------------------------------------------------
 Center     Atomic      Atomic             Coordinates (Angstroms)
 Number     Number       Type             X           Y           Z
 ---------------------------------------------------------------------
      1          6           0       -0.830191    0.996961    1.056956
      2          6           0       -2.106487    1.419263    0.269464
      3          6           0       -0.454284    2.870095   -0.409408
      4          6           0        0.149579    2.108595    0.742576
      5          1           0       -0.841734    0.430830    1.985650
      6          1           0        1.197959    2.118235    1.031993
      7          6           0       -1.593826    2.064553   -1.008632
      8          1           0       -2.367137    2.699039   -1.463825
      9          1           0       -1.239912    1.323441   -1.737468
     10          6           0       -1.913873    2.344616    1.363715
     11          1           0       -2.417944    2.303551    2.327252
     12          6           0       -0.816429    3.277034    0.983717
     13          1           0       -0.558899    4.204568    1.487467
     14          1           0       -2.934775    0.710555    0.259489
     15          1           0        0.194438    3.509805   -1.005454
     16          7           0        0.728911   -0.024347   -0.921379
     17          7           0       -0.012621   -0.510607    0.011310
     18          6           0        2.037619    0.219144   -0.520961
     19          6           0       -1.181951   -1.178911   -0.460606
     20          8           0       -1.426509   -1.408842   -1.617758
     21          8           0        2.858514    0.685044   -1.286189
     22          8           0       -1.920420   -1.554396    0.565637
     23          8           0        2.331054   -0.118009    0.741572
     24          6           0        3.651618    0.177373    1.188332
     25          1           0        3.760858   -0.303977    2.164897
     26          1           0        4.395060   -0.203329    0.478572
     27          1           0        3.778114    1.264867    1.291863
     28          6           0       -2.972187   -2.473561    0.276136
     29          1           0       -3.685379   -2.025507   -0.426727
     30          1           0       -2.534819   -3.389669   -0.141162
     31          1           0       -3.460077   -2.682408    1.232490
     32          8           0        0.067946   -3.601460    0.192917
     33          1           0        0.201192   -3.148664    1.047987
     34          1           0        0.804491   -3.278784   -0.339832
     35          8           0       -3.961471   -0.115489   -1.764483
     36          1           0       -4.058159    0.657191   -2.333422
     37          1           0       -3.143854   -0.539259   -2.066791
     38          8           0        0.563733   -1.907333    2.378880
     39          1           0        1.480940   -1.932535    2.677855
     40          1           0        0.577328   -1.277477    1.628599
     41          8           0        5.502875   -0.301272   -1.619972
     42          1           0        4.643307    0.150521   -1.589033
     43          1           0        5.251666   -1.223238   -1.752485
 ---------------------------------------------------------------------
                    Distance matrix (angstroms):
                    1          2          3          4          5
     1  C    0.000000
     2  C    1.558016   0.000000
     3  C    2.408352   2.301207   0.000000
     4  C    1.514765   2.406002   1.507183   0.000000
     5  H    1.087709   2.349871   3.440412   2.311456   0.000000
     6  H    2.317600   3.462568   2.317938   1.087638   2.813742
     7  C    2.447355   1.520773   1.518724   2.471463   3.492910
     8  H    3.407875   2.170266   2.190904   3.398630   4.401193
     9  H    2.843109   2.188129   2.184741   2.949198   3.849274
    10  C    1.756315   1.445947   2.355949   2.167799   2.280101
    11  H    2.416979   2.261297   3.415588   3.023472   2.471480
    12  C    2.281290   2.371860   1.495843   1.535112   3.017513
    13  H    3.247719   3.411229   2.321615   2.334503   3.816973
    14  H    2.268756   1.090150   3.356169   3.420691   2.727398
    15  H    3.408487   3.360065   1.088733   2.240761   4.415931
    16  N    2.718028   3.397293   3.168574   2.766553   3.335405
    17  N    2.008621   2.859251   3.435290   2.724202   2.339177
    18  C    3.364395   4.386191   3.639995   2.954868   3.823426
    19  C    2.676032   2.852767   4.114191   3.745439   2.948081
    20  O    3.646584   3.467298   4.551333   4.519689   4.087897
    21  O    4.381115   5.254557   4.064213   3.671609   4.945846
    22  O    2.817697   2.994159   4.761973   4.211141   2.668543
    23  O    3.366912   4.719943   4.244011   3.117146   3.451889
    24  C    4.558025   5.961743   5.163522   4.024002   4.570576
    25  H    4.898745   6.402184   5.871048   4.569993   4.664325
    26  H    5.392446   6.704226   5.809525   4.841363   5.486115
    27  H    4.622059   5.974752   4.835729   3.765615   4.745519
    28  C    4.152391   3.987927   5.946803   5.564094   3.987074
    29  H    4.414604   3.852794   5.865765   5.758904   4.465363
    30  H    4.856312   4.845401   6.601911   6.182062   4.688932
    31  H    4.526021   4.425306   6.523872   6.018583   4.137055
    32  O    4.764314   5.471899   6.520471   5.737030   4.505638
    33  H    4.272006   5.176624   6.227287   5.266376   3.844435
    34  H    4.785937   5.560277   6.276788   5.533929   4.677516
    35  O    4.359240   3.151725   4.801073   5.304020   4.908637
    36  H    4.693600   3.341376   4.646148   5.410489   5.389899
    37  H    4.179809   3.220252   4.648053   5.074483   4.760578
    38  O    3.482159   4.758776   5.624476   4.356225   2.756261
    39  H    4.068241   5.468503   6.028394   4.674244   3.385182
    40  H    2.735133   4.040114   4.734981   3.526115   2.249341
    41  O    6.997076   8.026992   6.856441   6.328260   7.334204
    42  H    6.138151   7.115015   5.896866   5.428079   6.553061
    43  H    7.057707   8.075488   7.149622   6.584659   7.337514
                    6          7          8          9         10
     6  H    0.000000
     7  C    3.458482   0.000000
     8  H    4.390484   1.098992   0.000000
     9  H    3.774232   1.098046   1.799385   0.000000
    10  C    3.137640   2.410165   2.885489   3.333820   0.000000
    11  H    3.845360   3.444476   3.811989   4.343999   1.088199
    12  C    2.324415   2.458437   2.954528   3.376494   1.489357
    13  H    2.765283   3.446919   3.774449   4.377771   2.304494
    14  H    4.433714   2.289014   2.691857   2.689986   2.220746
    15  H    2.663590   2.299272   2.725640   2.715399   3.378698
    16  N    2.937061   3.125096   4.158917   2.521666   4.221131
    17  N    3.068894   3.189348   4.245185   2.815706   3.687283
    18  C    2.592921   4.102530   5.142057   3.666275   4.866613
    19  C    4.331627   3.315122   4.177273   2.809894   4.034737
    20  O    5.133155   3.530369   4.217009   2.741262   4.818210
    21  O    3.191465   4.669413   5.603138   4.172325   5.705423
    22  O    4.840454   3.960023   4.733918   3.748244   3.979858
    23  O    2.523695   4.819904   5.905297   4.579871   4.946816
    24  C    3.132384   5.991893   7.044015   5.813849   5.975148
    25  H    3.703921   6.659869   7.729039   6.548637   6.313439
    26  H    3.989660   6.574330   7.610779   6.244579   6.861351
    27  H    2.730013   5.898264   6.885839   5.861814   5.793940
    28  C    6.248682   4.913755   5.490842   4.633854   5.051503
    29  H    6.568520   4.630529   5.013449   4.349000   5.043996
    30  H    6.756251   5.602366   6.232970   5.141827   5.960894
    31  H    6.692060   5.571280   6.117565   5.458627   5.261078
    32  O    5.890322   6.025687   6.954906   5.448993   6.376064
    33  H    5.360413   5.884675   6.863027   5.462167   5.894854
    34  H    5.582520   5.894953   6.859807   5.226227   6.474118
    35  O    6.279293   3.306000   3.248671   3.078658   4.475533
    36  H    6.409949   3.131880   2.790143   2.956614   4.595018
    37  H    5.959537   3.209692   3.384292   2.683859   4.647361
    38  O    4.292033   5.648555   6.676454   5.534922   5.024755
    39  H    4.381515   6.246686   7.308398   6.123683   5.616559
    40  H    3.503139   4.778918   5.834864   4.625748   4.404067
    41  O    5.605286   7.505600   8.423974   6.936763   8.420883
    42  H    4.755218   6.549978   7.460358   6.000837   7.518602
    43  H    5.945696   7.630442   8.574015   6.973262   8.589833
                   11         12         13         14         15
    11  H    0.000000
    12  C    2.305993   0.000000
    13  H    2.788396   1.086464   0.000000
    14  H    2.660901   3.405688   4.400096   0.000000
    15  H    4.403012   2.243398   2.695342   4.384958   0.000000
    16  N    5.086788   4.112977   5.034354   3.918817   3.575327
    17  N    4.366767   3.992231   4.970949   3.176761   4.152155
    18  C    5.684110   4.445260   5.163264   5.057202   3.802696
    19  C    4.628971   4.698417   5.758909   2.676006   4.916845
    20  O    5.507078   5.394192   6.473449   3.207922   5.214928
    21  O    6.596782   5.037469   5.635506   5.995996   3.892992
    22  O    4.270196   4.973560   5.989088   2.500529   5.708510
    23  O    5.561593   4.635903   5.252891   5.352371   4.558318
    24  C    6.531260   5.441802   5.834058   6.672901   5.279194
    25  H    6.708439   5.930462   6.280620   7.035009   6.108634
    26  H    7.491267   6.287107   6.707394   7.389835   5.799562
    27  H    6.367262   5.025296   5.243070   6.814392   4.812499
    28  C    5.228294   6.182015   7.203380   3.184379   6.889895
    29  H    5.285029   6.191701   7.228613   2.918961   6.784363
    30  H    6.206406   6.975897   8.014308   4.139121   7.469845
    31  H    5.210022   6.524240   7.477452   3.568595   7.530430
    32  O    6.753087   6.980055   7.937435   5.254925   7.212641
    33  H    6.182479   6.506095   7.405464   5.034838   6.967918
    34  H    6.975664   6.881709   7.822941   5.500556   6.848369
    35  O    4.997652   5.380809   6.388706   2.415143   5.566908
    36  H    5.207945   5.326894   6.279164   2.826310   5.290131
    37  H    5.283572   5.411709   6.466733   2.649024   5.354022
    38  O    5.159904   5.543373   6.277759   4.856410   6.398084
    39  H    5.767898   5.940338   6.575865   5.686208   6.696336
    40  H    4.720544   4.806454   5.600335   4.261643   5.477491
    41  O    9.225240   7.714731   8.167244   8.703454   6.563646
    42  H    8.356679   6.797267   7.277575   7.820358   5.605157
    43  H    9.375789   8.034988   8.586095   8.649012   6.966729
                   16         17         18         19         20
    16  N    0.000000
    17  N    1.286945   0.000000
    18  C    1.390086   2.240387   0.000000
    19  C    2.279632   1.427119   3.510532   0.000000
    20  O    2.654733   2.336615   3.981643   1.204856   0.000000
    21  O    2.274100   3.369941   1.215115   4.525624   4.780765
    22  O    3.401650   2.244208   4.471265   1.318901   2.243289
    23  O    2.311069   2.486006   1.339315   3.861599   4.620819
    24  C    3.610234   3.909648   2.351259   5.284117   6.014781
    25  H    4.335435   4.349687   3.233735   5.664816   6.514444
    26  H    3.928428   4.443018   2.595203   5.739065   6.303850
    27  H    3.982230   4.377419   2.721983   5.800469   6.534731
    28  C    4.596827   3.561229   5.743186   2.328917   2.666380
    29  H    4.871887   3.996993   6.148174   2.642920   2.627037
    30  H    4.752480   3.830630   5.837377   2.611465   2.707834
    31  H    5.408517   4.253581   6.458967   3.211999   3.725759
    32  O    3.804506   3.097232   4.357321   2.803226   3.212400
    33  H    3.730717   2.842492   4.144417   2.840575   3.575274
    34  H    3.306852   2.907538   3.713343   2.893096   3.179173
    35  O    4.766426   4.347755   6.135748   3.249106   2.849618
    36  H    5.037301   4.819533   6.374591   3.892465   3.421440
    37  H    4.071291   3.758184   5.460076   2.614966   1.976633
    38  O    3.803239   2.808632   3.886299   3.411846   4.492513
    39  H    4.142610   3.370915   3.895130   4.184361   5.213425
    40  H    2.845294   1.884610   2.998822   2.733049   3.817257
    41  O    4.832748   5.755484   3.672418   6.841146   7.017341
    42  H    3.974775   4.967480   2.816930   6.080655   6.266985
    43  H    4.752198   5.597458   3.731918   6.562190   6.682112
                   21         22         23         24         25
    21  O    0.000000
    22  O    5.593082   0.000000
    23  O    2.243863   4.491012   0.000000
    24  C    2.647640   5.868081   1.425038   0.000000
    25  H    3.701673   6.033084   2.026025   1.094217   0.000000
    26  H    2.502911   6.458967   2.082443   1.096084   1.804448
    27  H    2.797894   6.399136   2.075849   1.099710   1.795483
    28  C    6.812835   1.426495   5.821479   7.192659   7.321776
    29  H    7.135005   2.078897   6.418796   7.828960   8.070107
    30  H    6.855831   2.060407   5.929561   7.263838   7.380715
    31  H    7.589998   2.021793   6.352507   7.665279   7.659518
    32  O    5.324391   2.878019   4.190121   5.302182   5.329137
    33  H    5.216038   2.697330   3.716863   4.794545   4.691583
    34  H    4.563610   3.349407   3.672918   4.731431   4.885003
    35  O    6.883445   3.415524   6.773196   8.170925   8.666598
    36  H    6.995558   4.226770   7.132921   8.489619   9.071700
    37  H    6.175490   3.075219   6.167574   7.568872   8.101703
    38  O    5.041743   3.095712   3.000980   3.911322   3.583036
    39  H    4.946016   4.021654   2.786466   3.373757   2.848395
    40  H    4.189426   2.728611   2.281828   3.429531   3.371970
    41  O    2.841984   7.839165   3.958652   3.397473   4.166517
    42  H    1.887569   7.115607   3.293986   2.949224   3.882947
    43  H    3.096151   7.544678   3.996477   3.629087   4.291087
                   26         27         28         29         30
    26  H    0.000000
    27  H    1.788201   0.000000
    28  C    7.711761   7.782937   0.000000
    29  H    8.332670   8.335697   1.097001   0.000000
    30  H    7.652454   7.973167   1.097580   1.807283   0.000000
    31  H    8.271481   8.244751   1.093740   1.798689   1.800900
    32  O    5.509338   6.217248   3.243685   4.117649   2.632651
    33  H    5.156332   5.686220   3.334944   4.306007   2.992978
    34  H    4.797957   5.670064   3.910383   4.662316   3.347052
    35  O    8.652781   8.434916   3.271592   2.348188   3.923106
    36  H    8.950124   8.655584   4.217907   3.312298   4.848056
    37  H    7.964104   7.902472   3.043074   2.278594   3.493395
    38  O    4.603680   4.645073   4.152695   5.093167   4.260159
    39  H    4.039690   4.173890   5.088350   6.028095   5.118244
    40  H    4.129338   4.101455   3.982315   4.791094   4.156786
    41  O    2.375023   3.729125   8.952136   9.424480   8.736681
    42  H    2.112304   3.207785   8.268035   8.686372   8.133558
    43  H    2.598385   4.198818   8.562147   9.070394   8.241307
                   31         32         33         34         35
    31  H    0.000000
    32  O    3.791084   0.000000
    33  H    3.695447   0.976690   0.000000
    34  H    4.584147   0.964593   1.518862   0.000000
    35  O    3.977728   5.676232   5.868381   5.894952   0.000000
    36  H    4.922027   6.445405   6.637811   6.565947   0.964404
    37  H    3.946941   4.979861   5.263095   5.106546   0.969262
    38  O    4.255114   2.809681   1.855698   3.054544   6.391841
    39  H    5.202407   3.310103   2.402747   3.372893   7.256436
    40  H    4.293177   2.778768   1.994976   2.816301   5.784801
    41  O    9.702621   6.611827   6.582818   5.707815   9.467272
    42  H    9.036111   6.179534   6.129509   5.296899   8.610676
    43  H    9.323825   6.025901   6.087462   5.098845   9.279501
                   36         37         38         39         40
    36  H    0.000000
    37  H    1.529228   0.000000
    38  O    7.081275   5.948262   0.000000
    39  H    7.905770   6.770643   0.965034   0.000000
    40  H    6.397522   5.296043   0.979707   1.531847   0.000000
    41  O    9.635405   8.661536   6.554798   6.108052   5.980569
    42  H    8.747933   7.832236   6.051613   5.704912   5.378152
    43  H    9.515584   8.429198   6.285927   5.860835   5.769238
                   41         42         43
    41  O    0.000000
    42  H    0.971561   0.000000
    43  H    0.964721   1.511301   0.000000
 Stoichiometry    C11H22N2O8
 Framework group  C1[X(C11H22N2O8)]
 Deg. of freedom   123
 Full point group                 C1      NOp   1
 Largest Abelian subgroup         C1      NOp   1
 Largest concise Abelian subgroup C1      NOp   1
                         Standard orientation:                         
 ---------------------------------------------------------------------
 Center     Atomic      Atomic             Coordinates (Angstroms)
 Number     Number       Type             X           Y           Z
 ---------------------------------------------------------------------
      1          6           0       -0.830191    0.996961    1.056956
      2          6           0       -2.106487    1.419263    0.269464
      3          6           0       -0.454284    2.870095   -0.409408
      4          6           0        0.149579    2.108595    0.742576
      5          1           0       -0.841734    0.430830    1.985650
      6          1           0        1.197959    2.118235    1.031993
      7          6           0       -1.593826    2.064553   -1.008632
      8          1           0       -2.367137    2.699039   -1.463825
      9          1           0       -1.239912    1.323441   -1.737468
     10          6           0       -1.913873    2.344616    1.363715
     11          1           0       -2.417944    2.303551    2.327252
     12          6           0       -0.816429    3.277034    0.983717
     13          1           0       -0.558899    4.204568    1.487467
     14          1           0       -2.934775    0.710555    0.259489
     15          1           0        0.194438    3.509805   -1.005454
     16          7           0        0.728911   -0.024347   -0.921379
     17          7           0       -0.012621   -0.510607    0.011310
     18          6           0        2.037619    0.219144   -0.520961
     19          6           0       -1.181951   -1.178911   -0.460606
     20          8           0       -1.426509   -1.408842   -1.617758
     21          8           0        2.858514    0.685044   -1.286189
     22          8           0       -1.920420   -1.554396    0.565637
     23          8           0        2.331054   -0.118009    0.741572
     24          6           0        3.651618    0.177373    1.188332
     25          1           0        3.760858   -0.303977    2.164897
     26          1           0        4.395060   -0.203329    0.478572
     27          1           0        3.778114    1.264867    1.291863
     28          6           0       -2.972187   -2.473561    0.276136
     29          1           0       -3.685379   -2.025507   -0.426727
     30          1           0       -2.534819   -3.389669   -0.141162
     31          1           0       -3.460077   -2.682408    1.232490
     32          8           0        0.067946   -3.601460    0.192917
     33          1           0        0.201192   -3.148664    1.047987
     34          1           0        0.804491   -3.278784   -0.339832
     35          8           0       -3.961471   -0.115489   -1.764483
     36          1           0       -4.058159    0.657191   -2.333422
     37          1           0       -3.143854   -0.539259   -2.066791
     38          8           0        0.563733   -1.907333    2.378880
     39          1           0        1.480940   -1.932535    2.677855
     40          1           0        0.577328   -1.277477    1.628599
     41          8           0        5.502875   -0.301272   -1.619972
     42          1           0        4.643307    0.150521   -1.589033
     43          1           0        5.251666   -1.223238   -1.752485
 ---------------------------------------------------------------------
 Rotational constants (GHZ):      0.3607337      0.2357262      0.1873094
 Standard basis: def2SVP (5D, 7F)
 There are   425 symmetry adapted cartesian basis functions of A   symmetry.
 There are   404 symmetry adapted basis functions of A   symmetry.
   404 basis functions,   679 primitive gaussians,   425 cartesian basis functions
    83 alpha electrons       83 beta electrons
       nuclear repulsion energy      2009.6303808649 Hartrees.
 NAtoms=   43 NActive=   43 NUniq=   43 SFac= 1.00D+00 NAtFMM=   60 NAOKFM=F Big=F
 Integral buffers will be    131072 words long.
 Raffenetti 2 integral format.
 Two-electron integral symmetry is turned on.
 Nuclear repulsion after empirical dispersion term =     2009.6268824741 Hartrees.
 Force inversion solution in PCM.
 ------------------------------------------------------------------------------
 Polarizable Continuum Model (PCM)
 =================================
 Model                : C-PCM.
 Atomic radii         : UFF (Universal Force Field).
 Polarization charges : Total charges.
 Charge compensation  : None.
 Solution method      : Matrix inversion.
 Cavity type          : Scaled VdW (van der Waals Surface) (Alpha=1.100).
 Cavity algorithm     : GePol (No added spheres)
                        Default sphere list used, NSphG=   43.
                        Lebedev-Laikov grids with approx.  5.0 points / Ang**2.
                        Smoothing algorithm: Karplus/York (Gamma=1.0000).
                        Polarization charges: spherical gaussians, with
                                              point-specific exponents (IZeta= 3).
                        Self-potential: point-specific (ISelfS= 7).
                        Self-field    : sphere-specific E.n sum rule (ISelfD= 2).
 1st derivatives      : Analytical E(r).r(x)/FMM algorithm (CHGder, D1EAlg=3).
                        Cavity 1st derivative terms included.
 2nd derivatives      : Analytical E(r).r(xy)/FMM algorithm (CHGder, D2EAlg=3).
                        Cavity 2nd derivative terms included.
 Solvent              : Water, Eps=  78.355300 Eps(inf)=   1.777849
 ------------------------------------------------------------------------------
 One-electron integrals computed using PRISM.
   1 Symmetry operations used in ECPInt.
 ECPInt:  NShTT=   18528 NPrTT=   66042 LenC2=   17006 LenP2D=   42352.
 LDataN:  DoStor=T MaxTD1= 4 Len=   56
 NBasis=   404 RedAO= T EigKep=  3.56D-04  NBF=   404
 NBsUse=   404 1.00D-06 EigRej= -1.00D+00 NBFU=   404
 ExpMin= 1.22D-01 ExpMax= 2.27D+03 ExpMxC= 3.41D+02 IAcc=1 IRadAn=         1 AccDes= 0.00D+00
 Harris functional with IExCor= 1009 and IRadAn=       1 diagonalized for initial guess.
 HarFok:  IExCor= 1009 AccDes= 0.00D+00 IRadAn=         1 IDoV= 1 UseB2=F ITyADJ=14
 ICtDFT=  3500011 ScaDFX=  1.000000  1.000000  1.000000  1.000000
 FoFCou: FMM=F IPFlag=           0 FMFlag=      100000 FMFlg1=           0
         NFxFlg=           0 DoJE=T BraDBF=F KetDBF=T FulRan=T
         wScrn=  0.000000 ICntrl=     500 IOpCl=  0 I1Cent=   200000004 NGrid=           0
         NMat0=    1 NMatS0=      1 NMatT0=    0 NMatD0=    1 NMtDS0=    0 NMtDT0=    0
 Petite list used in FoFCou.
 Requested convergence on RMS density matrix=1.00D-08 within 128 cycles.
 Requested convergence on MAX density matrix=1.00D-06.
 Requested convergence on             energy=1.00D-06.
 No special actions if energy rises.
 Inv3:  Mode=2 IEnd=    17228450.
 Iteration    1 A*A^-1 deviation from unit magnitude is 7.33D-15 for   2935.
 Iteration    1 A*A^-1 deviation from orthogonality  is 6.32D-15 for   2921    310.
 Iteration    1 A^-1*A deviation from unit magnitude is 7.11D-15 for   2935.
 Iteration    1 A^-1*A deviation from orthogonality  is 4.02D-15 for   2913    504.
 Error on total polarization charges =  0.00744
 SCF Done:  E(RM062X) =  -1142.23619385     A.U. after   16 cycles
            NFock= 16  Conv=0.71D-08     -V/T= 2.0088
 DoSCS=F DFT=T ScalE2(SS,OS)=  1.000000  1.000000
 Range of M.O.s used for correlation:     1   404
 NBasis=   404 NAE=    83 NBE=    83 NFC=     0 NFV=     0
 NROrb=    404 NOA=    83 NOB=    83 NVA=   321 NVB=   321
 PrsmSu:  requested number of processors reduced to:   2 ShMem   1 Linda.
   1 Symmetry operations used in ECPInt.
 ECPInt:  NShTT=   18528 NPrTT=   66042 LenC2=   17006 LenP2D=   42352.
 LDataN:  DoStor=T MaxTD1= 5 Len=  102
 Number of processors reduced to   1 by ecpmxn.
 Symmetrizing basis deriv contribution to polar:
 IMax=3 JMax=2 DiffMx= 0.00D+00
 G2DrvN: will do    15 centers at a time, making    3 passes.
 Calling FoFCou, ICntrl=  3107 FMM=F I1Cent=   0 AccDes= 0.00D+00.
 Calling FoFCou, ICntrl=  3107 FMM=F I1Cent=   0 AccDes= 0.00D+00.
 Calling FoFCou, ICntrl=  3107 FMM=F I1Cent=   0 AccDes= 0.00D+00.
 NEqPCM:  Using equilibrium solvation (IEInf=0, Eps=  78.3553, EpsInf=   1.7778)
 G2PCM: DoFxE=T DoFxN=T DoGrad=T DoDP/DQ/DG/TGxP=FFFF NFrqRd=   0 IEInf=0 SqF1=F DoCFld=F IF1Alg=4.
 CoulSu:  requested number of processors reduced to:   3 ShMem   1 Linda.
 CoulSu:  requested number of processors reduced to:   3 ShMem   1 Linda.
 CoulSu:  requested number of processors reduced to:   3 ShMem   1 Linda.
 CoulSu:  requested number of processors reduced to:   3 ShMem   1 Linda.
 End of G2Drv F.D. properties file   721 does not exist.
 End of G2Drv F.D. properties file   722 does not exist.
 End of G2Drv F.D. properties file   788 does not exist.
          IDoAtm=1111111111111111111111111111111111111111111
 NEqPCM:  Using equilibrium solvation (IEInf=0, Eps=  78.3553, EpsInf=   1.7778)
          Differentiating once with respect to electric field.
                with respect to dipole field.
          Differentiating once with respect to nuclear coordinates.
          There are   132 degrees of freedom in the 1st order CPHF.  IDoFFX=6 NUNeed=     3.
    132 vectors produced by pass  0 Test12= 2.66D-14 1.00D-09 XBig12= 1.54D+02 8.36D+00.
 AX will form    28 AO Fock derivatives at one time.
    132 vectors produced by pass  1 Test12= 2.66D-14 1.00D-09 XBig12= 1.86D+01 6.45D-01.
    129 vectors produced by pass  2 Test12= 2.66D-14 1.00D-09 XBig12= 3.36D-01 6.16D-02.
    129 vectors produced by pass  3 Test12= 2.66D-14 1.00D-09 XBig12= 3.26D-03 5.01D-03.
    129 vectors produced by pass  4 Test12= 2.66D-14 1.00D-09 XBig12= 1.82D-05 3.25D-04.
    129 vectors produced by pass  5 Test12= 2.66D-14 1.00D-09 XBig12= 6.19D-08 1.77D-05.
     76 vectors produced by pass  6 Test12= 2.66D-14 1.00D-09 XBig12= 1.78D-10 1.05D-06.
      5 vectors produced by pass  7 Test12= 2.66D-14 1.00D-09 XBig12= 4.81D-13 5.06D-08.
      3 vectors produced by pass  8 Test12= 2.66D-14 1.00D-09 XBig12= 1.40D-15 2.23D-09.
 InvSVY:  IOpt=1 It=  1 EMax= 1.42D-14
 Solved reduced A of dimension   864 with   132 vectors.
 Isotropic polarizability for W=    0.000000      245.69 Bohr**3.
 End of Minotr F.D. properties file   721 does not exist.
 End of Minotr F.D. properties file   722 does not exist.
 End of Minotr F.D. properties file   788 does not exist.

 **********************************************************************

            Population analysis using the SCF density.

 **********************************************************************

 Orbital symmetries:
       Occupied  (A) (A) (A) (A) (A) (A) (A) (A) (A) (A) (A) (A)
                 (A) (A) (A) (A) (A) (A) (A) (A) (A) (A) (A) (A)
                 (A) (A) (A) (A) (A) (A) (A) (A) (A) (A) (A) (A)
                 (A) (A) (A) (A) (A) (A) (A) (A) (A) (A) (A) (A)
                 (A) (A) (A) (A) (A) (A) (A) (A) (A) (A) (A) (A)
                 (A) (A) (A) (A) (A) (A) (A) (A) (A) (A) (A) (A)
                 (A) (A) (A) (A) (A) (A) (A) (A) (A) (A) (A)
       Virtual   (A) (A) (A) (A) (A) (A) (A) (A) (A) (A) (A) (A)
                 (A) (A) (A) (A) (A) (A) (A) (A) (A) (A) (A) (A)
                 (A) (A) (A) (A) (A) (A) (A) (A) (A) (A) (A) (A)
                 (A) (A) (A) (A) (A) (A) (A) (A) (A) (A) (A) (A)
                 (A) (A) (A) (A) (A) (A) (A) (A) (A) (A) (A) (A)
                 (A) (A) (A) (A) (A) (A) (A) (A) (A) (A) (A) (A)
                 (A) (A) (A) (A) (A) (A) (A) (A) (A) (A) (A) (A)
                 (A) (A) (A) (A) (A) (A) (A) (A) (A) (A) (A) (A)
                 (A) (A) (A) (A) (A) (A) (A) (A) (A) (A) (A) (A)
                 (A) (A) (A) (A) (A) (A) (A) (A) (A) (A) (A) (A)
                 (A) (A) (A) (A) (A) (A) (A) (A) (A) (A) (A) (A)
                 (A) (A) (A) (A) (A) (A) (A) (A) (A) (A) (A) (A)
                 (A) (A) (A) (A) (A) (A) (A) (A) (A) (A) (A) (A)
                 (A) (A) (A) (A) (A) (A) (A) (A) (A) (A) (A) (A)
                 (A) (A) (A) (A) (A) (A) (A) (A) (A) (A) (A) (A)
                 (A) (A) (A) (A) (A) (A) (A) (A) (A) (A) (A) (A)
                 (A) (A) (A) (A) (A) (A) (A) (A) (A) (A) (A) (A)
                 (A) (A) (A) (A) (A) (A) (A) (A) (A) (A) (A) (A)
                 (A) (A) (A) (A) (A) (A) (A) (A) (A) (A) (A) (A)
                 (A) (A) (A) (A) (A) (A) (A) (A) (A) (A) (A) (A)
                 (A) (A) (A) (A) (A) (A) (A) (A) (A) (A) (A) (A)
                 (A) (A) (A) (A) (A) (A) (A) (A) (A) (A) (A) (A)
                 (A) (A) (A) (A) (A) (A) (A) (A) (A) (A) (A) (A)
                 (A) (A) (A) (A) (A) (A) (A) (A) (A) (A) (A) (A)
                 (A) (A) (A) (A) (A) (A) (A) (A) (A) (A) (A) (A)
                 (A) (A) (A) (A) (A) (A) (A) (A) (A) (A) (A) (A)
                 (A) (A) (A) (A) (A) (A) (A) (A) (A)
 The electronic state is 1-A.
 Alpha  occ. eigenvalues --  -19.68735 -19.68431 -19.63953 -19.62648 -19.62226
 Alpha  occ. eigenvalues --  -19.61909 -19.60871 -19.60728 -14.83843 -14.78960
 Alpha  occ. eigenvalues --  -10.72216 -10.70835 -10.62139 -10.61622 -10.60783
 Alpha  occ. eigenvalues --  -10.60620 -10.59948 -10.59550 -10.58965 -10.58481
 Alpha  occ. eigenvalues --  -10.56891  -1.24975  -1.23634  -1.15053  -1.13235
 Alpha  occ. eigenvalues --   -1.11901  -1.10025  -1.09972  -1.08822  -1.08388
 Alpha  occ. eigenvalues --   -1.08257  -0.90919  -0.89328  -0.84408  -0.82321
 Alpha  occ. eigenvalues --   -0.78864  -0.77803  -0.67736  -0.67336  -0.65251
 Alpha  occ. eigenvalues --   -0.64953  -0.64500  -0.63415  -0.62978  -0.61256
 Alpha  occ. eigenvalues --   -0.60442  -0.59152  -0.58311  -0.57953  -0.57538
 Alpha  occ. eigenvalues --   -0.56731  -0.56259  -0.54453  -0.54147  -0.53126
 Alpha  occ. eigenvalues --   -0.51965  -0.50731  -0.49850  -0.48763  -0.48304
 Alpha  occ. eigenvalues --   -0.48120  -0.46492  -0.46037  -0.45690  -0.45154
 Alpha  occ. eigenvalues --   -0.45130  -0.43972  -0.43492  -0.43484  -0.43230
 Alpha  occ. eigenvalues --   -0.41191  -0.39011  -0.38771  -0.38541  -0.38233
 Alpha  occ. eigenvalues --   -0.38182  -0.37810  -0.37510  -0.37087  -0.36735
 Alpha  occ. eigenvalues --   -0.36571  -0.32013  -0.25800
 Alpha virt. eigenvalues --   -0.08025   0.05186   0.07160   0.07503   0.09306
 Alpha virt. eigenvalues --    0.09930   0.10788   0.11789   0.12730   0.13050
 Alpha virt. eigenvalues --    0.14438   0.14943   0.15452   0.16118   0.16474
 Alpha virt. eigenvalues --    0.16638   0.16890   0.17393   0.17773   0.18729
 Alpha virt. eigenvalues --    0.18933   0.20011   0.20918   0.21691   0.21916
 Alpha virt. eigenvalues --    0.22520   0.22861   0.23197   0.23855   0.24621
 Alpha virt. eigenvalues --    0.26268   0.26813   0.27618   0.28184   0.29829
 Alpha virt. eigenvalues --    0.31677   0.32464   0.33791   0.35857   0.36922
 Alpha virt. eigenvalues --    0.37986   0.40158   0.41293   0.44325   0.45250
 Alpha virt. eigenvalues --    0.47083   0.48530   0.49691   0.50214   0.50414
 Alpha virt. eigenvalues --    0.51073   0.51220   0.52039   0.52149   0.54007
 Alpha virt. eigenvalues --    0.55117   0.55539   0.57047   0.57916   0.59258
 Alpha virt. eigenvalues --    0.60554   0.60768   0.61174   0.61633   0.62383
 Alpha virt. eigenvalues --    0.63189   0.64742   0.65101   0.65709   0.66908
 Alpha virt. eigenvalues --    0.67215   0.67612   0.68468   0.68928   0.69200
 Alpha virt. eigenvalues --    0.69507   0.70077   0.70431   0.70670   0.71124
 Alpha virt. eigenvalues --    0.71406   0.71640   0.72650   0.72820   0.73228
 Alpha virt. eigenvalues --    0.73717   0.73952   0.74676   0.74716   0.75243
 Alpha virt. eigenvalues --    0.76075   0.76282   0.78099   0.78631   0.79097
 Alpha virt. eigenvalues --    0.80469   0.81140   0.82735   0.83187   0.84381
 Alpha virt. eigenvalues --    0.86429   0.89058   0.91786   0.93214   0.94341
 Alpha virt. eigenvalues --    0.96209   0.97291   0.97830   0.98168   0.98731
 Alpha virt. eigenvalues --    1.01287   1.02298   1.03953   1.05241   1.06380
 Alpha virt. eigenvalues --    1.07227   1.07562   1.08755   1.09176   1.10287
 Alpha virt. eigenvalues --    1.10665   1.11921   1.12528   1.13373   1.14913
 Alpha virt. eigenvalues --    1.15093   1.16069   1.17458   1.17702   1.19458
 Alpha virt. eigenvalues --    1.20995   1.21763   1.23049   1.24197   1.27015
 Alpha virt. eigenvalues --    1.27652   1.28049   1.29731   1.30835   1.31082
 Alpha virt. eigenvalues --    1.33956   1.35418   1.36292   1.36768   1.37576
 Alpha virt. eigenvalues --    1.39099   1.40703   1.41593   1.42149   1.44615
 Alpha virt. eigenvalues --    1.45495   1.45855   1.46610   1.48341   1.49616
 Alpha virt. eigenvalues --    1.50307   1.51064   1.53010   1.53207   1.54412
 Alpha virt. eigenvalues --    1.56227   1.56686   1.57473   1.58481   1.59047
 Alpha virt. eigenvalues --    1.60183   1.60911   1.61326   1.62339   1.62956
 Alpha virt. eigenvalues --    1.63681   1.64435   1.65442   1.65688   1.67482
 Alpha virt. eigenvalues --    1.68617   1.69460   1.70235   1.70847   1.72342
 Alpha virt. eigenvalues --    1.72833   1.74717   1.75714   1.77844   1.78350
 Alpha virt. eigenvalues --    1.79051   1.80314   1.81568   1.82365   1.83038
 Alpha virt. eigenvalues --    1.84308   1.85279   1.85804   1.86564   1.87376
 Alpha virt. eigenvalues --    1.88085   1.88938   1.89359   1.90657   1.91596
 Alpha virt. eigenvalues --    1.92670   1.93431   1.93868   1.95444   1.95931
 Alpha virt. eigenvalues --    1.96807   1.98534   1.99144   2.00276   2.00565
 Alpha virt. eigenvalues --    2.02199   2.02942   2.03711   2.04618   2.06425
 Alpha virt. eigenvalues --    2.08076   2.09464   2.10560   2.10730   2.12555
 Alpha virt. eigenvalues --    2.13277   2.14637   2.15372   2.17793   2.19271
 Alpha virt. eigenvalues --    2.19846   2.20156   2.23261   2.25019   2.26982
 Alpha virt. eigenvalues --    2.28048   2.29058   2.30138   2.30362   2.30520
 Alpha virt. eigenvalues --    2.33301   2.34504   2.35235   2.36110   2.37367
 Alpha virt. eigenvalues --    2.39228   2.40313   2.41400   2.43004   2.43996
 Alpha virt. eigenvalues --    2.45339   2.45840   2.46529   2.48266   2.50020
 Alpha virt. eigenvalues --    2.52165   2.54383   2.55862   2.56438   2.57416
 Alpha virt. eigenvalues --    2.60378   2.63539   2.67164   2.68737   2.69643
 Alpha virt. eigenvalues --    2.70407   2.71588   2.71797   2.73022   2.74329
 Alpha virt. eigenvalues --    2.75066   2.75616   2.79127   2.82392   2.84510
 Alpha virt. eigenvalues --    2.85599   2.87589   2.90262   2.90922   2.91790
 Alpha virt. eigenvalues --    2.93159   2.94644   2.95728   2.97050   2.98258
 Alpha virt. eigenvalues --    2.99312   3.00806   3.01320   3.02382   3.02877
 Alpha virt. eigenvalues --    3.03505   3.04506   3.04785   3.06295   3.06435
 Alpha virt. eigenvalues --    3.06891   3.07346   3.07808   3.09022   3.11496
 Alpha virt. eigenvalues --    3.18510   3.21039   3.21444   3.24797   3.25177
 Alpha virt. eigenvalues --    3.25910   3.26721   3.28125   3.30008   3.31279
 Alpha virt. eigenvalues --    3.33565   3.39312   3.49236   3.51665   3.56114
 Alpha virt. eigenvalues --    3.58208   3.58290   3.63615   3.69180   3.71980
 Alpha virt. eigenvalues --    3.76970   3.80782   3.88312   3.88544   3.89598
 Alpha virt. eigenvalues --    3.93184
          Condensed to atoms (all electrons):
               1          2          3          4          5          6
     1  C    5.708783   0.098974   0.031541   0.112180   0.371877  -0.033952
     2  C    0.098974   5.585465  -0.072004   0.007690  -0.040289   0.005993
     3  C    0.031541  -0.072004   5.619526   0.041442   0.008838  -0.032359
     4  C    0.112180   0.007690   0.041442   5.558518  -0.024263   0.414854
     5  H    0.371877  -0.040289   0.008838  -0.024263   0.566107  -0.003530
     6  H   -0.033952   0.005993  -0.032359   0.414854  -0.003530   0.559124
     7  C   -0.100711   0.287473   0.167606  -0.030492   0.004519   0.003412
     8  H    0.009115  -0.022719  -0.011833   0.007382  -0.000191  -0.000155
     9  H   -0.002352  -0.026506  -0.010215  -0.013621  -0.000099   0.000356
    10  C    0.074692   0.027147   0.056758  -0.096066   0.037013   0.001050
    11  H    0.018561  -0.056448   0.008064  -0.006524  -0.003961  -0.000040
    12  C   -0.143054   0.064753  -0.031761   0.142676  -0.015239   0.000665
    13  H    0.005218   0.005462  -0.038465  -0.013958   0.000187  -0.003859
    14  H   -0.022558   0.367441   0.007565   0.004997  -0.002651  -0.000040
    15  H    0.004508   0.003772   0.409344  -0.016261  -0.000109  -0.003932
    16  N   -0.074268  -0.013939  -0.003731   0.032386   0.002585  -0.005073
    17  N    0.063541  -0.013967  -0.011260  -0.031908  -0.015729  -0.001232
    18  C   -0.003097   0.000874   0.002641   0.009305  -0.000197   0.008469
    19  C   -0.044346   0.008057  -0.002133   0.004750  -0.001463  -0.000101
    20  O   -0.002395  -0.001319  -0.000009   0.000200   0.000062   0.000002
    21  O    0.000562   0.000014   0.000221  -0.004302  -0.000010  -0.000869
    22  O   -0.006373  -0.008574   0.000032   0.001300   0.004752   0.000006
    23  O    0.001372   0.000162  -0.000138  -0.005009  -0.000324   0.007717
    24  C    0.000075   0.000001  -0.000028  -0.001129   0.000013   0.000623
    25  H    0.000047   0.000000  -0.000004  -0.000038   0.000004  -0.000156
    26  H    0.000000   0.000001   0.000003   0.000054   0.000001   0.000031
    27  H    0.000020  -0.000013   0.000074   0.000177  -0.000009   0.000322
    28  C    0.000024  -0.000254   0.000006  -0.000023   0.000150   0.000000
    29  H    0.000204  -0.000639  -0.000032   0.000007   0.000027   0.000000
    30  H   -0.000063  -0.000044   0.000000   0.000008   0.000003   0.000000
    31  H   -0.000020   0.000106   0.000000  -0.000006  -0.000030   0.000000
    32  O    0.000031  -0.000015   0.000000  -0.000005  -0.000013   0.000000
    33  H   -0.000066  -0.000033  -0.000001   0.000025  -0.000306  -0.000001
    34  H    0.000278  -0.000003   0.000001  -0.000014  -0.000063   0.000000
    35  O    0.000903  -0.014624   0.000788  -0.000065  -0.000011   0.000000
    36  H    0.000012   0.000616   0.000021   0.000002   0.000001   0.000000
    37  H   -0.000908   0.002933  -0.000162   0.000090   0.000017   0.000000
    38  O   -0.003598   0.000151  -0.000003  -0.000007   0.015605   0.000022
    39  H    0.000312  -0.000003   0.000003   0.000002  -0.000870  -0.000005
    40  H   -0.001686  -0.000617   0.000006  -0.001120  -0.001508   0.000099
    41  O    0.000000   0.000000   0.000000   0.000000   0.000000  -0.000001
    42  H   -0.000004   0.000000   0.000000   0.000011   0.000000   0.000001
    43  H    0.000000   0.000000   0.000000   0.000001   0.000000   0.000000
               7          8          9         10         11         12
     1  C   -0.100711   0.009115  -0.002352   0.074692   0.018561  -0.143054
     2  C    0.287473  -0.022719  -0.026506   0.027147  -0.056448   0.064753
     3  C    0.167606  -0.011833  -0.010215   0.056758   0.008064  -0.031761
     4  C   -0.030492   0.007382  -0.013621  -0.096066  -0.006524   0.142676
     5  H    0.004519  -0.000191  -0.000099   0.037013  -0.003961  -0.015239
     6  H    0.003412  -0.000155   0.000356   0.001050  -0.000040   0.000665
     7  C    4.791856   0.381329   0.370443  -0.067023   0.004819  -0.013640
     8  H    0.381329   0.595391  -0.019302  -0.003757   0.000068  -0.009287
     9  H    0.370443  -0.019302   0.595885   0.010170  -0.000172   0.007857
    10  C   -0.067023  -0.003757   0.010170   5.352384   0.439840   0.111773
    11  H    0.004819   0.000068  -0.000172   0.439840   0.550152  -0.044696
    12  C   -0.013640  -0.009287   0.007857   0.111773  -0.044696   5.507190
    13  H    0.004162   0.000243  -0.000185  -0.052526  -0.004410   0.455881
    14  H   -0.016520  -0.002024  -0.001828  -0.021607  -0.004608   0.005271
    15  H   -0.018006  -0.002130  -0.001816   0.006336  -0.000062  -0.025003
    16  N   -0.000753   0.000033   0.025442   0.003017  -0.000018   0.002531
    17  N    0.004923   0.000089  -0.009979   0.000582   0.000004   0.007184
    18  C   -0.000563  -0.000009  -0.000475   0.000065   0.000001  -0.001375
    19  C    0.001450  -0.000193   0.000679  -0.001674  -0.000040   0.000629
    20  O   -0.002916   0.000063   0.008826   0.000048  -0.000001  -0.000005
    21  O   -0.000081   0.000000   0.000009  -0.000004   0.000000  -0.000074
    22  O   -0.000344  -0.000026   0.000499   0.001111   0.000042  -0.000122
    23  O    0.000000   0.000000   0.000073  -0.000078   0.000000   0.000504
    24  C    0.000002   0.000000  -0.000003  -0.000002   0.000000  -0.000021
    25  H    0.000000   0.000000   0.000000  -0.000001   0.000000   0.000001
    26  H    0.000000   0.000000  -0.000001   0.000000   0.000000   0.000004
    27  H   -0.000001   0.000000   0.000001   0.000014   0.000000  -0.000147
    28  C    0.000155   0.000002   0.000001   0.000015   0.000001   0.000001
    29  H   -0.000044   0.000004  -0.000128  -0.000104  -0.000003   0.000009
    30  H    0.000004   0.000000  -0.000010   0.000007   0.000000   0.000000
    31  H   -0.000005   0.000000  -0.000003  -0.000006   0.000000   0.000001
    32  O    0.000001   0.000000   0.000000   0.000000   0.000000   0.000000
    33  H    0.000004   0.000000   0.000001   0.000000   0.000000   0.000000
    34  H   -0.000005   0.000000   0.000004  -0.000001   0.000000   0.000000
    35  O    0.002925   0.000917   0.001806   0.001166  -0.000004  -0.000070
    36  H    0.001504   0.001041   0.000454  -0.000105   0.000000   0.000009
    37  H    0.001610  -0.000267   0.001585  -0.000135   0.000001   0.000010
    38  O   -0.000001   0.000000  -0.000004   0.000010  -0.000008  -0.000004
    39  H    0.000000   0.000000   0.000000  -0.000001   0.000000  -0.000001
    40  H    0.000024   0.000001   0.000120   0.000641  -0.000002   0.000029
    41  O    0.000000   0.000000   0.000000   0.000000   0.000000   0.000000
    42  H    0.000000   0.000000   0.000000   0.000000   0.000000   0.000000
    43  H    0.000000   0.000000   0.000000   0.000000   0.000000   0.000000
              13         14         15         16         17         18
     1  C    0.005218  -0.022558   0.004508  -0.074268   0.063541  -0.003097
     2  C    0.005462   0.367441   0.003772  -0.013939  -0.013967   0.000874
     3  C   -0.038465   0.007565   0.409344  -0.003731  -0.011260   0.002641
     4  C   -0.013958   0.004997  -0.016261   0.032386  -0.031908   0.009305
     5  H    0.000187  -0.002651  -0.000109   0.002585  -0.015729  -0.000197
     6  H   -0.003859  -0.000040  -0.003932  -0.005073  -0.001232   0.008469
     7  C    0.004162  -0.016520  -0.018006  -0.000753   0.004923  -0.000563
     8  H    0.000243  -0.002024  -0.002130   0.000033   0.000089  -0.000009
     9  H   -0.000185  -0.001828  -0.001816   0.025442  -0.009979  -0.000475
    10  C   -0.052526  -0.021607   0.006336   0.003017   0.000582   0.000065
    11  H   -0.004410  -0.004608  -0.000062  -0.000018   0.000004   0.000001
    12  C    0.455881   0.005271  -0.025003   0.002531   0.007184  -0.001375
    13  H    0.569843   0.000004  -0.003841   0.000035  -0.000033   0.000000
    14  H    0.000004   0.567630  -0.000213   0.000596  -0.003951  -0.000039
    15  H   -0.003841  -0.000213   0.568125  -0.001153   0.000136   0.000155
    16  N    0.000035   0.000596  -0.001153   6.890906   0.242579   0.350428
    17  N   -0.000033  -0.003951   0.000136   0.242579   7.048833  -0.058803
    18  C    0.000000  -0.000039   0.000155   0.350428  -0.058803   4.439021
    19  C   -0.000001   0.009977  -0.000002  -0.063415   0.199984   0.007178
    20  O    0.000000  -0.001427  -0.000002   0.002615  -0.084832  -0.000356
    21  O   -0.000001   0.000000   0.000484  -0.091424   0.003216   0.646310
    22  O    0.000000   0.008924   0.000000   0.003765  -0.094644  -0.000233
    23  O   -0.000001  -0.000001  -0.000007  -0.103412  -0.001647   0.322645
    24  C    0.000000   0.000000   0.000002   0.005091  -0.000236  -0.028376
    25  H    0.000000   0.000000   0.000000   0.000001  -0.000004   0.004451
    26  H    0.000000   0.000000  -0.000001   0.000170  -0.000046  -0.004521
    27  H    0.000000   0.000000   0.000005   0.000063  -0.000021   0.000338
    28  C    0.000000  -0.001646   0.000000  -0.000156   0.005159   0.000012
    29  H    0.000000   0.001134   0.000000   0.000023  -0.000119   0.000000
    30  H    0.000000   0.000304   0.000000  -0.000017   0.000372  -0.000003
    31  H    0.000000  -0.000355   0.000000   0.000003  -0.000041   0.000000
    32  O    0.000000   0.000002   0.000000  -0.000725  -0.009371   0.000215
    33  H    0.000000   0.000001   0.000000  -0.000071   0.002534   0.000161
    34  H    0.000000   0.000001   0.000000   0.001416   0.002482   0.000447
    35  O    0.000000   0.037479   0.000001   0.000001   0.000036   0.000000
    36  H    0.000000  -0.002409   0.000000  -0.000002  -0.000007   0.000000
    37  H    0.000000  -0.006045  -0.000002  -0.000264   0.000308   0.000007
    38  O    0.000000  -0.000012   0.000000   0.000290  -0.024775   0.000904
    39  H    0.000000   0.000001   0.000000  -0.000048   0.001511   0.000318
    40  H    0.000000   0.000071   0.000000  -0.004853   0.024529  -0.005462
    41  O    0.000000   0.000000   0.000000  -0.000004   0.000000   0.001254
    42  H    0.000000   0.000000  -0.000001   0.000358  -0.000025  -0.003869
    43  H    0.000000   0.000000   0.000000   0.000005   0.000000   0.001156
              19         20         21         22         23         24
     1  C   -0.044346  -0.002395   0.000562  -0.006373   0.001372   0.000075
     2  C    0.008057  -0.001319   0.000014  -0.008574   0.000162   0.000001
     3  C   -0.002133  -0.000009   0.000221   0.000032  -0.000138  -0.000028
     4  C    0.004750   0.000200  -0.004302   0.001300  -0.005009  -0.001129
     5  H   -0.001463   0.000062  -0.000010   0.004752  -0.000324   0.000013
     6  H   -0.000101   0.000002  -0.000869   0.000006   0.007717   0.000623
     7  C    0.001450  -0.002916  -0.000081  -0.000344   0.000000   0.000002
     8  H   -0.000193   0.000063   0.000000  -0.000026   0.000000   0.000000
     9  H    0.000679   0.008826   0.000009   0.000499   0.000073  -0.000003
    10  C   -0.001674   0.000048  -0.000004   0.001111  -0.000078  -0.000002
    11  H   -0.000040  -0.000001   0.000000   0.000042   0.000000   0.000000
    12  C    0.000629  -0.000005  -0.000074  -0.000122   0.000504  -0.000021
    13  H   -0.000001   0.000000  -0.000001   0.000000  -0.000001   0.000000
    14  H    0.009977  -0.001427   0.000000   0.008924  -0.000001   0.000000
    15  H   -0.000002  -0.000002   0.000484   0.000000  -0.000007   0.000002
    16  N   -0.063415   0.002615  -0.091424   0.003765  -0.103412   0.005091
    17  N    0.199984  -0.084832   0.003216  -0.094644  -0.001647  -0.000236
    18  C    0.007178  -0.000356   0.646310  -0.000233   0.322645  -0.028376
    19  C    4.532268   0.639561  -0.000108   0.357528  -0.001545   0.000042
    20  O    0.639561   7.777144   0.000002  -0.077768  -0.000002   0.000000
    21  O   -0.000108   0.000002   7.833408   0.000000  -0.091223   0.005297
    22  O    0.357528  -0.077768   0.000000   7.971011   0.000010   0.000000
    23  O   -0.001545  -0.000002  -0.091223   0.000010   8.055594   0.247560
    24  C    0.000042   0.000000   0.005297   0.000000   0.247560   4.534318
    25  H   -0.000001   0.000000   0.000645   0.000000  -0.023803   0.393398
    26  H    0.000005   0.000000   0.000580   0.000000  -0.021069   0.334112
    27  H   -0.000002   0.000000   0.002833   0.000000  -0.032248   0.400888
    28  C   -0.035274   0.003253   0.000000   0.257465   0.000000   0.000000
    29  H   -0.002934   0.002465   0.000000  -0.027598   0.000000   0.000000
    30  H    0.000990   0.002465   0.000000  -0.030227   0.000000   0.000000
    31  H    0.004517   0.000724   0.000000  -0.021700   0.000000   0.000000
    32  O    0.053686  -0.003619   0.000000  -0.008212  -0.000044  -0.000002
    33  H   -0.003545   0.000262   0.000001   0.003751   0.000005   0.000022
    34  H   -0.000604   0.000782  -0.000041  -0.000265   0.000274  -0.000017
    35  O    0.007315  -0.010933   0.000000  -0.000276   0.000000   0.000000
    36  H   -0.000499   0.000269   0.000000  -0.000011   0.000000   0.000000
    37  H   -0.006102   0.031312   0.000000  -0.000987   0.000000   0.000000
    38  O    0.002599   0.000005   0.000000  -0.000204  -0.003131   0.000125
    39  H   -0.000415   0.000001   0.000006   0.000117   0.002254   0.000162
    40  H    0.001287  -0.000064   0.000082   0.000186   0.017208  -0.001429
    41  O    0.000000   0.000000  -0.012410   0.000000   0.000068  -0.019707
    42  H    0.000003   0.000000   0.039583   0.000000  -0.000401   0.006364
    43  H    0.000000   0.000000   0.000732   0.000000  -0.000101   0.000448
              25         26         27         28         29         30
     1  C    0.000047   0.000000   0.000020   0.000024   0.000204  -0.000063
     2  C    0.000000   0.000001  -0.000013  -0.000254  -0.000639  -0.000044
     3  C   -0.000004   0.000003   0.000074   0.000006  -0.000032   0.000000
     4  C   -0.000038   0.000054   0.000177  -0.000023   0.000007   0.000008
     5  H    0.000004   0.000001  -0.000009   0.000150   0.000027   0.000003
     6  H   -0.000156   0.000031   0.000322   0.000000   0.000000   0.000000
     7  C    0.000000   0.000000  -0.000001   0.000155  -0.000044   0.000004
     8  H    0.000000   0.000000   0.000000   0.000002   0.000004   0.000000
     9  H    0.000000  -0.000001   0.000001   0.000001  -0.000128  -0.000010
    10  C   -0.000001   0.000000   0.000014   0.000015  -0.000104   0.000007
    11  H    0.000000   0.000000   0.000000   0.000001  -0.000003   0.000000
    12  C    0.000001   0.000004  -0.000147   0.000001   0.000009   0.000000
    13  H    0.000000   0.000000   0.000000   0.000000   0.000000   0.000000
    14  H    0.000000   0.000000   0.000000  -0.001646   0.001134   0.000304
    15  H    0.000000  -0.000001   0.000005   0.000000   0.000000   0.000000
    16  N    0.000001   0.000170   0.000063  -0.000156   0.000023  -0.000017
    17  N   -0.000004  -0.000046  -0.000021   0.005159  -0.000119   0.000372
    18  C    0.004451  -0.004521   0.000338   0.000012   0.000000  -0.000003
    19  C   -0.000001   0.000005  -0.000002  -0.035274  -0.002934   0.000990
    20  O    0.000000   0.000000   0.000000   0.003253   0.002465   0.002465
    21  O    0.000645   0.000580   0.002833   0.000000   0.000000   0.000000
    22  O    0.000000   0.000000   0.000000   0.257465  -0.027598  -0.030227
    23  O   -0.023803  -0.021069  -0.032248   0.000000   0.000000   0.000000
    24  C    0.393398   0.334112   0.400888   0.000000   0.000000   0.000000
    25  H    0.592151  -0.014948  -0.022473   0.000000   0.000000   0.000000
    26  H   -0.014948   0.659872  -0.026324   0.000000   0.000000   0.000000
    27  H   -0.022473  -0.026324   0.611603   0.000000   0.000000   0.000000
    28  C    0.000000   0.000000   0.000000   4.488007   0.384492   0.392643
    29  H    0.000000   0.000000   0.000000   0.384492   0.606775  -0.024567
    30  H    0.000000   0.000000   0.000000   0.392643  -0.024567   0.601539
    31  H    0.000000   0.000000   0.000000   0.400397  -0.019607  -0.020217
    32  O    0.000001   0.000000   0.000000  -0.006718   0.000280   0.018401
    33  H   -0.000027  -0.000005   0.000001   0.000412   0.000032  -0.001866
    34  H    0.000002  -0.000009   0.000002   0.000344  -0.000056  -0.000906
    35  O    0.000000   0.000000   0.000000  -0.012778   0.032583   0.000156
    36  H    0.000000   0.000000   0.000000   0.000715  -0.002020  -0.000015
    37  H    0.000000   0.000000   0.000000   0.003288  -0.004906  -0.000428
    38  O    0.000499  -0.000016  -0.000015  -0.000073  -0.000004   0.000031
    39  H    0.001195  -0.000020   0.000027   0.000003   0.000000  -0.000003
    40  H   -0.000597   0.000147   0.000142  -0.000017   0.000023  -0.000109
    41  O    0.000229   0.058880   0.000235   0.000000   0.000000   0.000000
    42  H   -0.000060  -0.011819  -0.000056   0.000000   0.000000   0.000000
    43  H   -0.000043   0.000189  -0.000049   0.000000   0.000000   0.000000
              31         32         33         34         35         36
     1  C   -0.000020   0.000031  -0.000066   0.000278   0.000903   0.000012
     2  C    0.000106  -0.000015  -0.000033  -0.000003  -0.014624   0.000616
     3  C    0.000000   0.000000  -0.000001   0.000001   0.000788   0.000021
     4  C   -0.000006  -0.000005   0.000025  -0.000014  -0.000065   0.000002
     5  H   -0.000030  -0.000013  -0.000306  -0.000063  -0.000011   0.000001
     6  H    0.000000   0.000000  -0.000001   0.000000   0.000000   0.000000
     7  C   -0.000005   0.000001   0.000004  -0.000005   0.002925   0.001504
     8  H    0.000000   0.000000   0.000000   0.000000   0.000917   0.001041
     9  H   -0.000003   0.000000   0.000001   0.000004   0.001806   0.000454
    10  C   -0.000006   0.000000   0.000000  -0.000001   0.001166  -0.000105
    11  H    0.000000   0.000000   0.000000   0.000000  -0.000004   0.000000
    12  C    0.000001   0.000000   0.000000   0.000000  -0.000070   0.000009
    13  H    0.000000   0.000000   0.000000   0.000000   0.000000   0.000000
    14  H   -0.000355   0.000002   0.000001   0.000001   0.037479  -0.002409
    15  H    0.000000   0.000000   0.000000   0.000000   0.000001   0.000000
    16  N    0.000003  -0.000725  -0.000071   0.001416   0.000001  -0.000002
    17  N   -0.000041  -0.009371   0.002534   0.002482   0.000036  -0.000007
    18  C    0.000000   0.000215   0.000161   0.000447   0.000000   0.000000
    19  C    0.004517   0.053686  -0.003545  -0.000604   0.007315  -0.000499
    20  O    0.000724  -0.003619   0.000262   0.000782  -0.010933   0.000269
    21  O    0.000000   0.000000   0.000001  -0.000041   0.000000   0.000000
    22  O   -0.021700  -0.008212   0.003751  -0.000265  -0.000276  -0.000011
    23  O    0.000000  -0.000044   0.000005   0.000274   0.000000   0.000000
    24  C    0.000000  -0.000002   0.000022  -0.000017   0.000000   0.000000
    25  H    0.000000   0.000001  -0.000027   0.000002   0.000000   0.000000
    26  H    0.000000   0.000000  -0.000005  -0.000009   0.000000   0.000000
    27  H    0.000000   0.000000   0.000001   0.000002   0.000000   0.000000
    28  C    0.400397  -0.006718   0.000412   0.000344  -0.012778   0.000715
    29  H   -0.019607   0.000280   0.000032  -0.000056   0.032583  -0.002020
    30  H   -0.020217   0.018401  -0.001866  -0.000906   0.000156  -0.000015
    31  H    0.585678  -0.000191  -0.000006   0.000012   0.000010  -0.000006
    32  O   -0.000191   7.672337   0.328653   0.331881   0.000000   0.000000
    33  H   -0.000006   0.328653   0.475767  -0.030888   0.000000   0.000000
    34  H    0.000012   0.331881  -0.030888   0.511763   0.000000   0.000000
    35  O    0.000010   0.000000   0.000000   0.000000   7.651167   0.330399
    36  H   -0.000006   0.000000   0.000000   0.000000   0.330399   0.488412
    37  H    0.000083   0.000000   0.000002  -0.000003   0.316739  -0.014269
    38  O    0.000079  -0.020065   0.072476   0.001059   0.000000   0.000000
    39  H   -0.000003   0.000763  -0.003179   0.000212   0.000000   0.000000
    40  H   -0.000075   0.007022  -0.011201   0.002396   0.000000   0.000000
    41  O    0.000000   0.000000   0.000000   0.000000   0.000000   0.000000
    42  H    0.000000   0.000000   0.000000  -0.000002   0.000000   0.000000
    43  H    0.000000   0.000000   0.000000  -0.000001   0.000000   0.000000
              37         38         39         40         41         42
     1  C   -0.000908  -0.003598   0.000312  -0.001686   0.000000  -0.000004
     2  C    0.002933   0.000151  -0.000003  -0.000617   0.000000   0.000000
     3  C   -0.000162  -0.000003   0.000003   0.000006   0.000000   0.000000
     4  C    0.000090  -0.000007   0.000002  -0.001120   0.000000   0.000011
     5  H    0.000017   0.015605  -0.000870  -0.001508   0.000000   0.000000
     6  H    0.000000   0.000022  -0.000005   0.000099  -0.000001   0.000001
     7  C    0.001610  -0.000001   0.000000   0.000024   0.000000   0.000000
     8  H   -0.000267   0.000000   0.000000   0.000001   0.000000   0.000000
     9  H    0.001585  -0.000004   0.000000   0.000120   0.000000   0.000000
    10  C   -0.000135   0.000010  -0.000001   0.000641   0.000000   0.000000
    11  H    0.000001  -0.000008   0.000000  -0.000002   0.000000   0.000000
    12  C    0.000010  -0.000004  -0.000001   0.000029   0.000000   0.000000
    13  H    0.000000   0.000000   0.000000   0.000000   0.000000   0.000000
    14  H   -0.006045  -0.000012   0.000001   0.000071   0.000000   0.000000
    15  H   -0.000002   0.000000   0.000000   0.000000   0.000000  -0.000001
    16  N   -0.000264   0.000290  -0.000048  -0.004853  -0.000004   0.000358
    17  N    0.000308  -0.024775   0.001511   0.024529   0.000000  -0.000025
    18  C    0.000007   0.000904   0.000318  -0.005462   0.001254  -0.003869
    19  C   -0.006102   0.002599  -0.000415   0.001287   0.000000   0.000003
    20  O    0.031312   0.000005   0.000001  -0.000064   0.000000   0.000000
    21  O    0.000000   0.000000   0.000006   0.000082  -0.012410   0.039583
    22  O   -0.000987  -0.000204   0.000117   0.000186   0.000000   0.000000
    23  O    0.000000  -0.003131   0.002254   0.017208   0.000068  -0.000401
    24  C    0.000000   0.000125   0.000162  -0.001429  -0.019707   0.006364
    25  H    0.000000   0.000499   0.001195  -0.000597   0.000229  -0.000060
    26  H    0.000000  -0.000016  -0.000020   0.000147   0.058880  -0.011819
    27  H    0.000000  -0.000015   0.000027   0.000142   0.000235  -0.000056
    28  C    0.003288  -0.000073   0.000003  -0.000017   0.000000   0.000000
    29  H   -0.004906  -0.000004   0.000000   0.000023   0.000000   0.000000
    30  H   -0.000428   0.000031  -0.000003  -0.000109   0.000000   0.000000
    31  H    0.000083   0.000079  -0.000003  -0.000075   0.000000   0.000000
    32  O    0.000000  -0.020065   0.000763   0.007022   0.000000   0.000000
    33  H    0.000002   0.072476  -0.003179  -0.011201   0.000000   0.000000
    34  H   -0.000003   0.001059   0.000212   0.002396   0.000000  -0.000002
    35  O    0.316739   0.000000   0.000000   0.000000   0.000000   0.000000
    36  H   -0.014269   0.000000   0.000000   0.000000   0.000000   0.000000
    37  H    0.487942   0.000000   0.000000  -0.000003   0.000000   0.000000
    38  O    0.000000   7.687754   0.332012   0.314129   0.000000   0.000000
    39  H    0.000000   0.332012   0.486139  -0.017459   0.000000   0.000000
    40  H   -0.000003   0.314129  -0.017459   0.466839   0.000000  -0.000005
    41  O    0.000000   0.000000   0.000000   0.000000   7.661356   0.344823
    42  H    0.000000   0.000000   0.000000  -0.000005   0.344823   0.470437
    43  H    0.000000   0.000000   0.000000   0.000000   0.335868  -0.032611
              43
     1  C    0.000000
     2  C    0.000000
     3  C    0.000000
     4  C    0.000001
     5  H    0.000000
     6  H    0.000000
     7  C    0.000000
     8  H    0.000000
     9  H    0.000000
    10  C    0.000000
    11  H    0.000000
    12  C    0.000000
    13  H    0.000000
    14  H    0.000000
    15  H    0.000000
    16  N    0.000005
    17  N    0.000000
    18  C    0.001156
    19  C    0.000000
    20  O    0.000000
    21  O    0.000732
    22  O    0.000000
    23  O   -0.000101
    24  C    0.000448
    25  H   -0.000043
    26  H    0.000189
    27  H   -0.000049
    28  C    0.000000
    29  H    0.000000
    30  H    0.000000
    31  H    0.000000
    32  O    0.000000
    33  H    0.000000
    34  H   -0.000001
    35  O    0.000000
    36  H    0.000000
    37  H    0.000000
    38  O    0.000000
    39  H    0.000000
    40  H    0.000000
    41  O    0.335868
    42  H   -0.032611
    43  H    0.507525
 Mulliken charges:
               1
     1  C   -0.063383
     2  C   -0.195074
     3  C   -0.140342
     4  C   -0.093245
     5  H    0.099100
     6  H    0.082560
     7  C    0.222883
     8  H    0.076216
     9  H    0.062485
    10  C    0.119247
    11  H    0.099441
    12  C   -0.022476
    13  H    0.076246
    14  H    0.076539
    15  H    0.079673
    16  N   -0.201012
    17  N   -0.245369
    18  C    0.311025
    19  C    0.331894
    20  O   -0.284413
    21  O   -0.333438
    22  O   -0.332938
    23  O   -0.371264
    24  C    0.122407
    25  H    0.069532
    26  H    0.024729
    27  H    0.064614
    28  C    0.120395
    29  H    0.054703
    30  H    0.061553
    31  H    0.070663
    32  O   -0.364294
    33  H    0.167087
    34  H    0.179519
    35  O   -0.345631
    36  H    0.195887
    37  H    0.188552
    38  O   -0.375830
    39  H    0.196971
    40  H    0.211226
    41  O   -0.370592
    42  H    0.187273
    43  H    0.186881
 Sum of Mulliken charges =   0.00000
 Mulliken charges with hydrogens summed into heavy atoms:
               1
     1  C    0.035718
     2  C   -0.118536
     3  C   -0.060669
     4  C   -0.010685
     7  C    0.361584
    10  C    0.218688
    12  C    0.053770
    16  N   -0.201012
    17  N   -0.245369
    18  C    0.311025
    19  C    0.331894
    20  O   -0.284413
    21  O   -0.333438
    22  O   -0.332938
    23  O   -0.371264
    24  C    0.281282
    28  C    0.307314
    32  O   -0.017689
    35  O    0.038808
    38  O    0.032367
    41  O    0.003562
 APT charges:
               1
     1  C   -1.435971
     2  C    0.360156
     3  C    0.071560
     4  C   -0.391967
     5  H    0.197917
     6  H    0.141628
     7  C   -0.022545
     8  H    0.025346
     9  H    0.069694
    10  C    0.363471
    11  H    0.096227
    12  C    0.236264
    13  H    0.086151
    14  H    0.140259
    15  H    0.091038
    16  N   -1.136344
    17  N    0.443442
    18  C    2.149990
    19  C    1.827562
    20  O   -1.080685
    21  O   -1.363932
    22  O   -1.052607
    23  O   -1.132990
    24  C    0.586129
    25  H    0.010007
    26  H    0.031849
    27  H   -0.023389
    28  C    0.575308
    29  H    0.025178
    30  H    0.017229
    31  H    0.014887
    32  O   -0.838913
    33  H    0.502744
    34  H    0.346316
    35  O   -0.763677
    36  H    0.340789
    37  H    0.417897
    38  O   -0.881739
    39  H    0.328764
    40  H    0.551842
    41  O   -0.806946
    42  H    0.559689
    43  H    0.322369
 Sum of APT charges =   0.00000
 APT charges with hydrogens summed into heavy atoms:
               1
     1  C   -1.238053
     2  C    0.500415
     3  C    0.162599
     4  C   -0.250338
     7  C    0.072495
    10  C    0.459699
    12  C    0.322414
    16  N   -1.136344
    17  N    0.443442
    18  C    2.149990
    19  C    1.827562
    20  O   -1.080685
    21  O   -1.363932
    22  O   -1.052607
    23  O   -1.132990
    24  C    0.604597
    28  C    0.632602
    32  O    0.010147
    35  O   -0.004991
    38  O   -0.001133
    41  O    0.075111
 Electronic spatial extent (au):  <R**2>=           6456.2322
 Charge=              0.0000 electrons
 Dipole moment (field-independent basis, Debye):
    X=             -3.9383    Y=              7.0147    Z=              6.1009  Tot=             10.0964
 Quadrupole moment (field-independent basis, Debye-Ang):
   XX=           -138.7968   YY=           -117.0786   ZZ=           -123.6996
   XY=            -18.1736   XZ=             14.6937   YZ=              6.0663
 Traceless Quadrupole moment (field-independent basis, Debye-Ang):
   XX=            -12.2718   YY=              9.4464   ZZ=              2.8254
   XY=            -18.1736   XZ=             14.6937   YZ=              6.0663
 Octapole moment (field-independent basis, Debye-Ang**2):
  XXX=           -144.6483  YYY=             58.7407  ZZZ=              3.7893  XYY=              9.6651
  XXY=            -41.0696  XXZ=             82.5055  XZZ=            -17.2661  YZZ=              8.7746
  YYZ=              4.3122  XYZ=             21.0463
 Hexadecapole moment (field-independent basis, Debye-Ang**3):
 XXXX=          -5423.9441 YYYY=          -2621.5117 ZZZZ=          -1083.8688 XXXY=           -191.9129
 XXXZ=            374.7745 YYYX=            -21.8297 YYYZ=             46.8039 ZZZX=            106.7798
 ZZZY=            -10.0894 XXYY=           -940.0797 XXZZ=           -839.9755 YYZZ=           -564.3972
 XXYZ=              1.0446 YYXZ=            -30.0596 ZZXY=           -104.3183
 N-N= 2.009626882474D+03 E-N=-6.691568473503D+03  KE= 1.132290313985D+03
  Exact polarizability: 272.214 -49.329 256.794 -38.413  37.717 208.064
 Approx polarizability: 245.614 -45.377 234.314 -48.676  41.777 219.420
   1 Symmetry operations used in ECPInt.
 ECPInt:  NShTT=   18528 NPrTT=   66042 LenC2=   17006 LenP2D=   42352.
 LDataN:  DoStor=T MaxTD1= 6 Len=  172
 D2PCM: C-PCM CHGder 2nd derivatives, FixD1E=F FixD2E=F DoIter=F DoCFld=F I1PDM=0
 Calling FoFJK, ICntrl=    100127 FMM=F ISym2X=0 I1Cent= 0 IOpClX= 0 NMat=1 NMatS=1 NMatT=0.
 Full mass-weighted force constant matrix:
 Low frequencies --- -598.5359   -8.7518   -0.0008    0.0002    0.0007    8.8147
 Low frequencies ---   15.8319   23.7644   30.0647
 ******    1 imaginary frequencies (negative Signs) ****** 
 Diagonal vibrational polarizability:
      381.8631078     530.2031624     419.0347892
 Harmonic frequencies (cm**-1), IR intensities (KM/Mole), Raman scattering
 activities (A**4/AMU), depolarization ratios for plane and unpolarized
 incident light, reduced masses (AMU), force constants (mDyne/A),
 and normal coordinates:
                      1                      2                      3
                      A                      A                      A
 Frequencies --   -598.5349                23.2538                29.5918
 Red. masses --      8.5716                 6.0618                 6.4149
 Frc consts  --      1.8092                 0.0019                 0.0033
 IR Inten    --   3709.5096                 2.4489                 1.4124
  Atom  AN      X      Y      Z        X      Y      Z        X      Y      Z
     1   6    -0.31   0.47   0.34     0.01  -0.05   0.02    -0.03   0.01   0.01
     2   6    -0.02  -0.03  -0.08     0.01  -0.01   0.03    -0.03  -0.01   0.00
     3   6    -0.01   0.01  -0.03     0.01   0.02   0.11    -0.06   0.05   0.06
     4   6     0.03   0.08   0.03     0.01  -0.04   0.07    -0.06   0.04   0.05
     5   1     0.02  -0.28  -0.14     0.01  -0.11  -0.02    -0.03  -0.01   0.00
     6   1     0.08  -0.08  -0.12     0.01  -0.06   0.07    -0.06   0.05   0.06
     7   6    -0.01   0.00  -0.03     0.01   0.05   0.07    -0.03   0.03   0.02
     8   1     0.00   0.03  -0.02     0.01   0.07   0.10    -0.04   0.02   0.02
     9   1    -0.05   0.04  -0.09     0.01   0.08   0.03     0.00   0.05   0.01
    10   6     0.08  -0.17   0.09     0.01  -0.07   0.08    -0.07  -0.03   0.02
    11   1    -0.24   0.08  -0.09     0.01  -0.12   0.08    -0.09  -0.06   0.01
    12   6     0.09   0.01  -0.01     0.02  -0.05   0.13    -0.09   0.01   0.06
    13   1    -0.08   0.15  -0.19     0.01  -0.08   0.17    -0.13   0.00   0.08
    14   1    -0.02  -0.01  -0.11     0.01  -0.02  -0.01    -0.01  -0.04  -0.03
    15   1    -0.01  -0.01  -0.06     0.02   0.04   0.14    -0.07   0.08   0.08
    16   7    -0.08  -0.09   0.01    -0.02   0.03  -0.05     0.02   0.07   0.02
    17   7     0.21  -0.24  -0.14     0.00  -0.01  -0.06     0.02   0.04   0.00
    18   6     0.08   0.03   0.06    -0.01   0.02  -0.05     0.01   0.08   0.02
    19   6    -0.04  -0.03  -0.04     0.01  -0.04  -0.07     0.04   0.02  -0.02
    20   8    -0.03   0.01  -0.03     0.08  -0.12  -0.06     0.06   0.03  -0.02
    21   8    -0.05   0.01  -0.01    -0.02   0.06  -0.04     0.02   0.07   0.02
    22   8     0.03   0.00  -0.02    -0.03   0.02  -0.08     0.05  -0.02  -0.03
    23   8     0.01   0.01  -0.02     0.00  -0.05  -0.07     0.01   0.09   0.02
    24   6     0.02   0.00   0.01     0.01  -0.08  -0.07     0.02   0.06   0.00
    25   1    -0.01  -0.01   0.00     0.01  -0.13  -0.10     0.01   0.11   0.03
    26   1     0.00   0.00   0.00     0.00  -0.05  -0.10     0.00  -0.01   0.02
    27   1    -0.02   0.00   0.01     0.01  -0.09  -0.02     0.07   0.06  -0.05
    28   6     0.00   0.00   0.00    -0.02   0.00  -0.07     0.08  -0.05  -0.05
    29   1     0.01   0.02   0.01     0.01  -0.04  -0.13     0.07  -0.05  -0.05
    30   1     0.00   0.00   0.00     0.00  -0.02   0.00     0.11  -0.02  -0.07
    31   1     0.02   0.02   0.01    -0.05   0.05  -0.08     0.07  -0.08  -0.06
    32   8    -0.01   0.01   0.00    -0.02  -0.02   0.26     0.14   0.07  -0.04
    33   1     0.03  -0.02   0.01    -0.11   0.06   0.24     0.10   0.06  -0.03
    34   1     0.06  -0.10   0.02     0.02  -0.04   0.31     0.14   0.10  -0.02
    35   8    -0.01  -0.01  -0.01     0.15   0.01  -0.10     0.02  -0.05  -0.04
    36   1     0.00   0.03   0.04     0.15   0.00  -0.11     0.01  -0.04  -0.03
    37   1    -0.01   0.02  -0.04     0.12  -0.02  -0.13     0.04  -0.02  -0.03
    38   8     0.00   0.00   0.00    -0.15   0.25   0.11     0.04   0.05   0.00
    39   1    -0.02  -0.02   0.05    -0.19   0.25   0.23     0.03   0.07   0.02
    40   1     0.02   0.05   0.06    -0.03   0.11   0.00     0.03   0.05   0.01
    41   8     0.01  -0.01   0.00    -0.03   0.05  -0.13    -0.18  -0.46  -0.06
    42   1     0.05   0.05  -0.09    -0.03   0.05  -0.09    -0.11  -0.32  -0.06
    43   1    -0.02   0.01  -0.02    -0.04   0.06  -0.15    -0.33  -0.44   0.04
                      4                      5                      6
                      A                      A                      A
 Frequencies --     47.7122                51.2807                61.4933
 Red. masses --      5.4927                 4.8399                 4.2047
 Frc consts  --      0.0074                 0.0075                 0.0094
 IR Inten    --      0.7561                 0.1501                 1.7128
  Atom  AN      X      Y      Z        X      Y      Z        X      Y      Z
     1   6     0.00  -0.01  -0.02     0.08  -0.02   0.01    -0.01  -0.04  -0.04
     2   6    -0.01   0.00   0.00    -0.01  -0.04   0.15     0.06   0.02  -0.14
     3   6    -0.01  -0.01  -0.03    -0.11  -0.01  -0.03     0.12   0.07   0.13
     4   6     0.01  -0.01  -0.04     0.03   0.00  -0.09     0.03  -0.02   0.12
     5   1     0.01   0.00  -0.02     0.19  -0.03   0.01    -0.09  -0.09  -0.08
     6   1     0.01  -0.02  -0.05     0.05   0.03  -0.20     0.00  -0.06   0.19
     7   6    -0.02  -0.01  -0.01    -0.15  -0.04   0.09     0.17   0.12  -0.04
     8   1    -0.02   0.00   0.00    -0.21  -0.06   0.16     0.21   0.16  -0.05
     9   1    -0.04  -0.01  -0.01    -0.21  -0.04   0.06     0.24   0.18  -0.07
    10   6     0.02   0.01   0.00     0.09  -0.03   0.13    -0.04  -0.07  -0.04
    11   1     0.04   0.01   0.01     0.20  -0.04   0.18    -0.14  -0.14  -0.10
    12   6     0.02   0.00  -0.03     0.03  -0.01   0.01     0.01  -0.05   0.13
    13   1     0.03   0.00  -0.03     0.07  -0.01  -0.02    -0.04  -0.08   0.23
    14   1    -0.01   0.01   0.02     0.00  -0.06   0.24     0.06   0.02  -0.27
    15   1    -0.01  -0.02  -0.04    -0.18   0.00  -0.10     0.17   0.12   0.24
    16   7     0.00   0.00  -0.02     0.00   0.01  -0.08    -0.01  -0.03  -0.06
    17   7    -0.01   0.00  -0.03     0.01  -0.01  -0.08     0.00  -0.01  -0.05
    18   6     0.01  -0.05   0.00     0.01   0.00  -0.08    -0.01  -0.01  -0.07
    19   6    -0.02   0.03  -0.04     0.01   0.00  -0.07    -0.02  -0.01  -0.01
[...]
 0.00006239,0.00001347,-0.00008879,-0.00002920,-0.00002044,-0.00010308,
 -0.00008877,-0.00000434,-0.00004513,-0.00003144,-0.00001451,0.00000805
 ,-0.00000067,0.00000129,-0.00001896,-0.00000499,-0.00000451,-0.0000032
 4,0.00000203,-0.00000652,0.00060707,-0.00026509,0.00024093,-0.00189050
 ,-0.00008103,-0.00141617,-0.00003085,-0.00012371,-0.00034715,0.0000226
 1,0.00000251,0.00001935,-0.00000603,0.00000022,-0.00000454,-0.00001318
 ,0.00000029,-0.00001385,-0.12697935,0.02497710,-0.06872651,0.16305015,
 -0.02454720,0.08080225,-0.00028562,0.00132259,-0.00034560,-0.00046653,
 0.00014073,0.00017699,-0.00029386,0.00004160,0.00012960,0.00047036,-0.
 00094765,0.00011919,-0.00116193,0.00198139,0.00119813,-0.00008758,-0.0
 0007364,0.00013872,0.00018195,-0.00005605,0.00001843,-0.00000636,-0.00
 007552,0.00005773,-0.00002743,0.00007536,-0.00005694,0.00031037,0.0002
 6360,-0.00004124,-0.00001910,-0.00001383,0.00006186,-0.00069601,0.0001
 2672,-0.00031645,0.00007679,-0.00009918,0.00009664,-0.00010605,0.00002
 340,0.00006045,0.00004839,-0.00005189,0.00005102,0.00059347,-0.0016705
 5,0.00334649,-0.00494006,-0.00200624,0.00181008,0.00430114,-0.00106312
 ,0.00593245,-0.00249388,-0.00017625,-0.00579870,0.00042793,0.00063004,
 0.00185235,-0.00046984,0.00040975,-0.00176552,0.00098701,0.00057952,0.
 00067228,-0.00135380,0.00105731,-0.00287317,-0.00169059,-0.00025456,-0
 .00116338,-0.00015144,-0.00007927,0.00001905,0.00029345,0.00009505,0.0
 0004911,0.00032526,0.00021705,0.00006126,-0.00099772,-0.00105458,0.000
 22227,0.00023757,0.00019823,0.00010549,0.00011629,0.00013205,0.0000496
 3,0.00009822,0.00007424,-0.00004915,-0.00085280,0.00058267,-0.00045561
 ,0.00164997,-0.00134237,0.00124308,0.00020896,-0.00000905,0.00010792,0
 .00025241,-0.00006255,0.00017669,-0.00004452,0.00000703,-0.00003377,-0
 .00023259,0.00007374,-0.00019219,-0.04590820,-0.03449702,0.02763336,-0
 .00342986,0.02926857,-0.03478980,0.05513251,0.00107522,-0.00240111,0.0
 0066343,0.00061388,-0.00023158,-0.00011976,0.00034709,-0.00015132,-0.0
 0004937,-0.00036380,0.00096331,-0.00003144,0.00183151,-0.00118619,-0.0
 0117472,-0.00001136,-0.00031893,-0.00021328,-0.00023529,0.00008085,-0.
 00007895,-0.00002126,0.00009070,-0.00006506,0.00007843,-0.00012170,0.0
 0011184,-0.00043743,-0.00028464,0.00009900,0.00001079,0.00004563,-0.00
 009172,0.00069250,-0.00016039,0.00038475,-0.00011308,0.00012224,-0.000
 11422,0.00005929,0.00003232,-0.00009083,-0.00005528,0.00004463,-0.0000
 8135,-0.00118451,0.00160572,-0.00117054,-0.00363341,-0.00566544,-0.003
 08696,-0.00171772,-0.00164828,0.00292122,0.00341779,0.00723591,-0.0020
 6163,-0.00158010,-0.00217385,-0.00178820,0.00139467,0.00083459,-0.0011
 9945,-0.00131074,-0.00187661,0.00132698,0.00032045,-0.00134680,0.00079
 926,-0.00125546,-0.00023591,-0.00119443,0.00014973,0.00007855,0.000136
 83,0.00035472,0.00009233,0.00010247,0.00019248,0.00012230,0.00007137,0
 .00019461,0.00020852,0.00010561,0.00001773,-0.00003505,-0.00002939,-0.
 00025314,-0.00012505,-0.00007648,-0.00005457,-0.00006283,0.00000257,0.
 00086793,0.00361040,0.00346288,-0.00237002,-0.01018761,-0.00370835,0.0
 0036726,-0.00059400,-0.00096420,-0.00025384,-0.00003126,-0.00017725,0.
 00005666,-0.00000246,0.00004764,0.00021528,-0.00002062,0.00015676,-0.0
 0058407,-0.19658026,0.22331679,-0.00293360,-0.00030300,-0.00036522,0.0
 0622951,0.21055108,0.00387576,-0.00273022,-0.00132595,-0.00034417,0.00
 133315,0.00034860,-0.00033165,0.00016307,0.00040307,-0.00028043,-0.003
 49899,-0.00087402,0.00157061,-0.00156270,0.00056127,-0.00018756,0.0003
 1065,0.00063628,0.00022175,0.00013240,0.00010433,0.00005056,-0.0001260
 1,0.00006550,-0.00004532,0.00019347,-0.00008511,0.00054802,0.00266303,
 -0.00146603,0.00011365,-0.00016989,0.00032192,-0.00333892,0.00066080,-
 0.00038931,0.00025134,-0.00032178,0.00037627,-0.00008796,-0.00010919,0
 .00035474,0.00006645,-0.00000199,0.00020733,0.00527919,0.00251385,0.00
 051059,0.00008726,-0.00188365,0.00587799,0.00247426,0.00079693,-0.0026
 8307,-0.00712665,-0.00708487,-0.00158541,0.00224102,0.00298727,0.00328
 358,-0.00121192,-0.00024619,0.00032591,0.00222357,0.00192348,-0.001561
 84,-0.00053941,0.00128503,-0.00278896,0.00083452,-0.00021824,0.0008923
 5,-0.00032409,-0.00006053,-0.00009784,-0.00019965,-0.00004562,-0.00007
 601,-0.00025024,-0.00011466,-0.00009706,-0.00090218,-0.00082975,-0.000
 09919,0.00012629,0.00011953,0.00007802,0.00013299,0.00011269,0.0000231
 7,0.00015130,0.00010971,-0.00004313,-0.00049476,0.00107200,-0.00191772
 ,0.00068630,-0.00138225,0.00465386,0.00033850,-0.00106558,-0.00042180,
 0.00052405,-0.00000647,0.00037207,-0.00010258,0.00001098,-0.00008597,-
 0.00044782,0.00008477,-0.00034663,-0.01081947,0.21223558,-0.26664179,0
 .00263822,0.00858133,-0.01012156,0.00250430,-0.21580715,0.27334416,-0.
 00223692,0.00193171,0.00123735,0.00036901,-0.00055114,-0.00013432,0.00
 010600,-0.00000552,-0.00015962,0.00019327,0.00080565,0.00004147,0.0000
 3647,-0.00009949,-0.00016254,0.00007696,-0.00016330,-0.00020367,-0.000
 09434,0.00000770,-0.00005538,-0.00001679,0.00002779,-0.00003448,0.0000
 1460,-0.00001269,-0.00000323,-0.00002382,-0.00099112,0.00072775,-0.000
 08525,0.00009536,-0.00012840,0.00093800,-0.00026884,0.00002021,-0.0000
 5231,0.00008509,-0.00010302,-0.00000500,0.00007256,-0.00009341,-0.0000
 1109,-0.00000804,-0.00007089,-0.00438425,-0.00229559,0.00148137,0.0019
 2288,-0.00040356,-0.00240924,0.00839027,0.00497790,-0.00629286,-0.0000
 1499,0.00045180,0.00005290,-0.00017369,-0.00017321,-0.00009720,-0.0141
 4015,0.00196274,0.00738939,-0.00018076,-0.00022782,0.00000300,-0.00096
 466,-0.00066483,0.00176574,0.00066294,-0.00011574,0.00018716,-0.000419
 53,0.00027811,0.00048948,-0.00166837,0.00024511,0.00056449,-0.00016239
 ,0.00021591,0.00022723,0.00009570,0.00008919,0.00001387,-0.00000756,-0
 .00000539,-0.00000672,-0.00001305,-0.00001495,-0.00000539,-0.00001453,
 -0.00001401,0.00000575,0.00002113,-0.00007340,-0.00001287,0.00000416,0
 .00006271,0.00001458,-0.00001224,0.00004429,0.00001225,-0.00009699,-0.
 00003933,-0.00009124,0.00002933,0.00000082,0.00002377,0.00004551,0.000
 01521,0.00005241,-0.00003123,-0.00016687,0.00013444,0.00002119,0.00006
 471,-0.00006947,0.00007832,0.00020813,-0.00015938,0.49170390,0.0008246
 3,-0.00071234,-0.00045074,-0.00013609,0.00020428,0.00004922,-0.0000393
 0,0.00000184,0.00005851,-0.00007209,-0.00029348,-0.00000766,-0.0000121
 4,0.00003577,0.00005974,-0.00002427,0.00005357,0.00007325,0.00003459,-
 0.00000244,0.00001989,0.00000652,-0.00001083,0.00001279,-0.00000557,0.
 00000414,0.00000054,0.00000765,0.00036252,-0.00026800,0.00003098,-0.00
 003503,0.00004758,-0.00034419,0.00009786,-0.00000902,0.00001856,-0.000
 03121,0.00003775,0.00000195,-0.00002668,0.00003430,0.00000449,0.000003
 08,0.00002516,0.00177419,0.00085849,-0.00076545,-0.00062536,0.00018474
 ,0.00087130,-0.00245535,-0.00230257,0.00312231,0.00000748,-0.00016582,
 -0.00003744,0.00006464,0.00006583,0.00004125,0.00658824,0.00172231,-0.
 00353074,0.00007509,0.00009207,-0.00000046,0.00006828,0.00032764,-0.00
 122703,0.00072047,0.00108397,-0.00003682,0.00011504,-0.00001191,-0.000
 08970,-0.00013995,-0.00201680,0.00020064,-0.00023697,0.00005475,0.0002
 8163,-0.00003498,-0.00003448,-0.00000654,0.00000291,0.00000231,0.00000
 251,0.00000521,0.00000592,0.00000229,0.00000573,0.00000537,-0.00000187
 ,-0.00001210,0.00002827,0.00000413,0.00000092,-0.00002237,-0.00000470,
 0.00000769,-0.00001659,-0.00000498,0.00003524,0.00001522,0.00003378,-0
 .00001060,-0.00000054,-0.00000885,-0.00001641,-0.00000618,-0.00001945,
 0.00000339,0.00006147,-0.00004805,-0.00000159,-0.00001895,0.00001994,-
 0.00001358,-0.00007482,0.00006095,-0.06015863,0.62683223,0.00073609,-0
 .00064780,-0.00040239,-0.00013154,0.00020821,0.00004478,-0.00003045,0.
 00000417,0.00004642,-0.00008417,-0.00031140,-0.00003304,-0.00001826,0.
 00003892,0.00006316,-0.00006925,0.00010184,0.00007523,0.00003930,-0.00
 000931,0.00002257,0.00000887,-0.00001169,0.00001300,-0.00000795,0.0000
 0843,-0.00000503,0.00000096,0.00032576,-0.00025018,0.00002698,-0.00003
 092,0.00004381,-0.00030227,0.00008213,-0.00000163,0.00001871,-0.000030
 24,0.00003541,0.00000138,-0.00002707,0.00003431,0.00000509,0.00000447,
 0.00002452,0.00156376,0.00063516,-0.00023921,-0.00061003,0.00010544,0.
 00083646,-0.00317711,0.00023979,-0.00128524,-0.00007170,-0.00022978,-0
 .00001322,0.00010321,0.00009865,0.00007869,0.00279674,-0.00088116,0.00
 136736,0.00009680,0.00010302,-0.00001012,0.00316331,-0.00031619,0.0013
 4370,-0.00244640,0.00084906,-0.00080571,0.00099712,-0.00051656,-0.0009
 2642,0.00144975,-0.00022036,-0.00088779,0.00051675,-0.00051293,-0.0004
 3488,-0.00004787,-0.00004269,-0.00000593,0.00000422,0.00000348,0.00000
 292,0.00000600,0.00000706,0.00000195,0.00000688,0.00000648,-0.00000282
 ,-0.00000733,0.00004377,0.00001792,-0.00000811,-0.00004553,-0.00001903
 ,0.00000576,-0.00002331,-0.00001272,0.00004123,0.00001280,0.00003833,-
 0.00001147,-0.00000013,-0.00001026,-0.00002326,-0.00000349,-0.00002469
 ,0.00005891,0.00011546,-0.00007853,-0.00004346,-0.00007561,0.00006255,
 -0.00012151,-0.00013745,0.00008707,0.00525197,0.08063481,0.02304752,0.
 00396723,-0.00340902,-0.00219212,-0.00063916,0.00095310,0.00023562,-0.
 00018757,0.00000198,0.00028576,-0.00031718,-0.00136670,-0.00006974,-0.
 00006073,0.00017210,0.00027843,-0.00009708,0.00023870,0.00034343,0.000
 16001,-0.00001003,0.00009376,0.00002828,-0.00004789,0.00006063,-0.0000
 2165,0.00001827,0.00000964,0.00004534,0.00175118,-0.00127472,0.0001504
 9,-0.00016854,0.00022549,-0.00166300,0.00047914,-0.00003233,0.00009006
 ,-0.00014805,0.00017989,0.00001042,-0.00012574,0.00016205,0.00002327,0
 .00001073,0.00012287,0.00774108,0.00397051,-0.00272526,-0.00345392,0.0
 0060144,0.00413486,-0.01569033,-0.00928405,0.01318685,0.00010578,-0.00
 071374,-0.00007783,0.00026724,0.00027005,0.00013290,0.00647621,0.00452
 818,-0.00967212,0.00027140,0.00036950,0.00000731,-0.00063359,0.0015402
 8,-0.00551301,0.00209939,-0.00005067,0.00124004,-0.00010152,0.00006680
 ,-0.00010455,0.00058625,-0.00004062,-0.00025969,-0.00028840,0.00003062
 ,0.00012502,-0.00014971,-0.00014082,-0.00002133,0.00001135,0.00000771,
 0.00001094,0.00002117,0.00002432,0.00000890,0.00002254,0.00002216,-0.0
 0000867,-0.00003439,0.00010989,0.00001572,-0.00000320,-0.00008891,-0.0
 0001871,0.00002168,-0.00006541,-0.00001847,0.00016060,0.00006973,0.000
 15401,-0.00004894,-0.00000180,-0.00003982,-0.00007048,-0.00002878,-0.0
 0008595,0.00002130,0.00024595,-0.00020339,-0.00000830,-0.00007153,0.00
 009149,-0.00006406,-0.00030827,0.00024094,-0.40215336,0.20694983,0.013
 38721,0.39642099,-0.00075972,0.00065768,0.00041134,0.00012670,-0.00019
 175,-0.00004604,0.00003694,-0.00000049,-0.00005267,0.00007052,0.000270
 46,-0.00000762,0.00001033,-0.00003389,-0.00005616,0.00001616,-0.000050
 10,-0.00006749,-0.00003289,0.00000136,-0.00001755,-0.00000563,0.000010
 18,-0.00001165,0.00000602,-0.00000528,-0.00000044,-0.00001185,-0.00032
 391,0.00024849,-0.00002841,0.00003227,-0.00004355,0.00031455,-0.000093
 27,0.00001472,-0.00001713,0.00002890,-0.00003465,-0.00000162,0.0000254
 0,-0.00003162,-0.00000453,-0.00000173,-0.00002330,-0.00178955,-0.00068
 829,0.00106906,0.00045455,-0.00018487,-0.00074047,0.00119905,0.0024259
 3,-0.00382925,-0.00000239,0.00014301,0.00004335,-0.00006360,-0.0000612
 5,-0.00004433,-0.00096513,-0.00502186,0.00317458,-0.00007824,-0.000095
 60,0.00000159,0.00044116,-0.00057972,0.00175812,-0.00099007,0.00025556
 ,-0.00033259,0.00013886,-0.00012924,-0.00011976,-0.00021002,0.00007810
 ,0.00102400,0.00024406,-0.00017396,-0.00024875,0.00003238,0.00003221,0
 .00000666,-0.00000320,-0.00000248,-0.00000236,-0.00000519,-0.00000550,
 -0.00000209,-0.00000579,-0.00000538,0.00000173,0.00001088,-0.00002575,
 -0.00000308,-0.00000123,0.00001929,0.00000313,-0.00000638,0.00001487,0
 .00000399,-0.00003366,-0.00001370,-0.00003148,0.00000995,0.00000062,0.
 00000813,0.00001617,0.00000526,0.00001860,0.00000317,-0.00005238,0.000
 04436,-0.00000359,0.00000984,-0.00001428,-0.00000169,0.00006400,-0.000
 05910,0.15490090,-0.13926492,-0.01207804,-0.19511824,0.16833076,-0.001
 13745,0.00099343,0.00062112,0.00019902,-0.00030224,-0.00006817,0.00005
 235,-0.00000530,-0.00007465,0.00010111,0.00043954,0.00003414,0.0000220
 0,-0.00005518,-0.00008876,0.00005852,-0.00010748,-0.00010963,-0.000053
 21,0.00000754,-0.00003065,-0.00001087,0.00001663,-0.00001890,0.0000099
 3,-0.00000956,0.00000369,-0.00000758,-0.00048913,0.00037855,-0.0000426
 0,0.00004888,-0.00006592,0.00046023,-0.00012826,0.00001131,-0.00002671
 ,0.00004432,-0.00005256,-0.00000247,0.00003874,-0.00004940,-0.00000566
 ,-0.00000586,-0.00003630,-0.00243000,-0.00125859,0.00079317,0.00086661
 ,-0.00022887,-0.00123758,0.00599857,0.00151295,-0.00252329,0.00003498,
 0.00029354,0.00004633,-0.00011809,-0.00011702,-0.00008253,-0.00401291,
 0.00010380,-0.00059261,-0.00012405,-0.00014146,0.00000827,-0.00126359,
 0.00019317,0.00013184,0.00158483,-0.00085012,-0.00037040,-0.00065759,0
 .00025964,0.00057984,-0.00048080,0.00136583,-0.00365162,-0.00014780,0.
 00009565,0.00000416,0.00005836,0.00005318,0.00000922,-0.00000513,-0.00
 000406,-0.00000397,-0.00000812,-0.00000914,-0.00000286,-0.00000912,-0.
 00000870,0.00000326,0.00001154,-0.00004995,-0.00001362,0.00000507,0.00
 004627,0.00001456,-0.00000884,0.00002655,0.00001146,-0.00005519,-0.000
 01927,-0.00005134,0.00001570,0.00000035,0.00001338,0.00002872,0.000006
 47,0.00003162,-0.00004197,-0.00012004,0.00008929,0.00002732,0.00006074
 ,-0.00005512,0.00008757,0.00014421,-0.00010437,0.00655854,-0.00938421,
 -0.00953444,-0.01129022,0.01132943,0.01565221,0.00020026,-0.00017185,-
 0.00011145,-0.00003158,0.00004809,0.00001136,-0.00000979,0.00000019,0.
 00001452,-0.00001605,-0.00007687,-0.00000521,-0.00000340,0.00000929,0.
 00001486,-0.00000535,0.00001476,0.00001742,0.00000922,-0.00000150,0.00
 000505,0.00000120,-0.00000207,0.00000289,-0.00000119,0.00000131,0.0000
 0117,0.00000365,0.00008914,-0.00006476,0.00000784,-0.00000841,0.000011
 54,-0.00008394,0.00002489,-0.00000186,0.00000474,-0.00000742,0.0000092
 2,0.00000035,-0.00000656,0.00000833,0.00000077,0.00000076,0.00000679,0
 .00033504,0.00016656,-0.00003318,-0.00018968,0.00001052,0.00020248,-0.
 00104583,-0.00026609,0.00026370,0.00000058,-0.00003550,0.00000821,0.00
 001622,0.00001340,0.00000536,0.00005396,-0.00063457,-0.00026486,0.0000
 1294,0.00001801,-0.00000136,0.00012445,0.00008586,-0.00004086,-0.00021
 167,-0.00005623,0.00019912,0.00006177,-0.00003122,-0.00005505,-0.00006
 947,0.00024567,0.00000663,0.00005960,-0.00004392,-0.00006830,-0.000009
 15,-0.00000787,-0.00000051,0.00000063,0.00000037,0.00000054,0.00000094
 ,0.00000119,0.00000046,0.00000117,0.00000106,-0.00000074,-0.00000109,0
 .00000644,0.00000037,-0.00000050,-0.00000516,-0.00000072,0.00000154,-0
 .00000455,-0.00000118,0.00000900,0.00000346,0.00000813,-0.00000286,0.0
 0000001,-0.00000218,-0.00000424,-0.00000124,-0.00000450,0.00000563,0.0
 0001531,-0.00001403,-0.00000273,-0.00000738,0.00000820,-0.00001054,-0.
 00001870,0.00001330,-0.07774640,-0.15301455,-0.02307485,0.00698447,0.0
 4210741,0.00575899,0.07154948,-0.00034086,0.00029586,0.00018680,0.0000
 5627,-0.00008579,-0.00001883,0.00001698,-0.00000217,-0.00002388,0.0000
 2850,0.00012985,0.00000721,0.00000584,-0.00001560,-0.00002548,0.000014
 34,-0.00002798,-0.00003099,-0.00001415,0.00000151,-0.00000845,-0.00000
 331,0.00000458,-0.00000576,0.00000196,-0.00000142,-0.00000006,-0.00000
 504,-0.00014984,0.00011159,-0.00001309,0.00001456,-0.00002010,0.000142
 10,-0.00004055,0.00000308,-0.00000777,0.00001285,-0.00001533,-0.000001
 08,0.00001107,-0.00001432,-0.00000221,-0.00000166,-0.00001052,-0.00063
 614,-0.00033658,0.00013680,0.00030012,-0.00004412,-0.00035701,0.001422
 48,0.00049908,-0.00053576,0.00000132,0.00007421,0.00000497,-0.00002829
 ,-0.00002907,-0.00001748,-0.00130778,0.00044673,0.00064090,-0.00002691
 ,-0.00003520,0.00000018,-0.00023832,-0.00010718,0.00013831,0.00022136,
 -0.00014840,0.00000800,-0.00010214,0.00003634,0.00010627,0.00035924,0.
 00026220,-0.00076595,-0.00007609,0.00005550,0.00006415,0.00001499,0.00
 001407,0.00000226,-0.00000100,-0.00000089,-0.00000106,-0.00000207,-0.0
 0000250,-0.00000099,-0.00000205,-0.00000197,0.00000075,0.00000549,-0.0
 0001325,-0.00000295,0.00000080,0.00001152,0.00000330,-0.00000091,0.000
 00934,0.00000187,-0.00001458,-0.00000637,-0.00001407,0.00000440,0.0000
 0014,0.00000370,0.00000674,0.00000266,0.00000804,-0.00000742,-0.000030
 84,0.00002166,0.00000522,0.00001417,-0.00001321,0.00001841,0.00003666,
 -0.00002585,-0.10008992,-0.48705568,-0.06747724,-0.01124337,-0.0254003
 9,-0.00378641,0.11153795,0.51160453,-0.00016950,0.00014739,0.00009306,
 0.00002954,-0.00004538,-0.00000985,0.00000707,-0.00000037,-0.00001129,
 0.00001612,0.00006667,0.00000749,0.00000384,-0.00000858,-0.00001363,0.
 00001089,-0.00001703,-0.00001611,-0.00000940,0.00000278,-0.00000513,-0
 .00000147,0.00000218,-0.00000257,0.00000142,-0.00000171,0.00000032,-0.
 00000055,-0.00007444,0.00005622,-0.00000611,0.00000700,-0.00000990,0.0
 0006882,-0.00001901,-0.00000026,-0.00000401,0.00000653,-0.00000794,-0.
 00000034,0.00000594,-0.00000745,-0.00000101,-0.00000079,-0.00000551,-0
 .00033028,-0.00016069,0.00003815,0.00015112,-0.00001676,-0.00018544,0.
 00083247,-0.00001846,0.00013435,0.00000970,0.00004337,0.00000281,-0.00
 001973,-0.00001840,-0.00001493,-0.00046003,0.00017978,0.00000130,-0.00
 001809,-0.00001987,-0.00000006,-0.00038634,0.00005192,-0.00020983,0.00
 058447,0.00037075,-0.00015719,-0.00010884,0.00006702,0.00011253,-0.000
 12404,-0.00133738,-0.00078169,-0.00017833,0.00009738,0.00016896,0.0000
 1013,0.00000905,0.00000119,-0.00000075,-0.00000058,-0.00000048,-0.0000
 0101,-0.00000150,-0.00000036,-0.00000137,-0.00000132,0.00000067,0.0000
 0042,-0.00000777,-0.00000453,0.00000201,0.00000805,0.00000363,-0.00000
 085,0.00000431,0.00000359,-0.00000822,-0.00000288,-0.00000851,0.000002
 36,-0.00000004,0.00000239,0.00000450,0.00000083,0.00000525,-0.00001179
 ,-0.00002031,0.00001477,0.00000697,0.00001222,-0.00001140,0.00002091,0
 .00002377,-0.00001530,-0.01596180,-0.06979254,-0.01230440,-0.00112585,
 -0.00126296,0.00038126,0.01716696,0.07172185,0.01275581\\0.00000081,0.
 00000061,-0.00000215,-0.00000092,0.00000052,-0.00000309,-0.00000122,-0
 .00000111,-0.00000647,-0.00000040,0.00000188,-0.00000445,-0.00000068,0
 .00000422,-0.00000096,-0.00000057,0.00000273,-0.00000434,-0.00000026,-
 0.00000332,-0.00000357,-0.00000091,-0.00000358,-0.00000607,-0.00000048
 ,-0.00000514,-0.00000328,-0.00000086,0.00000165,-0.00000621,-0.0000009
 7,0.00000416,-0.00000472,-0.00000086,0.00000144,-0.00000749,-0.0000011
 7,0.00000308,-0.00000898,-0.00000045,-0.00000014,-0.00000206,-0.000001
 13,-0.00000235,-0.00000748,0.00000066,-0.00000186,0.00000041,-0.000001
 27,0.00000145,0.00000079,-0.00000023,-0.00000095,-0.00000059,0.0000012
 6,-0.00000222,0.00000284,0.00000113,-0.00000400,0.00000405,-0.00000001
 ,-0.00000263,-0.00000111,0.00000014,0.00000001,0.00000386,-0.00000064,
 0.00000185,0.00000061,-0.00000016,0.00000376,0.00000075,-0.00000037,0.
 00000554,0.00000075,0.00000050,0.00000195,0.00000062,-0.00000032,0.000
 00351,-0.00000231,0.00000082,-0.00000050,0.00000562,0.00000035,-0.0000
 0215,0.00000409,0.00000118,-0.00000129,0.00000755,0.00000077,0.0000016
 8,0.00000539,0.00000040,0.00000101,0.00000876,0.00000005,0.00000224,0.
 00000610,0.00000158,-0.00000051,0.00000729,0.00000200,-0.00000515,0.00
 000002,-0.00000063,-0.00000617,-0.00000150,-0.00000045,-0.00000658,0.0
 0000098,0.00000049,0.00000421,0.00000558,0.00000079,0.00000624,0.00000
 498,0.00000115,0.00000316,0.00000108,0.00000120,-0.00000102,0.00000177
 ,-0.00000001,-0.00000261,-0.00000055,-0.00000031,-0.00000364,0.0000034
 9\\\@


 LAWS OF PROGRAMMING DEFINITION:  A WORKING PROGRAM
                                  IS ONE THAT HAS
                                  ONLY UNOBSERVED
                                  BUGS.
 Job cpu time:       0 days  4 hours  0 minutes 44.2 seconds.
 File lengths (MBytes):  RWF=    840 Int=      0 D2E=      0 Chk=     42 Scr=      1
 Normal termination of Gaussian 09 at Wed Sep 16 20:11:10 2020.
