 Entering Gaussian System, Link 0=g09
 Input=m062x_dmad_4H2O_cycloaddition_PM6_toluene_water.com
 Output=m062x_dmad_4H2O_cycloaddition_PM6_toluene_water.log
 Initial command:
 /apps/applications/gaussian/G09.D01/2/default/g09/l1.exe "/local/730570.1.40core-192G.q/Gau-442529.inp" -scrdir="/local/730570.1.40core-192G.q/"
 Entering Link 1 = /apps/applications/gaussian/G09.D01/2/default/g09/l1.exe PID=    442530.
  
 Copyright (c) 1988,1990,1992,1993,1995,1998,2003,2009,2013,
            Gaussian, Inc.  All Rights Reserved.
  
 This is part of the Gaussian(R) 09 program.  It is based on
 the Gaussian(R) 03 system (copyright 2003, Gaussian, Inc.),
 the Gaussian(R) 98 system (copyright 1998, Gaussian, Inc.),
 the Gaussian(R) 94 system (copyright 1995, Gaussian, Inc.),
 the Gaussian 92(TM) system (copyright 1992, Gaussian, Inc.),
 the Gaussian 90(TM) system (copyright 1990, Gaussian, Inc.),
 the Gaussian 88(TM) system (copyright 1988, Gaussian, Inc.),
 the Gaussian 86(TM) system (copyright 1986, Carnegie Mellon
 University), and the Gaussian 82(TM) system (copyright 1983,
 Carnegie Mellon University). Gaussian is a federally registered
 trademark of Gaussian, Inc.
  
 This software contains proprietary and confidential information,
 including trade secrets, belonging to Gaussian, Inc.
  
 This software is provided under written license and may be
 used, copied, transmitted, or stored only in accord with that
 written license.
  
 The following legend is applicable only to US Government
 contracts under FAR:
  
                    RESTRICTED RIGHTS LEGEND
  
 Use, reproduction and disclosure by the US Government is
 subject to restrictions as set forth in subparagraphs (a)
 and (c) of the Commercial Computer Software - Restricted
 Rights clause in FAR 52.227-19.
  
 Gaussian, Inc.
 340 Quinnipiac St., Bldg. 40, Wallingford CT 06492
  
  
 ---------------------------------------------------------------
 Warning -- This program may not be used in any manner that
 competes with the business of Gaussian, Inc. or will provide
 assistance to any competitor of Gaussian, Inc.  The licensee
 of this program is prohibited from giving any competitor of
 Gaussian, Inc. access to this program.  By using this program,
 the user acknowledges that Gaussian, Inc. is engaged in the
 business of creating and licensing software in the field of
 computational chemistry and represents and warrants to the
 licensee that it is not a competitor of Gaussian, Inc. and that
 it will not use this program in any manner prohibited above.
 ---------------------------------------------------------------
  

 Cite this work as:
 Gaussian 09, Revision D.01,
 M. J. Frisch, G. W. Trucks, H. B. Schlegel, G. E. Scuseria, 
 M. A. Robb, J. R. Cheeseman, G. Scalmani, V. Barone, B. Mennucci, 
 G. A. Petersson, H. Nakatsuji, M. Caricato, X. Li, H. P. Hratchian, 
 A. F. Izmaylov, J. Bloino, G. Zheng, J. L. Sonnenberg, M. Hada, 
 M. Ehara, K. Toyota, R. Fukuda, J. Hasegawa, M. Ishida, T. Nakajima, 
 Y. Honda, O. Kitao, H. Nakai, T. Vreven, J. A. Montgomery, Jr., 
 J. E. Peralta, F. Ogliaro, M. Bearpark, J. J. Heyd, E. Brothers, 
 K. N. Kudin, V. N. Staroverov, T. Keith, R. Kobayashi, J. Normand, 
 K. Raghavachari, A. Rendell, J. C. Burant, S. S. Iyengar, J. Tomasi, 
 M. Cossi, N. Rega, J. M. Millam, M. Klene, J. E. Knox, J. B. Cross, 
 V. Bakken, C. Adamo, J. Jaramillo, R. Gomperts, R. E. Stratmann, 
 O. Yazyev, A. J. Austin, R. Cammi, C. Pomelli, J. W. Ochterski, 
 R. L. Martin, K. Morokuma, V. G. Zakrzewski, G. A. Voth, 
 P. Salvador, J. J. Dannenberg, S. Dapprich, A. D. Daniels, 
 O. Farkas, J. B. Foresman, J. V. Ortiz, J. Cioslowski, 
 and D. J. Fox, Gaussian, Inc., Wallingford CT, 2013.
 
 ******************************************
 Gaussian 09:  ES64L-G09RevD.01 24-Apr-2013
                 9-Sep-2020 
 ******************************************
 %nprocshared=4
 Will use up to    4 processors via shared memory.
 %chk=m062x_dmad_4H2O_cycloaddition_PM6_toluene_water.chk
 ----------------------------------------------------------------------
 # opt freq scrf=(cpcm,solvent=water) geom=connectivity def2svp m062x e
 mpiricaldispersion=gd3
 ----------------------------------------------------------------------
 1/14=-1,18=20,19=15,26=3,38=1,57=2/1,3;
 2/9=110,12=2,17=6,18=5,40=1/2;
 3/5=43,7=101,11=2,16=1,25=1,30=1,70=2101,71=1,72=1,74=-55,124=31/1,2,3;
 4//1;
 5/5=2,38=5,53=1/2;
 6/7=2,8=2,9=2,10=2,28=1/1;
 7//1,2,3,16;
 1/14=-1,18=20,19=15,26=3/3(2);
 2/9=110/2;
 99//99;
 2/9=110/2;
 3/5=43,7=101,11=2,16=1,25=1,30=1,70=2105,71=1,72=1,74=-55,124=31/1,2,3;
 4/5=5,16=3,69=1/1;
 5/5=2,38=5,53=1/2;
 7//1,2,3,16;
 1/14=-1,18=20,19=15,26=3/3(-5);
 2/9=110/2;
 6/7=2,8=2,9=2,10=2,19=2,28=1/1;
 99/9=1/99;
 -------------------
 Title Card Required
 -------------------
 Symbolic Z-matrix:
 Charge =  0 Multiplicity = 1
 N                    -0.33293   0.25678   0.45982 
 N                     0.3705   -0.46902  -0.23354 
 C                    -1.74994   0.02502   0.28471 
 C                     1.78764  -0.18852  -0.06958 
 O                     2.31752  -0.15199   1.00335 
 O                    -2.40623   0.82272  -0.32504 
 O                     2.32644  -0.08491  -1.25113 
 O                    -2.13342  -1.03331   0.933 
 C                    -3.50234  -1.43756   0.75721 
 H                    -3.70154  -2.16706   1.54616 
 H                    -4.16785  -0.56957   0.83449 
 H                    -3.58033  -1.89587  -0.23648 
 C                     3.68036   0.38799  -1.28839 
 H                     3.67195   1.44753  -1.00043 
 H                     4.30494  -0.19119  -0.59759 
 H                     4.01252   0.2668   -2.32253 
 O                    -5.15951   1.46788   0.32512 
 H                    -4.3038    1.3563   -0.11417 
 H                    -4.92294   1.91342   1.14678 
 O                    -1.73678  -1.7178   -1.86915 
 H                    -1.86521  -0.92755  -2.40731 
 H                    -0.81842  -1.64094  -1.57263 
 O                     1.48817   2.47811  -0.07403 
 H                     1.12586   2.22017   0.78398 
 H                     0.69752   2.63354  -0.60502 
 O                     5.09488  -0.89781   1.467 
 H                     4.14958  -0.69045   1.5066 
 H                     5.51175  -0.05435   1.67764 
 
 Add virtual bond connecting atoms H27        and O5         Dist= 3.73D+00.
 Add virtual bond connecting atoms H18        and O6         Dist= 3.75D+00.
 Add virtual bond connecting atoms H22        and N2         Dist= 4.04D+00.
 Add virtual bond connecting atoms O23        and H14        Dist= 4.89D+00.
 Add virtual bond connecting atoms H24        and N1         Dist= 4.66D+00.

 GradGradGradGradGradGradGradGradGradGradGradGradGradGradGradGradGradGrad
 Berny optimization.
 Initialization pass.
                           ----------------------------
                           !    Initial Parameters    !
                           ! (Angstroms and Degrees)  !
 --------------------------                            --------------------------
 ! Name  Definition              Value          Derivative Info.                !
 --------------------------------------------------------------------------------
 ! R1    R(1,2)                  1.2257         estimate D2E/DX2                !
 ! R2    R(1,3)                  1.4465         estimate D2E/DX2                !
 ! R3    R(1,24)                 2.4674         estimate D2E/DX2                !
 ! R4    R(2,4)                  1.4539         estimate D2E/DX2                !
 ! R5    R(2,22)                 2.1401         estimate D2E/DX2                !
 ! R6    R(3,6)                  1.1995         estimate D2E/DX2                !
 ! R7    R(3,8)                  1.299          estimate D2E/DX2                !
 ! R8    R(4,5)                  1.1972         estimate D2E/DX2                !
 ! R9    R(4,7)                  1.3027         estimate D2E/DX2                !
 ! R10   R(5,27)                 1.9747         estimate D2E/DX2                !
 ! R11   R(6,18)                 1.9824         estimate D2E/DX2                !
 ! R12   R(7,13)                 1.4346         estimate D2E/DX2                !
 ! R13   R(8,9)                  1.4381         estimate D2E/DX2                !
 ! R14   R(9,10)                 1.0928         estimate D2E/DX2                !
 ! R15   R(9,11)                 1.0965         estimate D2E/DX2                !
 ! R16   R(9,12)                 1.0971         estimate D2E/DX2                !
 ! R17   R(13,14)                1.098          estimate D2E/DX2                !
 ! R18   R(13,15)                1.0967         estimate D2E/DX2                !
 ! R19   R(13,16)                1.0929         estimate D2E/DX2                !
 ! R20   R(14,23)                2.5864         estimate D2E/DX2                !
 ! R21   R(17,18)                0.9683         estimate D2E/DX2                !
 ! R22   R(17,19)                0.9642         estimate D2E/DX2                !
 ! R23   R(20,21)                0.9647         estimate D2E/DX2                !
 ! R24   R(20,22)                0.9681         estimate D2E/DX2                !
 ! R25   R(23,24)                0.9664         estimate D2E/DX2                !
 ! R26   R(23,25)                0.965          estimate D2E/DX2                !
 ! R27   R(26,27)                0.9686         estimate D2E/DX2                !
 ! R28   R(26,28)                0.9641         estimate D2E/DX2                !
 ! A1    A(2,1,3)              113.5061         estimate D2E/DX2                !
 ! A2    A(2,1,24)             101.9005         estimate D2E/DX2                !
 ! A3    A(3,1,24)             136.2683         estimate D2E/DX2                !
 ! A4    A(1,2,4)              112.4174         estimate D2E/DX2                !
 ! A5    A(1,2,22)             111.0627         estimate D2E/DX2                !
 ! A6    A(4,2,22)             135.8648         estimate D2E/DX2                !
 ! A7    A(1,3,6)              119.4043         estimate D2E/DX2                !
 ! A8    A(1,3,8)              111.0589         estimate D2E/DX2                !
 ! A9    A(6,3,8)              129.3441         estimate D2E/DX2                !
 ! A10   A(2,4,5)              122.5716         estimate D2E/DX2                !
 ! A11   A(2,4,7)              108.4332         estimate D2E/DX2                !
 ! A12   A(5,4,7)              128.8554         estimate D2E/DX2                !
 ! A13   A(4,5,27)             129.1006         estimate D2E/DX2                !
 ! A14   A(3,6,18)             130.4392         estimate D2E/DX2                !
 ! A15   A(4,7,13)             116.1104         estimate D2E/DX2                !
 ! A16   A(3,8,9)              116.6806         estimate D2E/DX2                !
 ! A17   A(8,9,10)             105.8369         estimate D2E/DX2                !
 ! A18   A(8,9,11)             110.2794         estimate D2E/DX2                !
 ! A19   A(8,9,12)             107.2063         estimate D2E/DX2                !
 ! A20   A(10,9,11)            111.525          estimate D2E/DX2                !
 ! A21   A(10,9,12)            111.2274         estimate D2E/DX2                !
 ! A22   A(11,9,12)            110.5731         estimate D2E/DX2                !
 ! A23   A(7,13,14)            107.7012         estimate D2E/DX2                !
 ! A24   A(7,13,15)            110.3063         estimate D2E/DX2                !
 ! A25   A(7,13,16)            105.9535         estimate D2E/DX2                !
 ! A26   A(14,13,15)           110.4118         estimate D2E/DX2                !
 ! A27   A(14,13,16)           110.9457         estimate D2E/DX2                !
 ! A28   A(15,13,16)           111.3683         estimate D2E/DX2                !
 ! A29   A(13,14,23)           119.0065         estimate D2E/DX2                !
 ! A30   A(18,17,19)           102.8868         estimate D2E/DX2                !
 ! A31   A(6,18,17)            157.6904         estimate D2E/DX2                !
 ! A32   A(21,20,22)           103.4222         estimate D2E/DX2                !
 ! A33   A(2,22,20)            139.6519         estimate D2E/DX2                !
 ! A34   A(14,23,24)           121.884          estimate D2E/DX2                !
 ! A35   A(14,23,25)           123.9785         estimate D2E/DX2                !
 ! A36   A(24,23,25)           102.964          estimate D2E/DX2                !
 ! A37   A(1,24,23)            108.5051         estimate D2E/DX2                !
 ! A38   A(27,26,28)           103.0476         estimate D2E/DX2                !
 ! A39   A(5,27,26)            162.439          estimate D2E/DX2                !
 ! D1    D(3,1,2,4)            178.2386         estimate D2E/DX2                !
 ! D2    D(3,1,2,22)             6.0055         estimate D2E/DX2                !
 ! D3    D(24,1,2,4)            24.4799         estimate D2E/DX2                !
 ! D4    D(24,1,2,22)         -147.7531         estimate D2E/DX2                !
 ! D5    D(2,1,3,6)           -106.3149         estimate D2E/DX2                !
 ! D6    D(2,1,3,8)             78.2672         estimate D2E/DX2                !
 ! D7    D(24,1,3,6)            34.9393         estimate D2E/DX2                !
 ! D8    D(24,1,3,8)          -140.4786         estimate D2E/DX2                !
 ! D9    D(2,1,24,23)           47.6763         estimate D2E/DX2                !
 ! D10   D(3,1,24,23)          -96.412          estimate D2E/DX2                !
 ! D11   D(1,2,4,5)             52.3066         estimate D2E/DX2                !
 ! D12   D(1,2,4,7)           -131.6422         estimate D2E/DX2                !
 ! D13   D(22,2,4,5)          -138.1277         estimate D2E/DX2                !
 ! D14   D(22,2,4,7)            37.9236         estimate D2E/DX2                !
 ! D15   D(1,2,22,20)            8.1771         estimate D2E/DX2                !
 ! D16   D(4,2,22,20)         -161.4876         estimate D2E/DX2                !
 ! D17   D(1,3,6,18)          -148.1536         estimate D2E/DX2                !
 ! D18   D(8,3,6,18)            26.3145         estimate D2E/DX2                !
 ! D19   D(1,3,8,9)           -175.2362         estimate D2E/DX2                !
 ! D20   D(6,3,8,9)              9.927          estimate D2E/DX2                !
 ! D21   D(2,4,5,27)           145.7977         estimate D2E/DX2                !
 ! D22   D(7,4,5,27)           -29.3899         estimate D2E/DX2                !
 ! D23   D(2,4,7,13)           171.0015         estimate D2E/DX2                !
 ! D24   D(5,4,7,13)           -13.2723         estimate D2E/DX2                !
 ! D25   D(4,5,27,26)           24.8292         estimate D2E/DX2                !
 ! D26   D(3,6,18,17)           20.5295         estimate D2E/DX2                !
 ! D27   D(4,7,13,14)          -69.6059         estimate D2E/DX2                !
 ! D28   D(4,7,13,15)           50.9554         estimate D2E/DX2                !
 ! D29   D(4,7,13,16)          171.6094         estimate D2E/DX2                !
 ! D30   D(3,8,9,10)          -166.376          estimate D2E/DX2                !
 ! D31   D(3,8,9,11)           -45.6188         estimate D2E/DX2                !
 ! D32   D(3,8,9,12)            74.8188         estimate D2E/DX2                !
 ! D33   D(7,13,14,23)           9.2833         estimate D2E/DX2                !
 ! D34   D(15,13,14,23)       -111.2116         estimate D2E/DX2                !
 ! D35   D(16,13,14,23)        124.8207         estimate D2E/DX2                !
 ! D36   D(13,14,23,24)         68.0179         estimate D2E/DX2                !
 ! D37   D(13,14,23,25)        -69.5304         estimate D2E/DX2                !
 ! D38   D(19,17,18,6)          52.3258         estimate D2E/DX2                !
 ! D39   D(21,20,22,2)          71.2454         estimate D2E/DX2                !
 ! D40   D(14,23,24,1)         -87.6811         estimate D2E/DX2                !
 ! D41   D(25,23,24,1)          57.2644         estimate D2E/DX2                !
 ! D42   D(28,26,27,5)          90.5897         estimate D2E/DX2                !
 --------------------------------------------------------------------------------
 Trust Radius=3.00D-01 FncErr=1.00D-07 GrdErr=1.00D-06
 Number of steps in this run=    119 maximum allowed number of steps=    168.
 GradGradGradGradGradGradGradGradGradGradGradGradGradGradGradGradGradGrad

                          Input orientation:                          
 ---------------------------------------------------------------------
 Center     Atomic      Atomic             Coordinates (Angstroms)
 Number     Number       Type             X           Y           Z
 ---------------------------------------------------------------------
      1          7           0       -0.332927    0.256784    0.459816
      2          7           0        0.370498   -0.469015   -0.233538
      3          6           0       -1.749937    0.025017    0.284706
      4          6           0        1.787643   -0.188515   -0.069582
      5          8           0        2.317519   -0.151986    1.003352
      6          8           0       -2.406234    0.822722   -0.325042
      7          8           0        2.326443   -0.084907   -1.251132
      8          8           0       -2.133421   -1.033307    0.932995
      9          6           0       -3.502342   -1.437559    0.757207
     10          1           0       -3.701543   -2.167062    1.546157
     11          1           0       -4.167848   -0.569568    0.834493
     12          1           0       -3.580333   -1.895873   -0.236479
     13          6           0        3.680355    0.387988   -1.288393
     14          1           0        3.671953    1.447530   -1.000431
     15          1           0        4.304944   -0.191185   -0.597588
     16          1           0        4.012524    0.266796   -2.322530
     17          8           0       -5.159507    1.467876    0.325123
     18          1           0       -4.303800    1.356304   -0.114167
     19          1           0       -4.922937    1.913422    1.146778
     20          8           0       -1.736778   -1.717797   -1.869153
     21          1           0       -1.865206   -0.927546   -2.407312
     22          1           0       -0.818420   -1.640936   -1.572625
     23          8           0        1.488174    2.478111   -0.074030
     24          1           0        1.125858    2.220173    0.783982
     25          1           0        0.697522    2.633540   -0.605020
     26          8           0        5.094885   -0.897806    1.467003
     27          1           0        4.149575   -0.690445    1.506598
     28          1           0        5.511754   -0.054346    1.677641
 ---------------------------------------------------------------------
                    Distance matrix (angstroms):
                    1          2          3          4          5
     1  N    0.000000
     2  N    1.225696   0.000000
     3  C    1.446477   2.238055   0.000000
     4  C    2.230554   1.453913   3.561683   0.000000
     5  O    2.736309   2.328367   4.134245   1.197201   0.000000
     6  O    2.287988   3.063853   1.199521   4.321628   5.002852
     7  O    3.180620   2.238025   4.357494   1.302728   2.255499
     8  O    2.264953   2.819368   1.298995   4.134438   4.537901
     9  C    3.606166   4.113216   2.330946   5.497966   5.965238
    10  H    4.289841   4.757331   3.194563   6.054455   6.370579
    11  H    3.940794   4.663409   2.549920   6.035762   6.500990
    12  H    3.957828   4.200595   2.704034   5.635432   6.273992
    13  C    4.379484   3.578034   5.665197   2.323836   2.720476
    14  H    4.425976   3.893697   5.750827   2.663409   2.899671
    15  H    4.777931   3.961008   6.122644   2.572081   2.552333
    16  H    5.159893   4.262588   6.329462   3.198934   3.756316
    17  O    4.978028   5.885967   3.702518   7.152784   7.680486
    18  H    4.160076   5.019472   2.907515   6.284436   6.882271
    19  H    4.927936   5.966719   3.791724   7.136495   7.530650
    20  O    3.360635   2.945387   2.770683   4.242488   5.209642
    21  H    3.459905   3.151812   2.857906   4.399370   5.452459
    22  H    2.822740   2.140112   2.663231   3.340693   4.322817
    23  O    2.921591   3.155978   4.078201   2.683393   2.960739
    24  H    2.467394   2.972818   3.652148   2.639755   2.663704
    25  H    2.800834   3.141782   3.685927   3.072304   3.601445
    26  O    5.639915   5.039398   7.007212   3.715109   2.912899
    27  H    4.699555   4.166357   6.067054   2.883574   1.974747
    28  H    5.978310   5.500643   7.394506   4.115798   3.266089
                    6          7          8          9         10
     6  O    0.000000
     7  O    4.907103   0.000000
     8  O    2.258745   5.055716   0.000000
     9  C    2.735249   6.311721   1.438147   0.000000
    10  H    3.757395   6.963965   2.029871   1.092839   0.000000
    11  H    2.527108   6.838168   2.088935   1.096485   1.809943
    12  H    2.962619   6.260920   2.050669   1.097063   1.807215
    13  C    6.177670   1.434606   6.383936   7.688188   8.309956
    14  H    6.147430   2.054656   6.602655   7.929914   8.597606
    15  H    6.792805   2.086356   6.671162   8.021386   8.520773
    16  H    6.745329   2.028413   7.075405   8.298362   8.966450
    17  O    2.901629   7.806098   3.972735   3.372602   4.102360
    18  H    1.982406   6.879673   3.393720   3.034353   3.941256
    19  H    3.112824   7.892832   4.063289   3.660455   4.278044
    20  O    3.047407   4.422448   2.911681   3.177029   3.965663
    21  H    2.773445   4.429076   3.352727   3.599237   4.531937
    22  H    3.185471   3.523457   2.894231   3.559904   4.279721
    23  O    4.239072   2.942333   5.143939   6.397552   7.150930
    24  H    3.957079   3.300983   4.607628   5.899149   6.567537
    25  H    3.604268   3.234316   4.881137   6.005695   6.857486
    26  O    7.901799   3.964005   7.249271   8.643347   8.887881
    27  H    6.973035   3.360887   6.318434   7.724739   7.988868
    28  H    8.214288   4.327222   7.743485   9.165937   9.453343
                   11         12         13         14         15
    11  H    0.000000
    12  H    1.803119   0.000000
    13  C    8.186443   7.683758   0.000000
    14  H    8.300489   8.022320   1.098008   0.000000
    15  H    8.601293   8.075516   1.096706   1.802317   0.000000
    16  H    8.808223   8.165796   1.092915   1.805012   1.808502
    17  O    2.322504   3.758190   9.050566   8.930408   9.652964
    18  H    2.151144   3.333920   8.127926   8.025361   8.760074
    19  H    2.613986   4.269276   9.070482   8.871285   9.624239
    20  O    3.812903   2.469014   5.840971   6.326796   6.360018
    21  H    3.992444   2.931183   5.808258   6.187118   6.472100
    22  H    4.261539   3.078708   4.943308   5.479916   5.413071
    23  O    6.488786   6.696857   3.263273   2.586350   3.915795
    24  H    5.984023   6.334936   3.765248   3.203702   4.222555
    25  H    6.000327   6.241110   3.795628   3.226486   4.581770
    26  O    9.290104   8.897044   3.353561   3.689657   2.320745
    27  H    8.345410   8.015164   3.032352   3.329302   2.168179
    28  H    9.729905   9.472123   3.513835   3.579465   2.579105
                   16         17         18         19         20
    16  H    0.000000
    17  O    9.621788   0.000000
    18  H    8.673243   0.968328   0.000000
    19  H    9.725736   0.964154   1.511189   0.000000
    20  O    6.099068   5.165117   4.372605   5.695015   0.000000
    21  H    5.998446   4.904760   4.052311   5.482005   0.964679
    22  H    5.247839   5.666674   4.822699   6.072534   0.968100
    23  O    4.039556   6.735841   5.899748   6.550694   5.588240
    24  H    4.668933   6.346835   5.570828   6.067424   5.544494
    25  H    4.420470   6.043900   5.185122   5.931014   5.143732
    26  O    4.109545  10.585504   9.793691  10.409722   7.646826
    27  H    3.949344   9.628771   8.847350   9.445637   6.862966
    28  H    4.283946  10.863806  10.076984  10.631872   8.239419
                   21         22         23         24         25
    21  H    0.000000
    22  H    1.517033   0.000000
    23  O    5.318633   4.953051   0.000000
    24  H    5.388781   4.923614   0.966431   0.000000
    25  H    4.743118   4.637401   0.965007   1.511182   0.000000
    26  O    7.965806   6.690199   5.174936   5.093279   6.008368
    27  H    7.180007   5.921657   4.429581   4.258725   5.236838
    28  H    8.477550   7.290583   5.066644   5.020772   5.967588
                   26         27         28
    26  O    0.000000
    27  H    0.968596   0.000000
    28  H    0.964144   1.513079   0.000000
 Stoichiometry    C4H14N2O8
 Framework group  C1[X(C4H14N2O8)]
 Deg. of freedom    78
 Full point group                 C1      NOp   1
 Largest Abelian subgroup         C1      NOp   1
 Largest concise Abelian subgroup C1      NOp   1
                         Standard orientation:                         
 ---------------------------------------------------------------------
 Center     Atomic      Atomic             Coordinates (Angstroms)
 Number     Number       Type             X           Y           Z
 ---------------------------------------------------------------------
      1          7           0        0.332927    0.256784   -0.459816
      2          7           0       -0.370498   -0.469015    0.233538
      3          6           0        1.749937    0.025017   -0.284706
      4          6           0       -1.787643   -0.188515    0.069582
      5          8           0       -2.317519   -0.151986   -1.003352
      6          8           0        2.406234    0.822722    0.325042
      7          8           0       -2.326443   -0.084907    1.251132
      8          8           0        2.133421   -1.033307   -0.932995
      9          6           0        3.502342   -1.437559   -0.757207
     10          1           0        3.701543   -2.167062   -1.546157
     11          1           0        4.167848   -0.569568   -0.834493
     12          1           0        3.580333   -1.895873    0.236479
     13          6           0       -3.680355    0.387988    1.288393
     14          1           0       -3.671953    1.447530    1.000431
     15          1           0       -4.304944   -0.191185    0.597588
     16          1           0       -4.012524    0.266796    2.322530
     17          8           0        5.159507    1.467876   -0.325123
     18          1           0        4.303800    1.356304    0.114167
     19          1           0        4.922937    1.913422   -1.146778
     20          8           0        1.736778   -1.717797    1.869153
     21          1           0        1.865206   -0.927546    2.407312
     22          1           0        0.818420   -1.640936    1.572625
     23          8           0       -1.488174    2.478111    0.074030
     24          1           0       -1.125858    2.220173   -0.783982
     25          1           0       -0.697522    2.633540    0.605020
     26          8           0       -5.094885   -0.897806   -1.467003
     27          1           0       -4.149575   -0.690445   -1.506598
     28          1           0       -5.511754   -0.054346   -1.677641
 ---------------------------------------------------------------------
 Rotational constants (GHZ):      1.0299408      0.2469102      0.2377926
 Standard basis: def2SVP (5D, 7F)
 There are   280 symmetry adapted cartesian basis functions of A   symmetry.
 There are   266 symmetry adapted basis functions of A   symmetry.
   266 basis functions,   448 primitive gaussians,   280 cartesian basis functions
    58 alpha electrons       58 beta electrons
       nuclear repulsion energy      1003.1582121415 Hartrees.
 NAtoms=   28 NActive=   28 NUniq=   28 SFac= 1.00D+00 NAtFMM=   60 NAOKFM=F Big=F
 Integral buffers will be    131072 words long.
 Raffenetti 2 integral format.
 Two-electron integral symmetry is turned on.
 Nuclear repulsion after empirical dispersion term =     1003.1568515810 Hartrees.
 ------------------------------------------------------------------------------
 Polarizable Continuum Model (PCM)
 =================================
 Model                : C-PCM.
 Atomic radii         : UFF (Universal Force Field).
 Polarization charges : Total charges.
 Charge compensation  : None.
 Solution method      : On-the-fly selection.
 Cavity type          : Scaled VdW (van der Waals Surface) (Alpha=1.100).
 Cavity algorithm     : GePol (No added spheres)
                        Default sphere list used, NSphG=   28.
                        Lebedev-Laikov grids with approx.  5.0 points / Ang**2.
                        Smoothing algorithm: Karplus/York (Gamma=1.0000).
                        Polarization charges: spherical gaussians, with
                                              point-specific exponents (IZeta= 3).
                        Self-potential: point-specific (ISelfS= 7).
                        Self-field    : sphere-specific E.n sum rule (ISelfD= 2).
 1st derivatives      : Analytical E(r).r(x)/FMM algorithm (CHGder, D1EAlg=3).
                        Cavity 1st derivative terms included.
 Solvent              : Water, Eps=  78.355300 Eps(inf)=   1.777849
 ------------------------------------------------------------------------------
 One-electron integrals computed using PRISM.
   1 Symmetry operations used in ECPInt.
 ECPInt:  NShTT=    8001 NPrTT=   28665 LenC2=    7104 LenP2D=   17909.
 LDataN:  DoStor=T MaxTD1= 4 Len=   56
 NBasis=   266 RedAO= T EigKep=  3.94D-03  NBF=   266
 NBsUse=   266 1.00D-06 EigRej= -1.00D+00 NBFU=   266
 ExpMin= 1.22D-01 ExpMax= 2.27D+03 ExpMxC= 3.41D+02 IAcc=1 IRadAn=         1 AccDes= 0.00D+00
 Harris functional with IExCor= 1009 and IRadAn=       1 diagonalized for initial guess.
 HarFok:  IExCor= 1009 AccDes= 0.00D+00 IRadAn=         1 IDoV= 1 UseB2=F ITyADJ=14
 ICtDFT=  3500011 ScaDFX=  1.000000  1.000000  1.000000  1.000000
 FoFCou: FMM=F IPFlag=           0 FMFlag=      100000 FMFlg1=           0
         NFxFlg=           0 DoJE=T BraDBF=F KetDBF=T FulRan=T
         wScrn=  0.000000 ICntrl=     500 IOpCl=  0 I1Cent=   200000004 NGrid=           0
         NMat0=    1 NMatS0=      1 NMatT0=    0 NMatD0=    1 NMtDS0=    0 NMtDT0=    0
 Petite list used in FoFCou.
 Requested convergence on RMS density matrix=1.00D-08 within 128 cycles.
 Requested convergence on MAX density matrix=1.00D-06.
 Requested convergence on             energy=1.00D-06.
 No special actions if energy rises.
 Inv3:  Mode=1 IEnd=    17107632.
 Iteration    1 A*A^-1 deviation from unit magnitude is 6.55D-15 for   2366.
 Iteration    1 A*A^-1 deviation from orthogonality  is 2.08D-15 for   1997    596.
 Iteration    1 A^-1*A deviation from unit magnitude is 6.55D-15 for   2366.
 Iteration    1 A^-1*A deviation from orthogonality  is 1.95D-15 for   2363   2359.
 Error on total polarization charges =  0.00535
 SCF Done:  E(RM062X) =  -871.105052093     A.U. after   15 cycles
            NFock= 15  Conv=0.55D-08     -V/T= 2.0077

 **********************************************************************

            Population analysis using the SCF density.

 **********************************************************************

 Orbital symmetries:
       Occupied  (A) (A) (A) (A) (A) (A) (A) (A) (A) (A) (A) (A)
                 (A) (A) (A) (A) (A) (A) (A) (A) (A) (A) (A) (A)
                 (A) (A) (A) (A) (A) (A) (A) (A) (A) (A) (A) (A)
                 (A) (A) (A) (A) (A) (A) (A) (A) (A) (A) (A) (A)
                 (A) (A) (A) (A) (A) (A) (A) (A) (A) (A)
       Virtual   (A) (A) (A) (A) (A) (A) (A) (A) (A) (A) (A) (A)
                 (A) (A) (A) (A) (A) (A) (A) (A) (A) (A) (A) (A)
                 (A) (A) (A) (A) (A) (A) (A) (A) (A) (A) (A) (A)
                 (A) (A) (A) (A) (A) (A) (A) (A) (A) (A) (A) (A)
                 (A) (A) (A) (A) (A) (A) (A) (A) (A) (A) (A) (A)
                 (A) (A) (A) (A) (A) (A) (A) (A) (A) (A) (A) (A)
                 (A) (A) (A) (A) (A) (A) (A) (A) (A) (A) (A) (A)
                 (A) (A) (A) (A) (A) (A) (A) (A) (A) (A) (A) (A)
                 (A) (A) (A) (A) (A) (A) (A) (A) (A) (A) (A) (A)
                 (A) (A) (A) (A) (A) (A) (A) (A) (A) (A) (A) (A)
                 (A) (A) (A) (A) (A) (A) (A) (A) (A) (A) (A) (A)
                 (A) (A) (A) (A) (A) (A) (A) (A) (A) (A) (A) (A)
                 (A) (A) (A) (A) (A) (A) (A) (A) (A) (A) (A) (A)
                 (A) (A) (A) (A) (A) (A) (A) (A) (A) (A) (A) (A)
                 (A) (A) (A) (A) (A) (A) (A) (A) (A) (A) (A) (A)
                 (A) (A) (A) (A) (A) (A) (A) (A) (A) (A) (A) (A)
                 (A) (A) (A) (A) (A) (A) (A) (A) (A) (A) (A) (A)
                 (A) (A) (A) (A)
 The electronic state is 1-A.
 Alpha  occ. eigenvalues --  -19.70823 -19.70612 -19.65936 -19.65925 -19.63077
 Alpha  occ. eigenvalues --  -19.62345 -19.61536 -19.61473 -14.87002 -14.86906
 Alpha  occ. eigenvalues --  -10.74168 -10.73996 -10.61256 -10.61212  -1.27895
 Alpha  occ. eigenvalues --   -1.26473  -1.19299  -1.16963  -1.16280  -1.10955
 Alpha  occ. eigenvalues --   -1.10288  -1.09524  -1.09453  -0.91658  -0.84538
 Alpha  occ. eigenvalues --   -0.79842  -0.69769  -0.66021  -0.65205  -0.63451
 Alpha  occ. eigenvalues --   -0.61354  -0.60680  -0.59926  -0.59379  -0.59132
 Alpha  occ. eigenvalues --   -0.57674  -0.57335  -0.56055  -0.53141  -0.52259
 Alpha  occ. eigenvalues --   -0.51901  -0.48827  -0.47491  -0.46859  -0.46327
 Alpha  occ. eigenvalues --   -0.45774  -0.45650  -0.45057  -0.44976  -0.42313
 Alpha  occ. eigenvalues --   -0.40551  -0.40273  -0.40194  -0.39359  -0.38667
 Alpha  occ. eigenvalues --   -0.37574  -0.37477  -0.33949
 Alpha virt. eigenvalues --   -0.06192   0.04278   0.05843   0.09188   0.09911
 Alpha virt. eigenvalues --    0.11314   0.11808   0.14815   0.14878   0.16010
 Alpha virt. eigenvalues --    0.16384   0.17543   0.18858   0.19091   0.20324
 Alpha virt. eigenvalues --    0.21380   0.21937   0.23209   0.23448   0.26204
 Alpha virt. eigenvalues --    0.27919   0.31757   0.35755   0.40029   0.42062
 Alpha virt. eigenvalues --    0.42850   0.46440   0.46808   0.48739   0.49359
 Alpha virt. eigenvalues --    0.50203   0.51800   0.53996   0.54674   0.57467
 Alpha virt. eigenvalues --    0.58282   0.59843   0.61523   0.62248   0.63057
 Alpha virt. eigenvalues --    0.65236   0.66140   0.68318   0.69720   0.70308
 Alpha virt. eigenvalues --    0.70486   0.70786   0.71380   0.71588   0.72529
 Alpha virt. eigenvalues --    0.72992   0.73821   0.75501   0.76838   0.78820
 Alpha virt. eigenvalues --    0.79756   0.81704   0.82950   0.84077   0.88442
 Alpha virt. eigenvalues --    0.93444   0.94462   0.95182   0.96797   0.98138
 Alpha virt. eigenvalues --    0.99578   1.00723   1.01464   1.05337   1.06062
 Alpha virt. eigenvalues --    1.07481   1.07780   1.08830   1.09795   1.09903
 Alpha virt. eigenvalues --    1.10784   1.11997   1.14020   1.15492   1.16022
 Alpha virt. eigenvalues --    1.17169   1.18784   1.19824   1.20066   1.22414
 Alpha virt. eigenvalues --    1.24848   1.27073   1.29252   1.30255   1.33036
 Alpha virt. eigenvalues --    1.33340   1.34588   1.35534   1.37941   1.40645
 Alpha virt. eigenvalues --    1.43603   1.44407   1.45202   1.45479   1.47651
 Alpha virt. eigenvalues --    1.49183   1.50549   1.52945   1.54180   1.58012
 Alpha virt. eigenvalues --    1.58286   1.60618   1.61051   1.61939   1.62181
 Alpha virt. eigenvalues --    1.62903   1.64322   1.65684   1.67112   1.69597
 Alpha virt. eigenvalues --    1.71756   1.73076   1.76710   1.77185   1.77871
 Alpha virt. eigenvalues --    1.81324   1.81531   1.83199   1.84488   1.85039
 Alpha virt. eigenvalues --    1.85424   1.86618   1.87679   1.89190   1.91718
 Alpha virt. eigenvalues --    1.94146   1.96006   1.96323   1.98402   1.99367
 Alpha virt. eigenvalues --    2.02060   2.06568   2.14128   2.14787   2.16762
 Alpha virt. eigenvalues --    2.21881   2.24134   2.28126   2.29603   2.29807
 Alpha virt. eigenvalues --    2.30314   2.33007   2.33090   2.34401   2.34986
 Alpha virt. eigenvalues --    2.35809   2.38876   2.40481   2.41448   2.48153
 Alpha virt. eigenvalues --    2.51003   2.55304   2.61607   2.67731   2.69160
 Alpha virt. eigenvalues --    2.69753   2.70142   2.72060   2.73701   2.83785
 Alpha virt. eigenvalues --    2.84674   2.85423   2.86286   2.90125   2.91852
 Alpha virt. eigenvalues --    2.93244   2.94470   2.97480   2.99256   3.02492
 Alpha virt. eigenvalues --    3.03535   3.03539   3.04683   3.05371   3.06619
 Alpha virt. eigenvalues --    3.06711   3.06922   3.07953   3.09092   3.17649
 Alpha virt. eigenvalues --    3.23372   3.24348   3.24664   3.24753   3.25260
 Alpha virt. eigenvalues --    3.25678   3.29995   3.32042   3.37266   3.45431
 Alpha virt. eigenvalues --    3.48169   3.55386   3.55739   3.56447   3.57385
 Alpha virt. eigenvalues --    3.64809   3.67508   3.75744   3.76675   3.86849
 Alpha virt. eigenvalues --    3.86965   3.87863   3.87930
          Condensed to atoms (all electrons):
               1          2          3          4          5          6
     1  N    6.771882   0.340161   0.215751  -0.058499   0.005458  -0.071834
     2  N    0.340161   6.791393  -0.047854   0.210903  -0.082866  -0.002633
     3  C    0.215751  -0.047854   4.440477   0.003078  -0.000455   0.639234
     4  C   -0.058499   0.210903   0.003078   4.416701   0.655770  -0.000509
     5  O    0.005458  -0.082866  -0.000455   0.655770   7.742433  -0.000001
     6  O   -0.071834  -0.002633   0.639234  -0.000509  -0.000001   7.759878
     7  O    0.000328  -0.092248  -0.000353   0.401846  -0.072547   0.000003
     8  O   -0.095687   0.004041   0.394842  -0.000615   0.000014  -0.072120
     9  C    0.004737  -0.000672  -0.029633   0.000019   0.000000   0.002019
    10  H   -0.000089   0.000005   0.003583   0.000000   0.000000   0.000403
    11  H    0.000022   0.000009  -0.001601   0.000001   0.000000   0.002218
    12  H    0.000059   0.000080   0.001439  -0.000006   0.000000   0.000378
    13  C   -0.000311   0.004339   0.000011  -0.032103   0.002506   0.000000
    14  H    0.000113   0.000007   0.000001   0.000779   0.000643   0.000000
    15  H   -0.000031   0.000015  -0.000001  -0.002051   0.001201   0.000000
    16  H    0.000000  -0.000033   0.000000   0.003511   0.000419   0.000000
    17  O   -0.000003   0.000000   0.001225   0.000000   0.000000  -0.008662
    18  H    0.000377  -0.000020  -0.003119   0.000002   0.000000   0.031606
    19  H    0.000000   0.000000   0.000844   0.000000   0.000000   0.000615
    20  O   -0.006404  -0.008864   0.054612   0.000024   0.000000  -0.006862
    21  H    0.000285   0.001336   0.002279   0.000014   0.000000   0.004280
    22  H   -0.003061   0.029387  -0.006624  -0.001310   0.000085   0.000423
    23  O   -0.000658  -0.010906  -0.000154   0.058623  -0.007086  -0.000019
    24  H    0.014475  -0.002318  -0.000101  -0.004617   0.005936   0.000011
    25  H    0.004322   0.000166   0.000641  -0.002184   0.000119   0.000947
    26  O    0.000000  -0.000005   0.000000   0.000390  -0.008340   0.000000
    27  H   -0.000043   0.000348   0.000001  -0.003282   0.031862   0.000000
    28  H    0.000000   0.000001   0.000000  -0.000138   0.000464   0.000000
               7          8          9         10         11         12
     1  N    0.000328  -0.095687   0.004737  -0.000089   0.000022   0.000059
     2  N   -0.092248   0.004041  -0.000672   0.000005   0.000009   0.000080
     3  C   -0.000353   0.394842  -0.029633   0.003583  -0.001601   0.001439
     4  C    0.401846  -0.000615   0.000019   0.000000   0.000001  -0.000006
     5  O   -0.072547   0.000014   0.000000   0.000000   0.000000   0.000000
     6  O    0.000003  -0.072120   0.002019   0.000403   0.002218   0.000378
     7  O    7.904592   0.000000   0.000000   0.000000   0.000000   0.000000
     8  O    0.000000   7.917878   0.236684  -0.019738  -0.021296  -0.029836
     9  C    0.000000   0.236684   4.588433   0.394081   0.326909   0.392642
    10  H    0.000000  -0.019738   0.394081   0.570831  -0.012634  -0.017313
    11  H    0.000000  -0.021296   0.326909  -0.012634   0.637076  -0.019571
    12  H    0.000000  -0.029836   0.392642  -0.017313  -0.019571   0.572029
    13  C    0.241934   0.000000   0.000000   0.000000   0.000000   0.000000
    14  H   -0.029782   0.000000   0.000000   0.000000   0.000000   0.000000
    15  H   -0.020643   0.000000   0.000000   0.000000   0.000000   0.000000
    16  H   -0.019667   0.000000   0.000000   0.000000   0.000000   0.000000
    17  O    0.000000   0.000080  -0.022541   0.000257   0.067096   0.000156
    18  H    0.000000  -0.000396   0.006327  -0.000083  -0.012137  -0.000066
    19  H    0.000000  -0.000105   0.000739  -0.000044  -0.000952  -0.000030
    20  O   -0.000008  -0.006792  -0.013035   0.000094   0.000230   0.027579
    21  H   -0.000006  -0.000514   0.001110  -0.000004  -0.000170  -0.001317
    22  H    0.000696   0.003620   0.000926  -0.000020   0.000034  -0.002548
    23  O   -0.006756  -0.000001   0.000000   0.000000   0.000000   0.000000
    24  H    0.000249   0.000014   0.000000   0.000000   0.000000   0.000000
    25  H    0.001366   0.000026  -0.000001   0.000000   0.000000   0.000000
    26  O    0.000093   0.000000   0.000000   0.000000   0.000000   0.000000
    27  H   -0.000281   0.000000   0.000000   0.000000   0.000000   0.000000
    28  H   -0.000038   0.000000   0.000000   0.000000   0.000000   0.000000
              13         14         15         16         17         18
     1  N   -0.000311   0.000113  -0.000031   0.000000  -0.000003   0.000377
     2  N    0.004339   0.000007   0.000015  -0.000033   0.000000  -0.000020
     3  C    0.000011   0.000001  -0.000001   0.000000   0.001225  -0.003119
     4  C   -0.032103   0.000779  -0.002051   0.003511   0.000000   0.000002
     5  O    0.002506   0.000643   0.001201   0.000419   0.000000   0.000000
     6  O    0.000000   0.000000   0.000000   0.000000  -0.008662   0.031606
     7  O    0.241934  -0.029782  -0.020643  -0.019667   0.000000   0.000000
     8  O    0.000000   0.000000   0.000000   0.000000   0.000080  -0.000396
     9  C    0.000000   0.000000   0.000000   0.000000  -0.022541   0.006327
    10  H    0.000000   0.000000   0.000000   0.000000   0.000257  -0.000083
    11  H    0.000000   0.000000   0.000000   0.000000   0.067096  -0.012137
    12  H    0.000000   0.000000   0.000000   0.000000   0.000156  -0.000066
    13  C    4.576071   0.395268   0.332285   0.394294   0.000000   0.000000
    14  H    0.395268   0.581278  -0.022074  -0.018222   0.000000   0.000000
    15  H    0.332285  -0.022074   0.632749  -0.012453   0.000000   0.000000
    16  H    0.394294  -0.018222  -0.012453   0.571250   0.000000   0.000000
    17  O    0.000000   0.000000   0.000000   0.000000   7.641186   0.341721
    18  H    0.000000   0.000000   0.000000   0.000000   0.341721   0.478104
    19  H    0.000000   0.000000   0.000000   0.000000   0.336354  -0.030076
    20  O    0.000000   0.000000   0.000000   0.000000   0.000000  -0.000032
    21  H    0.000000   0.000000   0.000000   0.000000  -0.000002   0.000048
    22  H   -0.000017   0.000001   0.000002  -0.000001   0.000000  -0.000015
    23  O   -0.008871   0.020192   0.000233   0.000009   0.000000   0.000000
    24  H    0.000567  -0.001063  -0.000107   0.000002   0.000000  -0.000001
    25  H    0.000639  -0.001652   0.000020  -0.000007   0.000000  -0.000002
    26  O   -0.021852   0.000150   0.065881   0.000286   0.000000   0.000000
    27  H    0.006292  -0.000244  -0.011785  -0.000068   0.000000   0.000000
    28  H    0.001895   0.000034  -0.002690  -0.000005   0.000000   0.000000
              19         20         21         22         23         24
     1  N    0.000000  -0.006404   0.000285  -0.003061  -0.000658   0.014475
     2  N    0.000000  -0.008864   0.001336   0.029387  -0.010906  -0.002318
     3  C    0.000844   0.054612   0.002279  -0.006624  -0.000154  -0.000101
     4  C    0.000000   0.000024   0.000014  -0.001310   0.058623  -0.004617
     5  O    0.000000   0.000000   0.000000   0.000085  -0.007086   0.005936
     6  O    0.000615  -0.006862   0.004280   0.000423  -0.000019   0.000011
     7  O    0.000000  -0.000008  -0.000006   0.000696  -0.006756   0.000249
     8  O   -0.000105  -0.006792  -0.000514   0.003620  -0.000001   0.000014
     9  C    0.000739  -0.013035   0.001110   0.000926   0.000000   0.000000
    10  H   -0.000044   0.000094  -0.000004  -0.000020   0.000000   0.000000
    11  H   -0.000952   0.000230  -0.000170   0.000034   0.000000   0.000000
    12  H   -0.000030   0.027579  -0.001317  -0.002548   0.000000   0.000000
    13  C    0.000000   0.000000   0.000000  -0.000017  -0.008871   0.000567
    14  H    0.000000   0.000000   0.000000   0.000001   0.020192  -0.001063
    15  H    0.000000   0.000000   0.000000   0.000002   0.000233  -0.000107
    16  H    0.000000   0.000000   0.000000  -0.000001   0.000009   0.000002
    17  O    0.336354   0.000000  -0.000002   0.000000   0.000000   0.000000
    18  H   -0.030076  -0.000032   0.000048  -0.000015   0.000000  -0.000001
    19  H    0.502282   0.000000  -0.000002   0.000000   0.000000   0.000000
    20  O    0.000000   7.626917   0.332757   0.337263   0.000000  -0.000001
    21  H   -0.000002   0.332757   0.495264  -0.026486   0.000001   0.000000
    22  H    0.000000   0.337263  -0.026486   0.479498  -0.000010   0.000029
    23  O    0.000000   0.000000   0.000001  -0.000010   7.618766   0.329751
    24  H    0.000000  -0.000001   0.000000   0.000029   0.329751   0.486735
    25  H    0.000000  -0.000002   0.000005   0.000023   0.335758  -0.024392
    26  O    0.000000   0.000000   0.000000   0.000000   0.000000   0.000001
    27  H    0.000000   0.000000   0.000000  -0.000001  -0.000005  -0.000010
    28  H    0.000000   0.000000   0.000000   0.000000  -0.000001   0.000001
              25         26         27         28
     1  N    0.004322   0.000000  -0.000043   0.000000
     2  N    0.000166  -0.000005   0.000348   0.000001
     3  C    0.000641   0.000000   0.000001   0.000000
     4  C   -0.002184   0.000390  -0.003282  -0.000138
     5  O    0.000119  -0.008340   0.031862   0.000464
     6  O    0.000947   0.000000   0.000000   0.000000
     7  O    0.001366   0.000093  -0.000281  -0.000038
     8  O    0.000026   0.000000   0.000000   0.000000
     9  C   -0.000001   0.000000   0.000000   0.000000
    10  H    0.000000   0.000000   0.000000   0.000000
    11  H    0.000000   0.000000   0.000000   0.000000
    12  H    0.000000   0.000000   0.000000   0.000000
    13  C    0.000639  -0.021852   0.006292   0.001895
    14  H   -0.001652   0.000150  -0.000244   0.000034
    15  H    0.000020   0.065881  -0.011785  -0.002690
    16  H   -0.000007   0.000286  -0.000068  -0.000005
    17  O    0.000000   0.000000   0.000000   0.000000
    18  H   -0.000002   0.000000   0.000000   0.000000
    19  H    0.000000   0.000000   0.000000   0.000000
    20  O   -0.000002   0.000000   0.000000   0.000000
    21  H    0.000005   0.000000   0.000000   0.000000
    22  H    0.000023   0.000000  -0.000001   0.000000
    23  O    0.335758   0.000000  -0.000005  -0.000001
    24  H   -0.024392   0.000001  -0.000010   0.000001
    25  H    0.492295   0.000000  -0.000001   0.000000
    26  O    0.000000   7.648387   0.338626   0.335056
    27  H   -0.000001   0.338626   0.480419  -0.027298
    28  H    0.000000   0.335056  -0.027298   0.501754
 Mulliken charges:
               1
     1  N   -0.121349
     2  N   -0.133773
     3  C    0.331877
     4  C    0.353653
     5  O   -0.275614
     6  O   -0.279374
     7  O   -0.308781
     8  O   -0.310099
     9  C    0.111256
    10  H    0.080673
    11  H    0.034768
    12  H    0.076325
    13  C    0.107053
    14  H    0.074572
    15  H    0.039450
    16  H    0.080685
    17  O   -0.356867
    18  H    0.187763
    19  H    0.190374
    20  O   -0.337473
    21  H    0.191121
    22  H    0.188107
    23  O   -0.328867
    24  H    0.194842
    25  H    0.191914
    26  O   -0.358673
    27  H    0.185470
    28  H    0.190965
 Sum of Mulliken charges =   0.00000
 Mulliken charges with hydrogens summed into heavy atoms:
               1
     1  N   -0.121349
     2  N   -0.133773
     3  C    0.331877
     4  C    0.353653
     5  O   -0.275614
     6  O   -0.279374
     7  O   -0.308781
     8  O   -0.310099
     9  C    0.303022
    13  C    0.301761
    17  O    0.021270
    20  O    0.041754
    23  O    0.057890
    26  O    0.017762
 Electronic spatial extent (au):  <R**2>=           4797.3236
 Charge=              0.0000 electrons
 Dipole moment (field-independent basis, Debye):
    X=             -0.7109    Y=              2.6228    Z=              0.1385  Tot=              2.7209
 Quadrupole moment (field-independent basis, Debye-Ang):
   XX=           -101.7982   YY=            -86.5891   ZZ=            -77.5324
   XY=            -12.1337   XZ=            -14.6791   YZ=             -1.6259
 Traceless Quadrupole moment (field-independent basis, Debye-Ang):
   XX=            -13.1583   YY=              2.0508   ZZ=             11.1075
   XY=            -12.1337   XZ=            -14.6791   YZ=             -1.6259
 Octapole moment (field-independent basis, Debye-Ang**2):
  XXX=           -104.3468  YYY=             14.6683  ZZZ=              7.8673  XYY=             23.0166
  XXY=             29.6508  XXZ=             -8.5805  XZZ=              8.9621  YZZ=             21.3593
  YYZ=            -13.8831  XYZ=             14.8924
 Hexadecapole moment (field-independent basis, Debye-Ang**3):
 XXXX=          -5170.3257 YYYY=           -729.9020 ZZZZ=           -499.4370 XXXY=           -540.1467
 XXXZ=           -210.5508 YYYX=             57.3487 YYYZ=             10.7378 ZZZX=              3.3887
 ZZZY=             -6.3424 XXYY=           -918.1416 XXZZ=           -707.4487 YYZZ=           -210.4053
 XXYZ=           -115.9066 YYXZ=            -67.7038 ZZXY=             -2.2232
 N-N= 1.003156851581D+03 E-N=-4.051439035327D+03  KE= 8.644902225692D+02
   1 Symmetry operations used in ECPInt.
 ECPInt:  NShTT=    8001 NPrTT=   28665 LenC2=    7104 LenP2D=   17909.
 LDataN:  DoStor=T MaxTD1= 5 Len=  102
 D1PCM: C-PCM CHGder 1st derivatives, ID1Alg=3 FixD1E=F DoIter=F DoCFld=F I1PDM=0.
 Calling FoFJK, ICntrl=      2127 FMM=F ISym2X=0 I1Cent= 0 IOpClX= 0 NMat=1 NMatS=1 NMatT=0.
 ***** Axes restored to original set *****
 -------------------------------------------------------------------
 Center     Atomic                   Forces (Hartrees/Bohr)
 Number     Number              X              Y              Z
 -------------------------------------------------------------------
      1        7           0.000151692   -0.000316384    0.000069984
      2        7          -0.000024541   -0.000012138    0.000085801
      3        6           0.000408347    0.001349040   -0.000092046
      4        6          -0.001181792    0.000024228   -0.002305450
      5        8           0.000953614   -0.000239403    0.001494357
      6        8          -0.000555949   -0.000482629   -0.000056344
      7        8          -0.000335818   -0.000236249    0.001040390
      8        8          -0.000153260   -0.000490305   -0.000084908
      9        6          -0.000063856   -0.000099626    0.000224457
     10        1          -0.000161507    0.000075797   -0.000075657
     11        1           0.000321711   -0.000206623    0.000187186
     12        1          -0.000119733    0.000064141    0.000128944
     13        6           0.000432672    0.000120438   -0.000366126
     14        1           0.000186219   -0.000277402    0.000003540
     15        1          -0.000254834    0.000319468   -0.000198746
     16        1           0.000055602    0.000113993    0.000121206
     17        8          -0.001153413    0.000317282   -0.001162441
     18        1           0.000707536   -0.000312336    0.000482230
     19        1           0.000470721    0.000058529    0.000759036
     20        8          -0.000240265   -0.001102659   -0.000166962
     21        1           0.000202229    0.000530754   -0.000245747
     22        1           0.000346403    0.000512893    0.000018259
     23        8           0.000797452    0.000060806    0.000381486
     24        1          -0.000414188    0.000268556    0.000036477
     25        1          -0.000438259    0.000000933   -0.000311332
     26        8           0.000163344   -0.001429250    0.000773843
     27        1          -0.000311892    0.000598419   -0.000596577
     28        1           0.000211769    0.000789726   -0.000144858
 -------------------------------------------------------------------
 Cartesian Forces:  Max     0.002305450 RMS     0.000567825

 GradGradGradGradGradGradGradGradGradGradGradGradGradGradGradGradGradGrad
 Berny optimization.
 FormGI is forming the generalized inverse of G from B-inverse, IUseBI=4.
 Internal  Forces:  Max     0.001807438 RMS     0.000492698
 Search for a local minimum.
 Step number   1 out of a maximum of  119
 All quantities printed in internal units (Hartrees-Bohrs-Radians)
 Mixed Optimization -- En-DIIS/RFO-DIIS
 Second derivative matrix not updated -- first step.
 ITU=  0
     Eigenvalues ---    0.00230   0.00230   0.00230   0.00394   0.01077
     Eigenvalues ---    0.01176   0.01187   0.01350   0.01444   0.01447
     Eigenvalues ---    0.01450   0.01586   0.01998   0.02005   0.02180
     Eigenvalues ---    0.02617   0.02630   0.02744   0.03028   0.03445
     Eigenvalues ---    0.04344   0.04374   0.04434   0.04445   0.04492
     Eigenvalues ---    0.06900   0.07382   0.09534   0.10403   0.10781
     Eigenvalues ---    0.10968   0.11627   0.12992   0.14380   0.15826
     Eigenvalues ---    0.16000   0.16000   0.16000   0.16000   0.16000
     Eigenvalues ---    0.16000   0.16000   0.16000   0.16772   0.19117
     Eigenvalues ---    0.19937   0.21734   0.24007   0.24937   0.24947
     Eigenvalues ---    0.24980   0.25000   0.25000   0.25000   0.25000
     Eigenvalues ---    0.33592   0.34009   0.34049   0.34074   0.34478
     Eigenvalues ---    0.34487   0.36494   0.38710   0.39616   0.39841
     Eigenvalues ---    0.52169   0.53665   0.53720   0.53767   0.54410
     Eigenvalues ---    0.54479   0.54589   0.54592   0.64569   0.67473
     Eigenvalues ---    0.90661   1.05064   1.06242
 RFO step:  Lambda=-4.94005765D-04 EMin= 2.30000000D-03
 Linear search not attempted -- first point.
 Iteration  1 RMS(Cart)=  0.06381567 RMS(Int)=  0.00791976
 Iteration  2 RMS(Cart)=  0.01361654 RMS(Int)=  0.00044130
 Iteration  3 RMS(Cart)=  0.00052176 RMS(Int)=  0.00001051
 Iteration  4 RMS(Cart)=  0.00000077 RMS(Int)=  0.00001050
 Variable       Old X    -DE/DX   Delta X   Delta X   Delta X     New X
                                 (Linear)    (Quad)   (Total)
    R1        2.31623   0.00055   0.00000   0.00048   0.00048   2.31671
    R2        2.73345   0.00020   0.00000   0.00052   0.00052   2.73396
    R3        4.66270   0.00028   0.00000   0.00938   0.00938   4.67208
    R4        2.74750  -0.00022   0.00000  -0.00044  -0.00044   2.74706
    R5        4.04423   0.00011   0.00000   0.00314   0.00314   4.04736
    R6        2.26677   0.00001   0.00000   0.00001   0.00001   2.26677
    R7        2.45475   0.00078   0.00000   0.00116   0.00116   2.45590
    R8        2.26238   0.00181   0.00000   0.00170   0.00170   2.26408
    R9        2.46180  -0.00048   0.00000  -0.00093  -0.00092   2.46087
   R10        3.73173   0.00008   0.00000   0.00167   0.00167   3.73340
   R11        3.74620   0.00000   0.00000   0.00003   0.00003   3.74624
   R12        2.71101   0.00042   0.00000   0.00114   0.00114   2.71216
   R13        2.71770   0.00000   0.00000   0.00001   0.00001   2.71771
   R14        2.06517  -0.00007   0.00000  -0.00021  -0.00021   2.06496
   R15        2.07206  -0.00034   0.00000  -0.00100  -0.00100   2.07105
   R16        2.07315  -0.00014   0.00000  -0.00042  -0.00042   2.07272
   R17        2.07493  -0.00027   0.00000  -0.00055  -0.00055   2.07438
   R18        2.07247  -0.00044   0.00000  -0.00129  -0.00129   2.07119
   R19        2.06531  -0.00011   0.00000  -0.00031  -0.00031   2.06500
   R20        4.88749   0.00006   0.00000   0.00548   0.00548   4.89298
   R21        1.82987   0.00046   0.00000   0.00086   0.00086   1.83073
   R22        1.82199   0.00079   0.00000   0.00144   0.00144   1.82343
   R23        1.82298   0.00054   0.00000   0.00098   0.00098   1.82396
   R24        1.82944   0.00021   0.00000   0.00039   0.00039   1.82983
   R25        1.82629   0.00009   0.00000   0.00040   0.00040   1.82669
   R26        1.82360   0.00054   0.00000   0.00098   0.00098   1.82458
   R27        1.83038   0.00048   0.00000   0.00089   0.00089   1.83127
   R28        1.82197   0.00076   0.00000   0.00138   0.00138   1.82335
    A1        1.98105   0.00106   0.00000   0.00824   0.00824   1.98929
    A2        1.77850  -0.00025   0.00000   0.00000  -0.00004   1.77846
    A3        2.37833  -0.00067   0.00000  -0.00188  -0.00191   2.37642
    A4        1.96205  -0.00020   0.00000  -0.00229  -0.00231   1.95974
    A5        1.93841   0.00151   0.00000   0.01049   0.01049   1.94890
    A6        2.37129  -0.00131   0.00000  -0.00709  -0.00709   2.36419
    A7        2.08400   0.00041   0.00000   0.00136   0.00134   2.08533
    A8        1.93834  -0.00065   0.00000  -0.00286  -0.00288   1.93546
    A9        2.25748   0.00022   0.00000   0.00058   0.00055   2.25803
   A10        2.13928  -0.00025   0.00000  -0.00152  -0.00152   2.13775
   A11        1.89252   0.00005   0.00000   0.00100   0.00100   1.89352
   A12        2.24895   0.00020   0.00000   0.00031   0.00030   2.24925
   A13        2.25323   0.00105   0.00000   0.00651   0.00651   2.25974
   A14        2.27659   0.00108   0.00000   0.00672   0.00672   2.28331
   A15        2.02651   0.00068   0.00000   0.00234   0.00233   2.02884
   A16        2.03646   0.00073   0.00000   0.00291   0.00291   2.03937
   A17        1.84720   0.00024   0.00000   0.00144   0.00144   1.84864
   A18        1.92474  -0.00038   0.00000  -0.00255  -0.00255   1.92219
   A19        1.87110   0.00028   0.00000   0.00199   0.00199   1.87309
   A20        1.94648  -0.00015   0.00000  -0.00147  -0.00147   1.94501
   A21        1.94128  -0.00005   0.00000   0.00016   0.00016   1.94144
   A22        1.92987   0.00007   0.00000   0.00054   0.00054   1.93040
   A23        1.87974   0.00002   0.00000   0.00108   0.00107   1.88081
   A24        1.92521  -0.00010   0.00000  -0.00059  -0.00059   1.92462
   A25        1.84924   0.00025   0.00000   0.00154   0.00155   1.85078
   A26        1.92705  -0.00013   0.00000  -0.00183  -0.00182   1.92523
   A27        1.93637  -0.00006   0.00000  -0.00021  -0.00021   1.93616
   A28        1.94374   0.00004   0.00000   0.00017   0.00017   1.94391
   A29        2.07706  -0.00010   0.00000   0.00043   0.00042   2.07747
   A30        1.79571  -0.00045   0.00000  -0.00283  -0.00283   1.79289
   A31        2.75222   0.00099   0.00000   0.00395   0.00395   2.75617
   A32        1.80506  -0.00053   0.00000  -0.00329  -0.00329   1.80177
   A33        2.43739   0.00106   0.00000   0.00423   0.00423   2.44162
   A34        2.12728  -0.00008   0.00000   0.00137   0.00137   2.12865
   A35        2.16383   0.00002   0.00000  -0.00172  -0.00172   2.16211
   A36        1.79706  -0.00004   0.00000  -0.00126  -0.00126   1.79580
   A37        1.89377   0.00024   0.00000   0.00080   0.00078   1.89456
   A38        1.79852  -0.00024   0.00000  -0.00148  -0.00148   1.79704
   A39        2.83510   0.00123   0.00000   0.00492   0.00492   2.84002
    D1        3.11085   0.00021   0.00000   0.01959   0.01963   3.13048
    D2        0.10482   0.00031   0.00000   0.01376   0.01376   0.11857
    D3        0.42726   0.00031   0.00000   0.01166   0.01166   0.43891
    D4       -2.57878   0.00041   0.00000   0.00583   0.00578  -2.57299
    D5       -1.85554  -0.00028   0.00000  -0.00901  -0.00900  -1.86455
    D6        1.36602   0.00000   0.00000   0.00197   0.00196   1.36799
    D7        0.60981   0.00008   0.00000   0.00548   0.00548   0.61528
    D8       -2.45181   0.00037   0.00000   0.01645   0.01645  -2.43537
    D9        0.83211  -0.00003   0.00000  -0.01498  -0.01499   0.81712
   D10       -1.68271  -0.00073   0.00000  -0.03064  -0.03062  -1.71333
   D11        0.91292  -0.00016   0.00000  -0.00738  -0.00736   0.90556
   D12       -2.29759  -0.00027   0.00000  -0.01043  -0.01041  -2.30800
   D13       -2.41078   0.00006   0.00000   0.00257   0.00255  -2.40823
   D14        0.66189  -0.00004   0.00000  -0.00047  -0.00049   0.66140
   D15        0.14272   0.00015   0.00000   0.03988   0.03988   0.18260
   D16       -2.81849   0.00005   0.00000   0.03094   0.03094  -2.78755
   D17       -2.58577   0.00024   0.00000   0.00786   0.00787  -2.57790
   D18        0.45927  -0.00014   0.00000  -0.00555  -0.00556   0.45371
   D19       -3.05845  -0.00085   0.00000  -0.02854  -0.02854  -3.08699
   D20        0.17326  -0.00053   0.00000  -0.01620  -0.01620   0.15706
   D21        2.54465  -0.00059   0.00000  -0.01358  -0.01358   2.53107
   D22       -0.51295  -0.00045   0.00000  -0.00987  -0.00988  -0.52283
   D23        2.98454  -0.00010   0.00000  -0.00190  -0.00191   2.98262
   D24       -0.23165  -0.00024   0.00000  -0.00529  -0.00530  -0.23695
   D25        0.43335  -0.00070   0.00000  -0.25147  -0.25147   0.18188
   D26        0.35831  -0.00044   0.00000  -0.15776  -0.15776   0.20055
   D27       -1.21485   0.00008   0.00000   0.00508   0.00507  -1.20978
   D28        0.88934  -0.00013   0.00000   0.00317   0.00317   0.89251
   D29        2.99515   0.00002   0.00000   0.00398   0.00397   2.99912
   D30       -2.90381   0.00005   0.00000  -0.00653  -0.00653  -2.91034
   D31       -0.79620  -0.00019   0.00000  -0.00883  -0.00883  -0.80503
   D32        1.30584  -0.00015   0.00000  -0.00843  -0.00843   1.29740
   D33        0.16202  -0.00029   0.00000  -0.00582  -0.00582   0.15620
   D34       -1.94101  -0.00010   0.00000  -0.00469  -0.00469  -1.94570
   D35        2.17853  -0.00001   0.00000  -0.00346  -0.00347   2.17507
   D36        1.18714  -0.00025   0.00000   0.00676   0.00676   1.19389
   D37       -1.21353  -0.00007   0.00000   0.00988   0.00989  -1.20365
   D38        0.91326  -0.00060   0.00000  -0.03985  -0.03985   0.87341
   D39        1.24347  -0.00001   0.00000  -0.00076  -0.00076   1.24271
   D40       -1.53032  -0.00012   0.00000   0.00441   0.00443  -1.52589
   D41        0.99945  -0.00024   0.00000   0.00141   0.00142   1.00087
   D42        1.58109  -0.00060   0.00000  -0.03987  -0.03987   1.54122
         Item               Value     Threshold  Converged?
 Maximum Force            0.001807     0.000450     NO 
 RMS     Force            0.000493     0.000300     NO 
 Maximum Displacement     0.349286     0.001800     NO 
 RMS     Displacement     0.072516     0.001200     NO 
 Predicted change in Energy=-2.713813D-04
 GradGradGradGradGradGradGradGradGradGradGradGradGradGradGradGradGradGrad

                          Input orientation:                          
 ---------------------------------------------------------------------
 Center     Atomic      Atomic             Coordinates (Angstroms)
 Number     Number       Type             X           Y           Z
 ---------------------------------------------------------------------
      1          7           0       -0.339034    0.276520    0.435161
      2          7           0        0.370927   -0.450745   -0.250404
      3          6           0       -1.756617    0.038949    0.270534
      4          6           0        1.785709   -0.171107   -0.067693
      5          8           0        2.298713   -0.128450    1.014182
      6          8           0       -2.421515    0.831858   -0.336152
      7          8           0        2.343497   -0.079632   -1.240864
      8          8           0       -2.130677   -1.012765    0.936085
      9          6           0       -3.507392   -1.407839    0.806282
     10          1           0       -3.686341   -2.136339    1.600840
     11          1           0       -4.161699   -0.534610    0.908599
     12          1           0       -3.624262   -1.863762   -0.184440
     13          6           0        3.698501    0.392861   -1.264248
     14          1           0        3.688051    1.453945   -0.983223
     15          1           0        4.312932   -0.180861   -0.560979
     16          1           0        4.045290    0.264714   -2.292559
     17          8           0       -5.186036    1.443846    0.304717
     18          1           0       -4.315539    1.373706   -0.114630
     19          1           0       -4.968087    1.728588    1.200534
     20          8           0       -1.694839   -1.711022   -1.936098
     21          1           0       -1.787603   -0.932152   -2.498561
     22          1           0       -0.787955   -1.638315   -1.604602
     23          8           0        1.489174    2.498567   -0.101221
     24          1           0        1.112722    2.252142    0.754323
     25          1           0        0.706232    2.645301   -0.646855
     26          8           0        5.037411   -0.972105    1.549153
     27          1           0        4.112893   -0.682192    1.566651
     28          1           0        5.523958   -0.140692    1.494297
 ---------------------------------------------------------------------
                    Distance matrix (angstroms):
                    1          2          3          4          5
     1  N    0.000000
     2  N    1.225952   0.000000
     3  C    1.446750   2.244464   0.000000
     4  C    2.228848   1.453681   3.564631   0.000000
     5  O    2.730745   2.327963   4.126346   1.198101   0.000000
     6  O    2.289116   3.074110   1.199526   4.333444   5.002613
     7  O    3.183061   2.238251   4.371421   1.302239   2.256018
     8  O    2.263441   2.825181   1.299608   4.129653   4.517478
     9  C    3.607394   4.132067   2.333546   5.505475   5.949026
    10  H    4.287792   4.767573   3.197722   6.048922   6.340083
    11  H    3.936349   4.679212   2.553530   6.037958   6.474028
    12  H    3.969563   4.238219   2.704700   5.669787   6.287259
    13  C    4.382147   3.579427   5.677950   2.325635   2.724411
    14  H    4.428945   3.894635   5.763552   2.664188   2.902389
    15  H    4.779359   3.963420   6.130184   2.574934   2.557530
    16  H    5.163612   4.264179   6.346853   3.200887   3.760272
    17  O    4.987293   5.897242   3.706186   7.166030   7.680945
    18  H    4.161572   5.030906   2.911702   6.293955   6.875973
    19  H    4.911459   5.946409   3.746107   7.129586   7.502645
    20  O    3.378077   2.949110   2.816991   4.239869   5.211252
    21  H    3.487974   3.153603   2.934600   4.388264   5.448236
    22  H    2.833506   2.141771   2.695859   3.337444   4.320329
    23  O    2.927036   3.157716   4.089386   2.686302   2.966596
    24  H    2.472356   2.977471   3.655870   2.645895   2.672324
    25  H    2.806148   3.139284   3.701392   3.071295   3.603988
    26  O    5.630826   5.028549   6.986839   3.718785   2.915205
    27  H    4.692447   4.166242   6.054017   2.889304   1.975628
    28  H    5.972479   5.449206   7.384893   4.051573   3.260808
                    6          7          8          9         10
     6  O    0.000000
     7  O    4.935044   0.000000
     8  O    2.259603   5.062418   0.000000
     9  C    2.738709   6.339389   1.438150   0.000000
    10  H    3.763232   6.975978   2.030863   1.092729   0.000000
    11  H    2.538677   6.866205   2.086729   1.095954   1.808507
    12  H    2.955669   6.317697   2.051966   1.096838   1.807035
    13  C    6.205535   1.435211   6.387219   7.710675   8.315135
    14  H    6.175151   2.055738   6.604998   7.947738   8.599371
    15  H    6.813877   2.085944   6.667336   8.033203   8.513854
    16  H    6.780025   2.029959   7.085101   8.333262   8.983414
    17  O    2.903071   7.836050   3.970992   3.346867   4.092278
    18  H    1.982422   6.908209   3.401891   3.039436   3.957163
    19  H    3.106535   7.917660   3.954218   3.482275   4.091549
    20  O    3.090974   4.410549   2.987800   3.301200   4.081287
    21  H    2.861745   4.401657   3.452678   3.755788   4.675506
    22  H    3.221682   3.516787   2.940970   3.641541   4.350118
    23  O    4.257534   2.945465   5.148667   6.406968   7.152993
    24  H    3.961966   3.306470   4.605681   5.894372   6.557924
    25  H    3.628762   3.233998   4.892362   6.024466   6.871020
    26  O    7.902167   3.979683   7.194373   8.588096   8.801248
    27  H    6.972195   3.372830   6.284033   7.692430   7.933711
    28  H    8.211391   4.195255   7.724349   9.145727   9.424626
                   11         12         13         14         15
    11  H    0.000000
    12  H    1.802836   0.000000
    13  C    8.207570   7.738293   0.000000
    14  H    8.315764   8.069396   1.097717   0.000000
    15  H    8.608378   8.122375   1.096024   1.800376   0.000000
    16  H    8.845394   8.233869   1.092752   1.804508   1.807909
    17  O    2.308295   3.690350   9.083018   8.967069   9.675716
    18  H    2.170791   3.311183   8.155275   8.050984   8.778747
    19  H    2.420238   4.077866   9.108735   8.931570   9.637750
    20  O    3.944825   2.610423   5.828020   6.316684   6.350248
    21  H    4.171703   3.097800   5.777242   6.162183   6.444780
    22  H    4.349309   3.179988   4.936578   5.475657   5.406696
    23  O    6.492477   6.721909   3.266153   2.589252   3.919735
    24  H    5.967354   6.345152   3.770650   3.207570   4.229759
    25  H    6.018973   6.268864   3.795830   3.228578   4.582886
    26  O    9.231758   8.878343   3.401623   3.757581   2.367192
    27  H    8.302030   8.020349   3.056379   3.353420   2.195031
    28  H    9.711343   9.459231   3.350603   3.471530   2.385866
                   16         17         18         19         20
    16  H    0.000000
    17  O    9.661965   0.000000
    18  H    8.710723   0.968781   0.000000
    19  H    9.776788   0.964919   1.510435   0.000000
    20  O    6.081092   5.211803   4.438621   5.690652   0.000000
    21  H    5.957983   5.005305   4.170200   5.556825   0.965198
    22  H    5.239758   5.699853   4.871974   6.056263   0.968305
    23  O    4.040519   6.770203   5.912713   6.632016   5.587965
    24  H    4.672613   6.366306   5.567113   6.119596   5.552246
    25  H    4.418692   6.088334   5.207533   6.037475   5.138564
    26  O    4.156053  10.578483   9.785125  10.369439   7.616835
    27  H    3.974255   9.621986   8.836962   9.402665   6.859847
    28  H    4.085473  10.891732  10.084530  10.661309   8.145218
                   21         22         23         24         25
    21  H    0.000000
    22  H    1.515627   0.000000
    23  O    5.315481   4.955730   0.000000
    24  H    5.397487   4.930797   0.966641   0.000000
    25  H    4.737742   4.636728   0.965528   1.510995   0.000000
    26  O    7.935137   6.657695   5.230610   5.141080   6.055344
    27  H    7.169678   5.915179   4.447801   4.274485   5.251396
    28  H    8.368288   7.189319   5.078469   5.072693   5.962950
                   26         27         28
    26  O    0.000000
    27  H    0.969066   0.000000
    28  H    0.964876   1.513130   0.000000
 Stoichiometry    C4H14N2O8
 Framework group  C1[X(C4H14N2O8)]
 Deg. of freedom    78
 Full point group                 C1      NOp   1
 Largest Abelian subgroup         C1      NOp   1
 Largest concise Abelian subgroup C1      NOp   1
                         Standard orientation:                         
 ---------------------------------------------------------------------
 Center     Atomic      Atomic             Coordinates (Angstroms)
 Number     Number       Type             X           Y           Z
 ---------------------------------------------------------------------
      1          7           0        0.335749    0.247411   -0.450431
      2          7           0       -0.375437   -0.439381    0.274476
      3          6           0        1.752821    0.014299   -0.275355
      4          6           0       -1.789599   -0.165251    0.079067
      5          8           0       -2.304287   -0.179339   -1.002757
      6          8           0        2.421342    0.836562    0.286626
      7          8           0       -2.345102   -0.008688    1.246428
      8          8           0        2.122301   -1.073070   -0.883710
      9          6           0        3.497928   -1.465197   -0.734843
     10          1           0        3.673141   -2.236133   -1.489173
     11          1           0        4.154925   -0.600976   -0.885149
     12          1           0        3.614973   -1.867355    0.278875
     13          6           0       -3.698505    0.468942    1.246310
     14          1           0       -3.685046    1.513264    0.908384
     15          1           0       -4.316004   -0.139840    0.575975
     16          1           0       -4.043975    0.397671    2.280562
     17          8           0        5.186772    1.403736   -0.390526
     18          1           0        4.316758    1.359273    0.033310
     19          1           0        4.968245    1.640429   -1.300081
     20          8           0        1.689025   -1.613761    2.022641
     21          1           0        1.785296   -0.805976    2.542086
     22          1           0        0.781826   -1.556003    1.689072
     23          8           0       -1.484243    2.501325   -0.032056
     24          1           0       -1.110049    2.207800   -0.873613
     25          1           0       -0.699904    2.674666    0.503676
     26          8           0       -5.046641   -1.041413   -1.487258
     27          1           0       -4.121207   -0.755986   -1.521781
     28          1           0       -5.530362   -0.206616   -1.476641
 ---------------------------------------------------------------------
 Rotational constants (GHZ):      1.0131285      0.2463326      0.2381383
 Standard basis: def2SVP (5D, 7F)
 There are   280 symmetry adapted cartesian basis functions of A   symmetry.
 There are   266 symmetry adapted basis functions of A   symmetry.
   266 basis functions,   448 primitive gaussians,   280 cartesian basis functions
    58 alpha electrons       58 beta electrons
       nuclear repulsion energy      1001.2260851673 Hartrees.
 NAtoms=   28 NActive=   28 NUniq=   28 SFac= 1.00D+00 NAtFMM=   60 NAOKFM=F Big=F
 Integral buffers will be    131072 words long.
 Raffenetti 2 integral format.
 Two-electron integral symmetry is turned on.
 Nuclear repulsion after empirical dispersion term =     1001.2247219723 Hartrees.
 ------------------------------------------------------------------------------
 Polarizable Continuum Model (PCM)
 =================================
 Model                : C-PCM.
 Atomic radii         : UFF (Universal Force Field).
 Polarization charges : Total charges.
 Charge compensation  : None.
 Solution method      : On-the-fly selection.
 Cavity type          : Scaled VdW (van der Waals Surface) (Alpha=1.100).
 Cavity algorithm     : GePol (No added spheres)
                        Default sphere list used, NSphG=   28.
                        Lebedev-Laikov grids with approx.  5.0 points / Ang**2.
                        Smoothing algorithm: Karplus/York (Gamma=1.0000).
                        Polarization charges: spherical gaussians, with
                                              point-specific exponents (IZeta= 3).
                        Self-potential: point-specific (ISelfS= 7).
                        Self-field    : sphere-specific E.n sum rule (ISelfD= 2).
 1st derivatives      : Analytical E(r).r(x)/FMM algorithm (CHGder, D1EAlg=3).
                        Cavity 1st derivative terms included.
 Solvent              : Water, Eps=  78.355300 Eps(inf)=   1.777849
 ------------------------------------------------------------------------------
 One-electron integrals computed using PRISM.
   1 Symmetry operations used in ECPInt.
 ECPInt:  NShTT=    8001 NPrTT=   28665 LenC2=    7105 LenP2D=   17892.
 LDataN:  DoStor=T MaxTD1= 4 Len=   56
 NBasis=   266 RedAO= T EigKep=  3.94D-03  NBF=   266
 NBsUse=   266 1.00D-06 EigRej= -1.00D+00 NBFU=   266
 Initial guess from the checkpoint file:  "m062x_dmad_4H2O_cycloaddition_PM6_toluene_water.chk"
 B after Tr=     0.000000    0.000000    0.000000
         Rot=    0.999644    0.026598    0.001836    0.000910 Ang=   3.06 deg.
 ExpMin= 1.22D-01 ExpMax= 2.27D+03 ExpMxC= 3.41D+02 IAcc=1 IRadAn=         1 AccDes= 0.00D+00
 Harris functional with IExCor= 1009 and IRadAn=       1 diagonalized for initial guess.
 HarFok:  IExCor= 1009 AccDes= 0.00D+00 IRadAn=         1 IDoV= 1 UseB2=F ITyADJ=14
 ICtDFT=  3500011 ScaDFX=  1.000000  1.000000  1.000000  1.000000
 FoFCou: FMM=F IPFlag=           0 FMFlag=      100000 FMFlg1=           0
         NFxFlg=           0 DoJE=T BraDBF=F KetDBF=T FulRan=T
         wScrn=  0.000000 ICntrl=     500 IOpCl=  0 I1Cent=   200000004 NGrid=           0
         NMat0=    1 NMatS0=      1 NMatT0=    0 NMatD0=    1 NMtDS0=    0 NMtDT0=    0
 Petite list used in FoFCou.
 Requested convergence on RMS density matrix=1.00D-08 within 128 cycles.
 Requested convergence on MAX density matrix=1.00D-06.
 Requested convergence on             energy=1.00D-06.
 No special actions if energy rises.
 Inv3:  Mode=1 IEnd=    17164992.
 Iteration    1 A*A^-1 deviation from unit magnitude is 7.11D-15 for   2387.
 Iteration    1 A*A^-1 deviation from orthogonality  is 2.78D-15 for   2368   2005.
 Iteration    1 A^-1*A deviation from unit magnitude is 7.33D-15 for   2387.
 Iteration    1 A^-1*A deviation from orthogonality  is 1.74D-15 for   2388   2375.
 Error on total polarization charges =  0.00533
 SCF Done:  E(RM062X) =  -871.104755609     A.U. after   14 cycles
            NFock= 14  Conv=0.90D-08     -V/T= 2.0077
   1 Symmetry operations used in ECPInt.
 ECPInt:  NShTT=    8001 NPrTT=   28665 LenC2=    7105 LenP2D=   17892.
 LDataN:  DoStor=T MaxTD1= 5 Len=  102
 D1PCM: C-PCM CHGder 1st derivatives, ID1Alg=3 FixD1E=F DoIter=F DoCFld=F I1PDM=0.
 Calling FoFJK, ICntrl=      2127 FMM=F ISym2X=0 I1Cent= 0 IOpClX= 0 NMat=1 NMatS=1 NMatT=0.
 ***** Axes restored to original set *****
 -------------------------------------------------------------------
 Center     Atomic                   Forces (Hartrees/Bohr)
 Number     Number              X              Y              Z
 -------------------------------------------------------------------
      1        7           0.000181367   -0.001274146    0.000108694
      2        7          -0.000778692    0.000066845    0.001232113
      3        6           0.001033660    0.002353575   -0.000871536
      4        6          -0.000435731    0.000208285   -0.000782743
      5        8           0.000352796    0.000035989   -0.000129908
      6        8          -0.000597778   -0.001191409    0.000164772
      7        8           0.000764007    0.000155617    0.000190017
      8        8           0.000294524   -0.000923561   -0.000303413
      9        6           0.000934730    0.000382859    0.000061249
     10        1           0.000059354   -0.000068624   -0.000156124
     11        1          -0.000035435   -0.000725496   -0.000971428
     12        1          -0.000433185   -0.000023011   -0.000231935
     13        6          -0.000274904    0.000507610    0.000153148
     14        1           0.000002111   -0.000101251   -0.000035628
     15        1          -0.000610571   -0.000905112   -0.000303717
     16        1           0.000066565   -0.000111381    0.000140223
[...]
 9,-0.00003638,-0.04987591,0.23696141,-0.18061002,0.04893585,-0.2529327
 0,0.19280710,-0.00029784,0.00320657,0.00156952,-0.00215175,-0.00237203
 ,-0.00118665,0.00353599,0.00364911,0.00359281,-0.00329046,0.00017048,-
 0.00043756,0.00105217,-0.00013783,0.00081990,-0.00095358,-0.00080401,-
 0.00103325,0.00095876,0.00019980,-0.00043510,-0.00030473,-0.00125794,-
 0.00122942,-0.00071591,-0.00023673,0.00027370,0.00002667,-0.00001215,-
 0.00009928,0.00004163,0.00000965,-0.00002882,-0.00058831,-0.00005973,0
 .00025076,-0.00039149,-0.00009989,0.00012115,0.00007787,0.00002290,0.0
 0000193,0.00005801,0.00003284,-0.00001178,0.00005110,0.00001177,-0.000
 02296,0.00008371,-0.00008195,-0.00000605,-0.00011847,0.00007696,-0.000
 00315,-0.00001240,0.00001847,0.00001616,-0.45301335,-0.02524500,-0.171
 16138,-0.00670569,-0.00548549,0.00096117,0.46273642,-0.00056858,0.0012
 3105,-0.00264429,0.00259324,-0.00375735,0.00211762,0.00335817,-0.00168
 140,-0.00227422,-0.00435670,0.00115049,-0.00003872,0.00175531,-0.00033
 941,0.00111868,-0.00103992,0.00036102,0.00030613,0.00143143,0.00016032
 ,-0.00079653,-0.00120518,-0.00087163,0.00060124,0.00057709,0.00017168,
 -0.00013042,-0.00009377,-0.00004831,0.00004170,-0.00005500,-0.00003170
 ,0.00001869,0.00008606,-0.00001413,-0.00011633,-0.00046362,-0.00020783
 ,0.00009894,0.00007671,0.00002253,0.00000146,0.00008482,0.00004892,-0.
 00002523,0.00008106,0.00001832,-0.00003004,-0.00018237,0.00011990,0.00
 003179,0.00029136,-0.00014853,-0.00001125,0.00001963,-0.00002820,-0.00
 002970,-0.06821061,-0.03703344,-0.00581740,0.03745158,-0.00045655,0.01
 544071,0.02846110,0.04142968,-0.00077411,-0.00018524,0.00057582,0.0031
 0964,0.00020090,-0.00299978,0.00458648,-0.00344940,-0.00168989,-0.0055
 9459,0.00100268,0.00096784,0.00230301,-0.00031044,0.00142849,-0.001632
 58,0.00065768,-0.00090118,0.00152231,0.00008981,-0.00108891,-0.0017799
 4,0.00004959,0.00085178,0.00182974,0.00080499,-0.00026636,-0.00013858,
 -0.00014205,-0.00012462,-0.00016828,-0.00009692,-0.00009547,-0.0006125
 9,-0.00036657,0.00025926,-0.00052857,-0.00017504,0.00005724,0.00008913
 ,0.00002435,0.00000119,0.00006902,0.00004133,-0.00001604,0.00009090,0.
 00002192,-0.00003178,-0.00017425,0.00010790,0.00003217,0.00028983,-0.0
 0013832,-0.00001084,0.00001712,-0.00002536,-0.00002712,-0.14291931,0.0
 1153403,-0.07269156,-0.02756984,-0.00183200,-0.01000796,0.16810854,-0.
 00773437,0.08591242,-0.00275234,-0.00487376,0.00247298,-0.00035343,0.0
 0089957,-0.00127178,0.00230526,-0.00013965,-0.00074879,-0.00483416,-0.
 00107719,0.00050664,0.00131300,0.00234370,0.00009141,-0.00087541,0.000
 31584,-0.00017243,0.00038183,0.00123591,-0.00036852,-0.00072271,-0.000
 49682,0.00035761,0.00017925,0.00012260,0.00008406,-0.00004722,-0.00002
 117,0.00000668,-0.00003599,-0.00002871,-0.00000397,-0.00002456,-0.0000
 0324,-0.00000083,-0.00084797,-0.00023983,0.00043350,-0.00003312,0.0011
 4996,0.00002971,0.00011227,0.00034568,0.00013825,0.00005388,0.00053881
 ,0.00018144,-0.00007637,0.00004335,0.00001535,0.00012768,-0.00005912,-
 0.00000292,0.00000863,-0.00001038,-0.00001220,-0.00009039,-0.00012407,
 -0.00016314,0.00002342,0.00001214,0.00007428,0.00011062,0.00019512,0.0
 0017277,0.47596039,-0.00455558,-0.00482856,0.00139906,-0.00108108,0.00
 054213,-0.00069144,0.00491470,-0.00021225,-0.00072104,0.00040304,0.006
 51540,0.00088642,0.00177550,-0.00610092,0.00150373,-0.00199969,0.00074
 613,-0.00046873,0.00382440,-0.00621751,-0.00242687,-0.00176438,-0.0011
 2046,0.00067270,0.00050533,0.00024136,0.00012434,-0.00010715,-0.000054
 90,0.00001299,-0.00007585,-0.00005331,-0.00001181,-0.00007654,-0.00001
 801,-0.00000664,-0.00368396,-0.00079779,0.00040809,0.00050487,-0.00047
 479,0.00025597,0.00028655,0.00020612,0.00002299,0.00025066,-0.00009960
 ,-0.00019148,-0.00016845,0.00010923,0.00003326,0.00027941,-0.00014229,
 -0.00000778,0.00001512,-0.00002712,-0.00002578,-0.00028254,-0.00030056
 ,-0.00046987,0.00005081,0.00001352,0.00017037,0.00028887,0.00047301,0.
 00051752,0.03981214,0.05964610,0.00139764,0.00035597,0.00011868,0.0000
 2756,0.00018329,0.00043041,-0.00081748,0.00029954,0.00019592,-0.000050
 99,0.00051360,-0.00779294,-0.00015022,0.00406975,0.00170771,0.00021848
 ,-0.00015207,0.00005054,0.00101545,-0.00390868,0.00136364,0.00026117,0
 .00017774,-0.00008456,-0.00006233,-0.00002660,-0.00003359,0.00001789,0
 .00000664,-0.00000131,0.00000957,0.00000717,0.00000119,0.00000937,0.00
 000212,-0.00000053,-0.00024301,-0.00014334,0.00032696,-0.00062126,0.00
 001204,-0.00066408,0.00005360,-0.00030483,-0.00020600,0.00001353,-0.00
 018048,-0.00009072,0.00002192,-0.00001272,-0.00000202,-0.00003730,0.00
 001697,-0.00000187,-0.00000289,0.00000311,0.00000255,0.00000671,0.0000
 2709,0.00004355,0.00000014,-0.00000072,-0.00001811,-0.00001027,-0.0000
 2822,-0.00004821,-0.00833508,-0.15958242,0.63113940,-0.00103862,-0.000
 54584,-0.00168870,-0.00009562,0.00020810,0.00175582,-0.00190199,-0.000
 55219,0.00055882,0.00193785,0.00334685,0.00193516,-0.00078569,-0.00157
 864,-0.00105288,0.00071956,-0.00004261,0.00017137,-0.00011482,-0.00042
 073,-0.00055462,0.00045060,0.00042125,-0.00030884,-0.00015500,-0.00008
 775,-0.00003602,0.00003240,0.00001561,-0.00000539,0.00002214,0.0000199
 2,0.00000293,0.00002404,0.00000204,-0.00000019,-0.00057743,-0.00012440
 ,0.00010424,0.00022617,0.00011172,0.00008108,0.00002265,0.00007573,0.0
 0003989,0.00000724,0.00005196,-0.00000412,0.00006353,-0.00003459,-0.00
 001191,-0.00010321,0.00004935,0.00000194,-0.00000582,0.00000846,0.0000
 0946,0.00007664,0.00009846,0.00012547,-0.00001770,-0.00000820,-0.00005
 840,-0.00010166,-0.00014333,-0.00013629,-0.28684093,-0.08632238,0.2511
 2164,0.27635661,0.00235662,-0.00023949,-0.00193237,-0.00027307,-0.0013
 8622,0.00148915,-0.00519132,0.00026440,0.00126710,0.00387772,-0.002900
 93,-0.00456202,-0.00158165,0.00126918,0.00048958,0.00197684,-0.0008321
 6,0.00044006,-0.00120568,-0.00081610,0.00144024,0.00162848,0.00112892,
 -0.00075455,-0.00045646,-0.00022831,-0.00014048,0.00010598,0.00005130,
 -0.00001333,0.00007114,0.00005219,0.00000973,0.00006945,0.00001421,0.0
 0000294,0.00097662,0.00012464,-0.00020504,-0.00055953,-0.00000882,-0.0
 0001616,-0.00010301,-0.00014656,-0.00004638,-0.00011892,-0.00010150,0.
 00001977,0.00016742,-0.00010376,-0.00003293,-0.00028139,0.00013725,0.0
 0000564,-0.00001499,0.00002574,0.00002554,0.00024565,0.00027620,0.0004
 1506,-0.00004578,-0.00001618,-0.00016233,-0.00027091,-0.00042365,-0.00
 046422,-0.07371370,-0.03111777,0.08576268,0.07898531,0.03706103,0.0004
 1680,0.00212237,-0.00219852,0.00036550,-0.00195034,0.00065741,-0.00093
 722,-0.00043770,0.00046490,0.00074900,-0.00224563,0.00049889,-0.000510
 86,0.00031262,-0.00092602,0.00054629,-0.00007116,0.00007910,-0.0003904
 4,0.00051064,-0.00000403,0.00028956,0.00023546,-0.00022858,-0.00009083
 ,-0.00006881,-0.00001365,0.00001701,0.00001147,-0.00000452,0.00001732,
 0.00001522,0.00000168,0.00001521,0.00000255,0.00000136,0.00025443,-0.0
 0002162,-0.00008856,0.00043144,-0.00011651,-0.00014471,-0.00005360,0.0
 0002117,0.00004077,-0.00003787,0.00007783,0.00005113,0.00004208,-0.000
 02530,-0.00001072,-0.00007043,0.00003509,0.00000326,-0.00000331,0.0000
 0605,0.00000719,0.00007879,0.00008836,0.00011049,-0.00001843,-0.000006
 20,-0.00004505,-0.00006849,-0.00013232,-0.00010340,0.19748938,0.080655
 02,-0.25158819,-0.23015987,-0.08829172,0.28177954,-0.00011124,0.000585
 62,-0.00076036,-0.00001778,-0.00055039,0.00046439,-0.00019533,-0.00033
 926,0.00023436,0.00038391,0.00051442,-0.00139451,0.00001897,0.00016410
 ,0.00033803,0.00018300,0.00015093,-0.00009601,0.00000414,-0.00058671,0
 .00040129,0.00006256,0.00011506,-0.00007849,-0.00003649,-0.00002232,-0
 .00000197,0.00000414,0.00000403,-0.00000157,0.00000361,0.00000405,0.00
 000165,0.00000653,0.00000051,0.00000037,-0.00037399,0.00007470,0.00020
 593,-0.00009937,0.00009339,-0.00022875,0.00000074,-0.00005255,-0.00003
 273,0.00000321,0.00002656,-0.00000425,0.00001800,-0.00000832,-0.000004
 58,-0.00002635,0.00001295,0.00000176,-0.00000193,0.00000189,0.00000290
 ,0.00001622,0.00003075,0.00003130,-0.00000477,-0.00000301,-0.00001690,
 -0.00001691,-0.00003642,-0.00002551,-0.18308113,0.04766902,-0.24397563
 ,0.01185746,-0.00684939,0.03155805,0.17139973,-0.00001178,0.00106650,-
 0.00097074,0.00019447,-0.00079058,0.00041916,-0.00145580,-0.00037930,0
 .00039785,0.00123394,-0.00189412,0.00319299,-0.00056044,-0.00101012,-0
 .00108685,0.00070372,-0.00012854,0.00006009,-0.00080259,0.00142598,-0.
 00062481,0.00048115,0.00036251,-0.00022622,-0.00016018,-0.00007391,-0.
 00001823,0.00002835,0.00001727,-0.00000455,0.00002018,0.00001500,0.000
 00413,0.00002686,0.00000599,0.00000183,0.00104567,-0.00001366,-0.00025
 559,0.00020823,-0.00009229,0.00003993,-0.00011165,0.00001213,0.0000420
 6,-0.00007062,0.00000939,0.00004518,0.00005765,-0.00003685,-0.00001174
 ,-0.00009477,0.00004901,0.00000321,-0.00000501,0.00000916,0.00000854,0
 .00009865,0.00010785,0.00015053,-0.00002139,-0.00000756,-0.00006022,-0
 .00009539,-0.00016078,-0.00015674,0.03377299,-0.01698890,0.07295358,0.
 00645543,-0.00203461,0.00928433,-0.04099185,0.02053099,-0.00033076,-0.
 00109361,0.00091622,-0.00027008,0.00028615,-0.00021325,0.00085642,0.00
 015237,-0.00023590,-0.00037807,0.00142525,0.00061160,0.00030597,-0.000
 75673,0.00029046,-0.00036063,0.00011182,-0.00008530,0.00043940,-0.0002
 2897,-0.00051596,-0.00026562,-0.00019622,0.00013719,0.00008050,0.00004
 452,0.00001693,-0.00001644,-0.00000904,0.00000275,-0.00001250,-0.00000
 966,-0.00000177,-0.00001314,-0.00000284,-0.00000065,-0.00025048,0.0000
 0199,-0.00004961,-0.00034747,0.00015008,0.00019660,0.00002679,0.000020
 82,0.00000727,0.00002920,-0.00004889,-0.00002980,-0.00003134,0.0000182
 4,0.00000525,0.00005140,-0.00002494,-0.00000065,0.00000328,-0.00000430
 ,-0.00000455,-0.00005146,-0.00005756,-0.00008490,0.00000960,0.00000364
 ,0.00003269,0.00005539,0.00009031,0.00009236,-0.19098691,0.07817392,-0
 .37492128,-0.02185720,0.00514559,-0.02837376,0.21337250,-0.08320527,0.
 40223832,-0.00030568,0.00025298,-0.00000619,-0.00107456,-0.00061391,-0
 .00120290,0.00107714,0.00008992,0.00012487,0.00206582,-0.00029637,0.00
 789733,-0.00855915,0.00257279,-0.00690429,-0.00047143,0.00014391,-0.00
 012580,0.00032871,0.00027372,-0.00246227,-0.00043438,-0.00026749,0.000
 11612,0.00015102,0.00004547,0.00000429,-0.00002483,-0.00001485,0.00000
 297,-0.00001518,-0.00000902,-0.00000330,-0.00002436,-0.00000689,-0.000
 00293,0.00054675,0.00002065,-0.00022481,0.00001755,0.00007486,-0.00004
 606,-0.00201851,-0.00009353,-0.00021535,-0.00026345,0.00037103,-0.0003
 2478,-0.00004246,0.00002720,0.00000826,0.00006820,-0.00003507,-0.00000
 280,0.00000451,-0.00000657,-0.00000653,-0.00010980,-0.00009616,-0.0001
 5930,0.00001515,0.00000130,0.00004820,0.00010054,0.00015064,0.00018562
 ,-0.00010197,0.00059288,-0.00007333,0.00005608,-0.00025743,-0.00010091
 ,0.00000903,-0.00010132,0.00007670,0.63273613,0.00018186,-0.00007584,0
 .00003326,0.00016443,-0.00011841,0.00018768,-0.00026621,-0.00002336,-0
 .00005436,-0.00036179,-0.00002584,-0.00041063,0.00124215,0.00172632,0.
 00087666,0.00011329,-0.00003128,0.00003065,0.00096640,-0.00001762,0.00
 011997,0.00011506,0.00007392,-0.00002905,-0.00003789,-0.00001002,-0.00
 000042,0.00000662,0.00000381,-0.00000073,0.00000369,0.00000209,0.00000
 087,0.00000700,0.00000188,0.00000062,-0.00050278,0.00101789,0.00023372
 ,-0.00005257,0.00004069,-0.00020353,0.00004825,-0.00191598,0.00072156,
 0.00037947,-0.00029900,0.00029193,0.00001027,-0.00000581,-0.00000212,-
 0.00001656,0.00000806,0.00000076,-0.00000114,0.00000124,0.00000162,0.0
 0002027,0.00002169,0.00003330,-0.00000296,-0.00000118,-0.00001062,-0.0
 0002002,-0.00003226,-0.00003743,0.00004934,-0.00012532,-0.00000962,-0.
 00000746,0.00004910,0.00002716,-0.00000491,0.00003403,-0.00001998,0.07
 275073,0.50535475,-0.00029437,0.00003235,0.00006740,-0.00045884,-0.000
 18534,-0.00018084,0.00062483,0.00012494,-0.00000007,0.00260466,-0.0001
 5031,-0.00067254,-0.00279845,0.00077342,0.00106894,-0.00030134,0.00008
 376,-0.00007099,-0.00333897,-0.00009686,0.00042882,-0.00023281,-0.0001
 5397,0.00007373,0.00008369,0.00002758,0.00000187,-0.00001369,-0.000008
 46,0.00000169,-0.00000850,-0.00000506,-0.00000211,-0.00001365,-0.00000
 357,-0.00000157,0.00244416,-0.00068958,-0.00096852,-0.00033443,0.00040
 344,-0.00028720,-0.00047165,0.00165472,-0.00102629,-0.00092447,0.00091
 295,-0.00088472,-0.00002495,0.00001526,0.00000606,0.00004053,-0.000020
 53,-0.00000254,0.00000237,-0.00000353,-0.00000424,-0.00005702,-0.00005
 128,-0.00008008,0.00000932,0.00000138,0.00002576,0.00005701,0.00008090
 ,0.00009054,-0.00017158,0.00038087,0.00009538,0.00001348,-0.00010926,-
 0.00008454,0.00002561,-0.00010436,0.00004485,0.02328123,0.02634773,0.0
 1331317,0.00047452,-0.00041079,0.00000552,0.00184765,0.00101741,0.0020
 8892,-0.00171520,-0.00012467,-0.00020105,-0.00380553,0.00062180,-0.016
 17586,0.00030883,-0.00101129,0.00920327,0.00074560,-0.00023221,0.00019
 997,-0.00300939,-0.00088080,0.00616475,0.00070037,0.00042901,-0.000186
 25,-0.00024081,-0.00007279,-0.00000742,0.00004032,0.00002376,-0.000004
 69,0.00002475,0.00001448,0.00000534,0.00003915,0.00001100,0.00000470,0
 .00273449,0.00009026,-0.00078810,-0.00033718,0.00006646,-0.00008418,0.
 00035020,-0.00010915,0.00098814,-0.00028540,0.00014273,-0.00005287,0.0
 0006669,-0.00004283,-0.00001314,-0.00010784,0.00005549,0.00000443,-0.0
 0000671,0.00001020,0.00001037,0.00017778,0.00015443,0.00025791,-0.0000
 2299,-0.00000162,-0.00007642,-0.00016036,-0.00024277,-0.00030178,0.000
 10414,-0.00098013,0.00021526,-0.00011066,0.00044046,0.00015691,-0.0000
 0299,0.00013478,-0.00012476,-0.46904417,0.10392898,-0.00815626,0.49509
 657,-0.00037022,0.00019162,-0.00012712,-0.00045321,0.00024973,-0.00061
 324,0.00052896,0.00000351,0.00015101,0.00061875,-0.00010623,0.00333870
 ,0.00009063,-0.00267815,-0.00189800,-0.00021260,0.00006437,-0.00006217
 ,0.00026155,0.00009812,-0.00115813,-0.00024438,-0.00014954,0.00005597,
 0.00007758,0.00001833,0.00000120,-0.00001373,-0.00000793,0.00000119,-0
 .00000746,-0.00000425,-0.00000168,-0.00001439,-0.00000420,-0.00000116,
 -0.00003220,-0.00033763,0.00029385,0.00009391,-0.00016872,0.00012763,-
 0.00018193,0.00043318,0.00028689,-0.00009634,0.00004679,-0.00011616,-0
 .00001999,0.00001245,0.00000398,0.00003240,-0.00001640,-0.00000135,0.0
 0000205,-0.00000282,-0.00000318,-0.00004275,-0.00004267,-0.00006895,0.
 00000575,0.00000177,0.00002114,0.00003998,0.00006180,0.00007805,-0.000
 05835,0.00024742,-0.00004336,0.00002290,-0.00012196,-0.00004865,-0.000
 00148,-0.00004434,0.00003991,0.15725076,-0.08608346,-0.00077341,-0.113
 65427,0.08221367,0.00028723,-0.00012464,-0.00004841,0.00097890,0.00054
 764,0.00080716,-0.00089815,-0.00011672,-0.00004984,-0.00471133,0.00058
 584,-0.00549397,0.00391659,-0.00102756,0.00102610,0.00040972,-0.000121
 55,0.00010295,0.00057982,-0.00030885,0.00125486,0.00034954,0.00022156,
 -0.00010241,-0.00012315,-0.00003901,-0.00000314,0.00002040,0.00001228,
 -0.00000253,0.00001271,0.00000750,0.00000289,0.00002002,0.00000550,0.0
 0000245,-0.00121808,0.00072013,-0.00017267,0.00004950,-0.00001855,0.00
 007072,0.00105350,0.00009151,-0.00319485,0.00048091,-0.00045426,0.0005
 0182,0.00003505,-0.00002207,-0.00000770,-0.00005717,0.00002921,0.00000
 290,-0.00000332,0.00000514,0.00000572,0.00009064,0.00007881,0.00012882
 ,-0.00001238,-0.00000115,-0.00003875,-0.00008206,-0.00012281,-0.000148
 44,0.00014114,-0.00053269,0.00000191,-0.00004487,0.00019900,0.00009970
 ,-0.00001160,0.00009948,-0.00006585,-0.00490224,-0.00112889,-0.0062508
 9,0.00663280,0.00073426,0.01130953,0.00009488,-0.00002146,0.00000723,0
 .00007839,-0.00005980,0.00003750,-0.00013329,-0.00001670,-0.00001664,-
 0.00054808,0.00007519,-0.00002342,0.00010315,0.00067586,-0.00004560,0.
 00006054,-0.00001739,0.00001565,0.00050923,0.00003975,0.00001259,0.000
 05467,0.00003474,-0.00001422,-0.00001897,-0.00000567,-0.00000049,0.000
 00303,0.00000184,-0.00000033,0.00000180,0.00000110,0.00000041,0.000003
 21,0.00000091,0.00000031,-0.00063940,0.00015778,-0.00014483,-0.0000099
 6,0.00006464,-0.00005344,-0.00017675,0.00002740,-0.00076315,0.00016553
 ,-0.00011551,0.00015473,0.00000565,-0.00000345,-0.00000101,-0.00000876
 ,0.00000441,0.00000032,-0.00000074,0.00000086,0.00000083,0.00001064,0.
 00000993,0.00001642,-0.00000174,-0.00000047,-0.00000546,-0.00001056,-0
 .00001506,-0.00001791,0.00003731,-0.00007557,-0.00001018,-0.00000380,0
 .00002152,0.00001449,-0.00000295,0.00002072,-0.00001029,-0.15468671,-0
 .17871351,-0.01158592,-0.02386185,-0.04362192,-0.00299414,0.17897551,0
 .00002329,-0.00001550,-0.00000661,0.00010823,0.00009951,0.00009887,-0.
 00009524,-0.00001125,-0.00000402,-0.00025120,0.00000385,-0.00053202,0.
 00081392,-0.00051753,0.00043338,0.00004365,-0.00001377,0.00001114,0.00
 000378,-0.00005622,0.00019631,0.00003611,0.00002218,-0.00001042,-0.000
 01279,-0.00000407,-0.00000038,0.00000209,0.00000126,-0.00000024,0.0000
 0131,0.00000081,0.00000029,0.00000202,0.00000058,0.00000025,0.00001425
 ,0.00017333,0.00017168,-0.00000274,-0.00005287,-0.00000925,-0.00004048
 ,0.00013523,-0.00060771,0.00002282,-0.00004563,0.00005037,0.00000362,-
 0.00000258,-0.00000075,-0.00000599,0.00000323,0.00000026,-0.00000029,0
 .00000066,0.00000058,0.00001027,0.00000844,0.00001430,-0.00000137,0.00
 000003,-0.00000422,-0.00000943,-0.00001355,-0.00001664,0.00000885,-0.0
 0006036,0.00000179,-0.00000497,0.00002389,0.00001059,-0.00000138,0.000
 00975,-0.00000662,-0.23282021,-0.41957007,-0.02848380,0.01062206,0.006
 12555,0.00068086,0.22152984,0.41375511,0.00006810,-0.00000471,-0.00001
 688,0.00008685,0.00002248,0.00001296,-0.00012607,-0.00002814,0.0000013
 7,-0.00047932,-0.00004042,0.00037209,0.00018346,0.00007485,-0.00011832
 ,0.00006171,-0.00001670,0.00001412,0.00078580,-0.00001894,-0.00006457,
 0.00004688,0.00003139,-0.00001518,-0.00001688,-0.00000558,-0.00000031,
 0.00000274,0.00000173,-0.00000034,0.00000171,0.00000100,0.00000045,0.0
 0000273,0.00000069,0.00000031,-0.00046816,0.00047845,-0.00012519,-0.00
 000668,0.00006743,-0.00004056,-0.00105333,-0.00117034,-0.00125524,0.00
 020148,-0.00014362,0.00018811,0.00000512,-0.00000309,-0.00000140,-0.00
 000827,0.00000417,0.00000063,-0.00000049,0.00000071,0.00000094,0.00001
 149,0.00001011,0.00001546,-0.00000199,-0.00000030,-0.00000503,-0.00001
 181,-0.00001633,-0.00001755,0.00004296,-0.00008071,-0.00002442,-0.0000
 0200,0.00001871,0.00001886,-0.00000529,0.00002246,-0.00000927,-0.01498
 179,-0.02700008,-0.00470107,0.00023451,-0.00021722,0.00026191,0.015426
 54,0.02801199,0.00550811\\0.00001439,-0.00002314,0.00000301,-0.0000047
 5,0.00001750,-0.00001072,0.00000310,0.00000212,0.00000571,0.00000071,0
 .00000681,-0.00001606,-0.00000592,0.00000471,0.00002167,-0.00000627,0.
 00000744,0.00000059,0.00001547,-0.00000277,0.00001302,-0.00000061,0.00
 000545,-0.00000378,0.00000310,-0.00000201,0.00000152,-0.00000022,-0.00
 000184,-0.00000298,0.00000259,-0.00000330,-0.00000130,-0.00000024,-0.0
 0000110,0.00000065,-0.00002295,0.00000140,-0.00000009,-0.00000148,-0.0
 0000255,-0.00000114,0.00000027,0.00000024,-0.00000562,0.00000281,0.000
 00308,0.00000021,-0.00000639,0.00000536,0.00000122,0.00000417,-0.00001
 186,-0.00000597,0.00000243,-0.00000303,0.00000656,-0.00000166,-0.00000
 476,-0.00000162,0.00000196,0.00000542,-0.00000172,-0.00000339,0.000001
 22,-0.00000043,0.00000361,0.00001243,-0.00000613,-0.00001189,-0.000011
 91,0.00001733,0.00000098,0.00000369,-0.00000833,-0.00000134,0.00001602
 ,0.00001057,0.00000629,-0.00002669,-0.00001426,0.00000523,0.00000206,-
 0.00000190\\\@


 Some scientists claim that hydrogen, because it is so
 plentiful, is the basic building block of the universe. 
 I dispute that. I say that stupidity is far more
 abundant than hydrogen, and THAT is the basic building 
 block of the universe.
                   --Frank Zappa
 Job cpu time:       0 days  0 hours 33 minutes  0.1 seconds.
 File lengths (MBytes):  RWF=    297 Int=      0 D2E=      0 Chk=     15 Scr=      1
 Normal termination of Gaussian 09 at Wed Sep  9 12:37:37 2020.
