 Entering Gaussian System, Link 0=g09
 Input=sm_claisen_water.com
 Output=sm_claisen_water.log
 Initial command:
 /apps/applications/gaussian/G09.D01/2/default/g09/l1.exe "/nobackup/pmmass/Temp/Gau-209659.inp" -scrdir="/nobackup/pmmass/Temp/"
 Entering Link 1 = /apps/applications/gaussian/G09.D01/2/default/g09/l1.exe PID=    209660.
  
 Copyright (c) 1988,1990,1992,1993,1995,1998,2003,2009,2013,
            Gaussian, Inc.  All Rights Reserved.
  
 This is part of the Gaussian(R) 09 program.  It is based on
 the Gaussian(R) 03 system (copyright 2003, Gaussian, Inc.),
 the Gaussian(R) 98 system (copyright 1998, Gaussian, Inc.),
 the Gaussian(R) 94 system (copyright 1995, Gaussian, Inc.),
 the Gaussian 92(TM) system (copyright 1992, Gaussian, Inc.),
 the Gaussian 90(TM) system (copyright 1990, Gaussian, Inc.),
 the Gaussian 88(TM) system (copyright 1988, Gaussian, Inc.),
 the Gaussian 86(TM) system (copyright 1986, Carnegie Mellon
 University), and the Gaussian 82(TM) system (copyright 1983,
 Carnegie Mellon University). Gaussian is a federally registered
 trademark of Gaussian, Inc.
  
 This software contains proprietary and confidential information,
 including trade secrets, belonging to Gaussian, Inc.
  
 This software is provided under written license and may be
 used, copied, transmitted, or stored only in accord with that
 written license.
  
 The following legend is applicable only to US Government
 contracts under FAR:
  
                    RESTRICTED RIGHTS LEGEND
  
 Use, reproduction and disclosure by the US Government is
 subject to restrictions as set forth in subparagraphs (a)
 and (c) of the Commercial Computer Software - Restricted
 Rights clause in FAR 52.227-19.
  
 Gaussian, Inc.
 340 Quinnipiac St., Bldg. 40, Wallingford CT 06492
  
  
 ---------------------------------------------------------------
 Warning -- This program may not be used in any manner that
 competes with the business of Gaussian, Inc. or will provide
 assistance to any competitor of Gaussian, Inc.  The licensee
 of this program is prohibited from giving any competitor of
 Gaussian, Inc. access to this program.  By using this program,
 the user acknowledges that Gaussian, Inc. is engaged in the
 business of creating and licensing software in the field of
 computational chemistry and represents and warrants to the
 licensee that it is not a competitor of Gaussian, Inc. and that
 it will not use this program in any manner prohibited above.
 ---------------------------------------------------------------
  

 Cite this work as:
 Gaussian 09, Revision D.01,
 M. J. Frisch, G. W. Trucks, H. B. Schlegel, G. E. Scuseria, 
 M. A. Robb, J. R. Cheeseman, G. Scalmani, V. Barone, B. Mennucci, 
 G. A. Petersson, H. Nakatsuji, M. Caricato, X. Li, H. P. Hratchian, 
 A. F. Izmaylov, J. Bloino, G. Zheng, J. L. Sonnenberg, M. Hada, 
 M. Ehara, K. Toyota, R. Fukuda, J. Hasegawa, M. Ishida, T. Nakajima, 
 Y. Honda, O. Kitao, H. Nakai, T. Vreven, J. A. Montgomery, Jr., 
 J. E. Peralta, F. Ogliaro, M. Bearpark, J. J. Heyd, E. Brothers, 
 K. N. Kudin, V. N. Staroverov, T. Keith, R. Kobayashi, J. Normand, 
 K. Raghavachari, A. Rendell, J. C. Burant, S. S. Iyengar, J. Tomasi, 
 M. Cossi, N. Rega, J. M. Millam, M. Klene, J. E. Knox, J. B. Cross, 
 V. Bakken, C. Adamo, J. Jaramillo, R. Gomperts, R. E. Stratmann, 
 O. Yazyev, A. J. Austin, R. Cammi, C. Pomelli, J. W. Ochterski, 
 R. L. Martin, K. Morokuma, V. G. Zakrzewski, G. A. Voth, 
 P. Salvador, J. J. Dannenberg, S. Dapprich, A. D. Daniels, 
 O. Farkas, J. B. Foresman, J. V. Ortiz, J. Cioslowski, 
 and D. J. Fox, Gaussian, Inc., Wallingford CT, 2013.
 
 ******************************************
 Gaussian 09:  ES64L-G09RevD.01 24-Apr-2013
                 2-Feb-2022 
 ******************************************
 %nprocshared=8
 Will use up to    8 processors via shared memory.
 %mem=4GB
 %NoSave
 %chk="sm_claisen_water.chk"
 ------------------------------------------------
 #n wB97XD/Def2TZVP scrf(smd,solvent=toluene) opt
 ------------------------------------------------
 1/14=-1,18=20,19=15,26=3,38=1/1,3;
 2/9=110,12=2,17=6,18=5,40=1/2;
 3/5=44,7=101,11=2,16=1,25=1,30=1,70=32201,71=1,72=13,74=-58/1,2,3;
 4//1;
 5/5=2,38=5,53=13/2;
 6/7=2,8=2,9=2,10=2,28=1/1;
 7//1,2,3,16;
 1/14=-1,18=20,19=15,26=3/3(2);
 2/9=110/2;
 99//99;
 2/9=110/2;
 3/5=44,7=101,11=2,16=1,25=1,30=1,70=32205,71=1,72=13,74=-58/1,2,3;
 4/5=5,16=3,69=1/1;
 5/5=2,38=5,53=13/2;
 7//1,2,3,16;
 1/14=-1,18=20,19=15,26=3/3(-5);
 2/9=110/2;
 6/7=2,8=2,9=2,10=2,19=2,28=1/1;
 99/9=1/99;
 ---------------------------------------
 starting material claisen toluene - opt
 ---------------------------------------
 Symbolic Z-matrix:
 Charge =  0 Multiplicity = 1
 C                    -2.74548   2.47531   0.60429 
 C                    -3.01523   1.21094   0.1377 
 C                    -1.96306   0.29458  -0.12709 
 C                    -0.61523   0.71187   0.08265 
 C                    -0.36915   2.0223    0.57654 
 C                    -1.41097   2.88419   0.82927 
 H                    -3.56561   3.16509   0.80729 
 H                    -4.04271   0.88876  -0.02797 
 H                     0.6583    2.33674   0.75455 
 H                    -1.2068    3.88612   1.20882 
 C                     0.46381  -0.20947  -0.15324 
 C                    -2.19132  -1.04118  -0.57765 
 C                     0.19132  -1.49326  -0.57185 
 H                     0.98852  -2.2176   -0.71119 
 C                    -1.14658  -1.90293  -0.78697 
 H                    -1.34861  -2.9216   -1.1177 
 O                     1.68816   0.30207   0.10824 
 Cl                   -3.81865  -1.59342  -0.861 
 C                     2.94126  -0.33756  -0.22139 
 C                     3.16776  -1.58649   0.59979 
 H                     4.01765  -2.19157   0.26546 
 C                     3.04018  -0.58845  -1.72846 
 H                     4.06133  -0.91428  -1.9692 
 H                     2.3443   -1.35589  -2.08679 
 H                     2.83978   0.35404  -2.25744 
 C                     3.98351   0.70648   0.18647 
 H                     3.85311   0.95836   1.24721 
 H                     4.99421   0.30272   0.04093 
 H                     3.86873   1.61293  -0.42508 
 C                     2.48369  -1.93526   1.68752 
 H                     2.75647  -2.83333   2.24569 
 H                     1.62455  -1.36144   2.04964 
 O                    -0.59037  -0.85327   2.77212 
 H                    -0.88082  -1.30694   1.97039 
 H                    -0.70328   0.07814   2.54674 
 O                     2.0001    2.63732  -1.62699 
 H                     1.18882   2.74059  -2.13776 
 H                     1.79896   1.91196  -1.01913 
 
 Add virtual bond connecting atoms H38        and O17        Dist= 3.72D+00.
 Add virtual bond connecting atoms O33        and H32        Dist= 4.51D+00.
 Add virtual bond connecting atoms H34        and H32        Dist= 4.74D+00.

 GradGradGradGradGradGradGradGradGradGradGradGradGradGradGradGradGradGrad
 Berny optimization.
 Initialization pass.
                           ----------------------------
                           !    Initial Parameters    !
                           ! (Angstroms and Degrees)  !
 --------------------------                            --------------------------
 ! Name  Definition              Value          Derivative Info.                !
 --------------------------------------------------------------------------------
 ! R1    R(1,2)                  1.3744         estimate D2E/DX2                !
 ! R2    R(1,6)                  1.4138         estimate D2E/DX2                !
 ! R3    R(1,7)                  1.0907         estimate D2E/DX2                !
 ! R4    R(2,3)                  1.4202         estimate D2E/DX2                !
 ! R5    R(2,8)                  1.0895         estimate D2E/DX2                !
 ! R6    R(3,4)                  1.4265         estimate D2E/DX2                !
 ! R7    R(3,12)                 1.4281         estimate D2E/DX2                !
 ! R8    R(4,5)                  1.4219         estimate D2E/DX2                !
 ! R9    R(4,11)                 1.4383         estimate D2E/DX2                !
 ! R10   R(5,6)                  1.3755         estimate D2E/DX2                !
 ! R11   R(5,9)                  1.0891         estimate D2E/DX2                !
 ! R12   R(6,10)                 1.0907         estimate D2E/DX2                !
 ! R13   R(11,13)                1.3775         estimate D2E/DX2                !
 ! R14   R(11,17)                1.3524         estimate D2E/DX2                !
 ! R15   R(12,15)                1.3704         estimate D2E/DX2                !
 ! R16   R(12,18)                1.7417         estimate D2E/DX2                !
 ! R17   R(13,14)                1.0861         estimate D2E/DX2                !
 ! R18   R(13,15)                1.4157         estimate D2E/DX2                !
 ! R19   R(15,16)                1.0899         estimate D2E/DX2                !
 ! R20   R(17,19)                1.445          estimate D2E/DX2                !
 ! R21   R(17,38)                1.9685         estimate D2E/DX2                !
 ! R22   R(19,20)                1.5118         estimate D2E/DX2                !
 ! R23   R(19,22)                1.531          estimate D2E/DX2                !
 ! R24   R(19,26)                1.5306         estimate D2E/DX2                !
 ! R25   R(20,21)                1.0955         estimate D2E/DX2                !
 ! R26   R(20,30)                1.3314         estimate D2E/DX2                !
 ! R27   R(22,23)                1.0986         estimate D2E/DX2                !
 ! R28   R(22,24)                1.0962         estimate D2E/DX2                !
 ! R29   R(22,25)                1.0992         estimate D2E/DX2                !
 ! R30   R(26,27)                1.098          estimate D2E/DX2                !
 ! R31   R(26,28)                1.0981         estimate D2E/DX2                !
 ! R32   R(26,29)                1.0995         estimate D2E/DX2                !
 ! R33   R(30,31)                1.092          estimate D2E/DX2                !
 ! R34   R(30,32)                1.0948         estimate D2E/DX2                !
 ! R35   R(32,33)                2.3846         estimate D2E/DX2                !
 ! R36   R(32,34)                2.5072         estimate D2E/DX2                !
 ! R37   R(33,34)                0.9659         estimate D2E/DX2                !
 ! R38   R(33,35)                0.9649         estimate D2E/DX2                !
 ! R39   R(36,37)                0.9642         estimate D2E/DX2                !
 ! R40   R(36,38)                0.9675         estimate D2E/DX2                !
 ! A1    A(2,1,6)              120.3535         estimate D2E/DX2                !
 ! A2    A(2,1,7)              119.8268         estimate D2E/DX2                !
 ! A3    A(6,1,7)              119.8188         estimate D2E/DX2                !
 ! A4    A(1,2,3)              120.7611         estimate D2E/DX2                !
 ! A5    A(1,2,8)              120.5806         estimate D2E/DX2                !
 ! A6    A(3,2,8)              118.6561         estimate D2E/DX2                !
 ! A7    A(2,3,4)              118.9382         estimate D2E/DX2                !
 ! A8    A(2,3,12)             122.9526         estimate D2E/DX2                !
 ! A9    A(4,3,12)             118.1024         estimate D2E/DX2                !
 ! A10   A(3,4,5)              118.9608         estimate D2E/DX2                !
 ! A11   A(3,4,11)             119.8246         estimate D2E/DX2                !
 ! A12   A(5,4,11)             121.1636         estimate D2E/DX2                !
 ! A13   A(4,5,6)              120.6781         estimate D2E/DX2                !
 ! A14   A(4,5,9)              119.0857         estimate D2E/DX2                !
 ! A15   A(6,5,9)              120.2362         estimate D2E/DX2                !
 ! A16   A(1,6,5)              120.2967         estimate D2E/DX2                !
 ! A17   A(1,6,10)             119.8516         estimate D2E/DX2                !
 ! A18   A(5,6,10)             119.8512         estimate D2E/DX2                !
 ! A19   A(4,11,13)            119.8945         estimate D2E/DX2                !
 ! A20   A(4,11,17)            113.901          estimate D2E/DX2                !
 ! A21   A(13,11,17)           126.1801         estimate D2E/DX2                !
 ! A22   A(3,12,15)            120.9664         estimate D2E/DX2                !
 ! A23   A(3,12,18)            119.8184         estimate D2E/DX2                !
 ! A24   A(15,12,18)           119.2147         estimate D2E/DX2                !
 ! A25   A(11,13,14)           121.0193         estimate D2E/DX2                !
 ! A26   A(11,13,15)           120.1864         estimate D2E/DX2                !
 ! A27   A(14,13,15)           118.7635         estimate D2E/DX2                !
 ! A28   A(12,15,13)           121.0185         estimate D2E/DX2                !
 ! A29   A(12,15,16)           119.5234         estimate D2E/DX2                !
 ! A30   A(13,15,16)           119.4568         estimate D2E/DX2                !
 ! A31   A(11,17,19)           124.9971         estimate D2E/DX2                !
 ! A32   A(11,17,38)           104.4515         estimate D2E/DX2                !
 ! A33   A(19,17,38)           100.5186         estimate D2E/DX2                !
 ! A34   A(17,19,20)           111.8207         estimate D2E/DX2                !
 ! A35   A(17,19,22)           110.6781         estimate D2E/DX2                !
 ! A36   A(17,19,26)           103.167          estimate D2E/DX2                !
 ! A37   A(20,19,22)           112.9318         estimate D2E/DX2                !
 ! A38   A(20,19,26)           108.4669         estimate D2E/DX2                !
 ! A39   A(22,19,26)           109.2744         estimate D2E/DX2                !
 ! A40   A(19,20,21)           114.0006         estimate D2E/DX2                !
 ! A41   A(19,20,30)           125.6751         estimate D2E/DX2                !
 ! A42   A(21,20,30)           120.2127         estimate D2E/DX2                !
 ! A43   A(19,22,23)           108.9276         estimate D2E/DX2                !
 ! A44   A(19,22,24)           113.2965         estimate D2E/DX2                !
 ! A45   A(19,22,25)           108.749          estimate D2E/DX2                !
 ! A46   A(23,22,24)           108.1075         estimate D2E/DX2                !
 ! A47   A(23,22,25)           108.5609         estimate D2E/DX2                !
 ! A48   A(24,22,25)           109.1012         estimate D2E/DX2                !
 ! A49   A(19,26,27)           109.4533         estimate D2E/DX2                !
 ! A50   A(19,26,28)           109.916          estimate D2E/DX2                !
 ! A51   A(19,26,29)           110.0638         estimate D2E/DX2                !
 ! A52   A(27,26,28)           108.7663         estimate D2E/DX2                !
 ! A53   A(27,26,29)           109.6226         estimate D2E/DX2                !
 ! A54   A(28,26,29)           108.9972         estimate D2E/DX2                !
 ! A55   A(20,30,31)           120.309          estimate D2E/DX2                !
 ! A56   A(20,30,32)           122.4202         estimate D2E/DX2                !
 ! A57   A(31,30,32)           117.2593         estimate D2E/DX2                !
 ! A58   A(30,32,33)           160.1965         estimate D2E/DX2                !
 ! A59   A(30,32,34)           141.7325         estimate D2E/DX2                !
 ! A60   A(32,33,35)           104.1009         estimate D2E/DX2                !
 ! A61   A(34,33,35)           102.9626         estimate D2E/DX2                !
 ! A62   A(37,36,38)           103.7794         estimate D2E/DX2                !
 ! A63   L(17,38,36,1,-1)      189.9293         estimate D2E/DX2                !
 ! A64   L(17,38,36,1,-2)      181.6241         estimate D2E/DX2                !
 ! D1    D(6,1,2,3)             -0.0327         estimate D2E/DX2                !
 ! D2    D(6,1,2,8)            179.4154         estimate D2E/DX2                !
 ! D3    D(7,1,2,3)           -179.6961         estimate D2E/DX2                !
 ! D4    D(7,1,2,8)             -0.248          estimate D2E/DX2                !
 ! D5    D(2,1,6,5)              0.3392         estimate D2E/DX2                !
 ! D6    D(2,1,6,10)          -179.4088         estimate D2E/DX2                !
 ! D7    D(7,1,6,5)           -179.9973         estimate D2E/DX2                !
 ! D8    D(7,1,6,10)             0.2546         estimate D2E/DX2                !
 ! D9    D(1,2,3,4)             -0.7891         estimate D2E/DX2                !
 ! D10   D(1,2,3,12)           178.2442         estimate D2E/DX2                !
 ! D11   D(8,2,3,4)            179.7523         estimate D2E/DX2                !
 ! D12   D(8,2,3,12)            -1.2143         estimate D2E/DX2                !
 ! D13   D(2,3,4,5)              1.2957         estimate D2E/DX2                !
 ! D14   D(2,3,4,11)           178.7292         estimate D2E/DX2                !
 ! D15   D(12,3,4,5)          -177.7847         estimate D2E/DX2                !
 ! D16   D(12,3,4,11)           -0.3513         estimate D2E/DX2                !
 ! D17   D(2,3,12,15)         -178.2573         estimate D2E/DX2                !
 ! D18   D(2,3,12,18)            1.4711         estimate D2E/DX2                !
 ! D19   D(4,3,12,15)            0.7836         estimate D2E/DX2                !
 ! D20   D(4,3,12,18)         -179.4879         estimate D2E/DX2                !
 ! D21   D(3,4,5,6)             -1.0153         estimate D2E/DX2                !
 ! D22   D(3,4,5,9)            178.9009         estimate D2E/DX2                !
 ! D23   D(11,4,5,6)          -178.4131         estimate D2E/DX2                !
 ! D24   D(11,4,5,9)             1.503          estimate D2E/DX2                !
 ! D25   D(3,4,11,13)           -0.4373         estimate D2E/DX2                !
 ! D26   D(3,4,11,17)         -178.7514         estimate D2E/DX2                !
 ! D27   D(5,4,11,13)          176.9384         estimate D2E/DX2                !
 ! D28   D(5,4,11,17)           -1.3757         estimate D2E/DX2                !
 ! D29   D(4,5,6,1)              0.1968         estimate D2E/DX2                !
 ! D30   D(4,5,6,10)           179.9448         estimate D2E/DX2                !
 ! D31   D(9,5,6,1)           -179.7184         estimate D2E/DX2                !
 ! D32   D(9,5,6,10)             0.0297         estimate D2E/DX2                !
 ! D33   D(4,11,13,14)        -177.1431         estimate D2E/DX2                !
 ! D34   D(4,11,13,15)           0.8118         estimate D2E/DX2                !
 ! D35   D(17,11,13,14)          0.9473         estimate D2E/DX2                !
 ! D36   D(17,11,13,15)        178.9022         estimate D2E/DX2                !
 ! D37   D(4,11,17,19)        -170.7262         estimate D2E/DX2                !
 ! D38   D(4,11,17,38)         -56.4857         estimate D2E/DX2                !
 ! D39   D(13,11,17,19)         11.0847         estimate D2E/DX2                !
 ! D40   D(13,11,17,38)        125.3251         estimate D2E/DX2                !
 ! D41   D(3,12,15,13)          -0.4301         estimate D2E/DX2                !
 ! D42   D(3,12,15,16)         179.1526         estimate D2E/DX2                !
 ! D43   D(18,12,15,13)        179.8399         estimate D2E/DX2                !
 ! D44   D(18,12,15,16)         -0.5774         estimate D2E/DX2                !
 ! D45   D(11,13,15,12)         -0.3879         estimate D2E/DX2                !
 ! D46   D(11,13,15,16)       -179.9709         estimate D2E/DX2                !
 ! D47   D(14,13,15,12)        177.6128         estimate D2E/DX2                !
 ! D48   D(14,13,15,16)         -1.9702         estimate D2E/DX2                !
 ! D49   D(11,17,19,20)        -67.9902         estimate D2E/DX2                !
 ! D50   D(11,17,19,22)         58.86           estimate D2E/DX2                !
 ! D51   D(11,17,19,26)        175.6451         estimate D2E/DX2                !
 ! D52   D(38,17,19,20)        175.9154         estimate D2E/DX2                !
 ! D53   D(38,17,19,22)        -57.2343         estimate D2E/DX2                !
 ! D54   D(38,17,19,26)         59.5508         estimate D2E/DX2                !
 ! D55   D(11,17,36,37)          1.0617         estimate D2E/DX2                !
 ! D56   D(19,17,36,37)        130.8779         estimate D2E/DX2                !
 ! D57   D(17,19,20,21)        170.1755         estimate D2E/DX2                !
 ! D58   D(17,19,20,30)        -13.6837         estimate D2E/DX2                !
 ! D59   D(22,19,20,21)         44.5557         estimate D2E/DX2                !
 ! D60   D(22,19,20,30)       -139.3035         estimate D2E/DX2                !
 ! D61   D(26,19,20,21)        -76.7204         estimate D2E/DX2                !
 ! D62   D(26,19,20,30)         99.4204         estimate D2E/DX2                !
 ! D63   D(17,19,22,23)        170.4824         estimate D2E/DX2                !
 ! D64   D(17,19,22,24)        -69.1604         estimate D2E/DX2                !
 ! D65   D(17,19,22,25)         52.3337         estimate D2E/DX2                !
 ! D66   D(20,19,22,23)        -63.2846         estimate D2E/DX2                !
 ! D67   D(20,19,22,24)         57.0726         estimate D2E/DX2                !
 ! D68   D(20,19,22,25)        178.5667         estimate D2E/DX2                !
 ! D69   D(26,19,22,23)         57.5329         estimate D2E/DX2                !
 ! D70   D(26,19,22,24)        177.8902         estimate D2E/DX2                !
 ! D71   D(26,19,22,25)        -60.6158         estimate D2E/DX2                !
 ! D72   D(17,19,26,27)         56.9462         estimate D2E/DX2                !
 ! D73   D(17,19,26,28)        176.3433         estimate D2E/DX2                !
 ! D74   D(17,19,26,29)        -63.5955         estimate D2E/DX2                !
 ! D75   D(20,19,26,27)        -61.7776         estimate D2E/DX2                !
 ! D76   D(20,19,26,28)         57.6195         estimate D2E/DX2                !
 ! D77   D(20,19,26,29)        177.6807         estimate D2E/DX2                !
 ! D78   D(22,19,26,27)        174.7208         estimate D2E/DX2                !
 ! D79   D(22,19,26,28)        -65.8822         estimate D2E/DX2                !
 ! D80   D(22,19,26,29)         54.179          estimate D2E/DX2                !
 ! D81   D(19,20,30,31)       -176.7396         estimate D2E/DX2                !
 ! D82   D(19,20,30,32)          4.5314         estimate D2E/DX2                !
 ! D83   D(21,20,30,31)         -0.8197         estimate D2E/DX2                !
 ! D84   D(21,20,30,32)       -179.5487         estimate D2E/DX2                !
 ! D85   D(20,30,32,33)        125.1164         estimate D2E/DX2                !
 ! D86   D(20,30,32,34)         96.6959         estimate D2E/DX2                !
 ! D87   D(31,30,32,33)        -53.6493         estimate D2E/DX2                !
 ! D88   D(31,30,32,34)        -82.0698         estimate D2E/DX2                !
 ! D89   D(30,32,33,35)       -152.4366         estimate D2E/DX2                !
 ! D90   D(32,33,34,35)       -103.5314         estimate D2E/DX2                !
 --------------------------------------------------------------------------------
 Trust Radius=3.00D-01 FncErr=1.00D-07 GrdErr=1.00D-06
 Number of steps in this run=    204 maximum allowed number of steps=    228.
 GradGradGradGradGradGradGradGradGradGradGradGradGradGradGradGradGradGrad

                          Input orientation:                          
 ---------------------------------------------------------------------
 Center     Atomic      Atomic             Coordinates (Angstroms)
 Number     Number       Type             X           Y           Z
 ---------------------------------------------------------------------
      1          6           0       -2.745480    2.475310    0.604290
      2          6           0       -3.015230    1.210940    0.137700
      3          6           0       -1.963060    0.294580   -0.127090
      4          6           0       -0.615230    0.711870    0.082650
      5          6           0       -0.369150    2.022300    0.576540
      6          6           0       -1.410970    2.884190    0.829270
      7          1           0       -3.565610    3.165090    0.807290
      8          1           0       -4.042710    0.888760   -0.027970
      9          1           0        0.658300    2.336740    0.754550
     10          1           0       -1.206800    3.886120    1.208820
     11          6           0        0.463810   -0.209470   -0.153240
     12          6           0       -2.191320   -1.041180   -0.577650
     13          6           0        0.191320   -1.493260   -0.571850
     14          1           0        0.988520   -2.217600   -0.711190
     15          6           0       -1.146580   -1.902930   -0.786970
     16          1           0       -1.348610   -2.921600   -1.117700
     17          8           0        1.688160    0.302070    0.108240
     18         17           0       -3.818650   -1.593420   -0.861000
     19          6           0        2.941260   -0.337560   -0.221390
     20          6           0        3.167760   -1.586490    0.599790
     21          1           0        4.017650   -2.191570    0.265460
     22          6           0        3.040180   -0.588450   -1.728460
     23          1           0        4.061330   -0.914280   -1.969200
     24          1           0        2.344300   -1.355890   -2.086790
     25          1           0        2.839780    0.354040   -2.257440
     26          6           0        3.983510    0.706480    0.186470
     27          1           0        3.853110    0.958360    1.247210
     28          1           0        4.994210    0.302720    0.040930
     29          1           0        3.868730    1.612930   -0.425080
     30          6           0        2.483690   -1.935260    1.687520
     31          1           0        2.756470   -2.833330    2.245690
     32          1           0        1.624550   -1.361440    2.049640
     33          8           0       -0.590370   -0.853270    2.772120
     34          1           0       -0.880820   -1.306940    1.970390
     35          1           0       -0.703280    0.078140    2.546740
     36          8           0        2.000100    2.637320   -1.626990
     37          1           0        1.188820    2.740590   -2.137760
     38          1           0        1.798960    1.911960   -1.019130
 ---------------------------------------------------------------------
                    Distance matrix (angstroms):
                    1          2          3          4          5
     1  C    0.000000
     2  C    1.374446   0.000000
     3  C    2.429543   1.420173   0.000000
     4  C    2.814213   2.451959   1.426453   0.000000
     5  C    2.419283   2.802254   2.453703   1.421868   0.000000
     6  C    1.413759   2.419026   2.815228   2.430971   1.375542
     7  H    1.090696   2.137749   3.417757   3.904886   3.402436
     8  H    2.144691   1.089478   2.165137   3.433824   3.891708
     9  H    3.409912   3.891369   3.437911   2.171067   1.089134
    10  H    2.173333   3.402103   3.905860   3.419660   2.138986
    11  C    4.252227   3.769075   2.478800   1.438346   2.491425
    12  C    3.750970   2.502518   1.428062   2.448109   3.746648
    13  C    5.075199   4.254189   2.834702   2.437517   3.740600
    14  H    6.139760   5.339056   3.919700   3.432782   4.634465
    15  C    4.864265   3.747406   2.435391   2.806377   4.227409
    16  H    5.834649   4.629421   3.420917   3.896253   5.317136
    17  O    4.962479   4.790490   3.658804   2.339700   2.722319
    18  Cl   4.455708   3.083394   2.747068   4.057923   5.199904
    19  C    6.397890   6.164947   4.945791   3.720533   4.143000
    20  C    7.173886   6.802096   5.512902   4.456558   5.053082
    21  H    8.224020   7.813757   6.488754   5.470554   6.090771
    22  C    6.949979   6.586983   5.326963   4.281702   4.873661
    23  H    8.027754   7.683312   6.414670   5.359540   5.893509
    24  H    6.915625   6.345198   5.011769   4.211997   5.086089
    25  H    6.624531   6.383738   5.254446   4.188217   4.594754
    26  C    6.970125   7.017066   5.969060   4.599915   4.563900
    27  H    6.801167   6.961961   6.013081   4.624178   4.405593
    28  H    8.058556   8.061350   6.959303   5.624497   5.657691
    29  H    6.749154   6.918614   5.986369   4.601695   4.373837
    30  C    6.926091   6.522165   5.295147   4.380207   5.003524
    31  H    7.819674   7.356104   6.139045   5.349350   6.011049
    32  H    5.992232   5.639168   4.511264   3.631016   4.194587
    33  O    4.519229   4.132926   3.406942   3.111837   3.624695
    34  H    4.432674   3.775471   2.852285   2.776634   3.645334
    35  H    3.700016   3.525879   2.963656   2.545802   2.788026
    36  O    5.246464   5.504746   4.841980   3.670174   3.293500
    37  H    4.802908   5.019122   4.467673   3.507210   3.211018
    38  H    4.858476   5.000611   4.190996   2.912464   2.694260
                    6          7          8          9         10
     6  C    0.000000
     7  H    2.172984   0.000000
     8  H    3.412134   2.471227   0.000000
     9  H    2.141766   4.304691   4.980811   0.000000
    10  H    1.090691   2.499019   4.307691   2.466888   0.000000
    11  C    3.748447   5.342892   4.640100   2.710183   4.628175
    12  C    4.242275   4.636749   2.730286   4.615781   5.332827
    13  C    4.867498   6.141398   4.888439   4.079989   5.836373
    14  H    5.844556   7.212436   5.952272   4.795774   6.764707
    15  C    5.059511   5.837653   4.093554   4.858876   6.123717
    16  H    6.123870   6.757845   4.792132   5.931538   7.195683
    17  O    4.097784   6.023923   5.762433   2.370276   4.736822
    18  Cl   5.357511   5.048825   2.627805   6.172458   6.413367
    19  C    5.515928   7.460972   7.093455   3.649143   6.090269
    20  C    6.403469   8.243715   7.649302   4.659729   7.032578
    21  H    7.453263   9.300173   8.633883   5.659508   8.069890
    22  C    6.197899   8.009716   7.432439   4.516130   6.832732
    23  H    7.225363   9.084072   8.526124   5.437698   7.803643
    24  H    6.370537   7.983858   7.076093   4.954929   7.137929
    25  H    5.830807   7.636988   7.254318   4.214503   6.392602
    26  C    5.852865   7.963629   8.031153   3.746663   6.172085
    27  H    5.620857   7.752457   7.998431   3.514179   5.846019
    28  H    6.950669   9.058200   9.056164   4.842170   7.256531
    29  H    5.573574   7.693981   7.954433   3.496039   5.796380
    30  C    6.255563   7.961307   7.315182   4.738403   6.909221
    31  H    7.215527   8.832821   8.077892   5.775417   7.869791
    32  H    5.359950   6.997905   6.441871   4.035769   6.021661
    33  O    4.291463   5.372134   4.774288   3.975667   5.028490
    34  H    4.375932   5.344151   4.337291   4.138062   5.258719
    35  H    3.365181   4.554984   4.293953   3.188592   4.067465
    36  O    4.210648   6.097654   6.490753   2.750002   4.459319
    37  H    3.947505   5.608754   5.937120   2.968165   4.272099
    38  H    3.829551   5.803857   6.012857   2.151159   4.230326
                   11         12         13         14         15
    11  C    0.000000
    12  C    2.814530   0.000000
    13  C    1.377535   2.425156   0.000000
    14  H    2.149236   3.393108   1.086099   0.000000
    15  C    2.421317   1.370368   1.415656   2.159493   0.000000
    16  H    3.401573   2.130210   2.170136   2.474478   1.089902
    17  O    1.352434   4.162347   2.434392   2.740383   3.701240
    18  Cl   4.555843   1.741683   4.021629   4.849838   2.690954
    19  C    2.481695   5.192820   3.003437   2.754569   4.413695
    20  C    3.126433   5.513934   3.200098   2.620316   4.542771
    21  H    4.090698   6.370678   3.978634   3.182790   5.278276
    22  C    3.043456   5.375679   3.205063   2.810387   4.488120
    23  H    4.091041   6.406883   4.155091   3.566987   5.431153
    24  H    2.930723   4.790448   2.636140   2.114937   3.764974
    25  H    3.223420   5.484551   3.642536   3.525817   4.811160
    26  C    3.652760   6.462718   4.449113   4.280888   5.837331
    27  H    3.848693   6.622946   4.767402   4.704033   6.109155
    28  H    4.563394   7.336249   5.164184   4.791999   6.577204
    29  H    3.871501   6.617536   4.815942   4.801086   6.135599
    30  C    3.232130   5.271252   3.248858   2.840609   4.393519
    31  H    4.230342   5.971907   4.039098   3.499701   5.029560
    32  H    2.743544   4.643930   2.990608   2.959683   4.002340
    33  O    3.175454   3.717433   3.493245   4.060510   3.752103
    34  H    2.742677   2.877594   2.765354   3.393318   2.833525
    35  H    2.955454   3.637163   3.604887   4.329748   3.903175
    36  O    3.554763   5.674547   4.631058   5.043038   5.587584
    37  H    3.628610   5.306701   4.623047   5.163223   5.370382
    38  H    2.651953   4.983801   3.792109   4.219586   4.825297
                   16         17         18         19         20
    16  H    0.000000
    17  O    4.595318   0.000000
    18  Cl   2.816213   5.904004   0.000000
    19  C    5.087595   1.445006   6.905264   0.000000
    20  C    5.012972   2.448979   7.137498   1.511775   0.000000
    21  H    5.589528   3.416062   7.939414   2.198407   1.095542
    22  C    5.007803   2.448357   6.986129   1.531010   2.536357
    23  H    5.832824   3.380414   7.986452   2.154531   2.801793
    24  H    4.126520   2.827987   6.288158   2.207504   2.819393
    25  H    5.437962   2.631610   7.076534   2.152698   3.469437
    26  C    6.579919   2.332016   8.201246   1.530573   2.468601
    27  H    6.906865   2.532781   8.355359   2.160478   2.713875
    28  H    7.209024   3.306735   9.059543   2.166420   2.686514
    29  H    6.947109   2.599552   8.340655   2.169355   3.431910
    30  C    4.850634   2.851778   6.806710   2.530998   1.331446
    31  H    5.307718   3.942171   7.377066   3.514185   2.105411
    32  H    4.615823   2.557410   6.176898   2.817735   2.129368
    33  O    4.470304   3.690903   4.916215   4.658269   4.402291
    34  H    3.516000   3.557552   4.090194   4.511307   4.283421
    35  H    4.779436   3.422778   4.910431   4.595435   4.641827
    36  O    6.509595   2.926042   7.234898   3.422193   4.915542
    37  H    6.288042   3.352646   6.744517   4.027223   5.489445
    38  H    5.768901   1.968498   6.623461   2.646050   4.090681
                   21         22         23         24         25
    21  H    0.000000
    22  C    2.738824   0.000000
    23  H    2.574312   1.098576   0.000000
    24  H    3.005252   1.096181   1.776806   0.000000
    25  H    3.772603   1.099212   1.784349   1.788430   0.000000
    26  C    2.899327   2.496732   2.698116   3.479668   2.721218
    27  H    3.303478   3.450810   3.727657   4.329875   3.697920
    28  H    2.688041   2.782653   2.528236   3.781561   3.150668
    29  H    3.869527   2.689120   2.967860   3.728144   2.449711
    30  C    2.107364   3.713825   4.111320   3.821062   4.574976
    31  H    2.433874   4.573166   4.811518   4.595987   5.517649
    32  H    3.098280   4.107988   4.721115   4.198586   4.792765
    33  O    5.413708   5.788458   6.642451   5.698589   6.206448
    34  H    5.261593   5.438011   6.332409   5.183098   5.871649
    35  H    5.713405   5.721466   6.639286   5.728332   5.975746
    36  O    5.565074   3.390819   4.120636   4.034305   2.513145
    37  H    6.172840   3.831131   4.651645   4.256628   2.904413
    38  H    4.838565   2.880248   3.742804   3.480824   2.245848
                   26         27         28         29         30
    26  C    0.000000
    27  H    1.098006   0.000000
    28  H    1.098052   1.785241   0.000000
    29  H    1.099463   1.795901   1.789000   0.000000
    30  C    3.388422   3.231443   3.744666   4.355579   0.000000
    31  H    4.275075   4.071424   4.438835   5.304655   1.092013
    32  H    3.648615   3.315395   4.261332   4.472970   1.094770
    33  O    5.480765   5.035064   6.323231   6.015630   3.434662
    34  H    5.558591   5.297610   6.389820   6.068125   3.434345
    35  H    5.285044   4.819155   6.228235   5.664854   3.866370
    36  O    3.309184   3.809669   4.146928   2.446577   5.668185
    37  H    4.165326   4.661846   5.017060   3.374434   6.178433
    38  H    2.771085   3.203932   3.731354   2.173997   4.753516
                   31         32         33         34         35
    31  H    0.000000
    32  H    1.867120   0.000000
    33  O    3.924169   2.384551   0.000000
    34  H    3.954179   2.507216   0.965893   0.000000
    35  H    4.531794   2.781778   0.964919   1.510677   0.000000
    36  O    6.745203   5.445065   6.184410   6.066138   5.592646
    37  H    7.262282   5.877995   6.339422   6.127218   5.710799
    38  H    5.838977   4.490314   5.265831   5.145850   4.726471
                   36         37         38
    36  O    0.000000
    37  H    0.964223   0.000000
    38  H    0.967522   1.519945   0.000000
 Stoichiometry    C15H19ClO3
 Framework group  C1[X(C15H19ClO3)]
 Deg. of freedom   108
 Full point group                 C1      NOp   1
 Largest Abelian subgroup         C1      NOp   1
 Largest concise Abelian subgroup C1      NOp   1
                         Standard orientation:                         
 ---------------------------------------------------------------------
 Center     Atomic      Atomic             Coordinates (Angstroms)
 Number     Number       Type             X           Y           Z
 ---------------------------------------------------------------------
      1          6           0       -2.745480    2.475310    0.604291
      2          6           0       -3.015230    1.210940    0.137701
      3          6           0       -1.963060    0.294580   -0.127089
      4          6           0       -0.615230    0.711870    0.082651
      5          6           0       -0.369150    2.022300    0.576541
      6          6           0       -1.410970    2.884190    0.829271
      7          1           0       -3.565609    3.165091    0.807291
      8          1           0       -4.042710    0.888761   -0.027969
      9          1           0        0.658300    2.336740    0.754551
     10          1           0       -1.206799    3.886120    1.208821
     11          6           0        0.463810   -0.209470   -0.153239
     12          6           0       -2.191320   -1.041180   -0.577649
     13          6           0        0.191319   -1.493260   -0.571849
     14          1           0        0.988519   -2.217600   -0.711189
     15          6           0       -1.146581   -1.902930   -0.786969
     16          1           0       -1.348611   -2.921600   -1.117699
     17          8           0        1.688160    0.302069    0.108241
     18         17           0       -3.818651   -1.593419   -0.860999
     19          6           0        2.941260   -0.337561   -0.221389
     20          6           0        3.167759   -1.586491    0.599791
     21          1           0        4.017649   -2.191571    0.265461
     22          6           0        3.040180   -0.588451   -1.728459
     23          1           0        4.061330   -0.914281   -1.969199
     24          1           0        2.344299   -1.355891   -2.086789
     25          1           0        2.839780    0.354039   -2.257439
     26          6           0        3.983510    0.706479    0.186471
     27          1           0        3.853110    0.958359    1.247211
     28          1           0        4.994210    0.302719    0.040931
     29          1           0        3.868730    1.612929   -0.425079
     30          6           0        2.483689   -1.935261    1.687521
     31          1           0        2.756469   -2.833331    2.245691
     32          1           0        1.624549   -1.361441    2.049641
     33          8           0       -0.590370   -0.853270    2.772121
     34          1           0       -0.880820   -1.306940    1.970391
     35          1           0       -0.703280    0.078140    2.546741
     36          8           0        2.000100    2.637319   -1.626989
     37          1           0        1.188820    2.740589   -2.137759
     38          1           0        1.798960    1.911959   -1.019129
 ---------------------------------------------------------------------
 Rotational constants (GHZ):      0.4796422      0.2439407      0.2074003
 Standard basis: def2TZVP (5D, 7F)
 There are   804 symmetry adapted cartesian basis functions of A   symmetry.
 There are   709 symmetry adapted basis functions of A   symmetry.
   709 basis functions,  1139 primitive gaussians,   804 cartesian basis functions
    75 alpha electrons       75 beta electrons
       nuclear repulsion energy      1631.7671712478 Hartrees.
 NAtoms=   38 NActive=   38 NUniq=   38 SFac= 1.00D+00 NAtFMM=   60 NAOKFM=F Big=F
 Integral buffers will be    131072 words long.
 Raffenetti 2 integral format.
 Two-electron integral symmetry is turned on.
 Nuclear repulsion after empirical dispersion term =     1631.7329558570 Hartrees.
 ------------------------------------------------------------------------------
 Polarizable Continuum Model (PCM)
 =================================
 Model                : PCM (using non-symmetric T matrix).
 Atomic radii         : SMD-Coulomb.
 Polarization charges : Total charges.
 Charge compensation  : None.
 Solution method      : On-the-fly selection.
 Cavity type          : VdW (van der Waals Surface) (Alpha=1.000).
 Cavity algorithm     : GePol (No added spheres)
                        Default sphere list used, NSphG=   38.
                        Lebedev-Laikov grids with approx.  5.0 points / Ang**2.
                        Smoothing algorithm: Karplus/York (Gamma=1.0000).
                        Polarization charges: spherical gaussians, with
                                              point-specific exponents (IZeta= 3).
                        Self-potential: point-specific (ISelfS= 7).
                        Self-field    : sphere-specific E.n sum rule (ISelfD= 2).
 1st derivatives      : Analytical E(r).r(x)/FMM algorithm (CHGder, D1EAlg=3).
                        Cavity 1st derivative terms included.
 Solvent              : Toluene, Eps=   2.374100 Eps(inf)=   2.238315
 ------------------------------------------------------------------------------
 ------------------------------------------------------------------------------
 Atomic radii for non-electrostatic terms: SMD-CDS.
 ------------------------------------------------------------------------------
 Nuclear repulsion after PCM non-electrostatic terms =     1631.7225158437 Hartrees.
 One-electron integrals computed using PRISM.
   1 Symmetry operations used in ECPInt.
 ECPInt:  NShTT=   41328 NPrTT=  126240 LenC2=   37602 LenP2D=   82442.
 LDataN:  DoStor=T MaxTD1= 6 Len=  172
 NBasis=   709 RedAO= T EigKep=  4.59D-06  NBF=   709
 NBsUse=   709 1.00D-06 EigRej= -1.00D+00 NBFU=   709
 ExpMin= 9.52D-02 ExpMax= 6.95D+04 ExpMxC= 2.37D+03 IAcc=2 IRadAn=         4 AccDes= 0.00D+00
 Harris functional with IExCor= 4639 and IRadAn=       4 diagonalized for initial guess.
 HarFok:  IExCor= 4639 AccDes= 0.00D+00 IRadAn=         4 IDoV= 1 UseB2=F ITyADJ=14
 ICtDFT=  3500011 ScaDFX=  1.000000  1.000000  1.000000  1.000000
 FoFCou: FMM=F IPFlag=           0 FMFlag=      100000 FMFlg1=           0
         NFxFlg=           0 DoJE=T BraDBF=F KetDBF=T FulRan=T
         wScrn=  0.000000 ICntrl=     500 IOpCl=  0 I1Cent=   200000004 NGrid=           0
         NMat0=    1 NMatS0=      1 NMatT0=    0 NMatD0=    1 NMtDS0=    0 NMtDT0=    0
 Petite list used in FoFCou.
 Requested convergence on RMS density matrix=1.00D-08 within 128 cycles.
 Requested convergence on MAX density matrix=1.00D-06.
 Requested convergence on             energy=1.00D-06.
 No special actions if energy rises.
 Inv3:  Mode=1 IEnd=    23402547.
 Iteration    1 A*A^-1 deviation from unit magnitude is 5.44D-15 for   2791.
 Iteration    1 A*A^-1 deviation from orthogonality  is 2.18D-15 for   1659   1022.
 Iteration    1 A^-1*A deviation from unit magnitude is 5.22D-15 for   2791.
 Iteration    1 A^-1*A deviation from orthogonality  is 8.37D-12 for   1632   1583.
 Error on total polarization charges =  0.02197
 SCF Done:  E(RwB97XD) =  -1268.97296733     A.U. after   15 cycles
            NFock= 15  Conv=0.57D-08     -V/T= 2.0039
 SMD-CDS (non-electrostatic) energy       (kcal/mol) =      -6.55
 (included in total energy above)

 **********************************************************************

            Population analysis using the SCF density.

 **********************************************************************

 Orbital symmetries:
       Occupied  (A) (A) (A) (A) (A) (A) (A) (A) (A) (A) (A) (A)
                 (A) (A) (A) (A) (A) (A) (A) (A) (A) (A) (A) (A)
                 (A) (A) (A) (A) (A) (A) (A) (A) (A) (A) (A) (A)
                 (A) (A) (A) (A) (A) (A) (A) (A) (A) (A) (A) (A)
                 (A) (A) (A) (A) (A) (A) (A) (A) (A) (A) (A) (A)
                 (A) (A) (A) (A) (A) (A) (A) (A) (A) (A) (A) (A)
                 (A) (A) (A)
       Virtual   (A) (A) (A) (A) (A) (A) (A) (A) (A) (A) (A) (A)
                 (A) (A) (A) (A) (A) (A) (A) (A) (A) (A) (A) (A)
                 (A) (A) (A) (A) (A) (A) (A) (A) (A) (A) (A) (A)
                 (A) (A) (A) (A) (A) (A) (A) (A) (A) (A) (A) (A)
                 (A) (A) (A) (A) (A) (A) (A) (A) (A) (A) (A) (A)
                 (A) (A) (A) (A) (A) (A) (A) (A) (A) (A) (A) (A)
                 (A) (A) (A) (A) (A) (A) (A) (A) (A) (A) (A) (A)
                 (A) (A) (A) (A) (A) (A) (A) (A) (A) (A) (A) (A)
                 (A) (A) (A) (A) (A) (A) (A) (A) (A) (A) (A) (A)
                 (A) (A) (A) (A) (A) (A) (A) (A) (A) (A) (A) (A)
                 (A) (A) (A) (A) (A) (A) (A) (A) (A) (A) (A) (A)
                 (A) (A) (A) (A) (A) (A) (A) (A) (A) (A) (A) (A)
                 (A) (A) (A) (A) (A) (A) (A) (A) (A) (A) (A) (A)
                 (A) (A) (A) (A) (A) (A) (A) (A) (A) (A) (A) (A)
                 (A) (A) (A) (A) (A) (A) (A) (A) (A) (A) (A) (A)
                 (A) (A) (A) (A) (A) (A) (A) (A) (A) (A) (A) (A)
                 (A) (A) (A) (A) (A) (A) (A) (A) (A) (A) (A) (A)
                 (A) (A) (A) (A) (A) (A) (A) (A) (A) (A) (A) (A)
                 (A) (A) (A) (A) (A) (A) (A) (A) (A) (A) (A) (A)
                 (A) (A) (A) (A) (A) (A) (A) (A) (A) (A) (A) (A)
                 (A) (A) (A) (A) (A) (A) (A) (A) (A) (A) (A) (A)
                 (A) (A) (A) (A) (A) (A) (A) (A) (A) (A) (A) (A)
                 (A) (A) (A) (A) (A) (A) (A) (A) (A) (A) (A) (A)
                 (A) (A) (A) (A) (A) (A) (A) (A) (A) (A) (A) (A)
                 (A) (A) (A) (A) (A) (A) (A) (A) (A) (A) (A) (A)
                 (A) (A) (A) (A) (A) (A) (A) (A) (A) (A) (A) (A)
                 (A) (A) (A) (A) (A) (A) (A) (A) (A) (A) (A) (A)
                 (A) (A) (A) (A) (A) (A) (A) (A) (A) (A) (A) (A)
                 (A) (A) (A) (A) (A) (A) (A) (A) (A) (A) (A) (A)
                 (A) (A) (A) (A) (A) (A) (A) (A) (A) (A) (A) (A)
                 (A) (A) (A) (A) (A) (A) (A) (A) (A) (A) (A) (A)
                 (A) (A) (A) (A) (A) (A) (A) (A) (A) (A) (A) (A)
                 (A) (A) (A) (A) (A) (A) (A) (A) (A) (A) (A) (A)
                 (A) (A) (A) (A) (A) (A) (A) (A) (A) (A) (A) (A)
                 (A) (A) (A) (A) (A) (A) (A) (A) (A) (A) (A) (A)
                 (A) (A) (A) (A) (A) (A) (A) (A) (A) (A) (A) (A)
                 (A) (A) (A) (A) (A) (A) (A) (A) (A) (A) (A) (A)
                 (A) (A) (A) (A) (A) (A) (A) (A) (A) (A) (A) (A)
                 (A) (A) (A) (A) (A) (A) (A) (A) (A) (A) (A) (A)
                 (A) (A) (A) (A) (A) (A) (A) (A) (A) (A) (A) (A)
                 (A) (A) (A) (A) (A) (A) (A) (A) (A) (A) (A) (A)
                 (A) (A) (A) (A) (A) (A) (A) (A) (A) (A) (A) (A)
                 (A) (A) (A) (A) (A) (A) (A) (A) (A) (A) (A) (A)
                 (A) (A) (A) (A) (A) (A) (A) (A) (A) (A) (A) (A)
                 (A) (A) (A) (A) (A) (A) (A) (A) (A) (A) (A) (A)
                 (A) (A) (A) (A) (A) (A) (A) (A) (A) (A) (A) (A)
                 (A) (A) (A) (A) (A) (A) (A) (A) (A) (A) (A) (A)
                 (A) (A) (A) (A) (A) (A) (A) (A) (A) (A) (A) (A)
                 (A) (A) (A) (A) (A) (A) (A) (A) (A) (A) (A) (A)
                 (A) (A) (A) (A) (A) (A) (A) (A) (A) (A) (A) (A)
                 (A) (A) (A) (A) (A) (A) (A) (A) (A) (A) (A) (A)
                 (A) (A) (A) (A) (A) (A) (A) (A) (A) (A) (A) (A)
                 (A) (A) (A) (A) (A) (A) (A) (A) (A) (A)
 The electronic state is 1-A.
 Alpha  occ. eigenvalues -- -101.70240 -19.29786 -19.24390 -19.24093 -10.36983
 Alpha  occ. eigenvalues --  -10.36675 -10.35509 -10.32260 -10.31807 -10.31067
 Alpha  occ. eigenvalues --  -10.30279 -10.30228 -10.30166 -10.30126 -10.30014
 Alpha  occ. eigenvalues --  -10.29198 -10.27970 -10.27786 -10.27734  -9.58790
 Alpha  occ. eigenvalues --   -7.33432  -7.32571  -7.32550  -1.18928  -1.10600
 Alpha  occ. eigenvalues --   -1.10387  -1.00879  -0.96569  -0.93938  -0.91781
 Alpha  occ. eigenvalues --   -0.86916  -0.85929  -0.84956  -0.82046  -0.79182
 Alpha  occ. eigenvalues --   -0.74337  -0.73265  -0.71623  -0.69548  -0.65682
 Alpha  occ. eigenvalues --   -0.62837  -0.61505  -0.61052  -0.60843  -0.59188
 Alpha  occ. eigenvalues --   -0.57815  -0.56879  -0.56126  -0.53616  -0.53081
 Alpha  occ. eigenvalues --   -0.52784  -0.52282  -0.51424  -0.50856  -0.49352
 Alpha  occ. eigenvalues --   -0.48782  -0.48003  -0.47597  -0.47196  -0.46947
 Alpha  occ. eigenvalues --   -0.46163  -0.45527  -0.45048  -0.43878  -0.43539
 Alpha  occ. eigenvalues --   -0.43046  -0.41136  -0.40115  -0.39524  -0.39468
 Alpha  occ. eigenvalues --   -0.38982  -0.35637  -0.34780  -0.33703  -0.28863
 Alpha virt. eigenvalues --    0.00433   0.02829   0.06950   0.08220   0.09943
 Alpha virt. eigenvalues --    0.10271   0.11845   0.13093   0.13453   0.13871
 Alpha virt. eigenvalues --    0.14809   0.15277   0.16317   0.16978   0.17375
 Alpha virt. eigenvalues --    0.17866   0.18950   0.19201   0.19930   0.20391
 Alpha virt. eigenvalues --    0.20749   0.21179   0.22181   0.22336   0.22728
 Alpha virt. eigenvalues --    0.23359   0.24132   0.24812   0.25089   0.25535
 Alpha virt. eigenvalues --    0.25769   0.26457   0.27479   0.27982   0.28454
 Alpha virt. eigenvalues --    0.28788   0.29216   0.29834   0.30560   0.30948
 Alpha virt. eigenvalues --    0.31614   0.32204   0.32952   0.33210   0.33444
 Alpha virt. eigenvalues --    0.34019   0.34688   0.35376   0.35581   0.36421
 Alpha virt. eigenvalues --    0.36637   0.37386   0.37538   0.38547   0.39202
 Alpha virt. eigenvalues --    0.39609   0.39821   0.40597   0.40691   0.41915
 Alpha virt. eigenvalues --    0.42188   0.43018   0.43364   0.43539   0.43939
 Alpha virt. eigenvalues --    0.44467   0.44752   0.45351   0.45524   0.45711
 Alpha virt. eigenvalues --    0.46575   0.47456   0.47600   0.47962   0.48599
 Alpha virt. eigenvalues --    0.49189   0.49383   0.49988   0.50482   0.50733
 Alpha virt. eigenvalues --    0.50864   0.51581   0.52009   0.52406   0.52834
 Alpha virt. eigenvalues --    0.53146   0.54031   0.54422   0.54811   0.55189
 Alpha virt. eigenvalues --    0.55354   0.56211   0.56945   0.57507   0.57772
 Alpha virt. eigenvalues --    0.58097   0.58701   0.58935   0.59871   0.60985
 Alpha virt. eigenvalues --    0.61311   0.62146   0.63393   0.64114   0.64516
 Alpha virt. eigenvalues --    0.64907   0.65305   0.65789   0.67177   0.67565
 Alpha virt. eigenvalues --    0.68086   0.68485   0.69067   0.69514   0.70608
 Alpha virt. eigenvalues --    0.70710   0.70967   0.72257   0.72997   0.74427
 Alpha virt. eigenvalues --    0.74657   0.75297   0.76520   0.77132   0.77840
 Alpha virt. eigenvalues --    0.78152   0.78686   0.79473   0.80400   0.80769
 Alpha virt. eigenvalues --    0.80999   0.81516   0.82068   0.82773   0.83960
 Alpha virt. eigenvalues --    0.84302   0.85292   0.86041   0.86810   0.86998
 Alpha virt. eigenvalues --    0.89296   0.89645   0.90107   0.91237   0.91802
 Alpha virt. eigenvalues --    0.92871   0.93061   0.94645   0.94996   0.95425
 Alpha virt. eigenvalues --    0.96254   0.96607   0.97226   0.98105   0.99156
 Alpha virt. eigenvalues --    1.00748   1.00985   1.01607   1.03726   1.04124
 Alpha virt. eigenvalues --    1.04599   1.04810   1.06919   1.08181   1.08537
 Alpha virt. eigenvalues --    1.10057   1.11088   1.11943   1.12663   1.14183
 Alpha virt. eigenvalues --    1.14628   1.15966   1.16363   1.17983   1.19437
 Alpha virt. eigenvalues --    1.19812   1.20072   1.21249   1.22084   1.22516
 Alpha virt. eigenvalues --    1.23213   1.24077   1.25633   1.26197   1.27441
 Alpha virt. eigenvalues --    1.28326   1.28495   1.29056   1.29730   1.30615
 Alpha virt. eigenvalues --    1.31395   1.32600   1.33351   1.34017   1.35198
 Alpha virt. eigenvalues --    1.35792   1.36433   1.37219   1.37939   1.39522
 Alpha virt. eigenvalues --    1.40105   1.41834   1.42612   1.43907   1.44334
 Alpha virt. eigenvalues --    1.45227   1.45826   1.46225   1.47705   1.49138
 Alpha virt. eigenvalues --    1.50883   1.51875   1.53224   1.54074   1.55586
 Alpha virt. eigenvalues --    1.56453   1.57270   1.58207   1.58557   1.59384
 Alpha virt. eigenvalues --    1.60167   1.61382   1.61556   1.62111   1.63508
 Alpha virt. eigenvalues --    1.63932   1.65093   1.66169   1.66509   1.67377
 Alpha virt. eigenvalues --    1.68378   1.68693   1.69692   1.70291   1.70563
 Alpha virt. eigenvalues --    1.71635   1.71769   1.72750   1.73498   1.74893
 Alpha virt. eigenvalues --    1.74919   1.75347   1.76875   1.77509   1.77959
 Alpha virt. eigenvalues --    1.78678   1.78961   1.80221   1.80446   1.80966
 Alpha virt. eigenvalues --    1.81705   1.82488   1.83467   1.83787   1.85345
 Alpha virt. eigenvalues --    1.86228   1.87573   1.88889   1.90006   1.90894
 Alpha virt. eigenvalues --    1.91786   1.92186   1.93616   1.94030   1.95060
 Alpha virt. eigenvalues --    1.95266   1.95731   1.96100   1.96382   1.98173
 Alpha virt. eigenvalues --    1.98214   1.99746   2.00934   2.02618   2.03582
 Alpha virt. eigenvalues --    2.04404   2.05032   2.05918   2.07387   2.07823
 Alpha virt. eigenvalues --    2.08616   2.10635   2.11529   2.11723   2.12507
 Alpha virt. eigenvalues --    2.14325   2.15996   2.16845   2.17296   2.17634
 Alpha virt. eigenvalues --    2.18406   2.19434   2.20032   2.20817   2.21098
 Alpha virt. eigenvalues --    2.22574   2.23023   2.24567   2.25225   2.25328
 Alpha virt. eigenvalues --    2.26001   2.26564   2.27471   2.28629   2.29282
 Alpha virt. eigenvalues --    2.30459   2.30627   2.31027   2.32244   2.32645
 Alpha virt. eigenvalues --    2.32939   2.34263   2.35463   2.36613   2.37634
 Alpha virt. eigenvalues --    2.38270   2.39285   2.39889   2.40948   2.41750
 Alpha virt. eigenvalues --    2.42394   2.42794   2.44141   2.45103   2.45634
 Alpha virt. eigenvalues --    2.46312   2.47146   2.47910   2.48874   2.49767
 Alpha virt. eigenvalues --    2.50349   2.51062   2.52236   2.53455   2.55207
 Alpha virt. eigenvalues --    2.56328   2.57226   2.58379   2.59100   2.59632
 Alpha virt. eigenvalues --    2.60436   2.61378   2.62891   2.63582   2.64859
 Alpha virt. eigenvalues --    2.65843   2.66474   2.66931   2.67672   2.68294
 Alpha virt. eigenvalues --    2.68546   2.69699   2.70051   2.70643   2.72487
 Alpha virt. eigenvalues --    2.72628   2.73209   2.74972   2.75162   2.76005
 Alpha virt. eigenvalues --    2.77387   2.77773   2.78478   2.79472   2.79639
 Alpha virt. eigenvalues --    2.80593   2.81196   2.81984   2.82697   2.83318
 Alpha virt. eigenvalues --    2.83554   2.85481   2.85986   2.86940   2.87202
 Alpha virt. eigenvalues --    2.87491   2.88523   2.89123   2.89936   2.90554
 Alpha virt. eigenvalues --    2.90803   2.92050   2.92092   2.92298   2.93717
 Alpha virt. eigenvalues --    2.95887   2.96251   2.97181   2.98060   2.99376
 Alpha virt. eigenvalues --    3.00718   3.01051   3.01941   3.02817   3.03016
 Alpha virt. eigenvalues --    3.03640   3.04208   3.05019   3.06082   3.07770
 Alpha virt. eigenvalues --    3.08389   3.09215   3.09940   3.11101   3.11482
 Alpha virt. eigenvalues --    3.12132   3.13260   3.14077   3.14482   3.15100
 Alpha virt. eigenvalues --    3.15857   3.18139   3.18520   3.20132   3.21341
 Alpha virt. eigenvalues --    3.22382   3.22721   3.23367   3.24661   3.24959
 Alpha virt. eigenvalues --    3.25733   3.26737   3.27469   3.28333   3.28738
 Alpha virt. eigenvalues --    3.29750   3.30991   3.31849   3.32178   3.32838
 Alpha virt. eigenvalues --    3.33872   3.34378   3.34923   3.35651   3.36204
 Alpha virt. eigenvalues --    3.37094   3.37713   3.38457   3.39181   3.39595
 Alpha virt. eigenvalues --    3.40241   3.41262   3.42004   3.42841   3.44482
 Alpha virt. eigenvalues --    3.44765   3.45351   3.45756   3.46559   3.47235
 Alpha virt. eigenvalues --    3.47859   3.48983   3.49163   3.50021   3.51259
 Alpha virt. eigenvalues --    3.52608   3.54261   3.54933   3.55235   3.55752
 Alpha virt. eigenvalues --    3.57245   3.57813   3.57926   3.58970   3.59320
 Alpha virt. eigenvalues --    3.59855   3.61264   3.62419   3.63113   3.63735
 Alpha virt. eigenvalues --    3.64705   3.64941   3.67621   3.68667   3.68868
 Alpha virt. eigenvalues --    3.71177   3.72051   3.72477   3.73492   3.74368
 Alpha virt. eigenvalues --    3.75384   3.77828   3.79659   3.80124   3.82026
 Alpha virt. eigenvalues --    3.82854   3.85760   3.87494   3.88893   3.90539
 Alpha virt. eigenvalues --    3.91402   3.92472   3.93440   3.95305   3.98385
 Alpha virt. eigenvalues --    3.99012   4.00651   4.01093   4.03272   4.04172
 Alpha virt. eigenvalues --    4.04803   4.05316   4.08322   4.09403   4.10158
 Alpha virt. eigenvalues --    4.10968   4.11841   4.13532   4.16039   4.16923
 Alpha virt. eigenvalues --    4.17652   4.18687   4.20205   4.21140   4.22549
 Alpha virt. eigenvalues --    4.24231   4.24427   4.25118   4.26110   4.26856
 Alpha virt. eigenvalues --    4.28576   4.30130   4.32254   4.32776   4.33922
 Alpha virt. eigenvalues --    4.34777   4.36897   4.39277   4.40308   4.42676
 Alpha virt. eigenvalues --    4.43661   4.44152   4.45749   4.48241   4.50792
 Alpha virt. eigenvalues --    4.52163   4.53483   4.54220   4.56672   4.57743
 Alpha virt. eigenvalues --    4.58861   4.60841   4.64016   4.65728   4.70391
 Alpha virt. eigenvalues --    4.74397   4.76798   4.77905   4.79654   4.80692
 Alpha virt. eigenvalues --    4.83938   4.84664   4.87323   4.87553   4.89858
 Alpha virt. eigenvalues --    4.91279   4.92454   5.00128   5.02227   5.04765
 Alpha virt. eigenvalues --    5.05593   5.10056   5.14382   5.17546   5.19360
 Alpha virt. eigenvalues --    5.20519   5.20623   5.22557   5.26890   5.30119
 Alpha virt. eigenvalues --    5.31469   5.32876   5.33638   5.36956   5.41220
 Alpha virt. eigenvalues --    5.43142   5.45102   5.48576   5.49750   5.53026
 Alpha virt. eigenvalues --    5.53905   5.55100   5.55753   5.57701   5.69526
 Alpha virt. eigenvalues --    5.72150   5.80499   5.86128   5.94862   6.11648
 Alpha virt. eigenvalues --    6.15895   6.17564   6.18475   6.34638   6.36573
 Alpha virt. eigenvalues --    6.45033   6.47730   6.48740   6.50477   6.56245
 Alpha virt. eigenvalues --    6.57682   6.58764   6.73648   6.79900   6.99699
 Alpha virt. eigenvalues --    7.00764   7.04409   7.10715   7.18913   7.19668
 Alpha virt. eigenvalues --    7.49645   7.70515  10.83788  10.94887  11.48336
 Alpha virt. eigenvalues --   22.19913  22.35294  22.50185  22.53125  22.66693
 Alpha virt. eigenvalues --   22.73509  22.77160  22.83177  22.86456  22.89231
 Alpha virt. eigenvalues --   22.93465  23.03807  23.07105  23.26906  23.76078
 Alpha virt. eigenvalues --   26.09362  43.70401  43.82368  44.78036
          Condensed to atoms (all electrons):
               1          2          3          4          5          6
     1  C    5.078793   0.315463   0.108605  -0.187451   0.177853   0.266685
     2  C    0.315463   5.442417   0.239990   0.041883  -0.280843   0.140085
     3  C    0.108605   0.239990   5.987965  -0.295025   0.037722  -0.113004
     4  C   -0.187451   0.041883  -0.295025   6.744251   0.105939   0.093045
     5  C    0.177853  -0.280843   0.037722   0.105939   5.770270   0.278262
     6  C    0.266685   0.140085  -0.113004   0.093045   0.278262   5.052224
     7  H    0.458856  -0.062803   0.015363  -0.004627   0.016202  -0.065464
     8  H   -0.043968   0.454015  -0.070530   0.023246  -0.006047   0.011062
     9  H    0.011653  -0.006086   0.019254  -0.061083   0.451727  -0.029897
    10  H   -0.064721   0.014318  -0.003001   0.016884  -0.065257   0.459979
    11  C   -0.029481   0.095699  -0.039961  -0.153201  -0.353236   0.033586
    12  C    0.036109  -0.237984   0.161282   0.041476   0.082646  -0.022711
    13  C    0.003476  -0.025371  -0.272113   0.149188   0.055574  -0.005811
    14  H    0.000006   0.000041  -0.002455   0.005232   0.000029  -0.000020
    15  C   -0.002442   0.043674   0.217292  -0.243951  -0.023082   0.003290
    16  H    0.000004   0.000131   0.023070  -0.006638   0.000000   0.000008
    17  O   -0.000033  -0.000050   0.011848  -0.106334   0.022754   0.003474
    18  Cl  -0.001027   0.019510  -0.137613   0.021182  -0.000961   0.000666
    19  C   -0.000183   0.000346   0.001159  -0.024485  -0.011864   0.000598
    20  C   -0.000041   0.000103   0.001061   0.003647  -0.004169   0.000129
    21  H    0.000000   0.000000   0.000021   0.000036  -0.000037   0.000000
    22  C    0.000061  -0.000137  -0.000953   0.000903   0.004817  -0.000261
    23  H    0.000000   0.000001  -0.000005  -0.000146  -0.000074   0.000001
    24  H   -0.000003   0.000012   0.000697  -0.001922  -0.000372   0.000011
    25  H   -0.000026   0.000054   0.000220  -0.001479  -0.001853   0.000109
    26  C    0.000016  -0.000024   0.000377   0.004566   0.001148  -0.000120
    27  H   -0.000001   0.000002  -0.000051  -0.000749   0.000222   0.000024
    28  H    0.000000   0.000000  -0.000009  -0.000100   0.000073   0.000001
    29  H   -0.000002   0.000000   0.000040   0.000368  -0.000455   0.000022
    30  C    0.000017  -0.000055   0.001781   0.005582   0.000644  -0.000014
    31  H    0.000000  -0.000001  -0.000020   0.000159   0.000026   0.000000
    32  H    0.000016  -0.000011  -0.000628  -0.007127   0.000991  -0.000053
    33  O   -0.000366   0.000168  -0.005337   0.001299   0.002944   0.000645
    34  H   -0.000020  -0.000596   0.014290   0.005555  -0.001275   0.000293
    35  H   -0.000491  -0.000334   0.000233   0.022853  -0.001346   0.002201
    36  O    0.000892  -0.000360   0.000330  -0.011639   0.014935  -0.004474
    37  H   -0.000077   0.000121  -0.000109   0.000683   0.001263  -0.000179
    38  H   -0.000045  -0.000084  -0.000101   0.001712   0.008611   0.000371
               7          8          9         10         11         12
     1  C    0.458856  -0.043968   0.011653  -0.064721  -0.029481   0.036109
     2  C   -0.062803   0.454015  -0.006086   0.014318   0.095699  -0.237984
     3  C    0.015363  -0.070530   0.019254  -0.003001  -0.039961   0.161282
     4  C   -0.004627   0.023246  -0.061083   0.016884  -0.153201   0.041476
     5  C    0.016202  -0.006047   0.451727  -0.065257  -0.353236   0.082646
     6  C   -0.065464   0.011062  -0.029897   0.459979   0.033586  -0.022711
     7  H    0.508830  -0.006410  -0.000019  -0.006918  -0.000040   0.000009
     8  H   -0.006410   0.500896  -0.000020  -0.000068   0.001872  -0.028670
     9  H   -0.000019  -0.000020   0.465600  -0.006184  -0.040902   0.001396
    10  H   -0.006918  -0.000068  -0.006184   0.506449  -0.000362  -0.000016
    11  C   -0.000040   0.001872  -0.040902  -0.000362   5.931256  -0.238732
    12  C    0.000009  -0.028670   0.001396  -0.000016  -0.238732   5.459175
    13  C    0.000036  -0.000586  -0.001681  -0.000041   0.163329   0.165691
    14  H    0.000000   0.000001  -0.000025   0.000000  -0.087136   0.010617
    15  C   -0.000037   0.001205  -0.000183   0.000012   0.128002   0.236300
    16  H    0.000000   0.000013   0.000001   0.000000   0.017231  -0.086181
    17  O   -0.000001   0.000004   0.014327  -0.000022   0.257104  -0.000271
    18  Cl  -0.000118   0.019717   0.000000   0.000001  -0.004570   0.329037
    19  C    0.000000   0.000001  -0.000600   0.000014  -0.069922  -0.000789
    20  C    0.000000   0.000000  -0.000552   0.000002   0.047551  -0.000785
    21  H    0.000000   0.000000  -0.000006   0.000000   0.001530  -0.000004
    22  C    0.000000   0.000000   0.000351  -0.000003  -0.014191  -0.000029
    23  H    0.000000   0.000000  -0.000022   0.000000   0.002176   0.000002
    24  H    0.000000   0.000000  -0.000026   0.000000  -0.003225  -0.000730
    25  H    0.000000   0.000000   0.000028   0.000001   0.004150  -0.000179
    26  C    0.000000   0.000000  -0.000201   0.000001  -0.000674  -0.000022
    27  H    0.000000   0.000000   0.000119  -0.000001   0.001610   0.000004
    28  H    0.000000   0.000000   0.000095   0.000000   0.000258   0.000002
    29  H    0.000000   0.000000   0.000288   0.000000  -0.003787   0.000001
    30  C    0.000000  -0.000001   0.000300   0.000000  -0.006845   0.000139
    31  H    0.000000   0.000000   0.000004   0.000000  -0.000897   0.000015
    32  H    0.000000   0.000001   0.000073  -0.000003   0.003236   0.000621
    33  O   -0.000007  -0.000097  -0.000575   0.000014   0.008646  -0.002540
    34  H   -0.000003  -0.000057   0.000053   0.000005  -0.007455  -0.004018
    35  H   -0.000009  -0.000024   0.000109   0.000055  -0.019520   0.000013
    36  O    0.000004   0.000000   0.004143  -0.000228   0.003337  -0.000124
    37  H   -0.000001   0.000001  -0.001256   0.000013   0.002865  -0.000103
    38  H    0.000000   0.000000  -0.005459   0.000050  -0.007091  -0.000042
              13         14         15         16         17         18
     1  C    0.003476   0.000006  -0.002442   0.000004  -0.000033  -0.001027
     2  C   -0.025371   0.000041   0.043674   0.000131  -0.000050   0.019510
     3  C   -0.272113  -0.002455   0.217292   0.023070   0.011848  -0.137613
     4  C    0.149188   0.005232  -0.243951  -0.006638  -0.106334   0.021182
     5  C    0.055574   0.000029  -0.023082   0.000000   0.022754  -0.000961
     6  C   -0.005811  -0.000020   0.003290   0.000008   0.003474   0.000666
     7  H    0.000036   0.000000  -0.000037   0.000000  -0.000001  -0.000118
     8  H   -0.000586   0.000001   0.001205   0.000013   0.000004   0.019717
     9  H   -0.001681  -0.000025  -0.000183   0.000001   0.014327   0.000000
    10  H   -0.000041   0.000000   0.000012   0.000000  -0.000022   0.000001
    11  C    0.163329  -0.087136   0.128002   0.017231   0.257104  -0.004570
    12  C    0.165691   0.010617   0.236300  -0.086181  -0.000271   0.329037
    13  C    5.476541   0.459454   0.212641  -0.049741  -0.082156   0.018186
    14  H    0.459454   0.470117  -0.020941  -0.006124  -0.001986  -0.000226
    15  C    0.212641  -0.020941   5.296940   0.456369   0.004118  -0.042625
    16  H   -0.049741  -0.006124   0.456369   0.498701  -0.000132   0.002112
    17  O   -0.082156  -0.001986   0.004118  -0.000132   8.139679   0.000003
    18  Cl   0.018186  -0.000226  -0.042625   0.002112   0.000003  16.871851
    19  C    0.043045   0.012512  -0.000159   0.000098   0.192824  -0.000010
    20  C   -0.043572  -0.011490  -0.001126   0.000032  -0.070728   0.000004
    21  H   -0.001487   0.000098  -0.000109  -0.000001   0.003123   0.000000
    22  C    0.004596  -0.005219   0.004634   0.000005  -0.029795   0.000003
    23  H   -0.000350   0.000269  -0.000107  -0.000001   0.003924   0.000000
    24  H   -0.006741  -0.002798   0.005044   0.000066  -0.000575   0.000001
    25  H   -0.001666  -0.000197   0.000119   0.000004  -0.006953   0.000000
    26  C   -0.002932   0.000153   0.000210   0.000003  -0.043732   0.000000
    27  H    0.000132   0.000006  -0.000025   0.000000   0.000522   0.000000
    28  H    0.000223   0.000077  -0.000012   0.000000   0.004634   0.000000
    29  H   -0.000323  -0.000073   0.000010   0.000000  -0.005458   0.000000
    30  C   -0.021900   0.001073   0.000672   0.000013   0.018340   0.000000
    31  H    0.000253   0.000160  -0.000016   0.000000   0.000402   0.000000
    32  H   -0.004159  -0.000643  -0.000290  -0.000014   0.004093  -0.000003
    33  O    0.009650  -0.000076  -0.001176  -0.000027  -0.002996   0.000032
    34  H   -0.003860   0.000002   0.004127  -0.000029   0.000269   0.000232
    35  H    0.000234   0.000036   0.000757   0.000007   0.000267  -0.000022
    36  O    0.001342  -0.000002   0.000094   0.000001  -0.022478   0.000000
    37  H    0.000104   0.000005   0.000030   0.000001   0.000101   0.000000
    38  H    0.000010   0.000086  -0.000080  -0.000001   0.037992   0.000000
              19         20         21         22         23         24
     1  C   -0.000183  -0.000041   0.000000   0.000061   0.000000  -0.000003
     2  C    0.000346   0.000103   0.000000  -0.000137   0.000001   0.000012
     3  C    0.001159   0.001061   0.000021  -0.000953  -0.000005   0.000697
     4  C   -0.024485   0.003647   0.000036   0.000903  -0.000146  -0.001922
     5  C   -0.011864  -0.004169  -0.000037   0.004817  -0.000074  -0.000372
     6  C    0.000598   0.000129   0.000000  -0.000261   0.000001   0.000011
     7  H    0.000000   0.000000   0.000000   0.000000   0.000000   0.000000
     8  H    0.000001   0.000000   0.000000   0.000000   0.000000   0.000000
     9  H   -0.000600  -0.000552  -0.000006   0.000351  -0.000022  -0.000026
    10  H    0.000014   0.000002   0.000000  -0.000003   0.000000   0.000000
    11  C   -0.069922   0.047551   0.001530  -0.014191   0.002176  -0.003225
    12  C   -0.000789  -0.000785  -0.000004  -0.000029   0.000002  -0.000730
    13  C    0.043045  -0.043572  -0.001487   0.004596  -0.000350  -0.006741
    14  H    0.012512  -0.011490   0.000098  -0.005219   0.000269  -0.002798
    15  C   -0.000159  -0.001126  -0.000109   0.004634  -0.000107   0.005044
    16  H    0.000098   0.000032  -0.000001   0.000005  -0.000001   0.000066
    17  O    0.192824  -0.070728   0.003123  -0.029795   0.003924  -0.000575
    18  Cl  -0.000010   0.000004   0.000000   0.000003   0.000000   0.000001
    19  C    5.067699   0.192748  -0.038186   0.293905  -0.018805  -0.026262
    20  C    0.192748   5.507090   0.413597  -0.087332  -0.005149  -0.010713
    21  H   -0.038186   0.413597   0.499883  -0.003518   0.002773  -0.000384
    22  C    0.293905  -0.087332  -0.003518   5.113292   0.395919   0.410412
    23  H   -0.018805  -0.005149   0.002773   0.395919   0.518466  -0.020305
    24  H   -0.026262  -0.010713  -0.000384   0.410412  -0.020305   0.522312
    25  H   -0.017068   0.014934   0.000060   0.387560  -0.011971  -0.017288
    26  C    0.279790  -0.078594  -0.002831  -0.057960  -0.009732   0.010073
    27  H   -0.038394  -0.008372   0.000574   0.009877   0.000112  -0.000301
    28  H   -0.016718  -0.016317  -0.000196  -0.005826   0.001213  -0.000110
    29  H   -0.022911   0.015259  -0.000111  -0.013525  -0.000213   0.000006
    30  C   -0.024272   0.473403  -0.021164   0.007437  -0.001260   0.001267
    31  H    0.006064  -0.052312  -0.006492  -0.000211  -0.000027  -0.000006
    32  H   -0.000903  -0.047057   0.002772   0.000155  -0.000010  -0.000076
    33  O    0.000635  -0.000811  -0.000029   0.000128   0.000000  -0.000002
    34  H    0.000186  -0.000607  -0.000001  -0.000006   0.000000   0.000008
    35  H   -0.000175  -0.000125   0.000004  -0.000008   0.000000   0.000000
    36  O    0.022380  -0.000046   0.000004  -0.026004   0.000696   0.000189
    37  H   -0.003032  -0.000021   0.000000   0.001784  -0.000003  -0.000035
    38  H   -0.016293   0.001868  -0.000018   0.003198   0.000157   0.000140
              25         26         27         28         29         30
     1  C   -0.000026   0.000016  -0.000001   0.000000  -0.000002   0.000017
     2  C    0.000054  -0.000024   0.000002   0.000000   0.000000  -0.000055
     3  C    0.000220   0.000377  -0.000051  -0.000009   0.000040   0.001781
     4  C   -0.001479   0.004566  -0.000749  -0.000100   0.000368   0.005582
     5  C   -0.001853   0.001148   0.000222   0.000073  -0.000455   0.000644
     6  C    0.000109  -0.000120   0.000024   0.000001   0.000022  -0.000014
     7  H    0.000000   0.000000   0.000000   0.000000   0.000000   0.000000
     8  H    0.000000   0.000000   0.000000   0.000000   0.000000  -0.000001
     9  H    0.000028  -0.000201   0.000119   0.000095   0.000288   0.000300
    10  H    0.000001   0.000001  -0.000001   0.000000   0.000000   0.000000
    11  C    0.004150  -0.000674   0.001610   0.000258  -0.003787  -0.006845
    12  C   -0.000179  -0.000022   0.000004   0.000002   0.000001   0.000139
    13  C   -0.001666  -0.002932   0.000132   0.000223  -0.000323  -0.021900
    14  H   -0.000197   0.000153   0.000006   0.000077  -0.000073   0.001073
    15  C    0.000119   0.000210  -0.000025  -0.000012   0.000010   0.000672
    16  H    0.000004   0.000003   0.000000   0.000000   0.000000   0.000013
    17  O   -0.006953  -0.043732   0.000522   0.004634  -0.005458   0.018340
    18  Cl   0.000000   0.000000   0.000000   0.000000   0.000000   0.000000
    19  C   -0.017068   0.279790  -0.038394  -0.016718  -0.022911  -0.024272
    20  C    0.014934  -0.078594  -0.008372  -0.016317   0.015259   0.473403
    21  H    0.000060  -0.002831   0.000574  -0.000196  -0.000111  -0.021164
    22  C    0.387560  -0.057960   0.009877  -0.005826  -0.013525   0.007437
    23  H   -0.011971  -0.009732   0.000112   0.001213  -0.000213  -0.001260
    24  H   -0.017288   0.010073  -0.000301  -0.000110   0.000006   0.001267
    25  H    0.503097  -0.015526   0.000168  -0.000001   0.003102  -0.000262
    26  C   -0.015526   5.089733   0.409350   0.407086   0.405309  -0.006864
    27  H    0.000168   0.409350   0.514043  -0.017028  -0.018093   0.002729
    28  H   -0.000001   0.407086  -0.017028   0.523725  -0.018464   0.001438
    29  H    0.003102   0.405309  -0.018093  -0.018464   0.499211   0.000155
    30  C   -0.000262  -0.006864   0.002729   0.001438   0.000155   5.048958
    31  H    0.000003  -0.000129  -0.000065   0.000000   0.000014   0.427293
    32  H    0.000014  -0.001192   0.000226  -0.000053   0.000088   0.417685
    33  O   -0.000002   0.000063   0.000018  -0.000001   0.000001  -0.012973
    34  H    0.000000  -0.000009  -0.000001   0.000000   0.000000   0.002381
    35  H    0.000000   0.000004   0.000000   0.000000   0.000000   0.000911
    36  O    0.024580  -0.016129   0.000114   0.000103   0.009420   0.000002
    37  H   -0.000400   0.001263   0.000002  -0.000022  -0.000279  -0.000003
    38  H   -0.007448   0.001711  -0.000434   0.000124  -0.007888  -0.000305
              31         32         33         34         35         36
     1  C    0.000000   0.000016  -0.000366  -0.000020  -0.000491   0.000892
     2  C   -0.000001  -0.000011   0.000168  -0.000596  -0.000334  -0.000360
     3  C   -0.000020  -0.000628  -0.005337   0.014290   0.000233   0.000330
     4  C    0.000159  -0.007127   0.001299   0.005555   0.022853  -0.011639
     5  C    0.000026   0.000991   0.002944  -0.001275  -0.001346   0.014935
     6  C    0.000000  -0.000053   0.000645   0.000293   0.002201  -0.004474
     7  H    0.000000   0.000000  -0.000007  -0.000003  -0.000009   0.000004
     8  H    0.000000   0.000001  -0.000097  -0.000057  -0.000024   0.000000
     9  H    0.000004   0.000073  -0.000575   0.000053   0.000109   0.004143
    10  H    0.000000  -0.000003   0.000014   0.000005   0.000055  -0.000228
    11  C   -0.000897   0.003236   0.008646  -0.007455  -0.019520   0.003337
    12  C    0.000015   0.000621  -0.002540  -0.004018   0.000013  -0.000124
    13  C    0.000253  -0.004159   0.009650  -0.003860   0.000234   0.001342
    14  H    0.000160  -0.000643  -0.000076   0.000002   0.000036  -0.000002
    15  C   -0.000016  -0.000290  -0.001176   0.004127   0.000757   0.000094
    16  H    0.000000  -0.000014  -0.000027  -0.000029   0.000007   0.000001
    17  O    0.000402   0.004093  -0.002996   0.000269   0.000267  -0.022478
    18  Cl   0.000000  -0.000003   0.000032   0.000232  -0.000022   0.000000
    19  C    0.006064  -0.000903   0.000635   0.000186  -0.000175   0.022380
    20  C   -0.052312  -0.047057  -0.000811  -0.000607  -0.000125  -0.000046
    21  H   -0.006492   0.002772  -0.000029  -0.000001   0.000004   0.000004
    22  C   -0.000211   0.000155   0.000128  -0.000006  -0.000008  -0.026004
    23  H   -0.000027  -0.000010   0.000000   0.000000   0.000000   0.000696
    24  H   -0.000006  -0.000076  -0.000002   0.000008   0.000000   0.000189
    25  H    0.000003   0.000014  -0.000002   0.000000   0.000000   0.024580
    26  C   -0.000129  -0.001192   0.000063  -0.000009   0.000004  -0.016129
    27  H   -0.000065   0.000226   0.000018  -0.000001   0.000000   0.000114
    28  H    0.000000  -0.000053  -0.000001   0.000000   0.000000   0.000103
    29  H    0.000014   0.000088   0.000001   0.000000   0.000000   0.009420
    30  C    0.427293   0.417685  -0.012973   0.002381   0.000911   0.000002
    31  H    0.495319  -0.016704  -0.000099   0.000023  -0.000005   0.000000
    32  H   -0.016704   0.451539   0.016649  -0.003614  -0.000163   0.000005
    33  O   -0.000099   0.016649   7.973973   0.317162   0.319462   0.000000
    34  H    0.000023  -0.003614   0.317162   0.367847  -0.029989   0.000000
    35  H   -0.000005  -0.000163   0.319462  -0.029989   0.355149   0.000003
    36  O    0.000000   0.000005   0.000000   0.000000   0.000003   8.024359
    37  H    0.000000  -0.000002   0.000000   0.000000  -0.000001   0.307403
    38  H   -0.000002  -0.000052  -0.000003   0.000007  -0.000010   0.300143
              37         38
     1  C   -0.000077  -0.000045
     2  C    0.000121  -0.000084
     3  C   -0.000109  -0.000101
     4  C    0.000683   0.001712
     5  C    0.001263   0.008611
     6  C   -0.000179   0.000371
     7  H   -0.000001   0.000000
     8  H    0.000001   0.000000
     9  H   -0.001256  -0.005459
    10  H    0.000013   0.000050
    11  C    0.002865  -0.007091
    12  C   -0.000103  -0.000042
    13  C    0.000104   0.000010
    14  H    0.000005   0.000086
    15  C    0.000030  -0.000080
    16  H    0.000001  -0.000001
    17  O    0.000101   0.037992
    18  Cl   0.000000   0.000000
    19  C   -0.003032  -0.016293
    20  C   -0.000021   0.001868
    21  H    0.000000  -0.000018
    22  C    0.001784   0.003198
    23  H   -0.000003   0.000157
    24  H   -0.000035   0.000140
    25  H   -0.000400  -0.007448
    26  C    0.001263   0.001711
    27  H    0.000002  -0.000434
    28  H   -0.000022   0.000124
    29  H   -0.000279  -0.007888
    30  C   -0.000003  -0.000305
    31  H    0.000000  -0.000002
    32  H   -0.000002  -0.000052
    33  O    0.000000  -0.000003
    34  H    0.000000   0.000007
    35  H   -0.000001  -0.000010
    36  O    0.307403   0.300143
    37  H    0.374065  -0.023795
    38  H   -0.023795   0.411404
 Mulliken charges:
               1
     1  C   -0.128126
     2  C   -0.193294
     3  C    0.098317
     4  C   -0.183731
     5  C   -0.283782
     6  C   -0.104762
     7  H    0.147155
     8  H    0.144446
     9  H    0.185250
    10  H    0.149023
    11  C    0.377788
    12  C    0.099393
    13  C   -0.239214
    14  H    0.179439
    15  C   -0.279178
    16  H    0.151021
    17  O   -0.346104
    18  Cl  -0.095362
    19  C    0.217030
    20  C   -0.231509
    21  H    0.150099
    22  C   -0.394059
    23  H    0.142469
    24  H    0.141637
[...]
    27  H    0.000000   0.000000   0.000258   0.000000   0.000934   0.000005
    28  H    0.000000   0.000000   0.000088   0.000000   0.000336   0.000003
    29  H    0.000000   0.000000  -0.000015   0.000001  -0.003730  -0.000001
    30  C    0.000000  -0.000002   0.000513  -0.000001   0.001020  -0.001129
    31  H    0.000000   0.000000   0.000009   0.000000  -0.000896   0.000007
    32  H    0.000000   0.000002  -0.000098  -0.000004   0.003651   0.000751
    33  O   -0.000001  -0.000205  -0.000383  -0.000002  -0.014809  -0.004601
    34  H   -0.000002  -0.000052   0.000019   0.000002   0.002683  -0.005763
    35  H   -0.000001  -0.000060   0.000027   0.000018  -0.008102  -0.000638
    36  O    0.000002   0.000000   0.001875  -0.000158   0.007592  -0.000344
    37  H   -0.000003   0.000001  -0.001000   0.000059   0.000803  -0.000178
    38  H    0.000001  -0.000002   0.001038  -0.000054  -0.019445   0.000506
              13         14         15         16         17         18
     1  C    0.001989  -0.000002  -0.000952   0.000002   0.000254  -0.001084
     2  C   -0.024904   0.000068   0.046274   0.000193  -0.000560   0.020889
     3  C   -0.352473  -0.004445   0.307641   0.025317   0.006225  -0.140745
     4  C    0.316764   0.006704  -0.345675  -0.007955  -0.118432   0.022266
     5  C    0.049357  -0.000062  -0.021518  -0.000048   0.031037  -0.001018
     6  C   -0.003540  -0.000011   0.002168   0.000011   0.002365   0.000696
     7  H    0.000035   0.000000  -0.000038   0.000000  -0.000001  -0.000128
     8  H   -0.000286   0.000003   0.000311   0.000008   0.000004   0.020335
     9  H   -0.001394  -0.000044   0.000174   0.000002   0.015700   0.000000
    10  H   -0.000028   0.000000   0.000012   0.000000  -0.000047   0.000001
    11  C    0.077215  -0.095272   0.162609   0.018812   0.254043  -0.004493
    12  C    0.201708   0.013033   0.191043  -0.090425   0.000473   0.326579
    13  C    5.529362   0.471521   0.131578  -0.054387  -0.069274   0.018979
    14  H    0.471521   0.483459  -0.026243  -0.006904  -0.002168  -0.000263
    15  C    0.131578  -0.026243   5.383682   0.463996   0.004499  -0.041717
    16  H   -0.054387  -0.006904   0.463996   0.501530  -0.000120   0.002167
    17  O   -0.069274  -0.002168   0.004499  -0.000120   8.125455   0.000002
    18  Cl   0.018979  -0.000263  -0.041717   0.002167   0.000002  16.874957
    19  C    0.042084   0.013421   0.000813   0.000106   0.211536  -0.000010
    20  C   -0.037235  -0.011035  -0.003465   0.000014  -0.071310   0.000005
    21  H   -0.000874   0.000207  -0.000106  -0.000002   0.003143   0.000000
    22  C   -0.002571  -0.005907   0.004546   0.000017  -0.033367   0.000002
    23  H   -0.000458   0.000386  -0.000134  -0.000001   0.004142   0.000000
    24  H   -0.003544  -0.001228   0.004349   0.000064  -0.000895   0.000001
    25  H   -0.002530  -0.000335   0.000093   0.000004  -0.005541   0.000000
    26  C   -0.002490   0.000248   0.000214   0.000002  -0.050740   0.000000
    27  H    0.000002  -0.000004  -0.000027   0.000000   0.000257   0.000000
    28  H    0.000244   0.000068  -0.000014   0.000000   0.004882   0.000000
    29  H   -0.000147  -0.000064   0.000023   0.000000  -0.004569   0.000000
    30  C   -0.027627  -0.001218   0.004275   0.000054   0.016139   0.000000
    31  H    0.000023   0.000055   0.000002   0.000000   0.000446   0.000000
    32  H   -0.002508  -0.000145  -0.000770  -0.000005   0.005059  -0.000002
    33  O    0.003599   0.000096   0.001655   0.000022  -0.000338   0.000016
    34  H   -0.003352  -0.000151   0.006539   0.000018  -0.000105   0.000191
    35  H    0.000806   0.000015   0.000347  -0.000003  -0.000040   0.000021
    36  O    0.001264   0.000026  -0.000019   0.000002  -0.017391   0.000000
    37  H   -0.000081   0.000001   0.000062   0.000001  -0.000029   0.000000
    38  H    0.000804   0.000084  -0.000492  -0.000004   0.033468  -0.000001
              19         20         21         22         23         24
     1  C   -0.000047  -0.000065   0.000000   0.000019   0.000000   0.000000
     2  C    0.000108   0.000164   0.000001  -0.000044   0.000001   0.000000
     3  C    0.001426  -0.000393   0.000002  -0.000325  -0.000002   0.000373
     4  C   -0.019488  -0.000217  -0.000234   0.001974  -0.000109  -0.001263
     5  C   -0.006412  -0.004313  -0.000028   0.001939  -0.000074  -0.000163
     6  C    0.000044   0.000203   0.000000  -0.000082   0.000001   0.000001
     7  H    0.000000   0.000000   0.000000   0.000000   0.000000   0.000000
     8  H    0.000001   0.000000   0.000000   0.000000   0.000000   0.000000
     9  H   -0.000278  -0.001004  -0.000010   0.000223  -0.000017  -0.000018
    10  H    0.000007   0.000003   0.000000  -0.000001   0.000000   0.000000
    11  C   -0.075184   0.062790   0.001047  -0.012779   0.002243  -0.005605
    12  C   -0.000364  -0.000686   0.000002  -0.000299   0.000003  -0.000488
    13  C    0.042084  -0.037235  -0.000874  -0.002571  -0.000458  -0.003544
    14  H    0.013421  -0.011035   0.000207  -0.005907   0.000386  -0.001228
    15  C    0.000813  -0.003465  -0.000106   0.004546  -0.000134   0.004349
    16  H    0.000106   0.000014  -0.000002   0.000017  -0.000001   0.000064
    17  O    0.211536  -0.071310   0.003143  -0.033367   0.004142  -0.000895
    18  Cl  -0.000010   0.000005   0.000000   0.000002   0.000000   0.000001
    19  C    5.012208   0.177260  -0.039699   0.338117  -0.021996  -0.025538
    20  C    0.177260   5.513239   0.415839  -0.082059  -0.004505  -0.012829
    21  H   -0.039699   0.415839   0.499796  -0.003342   0.002755  -0.000787
    22  C    0.338117  -0.082059  -0.003342   5.042398   0.402775   0.414151
    23  H   -0.021996  -0.004505   0.002755   0.402775   0.519740  -0.022519
    24  H   -0.025538  -0.012829  -0.000787   0.414151  -0.022519   0.521716
    25  H   -0.024510   0.014933   0.000047   0.401991  -0.014357  -0.016750
    26  C    0.294511  -0.080027  -0.001440  -0.069097  -0.011667   0.011036
    27  H   -0.035337  -0.008202   0.000505   0.009720   0.000179  -0.000303
    28  H   -0.019684  -0.014386  -0.000023  -0.006336   0.001617  -0.000175
    29  H   -0.026047   0.014125  -0.000175  -0.010329  -0.000295  -0.000011
    30  C   -0.002436   0.448223  -0.025576   0.008466  -0.001628   0.001400
    31  H    0.005348  -0.051218  -0.006639  -0.000229  -0.000034   0.000010
    32  H    0.001627  -0.052720   0.003245   0.000407  -0.000015  -0.000071
    33  O    0.000088   0.000069  -0.000008   0.000029   0.000000   0.000002
    34  H    0.000114  -0.000795  -0.000008  -0.000002   0.000000   0.000003
    35  H   -0.000056  -0.000051   0.000001  -0.000001   0.000000   0.000000
    36  O    0.003557  -0.000046   0.000004  -0.007015   0.000298  -0.000003
    37  H   -0.001052   0.000009   0.000000   0.000623  -0.000003  -0.000009
    38  H   -0.008694   0.001552  -0.000024   0.000579   0.000005   0.000185
              25         26         27         28         29         30
     1  C   -0.000010   0.000003  -0.000001   0.000000  -0.000001   0.000044
     2  C    0.000024  -0.000013   0.000002   0.000000  -0.000001  -0.000077
     3  C    0.000094   0.000168  -0.000046  -0.000008   0.000054   0.005008
     4  C   -0.001105   0.003643  -0.000328  -0.000119   0.000195  -0.004168
     5  C   -0.001079   0.000889   0.000021   0.000079  -0.000397   0.000625
     6  C    0.000051  -0.000057   0.000034   0.000001   0.000004  -0.000109
     7  H    0.000000   0.000000   0.000000   0.000000   0.000000   0.000000
     8  H    0.000000   0.000000   0.000000   0.000000   0.000000  -0.000002
     9  H   -0.000014  -0.000529   0.000258   0.000088  -0.000015   0.000513
    10  H    0.000000   0.000003   0.000000   0.000000   0.000001  -0.000001
    11  C    0.004432  -0.000308   0.000934   0.000336  -0.003730   0.001020
    12  C   -0.000125  -0.000039   0.000005   0.000003  -0.000001  -0.001129
    13  C   -0.002530  -0.002490   0.000002   0.000244  -0.000147  -0.027627
    14  H   -0.000335   0.000248  -0.000004   0.000068  -0.000064  -0.001218
    15  C    0.000093   0.000214  -0.000027  -0.000014   0.000023   0.004275
    16  H    0.000004   0.000002   0.000000   0.000000   0.000000   0.000054
    17  O   -0.005541  -0.050740   0.000257   0.004882  -0.004569   0.016139
    18  Cl   0.000000   0.000000   0.000000   0.000000   0.000000   0.000000
    19  C   -0.024510   0.294511  -0.035337  -0.019684  -0.026047  -0.002436
    20  C    0.014933  -0.080027  -0.008202  -0.014386   0.014125   0.448223
    21  H    0.000047  -0.001440   0.000505  -0.000023  -0.000175  -0.025576
    22  C    0.401991  -0.069097   0.009720  -0.006336  -0.010329   0.008466
    23  H   -0.014357  -0.011667   0.000179   0.001617  -0.000295  -0.001628
    24  H   -0.016750   0.011036  -0.000303  -0.000175  -0.000011   0.001400
    25  H    0.495531  -0.013290   0.000133   0.000041   0.002421  -0.000387
    26  C   -0.013290   5.068906   0.409827   0.411792   0.404070  -0.008896
    27  H    0.000133   0.409827   0.512380  -0.017229  -0.018658   0.002511
    28  H    0.000041   0.411792  -0.017229   0.520364  -0.020268   0.000889
    29  H    0.002421   0.404070  -0.018658  -0.020268   0.511989   0.000351
    30  C   -0.000387  -0.008896   0.002511   0.000889   0.000351   5.066062
    31  H    0.000001  -0.000081  -0.000067  -0.000009   0.000018   0.430454
    32  H    0.000025  -0.001030   0.000482  -0.000036   0.000039   0.417011
    33  O    0.000000   0.000035  -0.000001   0.000000   0.000000  -0.007881
    34  H    0.000000   0.000000  -0.000001   0.000000   0.000000   0.002626
    35  H    0.000000  -0.000002   0.000000   0.000000   0.000000   0.000337
    36  O    0.011525  -0.004116   0.000006   0.000030   0.003095   0.000002
    37  H   -0.000179   0.000405   0.000002  -0.000004  -0.000214  -0.000001
    38  H   -0.004932   0.001784  -0.000682   0.000097  -0.000609  -0.000155
              31         32         33         34         35         36
     1  C    0.000000   0.000007   0.000309   0.000026   0.000414   0.000525
     2  C   -0.000002  -0.000054   0.000201   0.000051  -0.000815  -0.000069
     3  C    0.000025  -0.003520   0.001345   0.014528   0.006433  -0.000807
     4  C    0.000268  -0.003614   0.020675  -0.006103   0.005990  -0.002751
     5  C    0.000032   0.001726   0.002629  -0.001325  -0.000049   0.010364
     6  C   -0.000001  -0.000015  -0.000154   0.000141   0.000525  -0.003211
     7  H    0.000000   0.000000  -0.000001  -0.000002  -0.000001   0.000002
     8  H    0.000000   0.000002  -0.000205  -0.000052  -0.000060   0.000000
     9  H    0.000009  -0.000098  -0.000383   0.000019   0.000027   0.001875
    10  H    0.000000  -0.000004  -0.000002   0.000002   0.000018  -0.000158
    11  C   -0.000896   0.003651  -0.014809   0.002683  -0.008102   0.007592
    12  C    0.000007   0.000751  -0.004601  -0.005763  -0.000638  -0.000344
    13  C    0.000023  -0.002508   0.003599  -0.003352   0.000806   0.001264
    14  H    0.000055  -0.000145   0.000096  -0.000151   0.000015   0.000026
    15  C    0.000002  -0.000770   0.001655   0.006539   0.000347  -0.000019
    16  H    0.000000  -0.000005   0.000022   0.000018  -0.000003   0.000002
    17  O    0.000446   0.005059  -0.000338  -0.000105  -0.000040  -0.017391
    18  Cl   0.000000  -0.000002   0.000016   0.000191   0.000021   0.000000
    19  C    0.005348   0.001627   0.000088   0.000114  -0.000056   0.003557
    20  C   -0.051218  -0.052720   0.000069  -0.000795  -0.000051  -0.000046
    21  H   -0.006639   0.003245  -0.000008  -0.000008   0.000001   0.000004
    22  C   -0.000229   0.000407   0.000029  -0.000002  -0.000001  -0.007015
    23  H   -0.000034  -0.000015   0.000000   0.000000   0.000000   0.000298
    24  H    0.000010  -0.000071   0.000002   0.000003   0.000000  -0.000003
    25  H    0.000001   0.000025   0.000000   0.000000   0.000000   0.011525
    26  C   -0.000081  -0.001030   0.000035   0.000000  -0.000002  -0.004116
    27  H   -0.000067   0.000482  -0.000001  -0.000001   0.000000   0.000006
    28  H   -0.000009  -0.000036   0.000000   0.000000   0.000000   0.000030
    29  H    0.000018   0.000039   0.000000   0.000000   0.000000   0.003095
    30  C    0.430454   0.417011  -0.007881   0.002626   0.000337   0.000002
    31  H    0.488850  -0.018213  -0.000458   0.000104  -0.000004   0.000000
    32  H   -0.018213   0.464567   0.015939  -0.003212  -0.000010   0.000001
    33  O   -0.000458   0.015939   7.978252   0.321679   0.321706   0.000000
    34  H    0.000104  -0.003212   0.321679   0.363916  -0.029942   0.000000
    35  H   -0.000004  -0.000010   0.321706  -0.029942   0.355423   0.000000
    36  O    0.000000   0.000001   0.000000   0.000000   0.000000   8.001664
    37  H    0.000000  -0.000001   0.000000   0.000000   0.000000   0.315269
    38  H    0.000000  -0.000027   0.000004   0.000001   0.000001   0.315847
              37         38
     1  C   -0.000349   0.000475
     2  C    0.000322  -0.000625
     3  C    0.000002   0.000806
     4  C    0.002495  -0.000788
     5  C    0.002162   0.018639
     6  C    0.000704  -0.001536
     7  H   -0.000003   0.000001
     8  H    0.000001  -0.000002
     9  H   -0.001000   0.001038
    10  H    0.000059  -0.000054
    11  C    0.000803  -0.019445
    12  C   -0.000178   0.000506
    13  C   -0.000081   0.000804
    14  H    0.000001   0.000084
    15  C    0.000062  -0.000492
    16  H    0.000001  -0.000004
    17  O   -0.000029   0.033468
    18  Cl   0.000000  -0.000001
    19  C   -0.001052  -0.008694
    20  C    0.000009   0.001552
    21  H    0.000000  -0.000024
    22  C    0.000623   0.000579
    23  H   -0.000003   0.000005
    24  H   -0.000009   0.000185
    25  H   -0.000179  -0.004932
    26  C    0.000405   0.001784
    27  H    0.000002  -0.000682
    28  H   -0.000004   0.000097
    29  H   -0.000214  -0.000609
    30  C   -0.000001  -0.000155
    31  H    0.000000   0.000000
    32  H   -0.000001  -0.000027
    33  O    0.000000   0.000004
    34  H    0.000000   0.000001
    35  H    0.000000   0.000001
    36  O    0.315269   0.315847
    37  H    0.370284  -0.030241
    38  H   -0.030241   0.386631
 Mulliken charges:
               1
     1  C   -0.136184
     2  C   -0.176778
     3  C    0.013049
     4  C   -0.081148
     5  C   -0.328724
     6  C   -0.086194
     7  H    0.145292
     8  H    0.142518
     9  H    0.178414
    10  H    0.146102
    11  C    0.422038
    12  C    0.114918
    13  C   -0.257631
    14  H    0.166104
    15  C   -0.275735
    16  H    0.147515
    17  O   -0.344205
    18  Cl  -0.097644
    19  C    0.204456
    20  C   -0.211867
    21  H    0.152384
    22  C   -0.394192
    23  H    0.143669
    24  H    0.138911
    25  H    0.153798
    26  C   -0.363711
    27  H    0.143628
    28  H    0.137763
    29  H    0.149147
    30  C   -0.324717
    31  H    0.152199
    32  H    0.171533
    33  O   -0.639507
    34  H    0.338172
    35  H    0.347708
    36  O   -0.637022
    37  H    0.340138
    38  H    0.305806
 Sum of Mulliken charges =   0.00000
 Mulliken charges with hydrogens summed into heavy atoms:
               1
     1  C    0.009108
     2  C   -0.034259
     3  C    0.013049
     4  C   -0.081148
     5  C   -0.150311
     6  C    0.059908
    11  C    0.422038
    12  C    0.114918
    13  C   -0.091527
    15  C   -0.128220
    17  O   -0.344205
    18  Cl  -0.097644
    19  C    0.204456
    20  C   -0.059483
    22  C    0.042187
    26  C    0.066826
    30  C   -0.000986
    33  O    0.046373
    36  O    0.008922
 Electronic spatial extent (au):  <R**2>=           5720.2127
 Charge=              0.0000 electrons
 Dipole moment (field-independent basis, Debye):
    X=              1.5742    Y=             -0.1738    Z=             -0.6294  Tot=              1.7042
 Quadrupole moment (field-independent basis, Debye-Ang):
   XX=           -114.4286   YY=           -116.9002   ZZ=           -133.9451
   XY=            -16.5888   XZ=              1.2509   YZ=             13.2911
 Traceless Quadrupole moment (field-independent basis, Debye-Ang):
   XX=              7.3293   YY=              4.8578   ZZ=            -12.1871
   XY=            -16.5888   XZ=              1.2509   YZ=             13.2911
 Octapole moment (field-independent basis, Debye-Ang**2):
  XXX=             34.1974  YYY=             -8.2621  ZZZ=            -24.0816  XYY=            -20.6062
  XXY=             -1.5111  XXZ=              7.1202  XZZ=              1.7670  YZZ=              9.5411
  YYZ=             13.9275  XYZ=              5.3835
 Hexadecapole moment (field-independent basis, Debye-Ang**3):
 XXXX=          -4271.2451 YYYY=          -1871.5038 ZZZZ=          -1263.7642 XXXY=           -101.2858
 XXXZ=            -61.3592 YYYX=            -86.7859 YYYZ=             65.1905 ZZZX=             39.7909
 ZZZY=             57.1926 XXYY=          -1075.4840 XXZZ=           -990.6078 YYZZ=           -528.5250
 XXYZ=             56.2067 YYXZ=             40.1677 ZZXY=            -46.0497
 N-N= 1.625812356947D+03 E-N=-6.230684162104D+03  KE= 1.264500982343D+03
 1\1\GINC-D10S10B3\FOpt\RwB97XD\def2TZVP\C15H19Cl1O3\PMMASS\03-Feb-2022
 \0\\#n wB97XD/Def2TZVP scrf(smd,solvent=toluene) opt\\starting materia
 l claisen toluene - opt\\0,1\C,-2.6689102826,2.4810313965,0.6895393592
 \C,-2.9490076776,1.2398474477,0.193394284\C,-1.9127716631,0.3312358337
 ,-0.1219905325\C,-0.5662765077,0.7378646986,0.0739399404\C,-0.31157447
 97,2.0249962481,0.6019253276\C,-1.3366639785,2.8768917852,0.9015557424
 \H,-3.476937292,3.1606125084,0.9289185815\H,-3.9758991597,0.9373251889
 ,0.0436377216\H,0.7114598517,2.3238034202,0.780411415\H,-1.1237481022,
 3.8560667384,1.3109980358\C,0.5017490607,-0.166600443,-0.2256917932\C,
 -2.1490056215,-0.9857452292,-0.5997067836\C,0.2177986033,-1.4354761846
 ,-0.6509190364\H,0.9983651689,-2.154979361,-0.8327441934\C,-1.11775759
 28,-1.8383897206,-0.842616199\H,-1.3168423849,-2.8428495511,-1.1908974
 407\O,1.7324260155,0.3577424752,-0.0288869552\Cl,-3.7785544705,-1.5374
 683824,-0.8683181368\C,2.9795616124,-0.3440395898,-0.2469051502\C,3.11
 06754798,-1.5595078797,0.640811076\H,3.8421058158,-2.2852907398,0.2969
 189973\C,3.1674135198,-0.6789376332,-1.7250795359\H,4.1856140265,-1.03
 75634788,-1.8821308057\H,2.4859445456,-1.4471201703,-2.0836086393\H,3.
 0255909527,0.2163394489,-2.3316068662\C,4.0279475886,0.6822592486,0.17
 90355859\H,3.8500023655,0.9910462866,1.2091608133\H,5.0242472521,0.243
 307888,0.1180116923\H,3.9984562301,1.5592783621,-0.4707150848\C,2.4711
 105473,-1.7559996295,1.7808469488\H,2.6574563425,-2.6412335498,2.37636
 57008\H,1.7350372438,-1.0568492905,2.1619672455\O,-0.8966039219,-1.099
 3328168,2.8697518824\H,-0.8077379448,-1.5457768679,2.0233007695\H,-1.1
 984418121,-0.2170163952,2.640535758\O,1.6953268368,2.6231702724,-2.021
 4564818\H,0.766269684,2.8591161565,-2.0646584128\H,1.7428241483,1.9648
 115093,-1.3186848294\\Version=ES64L-G09RevD.01\State=1-A\HF=-1268.9776
 186\RMSD=1.388e-09\RMSF=9.332e-06\Dipole=0.6133512,-0.0881028,-0.25612
 7\Quadrupole=5.2929447,4.9260406,-10.2189854,-12.0720543,1.3973858,9.3
 272742\PG=C01 [X(C15H19Cl1O3)]\\@


 THE VALUE OF PHILOSOPHY IS, IN FACT, TO BE SOUGHT LARGELY IN ITS
 VERY UNCERTAINTY.  THE MAN WHO HAS NO TINCTURE OF PHILOSOPHY GOES
 THROUGH LIFE IMPRISONED IN THE PREJUDICES DERIVED FROM COMMON SENSE,
 FROM THE HABITUAL BELIEFS OF HIS AGE OR HIS NATION, AND FROM
 CONVICTIONS WHICH HAVE GROWN UP IN HIS MIND WITHOUT THE CO-OPERATION
 OR CONSENT OF HIS DELIBERATE REASON.  TO SUCH A MAN THE WORLD TENDS
 TO BE DEFINITE, FINITE, OBVIOUS; COMMON OBJECTS ROUSE NO QUESTIONS,
 AND UNFAMILIAR POSSIBILITIES ARE CONTEMPTUOUSLY REJECTED.

                             -- BERTRAND RUSSELL
 Job cpu time:       4 days 22 hours 24 minutes 18.3 seconds.
 File lengths (MBytes):  RWF=    532 Int=      0 D2E=      0 Chk=     36 Scr=      1
 Normal termination of Gaussian 09 at Thu Feb  3 06:14:53 2022.
