 Entering Gaussian System, Link 0=g09
 Input=sm_claisen_water_freq.com
 Output=sm_claisen_water_freq.log
 Initial command:
 /apps/applications/gaussian/G09.D01/2/default/g09/l1.exe "/nobackup/pmmass/Temp/Gau-159977.inp" -scrdir="/nobackup/pmmass/Temp/"
 Entering Link 1 = /apps/applications/gaussian/G09.D01/2/default/g09/l1.exe PID=    159978.
  
 Copyright (c) 1988,1990,1992,1993,1995,1998,2003,2009,2013,
            Gaussian, Inc.  All Rights Reserved.
  
 This is part of the Gaussian(R) 09 program.  It is based on
 the Gaussian(R) 03 system (copyright 2003, Gaussian, Inc.),
 the Gaussian(R) 98 system (copyright 1998, Gaussian, Inc.),
 the Gaussian(R) 94 system (copyright 1995, Gaussian, Inc.),
 the Gaussian 92(TM) system (copyright 1992, Gaussian, Inc.),
 the Gaussian 90(TM) system (copyright 1990, Gaussian, Inc.),
 the Gaussian 88(TM) system (copyright 1988, Gaussian, Inc.),
 the Gaussian 86(TM) system (copyright 1986, Carnegie Mellon
 University), and the Gaussian 82(TM) system (copyright 1983,
 Carnegie Mellon University). Gaussian is a federally registered
 trademark of Gaussian, Inc.
  
 This software contains proprietary and confidential information,
 including trade secrets, belonging to Gaussian, Inc.
  
 This software is provided under written license and may be
 used, copied, transmitted, or stored only in accord with that
 written license.
  
 The following legend is applicable only to US Government
 contracts under FAR:
  
                    RESTRICTED RIGHTS LEGEND
  
 Use, reproduction and disclosure by the US Government is
 subject to restrictions as set forth in subparagraphs (a)
 and (c) of the Commercial Computer Software - Restricted
 Rights clause in FAR 52.227-19.
  
 Gaussian, Inc.
 340 Quinnipiac St., Bldg. 40, Wallingford CT 06492
  
  
 ---------------------------------------------------------------
 Warning -- This program may not be used in any manner that
 competes with the business of Gaussian, Inc. or will provide
 assistance to any competitor of Gaussian, Inc.  The licensee
 of this program is prohibited from giving any competitor of
 Gaussian, Inc. access to this program.  By using this program,
 the user acknowledges that Gaussian, Inc. is engaged in the
 business of creating and licensing software in the field of
 computational chemistry and represents and warrants to the
 licensee that it is not a competitor of Gaussian, Inc. and that
 it will not use this program in any manner prohibited above.
 ---------------------------------------------------------------
  

 Cite this work as:
 Gaussian 09, Revision D.01,
 M. J. Frisch, G. W. Trucks, H. B. Schlegel, G. E. Scuseria, 
 M. A. Robb, J. R. Cheeseman, G. Scalmani, V. Barone, B. Mennucci, 
 G. A. Petersson, H. Nakatsuji, M. Caricato, X. Li, H. P. Hratchian, 
 A. F. Izmaylov, J. Bloino, G. Zheng, J. L. Sonnenberg, M. Hada, 
 M. Ehara, K. Toyota, R. Fukuda, J. Hasegawa, M. Ishida, T. Nakajima, 
 Y. Honda, O. Kitao, H. Nakai, T. Vreven, J. A. Montgomery, Jr., 
 J. E. Peralta, F. Ogliaro, M. Bearpark, J. J. Heyd, E. Brothers, 
 K. N. Kudin, V. N. Staroverov, T. Keith, R. Kobayashi, J. Normand, 
 K. Raghavachari, A. Rendell, J. C. Burant, S. S. Iyengar, J. Tomasi, 
 M. Cossi, N. Rega, J. M. Millam, M. Klene, J. E. Knox, J. B. Cross, 
 V. Bakken, C. Adamo, J. Jaramillo, R. Gomperts, R. E. Stratmann, 
 O. Yazyev, A. J. Austin, R. Cammi, C. Pomelli, J. W. Ochterski, 
 R. L. Martin, K. Morokuma, V. G. Zakrzewski, G. A. Voth, 
 P. Salvador, J. J. Dannenberg, S. Dapprich, A. D. Daniels, 
 O. Farkas, J. B. Foresman, J. V. Ortiz, J. Cioslowski, 
 and D. J. Fox, Gaussian, Inc., Wallingford CT, 2013.
 
 ******************************************
 Gaussian 09:  ES64L-G09RevD.01 24-Apr-2013
                 4-Feb-2022 
 ******************************************
 %nprocshared=8
 Will use up to    8 processors via shared memory.
 %mem=4GB
 %NoSave
 %chk="sm_claisen_water_freq.chk"
 -------------------------------------------------
 #n wB97XD/Def2TZVP scrf(smd,solvent=toluene) freq
 -------------------------------------------------
 1/10=4,30=1,38=1/1,3;
 2/12=2,17=6,18=5,40=1/2;
 3/5=44,7=101,11=2,16=1,25=1,30=1,70=32201,71=2,72=13,74=-58,140=1/1,2,3;
 4//1;
 5/5=2,38=5,53=13,98=1/2;
 8/6=4,10=90,11=11/1;
 11/6=1,8=1,9=11,15=111,16=1/1,2,10;
 10/6=1/2;
 6/7=2,8=2,9=2,10=2,18=1,28=1/1;
 7/8=1,10=1,25=1/1,2,3,16;
 1/10=4,30=1/3;
 99//99;
 ---------------------------------------
 starting material claisen toluene - opt
 ---------------------------------------
 Symbolic Z-matrix:
 Charge =  0 Multiplicity = 1
 C                    -2.70477   2.40552   0.79072 
 C                    -2.96323   1.19288   0.21813 
 C                    -1.91248   0.3121   -0.12679 
 C                    -0.5741    0.71724   0.12092 
 C                    -0.3421    1.97371   0.72739 
 C                    -1.38086   2.79887   1.05357 
 H                    -3.52371   3.06382   1.05148 
 H                    -3.984     0.8915    0.02932 
 H                     0.67425   2.2697    0.94458 
 H                    -1.18538   3.75442   1.52311 
 C                     0.50807  -0.16006  -0.20736 
 C                    -2.1268   -0.97693  -0.68441 
 C                     0.24452  -1.40446  -0.71085 
 H                     1.03517  -2.10616  -0.91705 
 C                    -1.08305  -1.80606  -0.95389 
 H                    -1.26575  -2.79027  -1.36355 
 O                     1.72959   0.36164   0.04552 
 Cl                   -3.74534  -1.52493  -1.01906 
 C                     2.98729  -0.31663  -0.18582 
 C                     3.11081  -1.58024   0.6331 
 H                     3.85577  -2.27924   0.26373 
 C                     3.20897  -0.5642   -1.67646 
 H                     4.23342  -0.90521  -1.8321 
 H                     2.54209  -1.31571  -2.09306 
 H                     3.07176   0.36345  -2.23338 
 C                     4.01725   0.69153   0.32075 
 H                     3.81506   0.93897   1.36289 
 H                     5.01853   0.26462   0.25587 
 H                     3.99341   1.60433  -0.27796 
 C                     2.44938  -1.84717   1.74603 
 H                     2.63124  -2.76381   2.29348 
 H                     1.69923  -1.17694   2.15093 
 O                    -0.94612  -1.28074   2.79872 
 H                    -0.83558  -1.67689   1.93008 
 H                    -1.25106  -0.38905   2.61425 
 O                     1.71365   2.73791  -1.81377 
 H                     0.7836    2.9687   -1.86316 
 H                     1.75241   2.04049  -1.14918 
 

 GradGradGradGradGradGradGradGradGradGradGradGradGradGradGradGradGradGrad
 Berny optimization.
 Initialization pass.
 Trust Radius=3.00D-01 FncErr=1.00D-07 GrdErr=1.00D-07
 Number of steps in this run=      2 maximum allowed number of steps=      2.
 GradGradGradGradGradGradGradGradGradGradGradGradGradGradGradGradGradGrad

                          Input orientation:                          
 ---------------------------------------------------------------------
 Center     Atomic      Atomic             Coordinates (Angstroms)
 Number     Number       Type             X           Y           Z
 ---------------------------------------------------------------------
      1          6           0       -2.704770    2.405520    0.790720
      2          6           0       -2.963230    1.192880    0.218130
      3          6           0       -1.912480    0.312100   -0.126790
      4          6           0       -0.574100    0.717240    0.120920
      5          6           0       -0.342100    1.973710    0.727390
      6          6           0       -1.380860    2.798870    1.053570
      7          1           0       -3.523710    3.063820    1.051480
      8          1           0       -3.984000    0.891500    0.029320
      9          1           0        0.674250    2.269700    0.944580
     10          1           0       -1.185380    3.754420    1.523110
     11          6           0        0.508070   -0.160060   -0.207360
     12          6           0       -2.126800   -0.976930   -0.684410
     13          6           0        0.244520   -1.404460   -0.710850
     14          1           0        1.035170   -2.106160   -0.917050
     15          6           0       -1.083050   -1.806060   -0.953890
     16          1           0       -1.265750   -2.790270   -1.363550
     17          8           0        1.729590    0.361640    0.045520
     18         17           0       -3.745340   -1.524930   -1.019060
     19          6           0        2.987290   -0.316630   -0.185820
     20          6           0        3.110810   -1.580240    0.633100
     21          1           0        3.855770   -2.279240    0.263730
     22          6           0        3.208970   -0.564200   -1.676460
     23          1           0        4.233420   -0.905210   -1.832100
     24          1           0        2.542090   -1.315710   -2.093060
     25          1           0        3.071760    0.363450   -2.233380
     26          6           0        4.017250    0.691530    0.320750
     27          1           0        3.815060    0.938970    1.362890
     28          1           0        5.018530    0.264620    0.255870
     29          1           0        3.993410    1.604330   -0.277960
     30          6           0        2.449380   -1.847170    1.746030
     31          1           0        2.631240   -2.763810    2.293480
     32          1           0        1.699230   -1.176940    2.150930
     33          8           0       -0.946120   -1.280740    2.798720
     34          1           0       -0.835580   -1.676890    1.930080
     35          1           0       -1.251060   -0.389050    2.614250
     36          8           0        1.713650    2.737910   -1.813770
     37          1           0        0.783600    2.968700   -1.863160
     38          1           0        1.752410    2.040490   -1.149180
 ---------------------------------------------------------------------
                    Distance matrix (angstroms):
                    1          2          3          4          5
     1  C    0.000000
     2  C    1.365707   0.000000
     3  C    2.419082   1.413796   0.000000
     4  C    2.799764   2.437955   1.420127   0.000000
     5  C    2.402640   2.781971   2.440628   1.414336   0.000000
     6  C    1.405899   2.404383   2.803550   2.419480   1.366128
     7  H    1.082598   2.123447   3.399462   3.882342   3.378760
     8  H    2.123303   1.080949   2.156680   3.415578   3.862890
     9  H    3.385247   3.862452   3.416314   2.155673   1.080624
    10  H    2.159739   3.380120   3.885925   3.400627   2.124905
    11  C    4.230923   3.749855   2.467486   1.431263   2.479823
    12  C    3.735107   2.494448   1.420729   2.435086   3.726206
    13  C    5.046679   4.230702   2.817863   2.421485   3.718157
    14  H    6.104006   5.306553   3.893730   3.411557   4.609381
    15  C    4.838496   3.728585   2.420465   2.789496   4.202662
    16  H    5.805850   4.609624   3.401843   3.871002   5.284001
    17  O    4.939263   4.768995   3.646480   2.332193   2.712124
    18  Cl   4.450452   3.086880   2.744121   4.047671   5.183880
    19  C    6.384613   6.152275   4.940297   3.721085   4.143000
    20  C    7.052099   6.690019   5.421423   4.372563   4.956010
    21  H    8.078699   7.652219   6.335634   5.350050   5.993720
    22  C    7.062474   6.691252   5.422050   4.379987   4.982929
    23  H    8.122721   7.771563   6.493228   5.436808   5.981183
    24  H    7.049346   6.476355   5.134119   4.329577   5.205168
    25  H    6.832535   6.566503   5.411378   4.354330   4.797243
    26  C    6.952998   6.999213   5.958688   4.595768   4.562157
    27  H    6.707185   6.878965   5.951204   4.566878   4.330881
    28  H    8.032365   8.035645   6.941728   5.612538   5.646209
    29  H    6.830051   6.986432   6.047499   4.669923   4.465850
    30  C    6.750056   6.393178   5.214952   4.284695   4.840363
    31  H    7.579793   7.159649   5.997026   5.206912   5.808398
    32  H    5.837757   5.575867   4.522134   3.588438   4.014983
    33  O    4.551201   4.104506   3.468371   3.361686   3.904701
    34  H    4.632287   3.961470   3.057206   3.012190   3.875160
    35  H    3.639802   3.342966   2.905579   2.810489   3.157386
    36  O    5.139678   5.328127   4.677529   3.613853   3.356725
    37  H    4.419160   4.639401   4.164295   3.293781   2.994688
    38  H    4.874722   4.982493   4.178999   2.962565   2.812996
                    6          7          8          9         10
     6  C    0.000000
     7  H    2.159169   0.000000
     8  H    3.385777   2.444515   0.000000
     9  H    2.124942   4.273748   4.943322   0.000000
    10  H    1.082477   2.483375   4.273171   2.448941   0.000000
    11  C    3.730049   5.313505   4.619577   2.694126   4.602766
    12  C    4.222993   4.614362   2.729402   4.586948   5.305195
    13  C    4.839734   6.104989   4.868230   4.052724   5.800796
    14  H    5.812045   7.168486   5.922301   4.769075   6.725446
    15  C    5.032292   5.804659   4.081549   4.827433   6.088098
    16  H    6.090501   6.723178   4.783764   5.890192   7.153477
    17  O    4.078131   5.992570   5.738129   2.358547   4.710762
    18  Cl   5.346196   5.039135   2.644843   6.147184   6.394338
    19  C    5.506647   7.439857   7.078471   3.649255   6.074954
    20  C    6.287169   8.109204   7.537266   4.566824   6.907095
    21  H    7.337121   9.144701   8.459937   5.592717   7.962681
    22  C    6.311089   8.119924   7.534425   4.617970   6.942481
    23  H    7.318978   9.178306   8.615047   5.518849   7.895124
    24  H    6.497737   8.115562   7.208753   5.056802   7.257888
    25  H    6.046581   7.847454   7.428486   4.413760   6.613103
    26  C    5.841019   7.939005   8.009052   3.749058   6.155837
    27  H    5.527431   7.646536   7.912395   3.436643   5.740804
    28  H    6.928993   9.024322   9.027173   4.833988   7.230014
    29  H    5.664157   7.772041   8.015087   3.599187   5.889534
    30  C    6.061017   7.763892   7.199707   4.554342   6.681241
    31  H    6.969773   8.566636   7.889811   5.566468   7.592587
    32  H    5.147642   6.817033   6.409273   3.792782   5.747473
    33  O    4.458449   5.345280   4.649400   4.320771   5.199737
    34  H    4.593259   5.520173   4.485762   4.338936   5.457757
    35  H    3.551817   4.419219   3.973743   3.682875   4.285236
    36  O    4.219164   5.978780   6.266532   2.984639   4.535685
    37  H    3.636075   5.201643   5.534099   2.895507   3.995130
    38  H    3.904437   5.807543   5.967867   2.366178   4.325425
                   11         12         13         14         15
    11  C    0.000000
    12  C    2.799534   0.000000
    13  C    1.368025   2.409697   0.000000
    14  H    2.137475   3.365611   1.077046   0.000000
    15  C    2.407963   1.359960   1.408117   2.139690   0.000000
    16  H    3.376569   2.119160   2.151140   2.441639   1.081605
    17  O    1.352121   4.146844   2.428299   2.738393   3.688995
    18  Cl   4.540179   1.741254   4.003560   4.816795   2.677885
    19  C    2.484252   5.180589   2.996968   2.747342   4.401818
    20  C    3.081808   5.434370   3.170602   2.643452   4.489765
    21  H    3.989981   6.195654   3.841376   3.062676   5.108663
    22  C    3.101039   5.442881   3.228994   2.771236   4.526120
    23  H    4.131980   6.463338   4.173461   3.536722   5.463299
    24  H    3.004768   4.888517   2.682761   2.068482   3.831422
    25  H    3.309279   5.587571   3.665636   3.461127   4.858633
    26  C    3.649445   6.445421   4.437439   4.272238   5.820285
    27  H    3.822268   6.570221   4.747717   4.711553   6.074055
    28  H    4.554029   7.313092   5.148937   4.781579   6.555953
    29  H    3.907128   6.654703   4.826426   4.788252   6.152893
    30  C    3.229668   5.254120   3.330715   3.026394   4.446270
    31  H    4.188265   5.890646   4.070659   3.645195   5.025798
    32  H    2.830978   4.766305   3.218343   3.273672   4.216252
    33  O    3.522373   3.690325   3.708101   4.291127   3.791674
    34  H    2.945304   2.998792   2.866242   3.433676   2.897449
    35  H    3.332935   3.463189   3.784720   4.543720   3.842885
    36  O    3.525933   5.461185   4.531446   4.972872   5.404497
    37  H    3.550596   5.042606   4.554443   5.168425   5.206677
    38  H    2.697745   4.936507   3.785967   4.214620   4.782669
                   16         17         18         19         20
    16  H    0.000000
    17  O    4.570785   0.000000
    18  Cl   2.805018   5.887897   0.000000
    19  C    5.059080   1.447542   6.890761   0.000000
    20  C    4.960349   2.454367   7.052623   1.510827   0.000000
    21  H    5.398070   3.397426   7.745412   2.192759   1.086278
    22  C    5.007636   2.451726   7.051071   1.527233   2.525082
    23  H    5.832140   3.376319   8.043985   2.146976   2.791618
    24  H    4.148031   2.836756   6.381930   2.198620   2.797386
    25  H    5.432913   2.644770   7.177284   2.159200   3.463548
    26  C    6.547510   2.327653   8.183251   1.527684   2.465793
    27  H    6.866974   2.533369   8.300852   2.158758   2.715692
    28  H    7.172660   3.297088   9.035118   2.158443   2.680524
    29  H    6.939004   2.602652   8.380319   2.170450   3.427900
    30  C    4.935698   2.879006   6.791474   2.522686   1.321875
    31  H    5.344259   3.954078   7.291675   3.501770   2.094681
    32  H    4.872936   2.607854   6.309776   2.803504   2.111638
    33  O    4.439069   4.175757   4.740328   5.030775   4.608502
    34  H    3.503236   3.779850   4.145747   4.576208   4.155177
    35  H    4.646393   4.005769   4.551109   5.080280   4.936578
    36  O    6.296054   3.017262   6.971653   3.688170   5.156127
    37  H    6.133122   3.366707   6.435566   4.296872   5.686834
    38  H    5.700130   2.060671   6.553961   2.830019   4.258105
                   21         22         23         24         25
    21  H    0.000000
    22  C    2.669092   0.000000
    23  H    2.534380   1.090876   0.000000
    24  H    2.865066   1.087682   1.759889   0.000000
    25  H    3.719414   1.090652   1.766346   1.766301   0.000000
    26  C    2.975702   2.493797   2.689065   3.468658   2.743204
    27  H    3.400983   3.444490   3.712679   4.318290   3.717106
    28  H    2.797016   2.774049   2.518833   3.761339   3.161652
    29  H    3.923581   2.696974   2.961545   3.731963   2.492567
    30  C    2.088500   3.733152   4.107688   3.876810   4.594551
    31  H    2.419539   4.575203   4.800186   4.620246   5.519626
    32  H    3.070383   4.159769   4.728687   4.329102   4.845494
    33  O    5.520989   6.148613   6.957956   6.008190   6.645957
    34  H    5.014809   5.532052   6.359579   5.265431   6.063390
    35  H    5.931060   6.191344   7.079263   6.116000   6.538543
    36  O    5.837506   3.627501   4.429661   4.146824   2.767417
    37  H    6.442264   4.289366   5.187427   4.636951   3.487129
    38  H    5.008044   3.030512   3.911386   3.574714   2.393457
                   26         27         28         29         30
    26  C    0.000000
    27  H    1.090029   0.000000
    28  H    1.090423   1.768780   0.000000
    29  H    1.091891   1.779579   1.769369   0.000000
    30  C    3.306756   3.126412   3.644278   4.288755   0.000000
    31  H    4.213320   3.997250   4.361467   5.248662   1.083053
    32  H    3.494847   3.094320   4.084985   4.347210   1.084379
    33  O    5.887718   5.445875   6.665679   6.495271   3.599780
    34  H    5.634653   5.365900   6.390856   6.241874   3.294515
    35  H    5.846613   5.384711   6.730305   6.312124   4.071017
    36  O    3.748389   4.212277   4.617662   2.973386   5.851191
    37  H    4.517904   4.870005   5.453161   3.831089   6.244492
    38  H    3.018259   3.431963   3.974345   2.443633   4.897133
                   31         32         33         34         35
    31  H    0.000000
    32  H    1.845838   0.000000
    33  O    3.905415   2.725488   0.000000
    34  H    3.651342   2.593065   0.961088   0.000000
    35  H    4.562306   3.088632   0.960275   1.516326   0.000000
    36  O    6.926788   5.571813   6.670756   6.324986   6.178571
    37  H    7.317998   5.842741   6.540856   6.212240   5.954958
    38  H    5.975412   4.609274   5.822246   5.477084   5.393227
                   36         37         38
    36  O    0.000000
    37  H    0.959529   0.000000
    38  H    0.964146   1.519847   0.000000
 Stoichiometry    C15H19ClO3
 Framework group  C1[X(C15H19ClO3)]
 Deg. of freedom   108
 Full point group                 C1      NOp   1
 Largest Abelian subgroup         C1      NOp   1
 Largest concise Abelian subgroup C1      NOp   1
                         Standard orientation:                         
 ---------------------------------------------------------------------
 Center     Atomic      Atomic             Coordinates (Angstroms)
 Number     Number       Type             X           Y           Z
 ---------------------------------------------------------------------
      1          6           0       -2.704773    2.405517    0.790719
      2          6           0       -2.963231    1.192877    0.218129
      3          6           0       -1.912481    0.312098   -0.126791
      4          6           0       -0.574101    0.717240    0.120919
      5          6           0       -0.342102    1.973710    0.727389
      6          6           0       -1.380863    2.798869    1.053569
      7          1           0       -3.523713    3.063817    1.051479
      8          1           0       -3.984001    0.891496    0.029319
      9          1           0        0.674248    2.269701    0.944579
     10          1           0       -1.185384    3.754419    1.523109
     11          6           0        0.508070   -0.160059   -0.207361
     12          6           0       -2.126799   -0.976932   -0.684411
     13          6           0        0.244521   -1.404460   -0.710851
     14          1           0        1.035172   -2.106159   -0.917051
     15          6           0       -1.083049   -1.806061   -0.953891
     16          1           0       -1.265748   -2.790271   -1.363551
     17          8           0        1.729589    0.361642    0.045519
     18         17           0       -3.745339   -1.524934   -1.019061
     19          6           0        2.987290   -0.316627   -0.185821
     20          6           0        3.110811   -1.580237    0.633099
     21          1           0        3.855772   -2.279236    0.263729
     22          6           0        3.208970   -0.564197   -1.676461
     23          1           0        4.233421   -0.905206   -1.832101
     24          1           0        2.542091   -1.315707   -2.093061
     25          1           0        3.071759    0.363453   -2.233381
     26          6           0        4.017249    0.691534    0.320749
     27          1           0        3.815059    0.938974    1.362889
     28          1           0        5.018529    0.264625    0.255869
     29          1           0        3.993408    1.604334   -0.277961
     30          6           0        2.449382   -1.847168    1.746029
     31          1           0        2.631242   -2.763807    2.293479
     32          1           0        1.699231   -1.176938    2.150929
     33          8           0       -0.946119   -1.280741    2.798719
     34          1           0       -0.835579   -1.676891    1.930079
     35          1           0       -1.251060   -0.389051    2.614249
     36          8           0        1.713647    2.737912   -1.813771
     37          1           0        0.783597    2.968701   -1.863161
     38          1           0        1.752408    2.040492   -1.149181
 ---------------------------------------------------------------------
 Rotational constants (GHZ):      0.4646641      0.2416339      0.2105323
 Standard basis: def2TZVP (5D, 7F)
 There are   804 symmetry adapted cartesian basis functions of A   symmetry.
 There are   709 symmetry adapted basis functions of A   symmetry.
   709 basis functions,  1139 primitive gaussians,   804 cartesian basis functions
    75 alpha electrons       75 beta electrons
       nuclear repulsion energy      1625.8571904320 Hartrees.
 NAtoms=   38 NActive=   38 NUniq=   38 SFac= 1.00D+00 NAtFMM=   60 NAOKFM=F Big=F
 Integral buffers will be    131072 words long.
 Raffenetti 2 integral format.
 Two-electron integral symmetry is turned on.
 Nuclear repulsion after empirical dispersion term =     1625.8235208400 Hartrees.
 Force inversion solution in PCM.
 ------------------------------------------------------------------------------
 Polarizable Continuum Model (PCM)
 =================================
 Model                : PCM (using non-symmetric T matrix).
 Atomic radii         : SMD-Coulomb.
 Polarization charges : Total charges.
 Charge compensation  : None.
 Solution method      : Matrix inversion.
 Cavity type          : VdW (van der Waals Surface) (Alpha=1.000).
 Cavity algorithm     : GePol (No added spheres)
                        Default sphere list used, NSphG=   38.
                        Lebedev-Laikov grids with approx.  5.0 points / Ang**2.
                        Smoothing algorithm: Karplus/York (Gamma=1.0000).
                        Polarization charges: spherical gaussians, with
                                              point-specific exponents (IZeta= 3).
                        Self-potential: point-specific (ISelfS= 7).
                        Self-field    : sphere-specific E.n sum rule (ISelfD= 2).
 1st derivatives      : Analytical E(r).r(x)/FMM algorithm (CHGder, D1EAlg=3).
                        Cavity 1st derivative terms included.
 2nd derivatives      : Analytical E(r).r(xy)/FMM algorithm (CHGder, D2EAlg=3).
                        Cavity 2nd derivative terms included.
 Solvent              : Toluene, Eps=   2.374100 Eps(inf)=   2.238315
 ------------------------------------------------------------------------------
 ------------------------------------------------------------------------------
 Atomic radii for non-electrostatic terms: SMD-CDS.
 ------------------------------------------------------------------------------
 Nuclear repulsion after PCM non-electrostatic terms =     1625.8126839991 Hartrees.
 One-electron integrals computed using PRISM.
   1 Symmetry operations used in ECPInt.
 ECPInt:  NShTT=   41328 NPrTT=  126240 LenC2=   37545 LenP2D=   82230.
 LDataN:  DoStor=T MaxTD1= 6 Len=  172
 NBasis=   709 RedAO= T EigKep=  4.41D-06  NBF=   709
 NBsUse=   709 1.00D-06 EigRej= -1.00D+00 NBFU=   709
 ExpMin= 9.52D-02 ExpMax= 6.95D+04 ExpMxC= 2.37D+03 IAcc=2 IRadAn=         4 AccDes= 0.00D+00
 Harris functional with IExCor= 4639 and IRadAn=       4 diagonalized for initial guess.
 HarFok:  IExCor= 4639 AccDes= 0.00D+00 IRadAn=         4 IDoV= 1 UseB2=F ITyADJ=14
 ICtDFT=  3500011 ScaDFX=  1.000000  1.000000  1.000000  1.000000
 FoFCou: FMM=F IPFlag=           0 FMFlag=      100000 FMFlg1=           0
         NFxFlg=           0 DoJE=T BraDBF=F KetDBF=T FulRan=T
         wScrn=  0.000000 ICntrl=     500 IOpCl=  0 I1Cent=   200000004 NGrid=           0
         NMat0=    1 NMatS0=      1 NMatT0=    0 NMatD0=    1 NMtDS0=    0 NMtDT0=    0
 Petite list used in FoFCou.
 Requested convergence on RMS density matrix=1.00D-08 within 128 cycles.
 Requested convergence on MAX density matrix=1.00D-06.
 Requested convergence on             energy=1.00D-06.
 No special actions if energy rises.
 Inv3:  Mode=1 IEnd=    24831387.
 Iteration    1 A*A^-1 deviation from unit magnitude is 4.22D-15 for   2876.
 Iteration    1 A*A^-1 deviation from orthogonality  is 2.56D-15 for   1213    930.
 Iteration    1 A^-1*A deviation from unit magnitude is 4.00D-15 for   2876.
 Iteration    1 A^-1*A deviation from orthogonality  is 1.26D-12 for   1136   1130.
 Error on total polarization charges =  0.02155
 SCF Done:  E(RwB97XD) =  -1268.97761865     A.U. after   15 cycles
            NFock= 15  Conv=0.60D-08     -V/T= 2.0035
 SMD-CDS (non-electrostatic) energy       (kcal/mol) =      -6.80
 (included in total energy above)
 DoSCS=F DFT=T ScalE2(SS,OS)=  1.000000  1.000000
 Range of M.O.s used for correlation:     1   709
 NBasis=   709 NAE=    75 NBE=    75 NFC=     0 NFV=     0
 NROrb=    709 NOA=    75 NOB=    75 NVA=   634 NVB=   634

 **** Warning!!: The largest alpha MO coefficient is  0.73800623D+02

   1 Symmetry operations used in ECPInt.
 ECPInt:  NShTT=   41328 NPrTT=  126240 LenC2=   37545 LenP2D=   82230.
 LDataN:  DoStor=T MaxTD1= 7 Len=  274
 Number of processors reduced to   3 by ecpmxn.
 Symmetrizing basis deriv contribution to polar:
 IMax=3 JMax=2 DiffMx= 0.00D+00
 G2DrvN: will do    39 centers at a time, making    1 passes.
 Calling FoFCou, ICntrl=  3107 FMM=F I1Cent=   0 AccDes= 0.00D+00.
 NEqPCM:  Using equilibrium solvation (IEInf=0, Eps=   2.3741, EpsInf=   2.2383)
 G2PCM: DoFxE=T DoFxN=T DoGrad=T DoDP/DQ/DG/TGxP=FFFF NFrqRd=   0 IEInf=0 SqF1=F DoCFld=F IF1Alg=4.
 End of G2Drv F.D. properties file   721 does not exist.
 End of G2Drv F.D. properties file   722 does not exist.
 End of G2Drv F.D. properties file   788 does not exist.
          IDoAtm=11111111111111111111111111111111111111
 NEqPCM:  Using equilibrium solvation (IEInf=0, Eps=   2.3741, EpsInf=   2.2383)
          Differentiating once with respect to electric field.
                with respect to dipole field.
          Differentiating once with respect to nuclear coordinates.
          There are   117 degrees of freedom in the 1st order CPHF.  IDoFFX=6 NUNeed=     3.
    114 vectors produced by pass  0 Test12= 4.75D-14 1.00D-09 XBig12= 1.23D+02 5.27D+00.
 AX will form   114 AO Fock derivatives at one time.
    114 vectors produced by pass  1 Test12= 4.75D-14 1.00D-09 XBig12= 1.10D+01 3.38D-01.
    114 vectors produced by pass  2 Test12= 4.75D-14 1.00D-09 XBig12= 2.97D-01 1.14D-01.
    114 vectors produced by pass  3 Test12= 4.75D-14 1.00D-09 XBig12= 3.58D-03 8.82D-03.
    114 vectors produced by pass  4 Test12= 4.75D-14 1.00D-09 XBig12= 3.33D-05 6.27D-04.
    114 vectors produced by pass  5 Test12= 4.75D-14 1.00D-09 XBig12= 3.70D-07 6.66D-05.
    113 vectors produced by pass  6 Test12= 4.75D-14 1.00D-09 XBig12= 3.11D-09 4.19D-06.
     48 vectors produced by pass  7 Test12= 4.75D-14 1.00D-09 XBig12= 2.14D-11 3.22D-07.
      3 vectors produced by pass  8 Test12= 4.75D-14 1.00D-09 XBig12= 1.87D-13 2.49D-08.
      3 vectors produced by pass  9 Test12= 4.75D-14 1.00D-09 XBig12= 8.84D-15 6.59D-09.
      2 vectors produced by pass 10 Test12= 4.75D-14 1.00D-09 XBig12= 4.73D-16 1.55D-09.
 InvSVY:  IOpt=1 It=  1 EMax= 1.95D-14
 Solved reduced A of dimension   853 with   117 vectors.
 Isotropic polarizability for W=    0.000000      240.18 Bohr**3.
 End of Minotr F.D. properties file   721 does not exist.
 End of Minotr F.D. properties file   722 does not exist.
 End of Minotr F.D. properties file   788 does not exist.

 **********************************************************************

            Population analysis using the SCF density.

 **********************************************************************

 Orbital symmetries:
       Occupied  (A) (A) (A) (A) (A) (A) (A) (A) (A) (A) (A) (A)
                 (A) (A) (A) (A) (A) (A) (A) (A) (A) (A) (A) (A)
                 (A) (A) (A) (A) (A) (A) (A) (A) (A) (A) (A) (A)
                 (A) (A) (A) (A) (A) (A) (A) (A) (A) (A) (A) (A)
                 (A) (A) (A) (A) (A) (A) (A) (A) (A) (A) (A) (A)
                 (A) (A) (A) (A) (A) (A) (A) (A) (A) (A) (A) (A)
                 (A) (A) (A)
       Virtual   (A) (A) (A) (A) (A) (A) (A) (A) (A) (A) (A) (A)
                 (A) (A) (A) (A) (A) (A) (A) (A) (A) (A) (A) (A)
                 (A) (A) (A) (A) (A) (A) (A) (A) (A) (A) (A) (A)
                 (A) (A) (A) (A) (A) (A) (A) (A) (A) (A) (A) (A)
                 (A) (A) (A) (A) (A) (A) (A) (A) (A) (A) (A) (A)
                 (A) (A) (A) (A) (A) (A) (A) (A) (A) (A) (A) (A)
                 (A) (A) (A) (A) (A) (A) (A) (A) (A) (A) (A) (A)
                 (A) (A) (A) (A) (A) (A) (A) (A) (A) (A) (A) (A)
                 (A) (A) (A) (A) (A) (A) (A) (A) (A) (A) (A) (A)
                 (A) (A) (A) (A) (A) (A) (A) (A) (A) (A) (A) (A)
                 (A) (A) (A) (A) (A) (A) (A) (A) (A) (A) (A) (A)
                 (A) (A) (A) (A) (A) (A) (A) (A) (A) (A) (A) (A)
                 (A) (A) (A) (A) (A) (A) (A) (A) (A) (A) (A) (A)
                 (A) (A) (A) (A) (A) (A) (A) (A) (A) (A) (A) (A)
                 (A) (A) (A) (A) (A) (A) (A) (A) (A) (A) (A) (A)
                 (A) (A) (A) (A) (A) (A) (A) (A) (A) (A) (A) (A)
                 (A) (A) (A) (A) (A) (A) (A) (A) (A) (A) (A) (A)
                 (A) (A) (A) (A) (A) (A) (A) (A) (A) (A) (A) (A)
                 (A) (A) (A) (A) (A) (A) (A) (A) (A) (A) (A) (A)
                 (A) (A) (A) (A) (A) (A) (A) (A) (A) (A) (A) (A)
                 (A) (A) (A) (A) (A) (A) (A) (A) (A) (A) (A) (A)
                 (A) (A) (A) (A) (A) (A) (A) (A) (A) (A) (A) (A)
                 (A) (A) (A) (A) (A) (A) (A) (A) (A) (A) (A) (A)
                 (A) (A) (A) (A) (A) (A) (A) (A) (A) (A) (A) (A)
                 (A) (A) (A) (A) (A) (A) (A) (A) (A) (A) (A) (A)
                 (A) (A) (A) (A) (A) (A) (A) (A) (A) (A) (A) (A)
                 (A) (A) (A) (A) (A) (A) (A) (A) (A) (A) (A) (A)
                 (A) (A) (A) (A) (A) (A) (A) (A) (A) (A) (A) (A)
                 (A) (A) (A) (A) (A) (A) (A) (A) (A) (A) (A) (A)
                 (A) (A) (A) (A) (A) (A) (A) (A) (A) (A) (A) (A)
                 (A) (A) (A) (A) (A) (A) (A) (A) (A) (A) (A) (A)
                 (A) (A) (A) (A) (A) (A) (A) (A) (A) (A) (A) (A)
                 (A) (A) (A) (A) (A) (A) (A) (A) (A) (A) (A) (A)
                 (A) (A) (A) (A) (A) (A) (A) (A) (A) (A) (A) (A)
                 (A) (A) (A) (A) (A) (A) (A) (A) (A) (A) (A) (A)
                 (A) (A) (A) (A) (A) (A) (A) (A) (A) (A) (A) (A)
                 (A) (A) (A) (A) (A) (A) (A) (A) (A) (A) (A) (A)
                 (A) (A) (A) (A) (A) (A) (A) (A) (A) (A) (A) (A)
                 (A) (A) (A) (A) (A) (A) (A) (A) (A) (A) (A) (A)
                 (A) (A) (A) (A) (A) (A) (A) (A) (A) (A) (A) (A)
                 (A) (A) (A) (A) (A) (A) (A) (A) (A) (A) (A) (A)
                 (A) (A) (A) (A) (A) (A) (A) (A) (A) (A) (A) (A)
                 (A) (A) (A) (A) (A) (A) (A) (A) (A) (A) (A) (A)
                 (A) (A) (A) (A) (A) (A) (A) (A) (A) (A) (A) (A)
                 (A) (A) (A) (A) (A) (A) (A) (A) (A) (A) (A) (A)
                 (A) (A) (A) (A) (A) (A) (A) (A) (A) (A) (A) (A)
                 (A) (A) (A) (A) (A) (A) (A) (A) (A) (A) (A) (A)
                 (A) (A) (A) (A) (A) (A) (A) (A) (A) (A) (A) (A)
                 (A) (A) (A) (A) (A) (A) (A) (A) (A) (A) (A) (A)
                 (A) (A) (A) (A) (A) (A) (A) (A) (A) (A) (A) (A)
                 (A) (A) (A) (A) (A) (A) (A) (A) (A) (A) (A) (A)
                 (A) (A) (A) (A) (A) (A) (A) (A) (A) (A) (A) (A)
                 (A) (A) (A) (A) (A) (A) (A) (A) (A) (A)
 The electronic state is 1-A.
 Alpha  occ. eigenvalues -- -101.70067 -19.29652 -19.24254 -19.23723 -10.36786
 Alpha  occ. eigenvalues --  -10.36704 -10.35160 -10.31937 -10.31465 -10.30622
 Alpha  occ. eigenvalues --  -10.29907 -10.29870 -10.29803 -10.29746 -10.29706
 Alpha  occ. eigenvalues --  -10.29265 -10.27963 -10.27883 -10.27812  -9.58622
 Alpha  occ. eigenvalues --   -7.33262  -7.32403  -7.32383  -1.18744  -1.10593
 Alpha  occ. eigenvalues --   -1.10122  -1.01073  -0.96689  -0.94234  -0.92062
 Alpha  occ. eigenvalues --   -0.87117  -0.86125  -0.85424  -0.82201  -0.79613
 Alpha  occ. eigenvalues --   -0.74508  -0.73430  -0.71795  -0.69879  -0.65888
 Alpha  occ. eigenvalues --   -0.62742  -0.61544  -0.61182  -0.61090  -0.59631
 Alpha  occ. eigenvalues --   -0.58075  -0.57108  -0.56239  -0.53584  -0.53143
 Alpha  occ. eigenvalues --   -0.52974  -0.52547  -0.51718  -0.50944  -0.49376
 Alpha  occ. eigenvalues --   -0.48837  -0.48281  -0.47756  -0.47035  -0.46865
 Alpha  occ. eigenvalues --   -0.46430  -0.45669  -0.45243  -0.43998  -0.43448
 Alpha  occ. eigenvalues --   -0.43086  -0.40965  -0.40007  -0.39581  -0.39478
 Alpha  occ. eigenvalues --   -0.39222  -0.35736  -0.35271  -0.33775  -0.28873
 Alpha virt. eigenvalues --    0.00681   0.03081   0.06460   0.08506   0.09759
 Alpha virt. eigenvalues --    0.10404   0.11585   0.13025   0.13538   0.13917
 Alpha virt. eigenvalues --    0.14813   0.15130   0.16318   0.16766   0.17276
 Alpha virt. eigenvalues --    0.17565   0.18637   0.19169   0.19252   0.19972
 Alpha virt. eigenvalues --    0.20746   0.20954   0.21653   0.22090   0.22746
 Alpha virt. eigenvalues --    0.23359   0.23712   0.24753   0.25054   0.25206
 Alpha virt. eigenvalues --    0.25638   0.26513   0.27629   0.27973   0.28623
 Alpha virt. eigenvalues --    0.28792   0.29562   0.30044   0.31053   0.31242
 Alpha virt. eigenvalues --    0.31915   0.32556   0.32818   0.33300   0.33502
 Alpha virt. eigenvalues --    0.33979   0.34392   0.35303   0.35753   0.36771
 Alpha virt. eigenvalues --    0.36945   0.37306   0.37673   0.38055   0.39048
 Alpha virt. eigenvalues --    0.39455   0.40022   0.40306   0.40592   0.41822
 Alpha virt. eigenvalues --    0.42263   0.42592   0.43641   0.43875   0.44065
 Alpha virt. eigenvalues --    0.44346   0.44507   0.45644   0.45913   0.46093
 Alpha virt. eigenvalues --    0.46869   0.47173   0.47546   0.48143   0.48717
 Alpha virt. eigenvalues --    0.49091   0.49599   0.50114   0.50270   0.50344
 Alpha virt. eigenvalues --    0.50772   0.51954   0.52385   0.52427   0.53031
 Alpha virt. eigenvalues --    0.53627   0.53916   0.54256   0.54856   0.55266
 Alpha virt. eigenvalues --    0.55816   0.56078   0.56541   0.57031   0.57428
 Alpha virt. eigenvalues --    0.57871   0.58134   0.59145   0.59346   0.59745
 Alpha virt. eigenvalues --    0.60538   0.61343   0.61709   0.63142   0.64033
 Alpha virt. eigenvalues --    0.64558   0.65464   0.65689   0.66597   0.67209
 Alpha virt. eigenvalues --    0.68272   0.68442   0.68871   0.69094   0.69415
 Alpha virt. eigenvalues --    0.70368   0.70653   0.72541   0.72752   0.73685
 Alpha virt. eigenvalues --    0.74672   0.75282   0.76649   0.76975   0.77404
 Alpha virt. eigenvalues --    0.77926   0.78880   0.79113   0.79823   0.80368
 Alpha virt. eigenvalues --    0.81065   0.81953   0.82371   0.82591   0.83721
 Alpha virt. eigenvalues --    0.84216   0.84958   0.85770   0.86876   0.87328
 Alpha virt. eigenvalues --    0.88461   0.89229   0.89454   0.91390   0.91891
 Alpha virt. eigenvalues --    0.92671   0.94031   0.94337   0.94558   0.94932
 Alpha virt. eigenvalues --    0.95750   0.96542   0.97113   0.97782   0.99245
 Alpha virt. eigenvalues --    1.00708   1.01129   1.01829   1.02641   1.03395
 Alpha virt. eigenvalues --    1.03785   1.04528   1.07010   1.07736   1.08393
 Alpha virt. eigenvalues --    1.09498   1.10436   1.11044   1.11835   1.12779
 Alpha virt. eigenvalues --    1.13457   1.14285   1.15121   1.17492   1.18154
 Alpha virt. eigenvalues --    1.19745   1.20177   1.21176   1.21672   1.22631
 Alpha virt. eigenvalues --    1.22870   1.23432   1.24924   1.26176   1.27081
 Alpha virt. eigenvalues --    1.28145   1.28844   1.28988   1.29665   1.30595
 Alpha virt. eigenvalues --    1.31080   1.33241   1.33770   1.35099   1.35372
 Alpha virt. eigenvalues --    1.35838   1.36514   1.37032   1.38748   1.39245
 Alpha virt. eigenvalues --    1.40626   1.41306   1.42926   1.43602   1.44332
 Alpha virt. eigenvalues --    1.44615   1.45345   1.45651   1.47141   1.49381
 Alpha virt. eigenvalues --    1.50214   1.51235   1.51861   1.54532   1.55709
 Alpha virt. eigenvalues --    1.56395   1.56478   1.57736   1.58323   1.59498
 Alpha virt. eigenvalues --    1.60655   1.61269   1.62059   1.62416   1.63786
 Alpha virt. eigenvalues --    1.64346   1.65058   1.65572   1.66776   1.67413
 Alpha virt. eigenvalues --    1.67691   1.68628   1.69101   1.69544   1.70691
 Alpha virt. eigenvalues --    1.71418   1.72229   1.73130   1.73248   1.73676
 Alpha virt. eigenvalues --    1.74322   1.75615   1.76255   1.76685   1.77619
 Alpha virt. eigenvalues --    1.78326   1.78459   1.79347   1.80464   1.80639
 Alpha virt. eigenvalues --    1.81856   1.82281   1.82667   1.83174   1.85607
 Alpha virt. eigenvalues --    1.86647   1.87140   1.88345   1.89537   1.90349
 Alpha virt. eigenvalues --    1.91105   1.91477   1.93084   1.93271   1.93752
 Alpha virt. eigenvalues --    1.95372   1.96095   1.96657   1.97078   1.97876
 Alpha virt. eigenvalues --    1.98957   1.99922   2.00456   2.02181   2.02864
 Alpha virt. eigenvalues --    2.03916   2.05460   2.06110   2.07678   2.08120
 Alpha virt. eigenvalues --    2.08501   2.10748   2.11614   2.12175   2.12734
 Alpha virt. eigenvalues --    2.13841   2.15791   2.16155   2.16397   2.17461
 Alpha virt. eigenvalues --    2.18680   2.19154   2.20510   2.21176   2.21288
 Alpha virt. eigenvalues --    2.22205   2.22994   2.24053   2.25054   2.25698
 Alpha virt. eigenvalues --    2.26438   2.27171   2.27965   2.29142   2.29213
 Alpha virt. eigenvalues --    2.29691   2.30406   2.31331   2.31533   2.32748
 Alpha virt. eigenvalues --    2.33362   2.33715   2.34550   2.35538   2.36380
 Alpha virt. eigenvalues --    2.38834   2.39387   2.39911   2.40360   2.41553
 Alpha virt. eigenvalues --    2.42166   2.43185   2.44965   2.45207   2.45406
 Alpha virt. eigenvalues --    2.45930   2.46507   2.47420   2.48609   2.49392
 Alpha virt. eigenvalues --    2.50273   2.51716   2.53097   2.53405   2.54960
 Alpha virt. eigenvalues --    2.56081   2.56289   2.57513   2.59310   2.59867
 Alpha virt. eigenvalues --    2.60894   2.61374   2.62286   2.62599   2.65134
 Alpha virt. eigenvalues --    2.66102   2.66580   2.66925   2.68175   2.68903
 Alpha virt. eigenvalues --    2.69082   2.70018   2.70943   2.71374   2.72076
 Alpha virt. eigenvalues --    2.73586   2.74266   2.74548   2.74990   2.76991
 Alpha virt. eigenvalues --    2.77577   2.78066   2.78559   2.79015   2.79581
 Alpha virt. eigenvalues --    2.80654   2.80855   2.81667   2.82727   2.83159
 Alpha virt. eigenvalues --    2.83869   2.84146   2.85479   2.85935   2.87245
 Alpha virt. eigenvalues --    2.87353   2.88207   2.88675   2.89912   2.90090
 Alpha virt. eigenvalues --    2.90523   2.91598   2.92197   2.93277   2.93667
 Alpha virt. eigenvalues --    2.95996   2.97571   2.98130   2.98611   2.99362
 Alpha virt. eigenvalues --    2.99866   3.01559   3.01911   3.02419   3.03265
 Alpha virt. eigenvalues --    3.04440   3.04569   3.05468   3.06189   3.06748
 Alpha virt. eigenvalues --    3.08074   3.08521   3.08752   3.10231   3.10612
 Alpha virt. eigenvalues --    3.11557   3.12566   3.13506   3.13729   3.14412
 Alpha virt. eigenvalues --    3.15545   3.16957   3.18421   3.19390   3.20574
 Alpha virt. eigenvalues --    3.21597   3.22644   3.23127   3.23665   3.24331
 Alpha virt. eigenvalues --    3.25423   3.26238   3.26746   3.27262   3.28686
 Alpha virt. eigenvalues --    3.29955   3.30852   3.31027   3.31248   3.32278
 Alpha virt. eigenvalues --    3.33664   3.33851   3.34685   3.35636   3.35943
 Alpha virt. eigenvalues --    3.36237   3.37658   3.38218   3.38851   3.39710
 Alpha virt. eigenvalues --    3.40434   3.41055   3.41805   3.42536   3.44606
 Alpha virt. eigenvalues --    3.45336   3.45787   3.46173   3.47165   3.47592
 Alpha virt. eigenvalues --    3.48191   3.49141   3.49777   3.50044   3.50840
 Alpha virt. eigenvalues --    3.52137   3.54503   3.55205   3.56282   3.56637
 Alpha virt. eigenvalues --    3.57607   3.57933   3.58187   3.59621   3.60254
 Alpha virt. eigenvalues --    3.60728   3.62014   3.62756   3.63520   3.63937
 Alpha virt. eigenvalues --    3.64762   3.65992   3.67956   3.68601   3.70328
 Alpha virt. eigenvalues --    3.71347   3.72103   3.72577   3.74758   3.75053
 Alpha virt. eigenvalues --    3.76264   3.78388   3.80125   3.81126   3.82000
 Alpha virt. eigenvalues --    3.84630   3.85001   3.86956   3.88309   3.88515
 Alpha virt. eigenvalues --    3.91286   3.94088   3.95842   3.96714   3.98526
 Alpha virt. eigenvalues --    3.99560   4.00788   4.01756   4.04177   4.05320
 Alpha virt. eigenvalues --    4.06517   4.07838   4.08027   4.10131   4.10564
 Alpha virt. eigenvalues --    4.12094   4.12383   4.15316   4.16472   4.18172
 Alpha virt. eigenvalues --    4.18699   4.18949   4.20441   4.21928   4.23581
 Alpha virt. eigenvalues --    4.25236   4.25737   4.26501   4.27555   4.28295
 Alpha virt. eigenvalues --    4.29639   4.31430   4.33977   4.35025   4.36004
 Alpha virt. eigenvalues --    4.36651   4.37963   4.41214   4.42343   4.42851
 Alpha virt. eigenvalues --    4.45697   4.46322   4.47105   4.50276   4.53328
 Alpha virt. eigenvalues --    4.53983   4.54950   4.55426   4.58377   4.58732
 Alpha virt. eigenvalues --    4.59427   4.61957   4.64788   4.68299   4.72005
 Alpha virt. eigenvalues --    4.76099   4.77806   4.79261   4.81854   4.83178
 Alpha virt. eigenvalues --    4.85640   4.86903   4.87961   4.88913   4.90612
 Alpha virt. eigenvalues --    4.91941   4.95198   5.01209   5.02371   5.05367
 Alpha virt. eigenvalues --    5.06704   5.09484   5.15577   5.19013   5.20234
 Alpha virt. eigenvalues --    5.20316   5.22757   5.23973   5.27545   5.30265
 Alpha virt. eigenvalues --    5.31035   5.31707   5.36010   5.38483   5.42114
 Alpha virt. eigenvalues --    5.45208   5.48296   5.49190   5.49450   5.53231
 Alpha virt. eigenvalues --    5.53969   5.55974   5.56464   5.58494   5.70883
 Alpha virt. eigenvalues --    5.72227   5.82152   5.86205   5.96870   6.11210
 Alpha virt. eigenvalues --    6.16063   6.18519   6.19513   6.34425   6.37756
 Alpha virt. eigenvalues --    6.44129   6.44841   6.47790   6.48575   6.54943
 Alpha virt. eigenvalues --    6.55645   6.56556   6.75864   6.77830   7.00153
 Alpha virt. eigenvalues --    7.02782   7.05114   7.09387   7.17971   7.18045
 Alpha virt. eigenvalues --    7.50130   7.69270  10.83968  10.95166  11.48992
 Alpha virt. eigenvalues --   22.19945  22.39286  22.53602  22.56422  22.69736
 Alpha virt. eigenvalues --   22.77456  22.82292  22.85875  22.89690  22.93631
 Alpha virt. eigenvalues --   22.98753  23.08205  23.13014  23.30915  23.81424
 Alpha virt. eigenvalues --   26.11377  43.61519  43.73764  44.78287
          Condensed to atoms (all electrons):
               1          2          3          4          5          6
     1  C    5.097287   0.293672   0.168906  -0.239835   0.197506   0.254073
     2  C    0.293672   5.492117   0.157238   0.087542  -0.310892   0.152220
     3  C    0.168906   0.157238   6.633846  -0.968509   0.158003  -0.172391
     4  C   -0.239835   0.087542  -0.968509   7.146991  -0.006912   0.142877
     5  C    0.197506  -0.310892   0.158003  -0.006912   5.909848   0.254728
     6  C    0.254073   0.152220  -0.172391   0.142877   0.254728   5.058317
     7  H    0.462433  -0.064333   0.016393  -0.004991   0.016723  -0.066581
     8  H   -0.047859   0.458141  -0.076077   0.031055  -0.007167   0.012477
     9  H    0.013065  -0.007095   0.025722  -0.073944   0.463535  -0.038153
    10  H   -0.066209   0.015638  -0.004463   0.018435  -0.069556   0.465609
    11  C   -0.037046   0.106946   0.088621  -0.009381  -0.453877   0.048872
    12  C    0.038637  -0.245555   0.092985   0.089181   0.093775  -0.024086
    13  C    0.001989  -0.024903  -0.352461   0.316748   0.049357  -0.003540
    14  H   -0.000002   0.000068  -0.004444   0.006703  -0.000062  -0.000011
    15  C   -0.000952   0.046273   0.307627  -0.345659  -0.021517   0.002168
    16  H    0.000002   0.000193   0.025317  -0.007955  -0.000048   0.000011
    17  O    0.000254  -0.000560   0.006225  -0.118430   0.031038   0.002365
    18  Cl  -0.001085   0.020890  -0.140746   0.022266  -0.001018   0.000696
    19  C   -0.000047   0.000108   0.001426  -0.019487  -0.006412   0.000043
    20  C   -0.000065   0.000164  -0.000393  -0.000217  -0.004313   0.000203
    21  H    0.000000   0.000001   0.000002  -0.000234  -0.000028   0.000000
    22  C    0.000019  -0.000044  -0.000325   0.001973   0.001939  -0.000082
    23  H    0.000000   0.000001  -0.000002  -0.000109  -0.000074   0.000001
    24  H    0.000000   0.000000   0.000373  -0.001264  -0.000163   0.000001
    25  H   -0.000010   0.000024   0.000094  -0.001105  -0.001079   0.000051
    26  C    0.000003  -0.000013   0.000168   0.003643   0.000889  -0.000057
    27  H   -0.000001   0.000002  -0.000046  -0.000328   0.000021   0.000034
    28  H    0.000000   0.000000  -0.000008  -0.000119   0.000079   0.000001
    29  H   -0.000001  -0.000001   0.000054   0.000195  -0.000397   0.000004
    30  C    0.000044  -0.000077   0.005008  -0.004168   0.000625  -0.000109
    31  H    0.000000  -0.000002   0.000025   0.000268   0.000032  -0.000001
    32  H    0.000007  -0.000054  -0.003520  -0.003615   0.001726  -0.000015
    33  O    0.000309   0.000201   0.001345   0.020675   0.002629  -0.000154
    34  H    0.000026   0.000051   0.014528  -0.006104  -0.001325   0.000141
    35  H    0.000414  -0.000815   0.006433   0.005990  -0.000049   0.000525
    36  O    0.000525  -0.000069  -0.000807  -0.002750   0.010363  -0.003211
    37  H   -0.000349   0.000322   0.000002   0.002495   0.002162   0.000704
    38  H    0.000475  -0.000625   0.000806  -0.000788   0.018638  -0.001536
               7          8          9         10         11         12
     1  C    0.462433  -0.047859   0.013065  -0.066209  -0.037046   0.038637
     2  C   -0.064333   0.458141  -0.007095   0.015638   0.106946  -0.245555
     3  C    0.016393  -0.076077   0.025722  -0.004463   0.088621   0.092985
     4  C   -0.004991   0.031055  -0.073944   0.018435  -0.009381   0.089181
     5  C    0.016723  -0.007167   0.463535  -0.069556  -0.453877   0.093775
     6  C   -0.066581   0.012477  -0.038153   0.465609   0.048872  -0.024086
     7  H    0.509370  -0.006823  -0.000013  -0.007219  -0.000104  -0.000013
     8  H   -0.006823   0.503081  -0.000034  -0.000056   0.001529  -0.030845
     9  H   -0.000013  -0.000034   0.463630  -0.006469  -0.035046   0.001269
    10  H   -0.007219  -0.000056  -0.006469   0.508182   0.000233  -0.000038
    11  C   -0.000104   0.001529  -0.035046   0.000233   5.770244  -0.262614
    12  C   -0.000013  -0.030845   0.001269  -0.000038  -0.262614   5.503348
    13  C    0.000035  -0.000286  -0.001394  -0.000028   0.077228   0.201696
    14  H    0.000000   0.000003  -0.000044   0.000000  -0.095270   0.013032
    15  C   -0.000038   0.000311   0.000174   0.000012   0.162598   0.191063
    16  H    0.000000   0.000008   0.000002   0.000000   0.018812  -0.090424
    17  O   -0.000001   0.000004   0.015700  -0.000047   0.254044   0.000473
    18  Cl  -0.000128   0.020335   0.000000   0.000001  -0.004493   0.326579
    19  C    0.000000   0.000001  -0.000277   0.000007  -0.075185  -0.000364
    20  C    0.000000   0.000000  -0.001004   0.000003   0.062791  -0.000686
    21  H    0.000000   0.000000  -0.000010   0.000000   0.001047   0.000002
    22  C    0.000000   0.000000   0.000223  -0.000001  -0.012778  -0.000299
    23  H    0.000000   0.000000  -0.000017   0.000000   0.002243   0.000003
    24  H    0.000000   0.000000  -0.000018   0.000000  -0.005605  -0.000488
    25  H    0.000000   0.000000  -0.000014   0.000000   0.004432  -0.000125
    26  C    0.000000   0.000000  -0.000529   0.000003  -0.000308  -0.000039
    27  H    0.000000   0.000000   0.000258   0.000000   0.000934   0.000005
    28  H    0.000000   0.000000   0.000088   0.000000   0.000336   0.000003
    29  H    0.000000   0.000000  -0.000015   0.000001  -0.003730  -0.000001
    30  C    0.000000  -0.000002   0.000513  -0.000001   0.001020  -0.001129
    31  H    0.000000   0.000000   0.000009   0.000000  -0.000896   0.000007
    32  H    0.000000   0.000002  -0.000098  -0.000004   0.003651   0.000751
    33  O   -0.000001  -0.000205  -0.000383  -0.000002  -0.014807  -0.004601
    34  H   -0.000002  -0.000052   0.000019   0.000002   0.002683  -0.005762
    35  H   -0.000001  -0.000060   0.000027   0.000018  -0.008102  -0.000638
    36  O    0.000002   0.000000   0.001874  -0.000158   0.007593  -0.000344
    37  H   -0.000003   0.000001  -0.001000   0.000059   0.000803  -0.000178
    38  H    0.000001  -0.000002   0.001037  -0.000054  -0.019445   0.000506
              13         14         15         16         17         18
     1  C    0.001989  -0.000002  -0.000952   0.000002   0.000254  -0.001085
     2  C   -0.024903   0.000068   0.046273   0.000193  -0.000560   0.020890
     3  C   -0.352461  -0.004444   0.307627   0.025317   0.006225  -0.140746
     4  C    0.316748   0.006703  -0.345659  -0.007955  -0.118430   0.022266
     5  C    0.049357  -0.000062  -0.021517  -0.000048   0.031038  -0.001018
     6  C   -0.003540  -0.000011   0.002168   0.000011   0.002365   0.000696
     7  H    0.000035   0.000000  -0.000038   0.000000  -0.000001  -0.000128
     8  H   -0.000286   0.000003   0.000311   0.000008   0.000004   0.020335
     9  H   -0.001394  -0.000044   0.000174   0.000002   0.015700   0.000000
    10  H   -0.000028   0.000000   0.000012   0.000000  -0.000047   0.000001
    11  C    0.077228  -0.095270   0.162598   0.018812   0.254044  -0.004493
    12  C    0.201696   0.013032   0.191063  -0.090424   0.000473   0.326579
    13  C    5.529345   0.471518   0.131593  -0.054386  -0.069273   0.018979
    14  H    0.471518   0.483460  -0.026242  -0.006904  -0.002168  -0.000263
    15  C    0.131593  -0.026242   5.383658   0.463995   0.004499  -0.041717
    16  H   -0.054386  -0.006904   0.463995   0.501529  -0.000120   0.002167
    17  O   -0.069273  -0.002168   0.004499  -0.000120   8.125452   0.000002
    18  Cl   0.018979  -0.000263  -0.041717   0.002167   0.000002  16.874955
    19  C    0.042085   0.013421   0.000812   0.000106   0.211536  -0.000010
    20  C   -0.037237  -0.011034  -0.003465   0.000014  -0.071310   0.000005
    21  H   -0.000874   0.000207  -0.000106  -0.000002   0.003143   0.000000
    22  C   -0.002572  -0.005907   0.004546   0.000017  -0.033367   0.000002
    23  H   -0.000458   0.000386  -0.000134  -0.000001   0.004142   0.000000
    24  H   -0.003544  -0.001228   0.004349   0.000064  -0.000895   0.000001
    25  H   -0.002530  -0.000335   0.000093   0.000004  -0.005541   0.000000
    26  C   -0.002490   0.000248   0.000214   0.000002  -0.050740   0.000000
    27  H    0.000002  -0.000004  -0.000027   0.000000   0.000257   0.000000
    28  H    0.000244   0.000068  -0.000014   0.000000   0.004882   0.000000
    29  H   -0.000147  -0.000064   0.000023   0.000000  -0.004569   0.000000
    30  C   -0.027626  -0.001217   0.004275   0.000054   0.016138   0.000000
    31  H    0.000023   0.000055   0.000002   0.000000   0.000446   0.000000
    32  H   -0.002508  -0.000145  -0.000770  -0.000005   0.005059  -0.000002
    33  O    0.003598   0.000096   0.001655   0.000022  -0.000338   0.000016
    34  H   -0.003352  -0.000151   0.006539   0.000018  -0.000105   0.000191
    35  H    0.000806   0.000015   0.000347  -0.000003  -0.000040   0.000021
    36  O    0.001263   0.000025  -0.000019   0.000002  -0.017391   0.000000
    37  H   -0.000081   0.000001   0.000062   0.000001  -0.000029   0.000000
    38  H    0.000804   0.000084  -0.000492  -0.000004   0.033468  -0.000001
              19         20         21         22         23         24
     1  C   -0.000047  -0.000065   0.000000   0.000019   0.000000   0.000000
     2  C    0.000108   0.000164   0.000001  -0.000044   0.000001   0.000000
     3  C    0.001426  -0.000393   0.000002  -0.000325  -0.000002   0.000373
     4  C   -0.019487  -0.000217  -0.000234   0.001973  -0.000109  -0.001264
     5  C   -0.006412  -0.004313  -0.000028   0.001939  -0.000074  -0.000163
     6  C    0.000043   0.000203   0.000000  -0.000082   0.000001   0.000001
     7  H    0.000000   0.000000   0.000000   0.000000   0.000000   0.000000
     8  H    0.000001   0.000000   0.000000   0.000000   0.000000   0.000000
     9  H   -0.000277  -0.001004  -0.000010   0.000223  -0.000017  -0.000018
    10  H    0.000007   0.000003   0.000000  -0.000001   0.000000   0.000000
    11  C   -0.075185   0.062791   0.001047  -0.012778   0.002243  -0.005605
    12  C   -0.000364  -0.000686   0.000002  -0.000299   0.000003  -0.000488
    13  C    0.042085  -0.037237  -0.000874  -0.002572  -0.000458  -0.003544
    14  H    0.013421  -0.011034   0.000207  -0.005907   0.000386  -0.001228
    15  C    0.000812  -0.003465  -0.000106   0.004546  -0.000134   0.004349
    16  H    0.000106   0.000014  -0.000002   0.000017  -0.000001   0.000064
    17  O    0.211536  -0.071310   0.003143  -0.033367   0.004142  -0.000895
    18  Cl  -0.000010   0.000005   0.000000   0.000002   0.000000   0.000001
    19  C    5.012204   0.177263  -0.039698   0.338119  -0.021996  -0.025537
    20  C    0.177263   5.513233   0.415840  -0.082059  -0.004505  -0.012829
    21  H   -0.039698   0.415840   0.499793  -0.003342   0.002755  -0.000787
    22  C    0.338119  -0.082059  -0.003342   5.042401   0.402775   0.414151
    23  H   -0.021996  -0.004505   0.002755   0.402775   0.519739  -0.022519
    24  H   -0.025537  -0.012829  -0.000787   0.414151  -0.022519   0.521717
    25  H   -0.024509   0.014933   0.000047   0.401990  -0.014357  -0.016751
    26  C    0.294510  -0.080028  -0.001440  -0.069097  -0.011667   0.011036
    27  H   -0.035337  -0.008202   0.000505   0.009720   0.000179  -0.000303
    28  H   -0.019684  -0.014386  -0.000023  -0.006336   0.001616  -0.000175
    29  H   -0.026048   0.014125  -0.000175  -0.010329  -0.000295  -0.000011
    30  C   -0.002437   0.448227  -0.025576   0.008466  -0.001628   0.001400
    31  H    0.005348  -0.051218  -0.006639  -0.000229  -0.000034   0.000010
    32  H    0.001627  -0.052719   0.003244   0.000407  -0.000015  -0.000071
    33  O    0.000088   0.000069  -0.000008   0.000029   0.000000   0.000002
    34  H    0.000114  -0.000795  -0.000008  -0.000002   0.000000   0.000003
    35  H   -0.000056  -0.000051   0.000001  -0.000001   0.000000   0.000000
    36  O    0.003557  -0.000046   0.000004  -0.007015   0.000298  -0.000003
    37  H   -0.001052   0.000009   0.000000   0.000623  -0.000003  -0.000009
    38  H   -0.008694   0.001552  -0.000024   0.000579   0.000005   0.000185
              25         26         27         28         29         30
     1  C   -0.000010   0.000003  -0.000001   0.000000  -0.000001   0.000044
     2  C    0.000024  -0.000013   0.000002   0.000000  -0.000001  -0.000077
     3  C    0.000094   0.000168  -0.000046  -0.000008   0.000054   0.005008
     4  C   -0.001105   0.003643  -0.000328  -0.000119   0.000195  -0.004168
     5  C   -0.001079   0.000889   0.000021   0.000079  -0.000397   0.000625
     6  C    0.000051  -0.000057   0.000034   0.000001   0.000004  -0.000109
     7  H    0.000000   0.000000   0.000000   0.000000   0.000000   0.000000
     8  H    0.000000   0.000000   0.000000   0.000000   0.000000  -0.000002
     9  H   -0.000014  -0.000529   0.000258   0.000088  -0.000015   0.000513
    10  H    0.000000   0.000003   0.000000   0.000000   0.000001  -0.000001
    11  C    0.004432  -0.000308   0.000934   0.000336  -0.003730   0.001020
    12  C   -0.000125  -0.000039   0.000005   0.000003  -0.000001  -0.001129
    13  C   -0.002530  -0.002490   0.000002   0.000244  -0.000147  -0.027626
    14  H   -0.000335   0.000248  -0.000004   0.000068  -0.000064  -0.001217
    15  C    0.000093   0.000214  -0.000027  -0.000014   0.000023   0.004275
    16  H    0.000004   0.000002   0.000000   0.000000   0.000000   0.000054
    17  O   -0.005541  -0.050740   0.000257   0.004882  -0.004569   0.016138
    18  Cl   0.000000   0.000000   0.000000   0.000000   0.000000   0.000000
    19  C   -0.024509   0.294510  -0.035337  -0.019684  -0.026048  -0.002437
    20  C    0.014933  -0.080028  -0.008202  -0.014386   0.014125   0.448227
    21  H    0.000047  -0.001440   0.000505  -0.000023  -0.000175  -0.025576
    22  C    0.401990  -0.069097   0.009720  -0.006336  -0.010329   0.008466
    23  H   -0.014357  -0.011667   0.000179   0.001616  -0.000295  -0.001628
    24  H   -0.016751   0.011036  -0.000303  -0.000175  -0.000011   0.001400
    25  H    0.495532  -0.013291   0.000133   0.000041   0.002421  -0.000387
    26  C   -0.013291   5.068907   0.409827   0.411791   0.404069  -0.008896
    27  H    0.000133   0.409827   0.512379  -0.017229  -0.018659   0.002511
    28  H    0.000041   0.411791  -0.017229   0.520364  -0.020268   0.000889
    29  H    0.002421   0.404069  -0.018659  -0.020268   0.511992   0.000351
    30  C   -0.000387  -0.008896   0.002511   0.000889   0.000351   5.066062
    31  H    0.000001  -0.000081  -0.000067  -0.000009   0.000018   0.430454
    32  H    0.000025  -0.001030   0.000482  -0.000036   0.000039   0.417010
    33  O    0.000000   0.000035  -0.000001   0.000000   0.000000  -0.007881
    34  H    0.000000   0.000000  -0.000001   0.000000   0.000000   0.002626
    35  H    0.000000  -0.000002   0.000000   0.000000   0.000000   0.000337
    36  O    0.011525  -0.004116   0.000006   0.000030   0.003095   0.000002
    37  H   -0.000179   0.000405   0.000002  -0.000004  -0.000214  -0.000001
    38  H   -0.004932   0.001784  -0.000682   0.000097  -0.000609  -0.000155
              31         32         33         34         35         36
     1  C    0.000000   0.000007   0.000309   0.000026   0.000414   0.000525
     2  C   -0.000002  -0.000054   0.000201   0.000051  -0.000815  -0.000069
     3  C    0.000025  -0.003520   0.001345   0.014528   0.006433  -0.000807
     4  C    0.000268  -0.003615   0.020675  -0.006104   0.005990  -0.002750
     5  C    0.000032   0.001726   0.002629  -0.001325  -0.000049   0.010363
     6  C   -0.000001  -0.000015  -0.000154   0.000141   0.000525  -0.003211
     7  H    0.000000   0.000000  -0.000001  -0.000002  -0.000001   0.000002
     8  H    0.000000   0.000002  -0.000205  -0.000052  -0.000060   0.000000
     9  H    0.000009  -0.000098  -0.000383   0.000019   0.000027   0.001874
    10  H    0.000000  -0.000004  -0.000002   0.000002   0.000018  -0.000158
    11  C   -0.000896   0.003651  -0.014807   0.002683  -0.008102   0.007593
    12  C    0.000007   0.000751  -0.004601  -0.005762  -0.000638  -0.000344
    13  C    0.000023  -0.002508   0.003598  -0.003352   0.000806   0.001263
    14  H    0.000055  -0.000145   0.000096  -0.000151   0.000015   0.000025
    15  C    0.000002  -0.000770   0.001655   0.006539   0.000347  -0.000019
    16  H    0.000000  -0.000005   0.000022   0.000018  -0.000003   0.000002
    17  O    0.000446   0.005059  -0.000338  -0.000105  -0.000040  -0.017391
    18  Cl   0.000000  -0.000002   0.000016   0.000191   0.000021   0.000000
    19  C    0.005348   0.001627   0.000088   0.000114  -0.000056   0.003557
    20  C   -0.051218  -0.052719   0.000069  -0.000795  -0.000051  -0.000046
    21  H   -0.006639   0.003244  -0.000008  -0.000008   0.000001   0.000004
    22  C   -0.000229   0.000407   0.000029  -0.000002  -0.000001  -0.007015
    23  H   -0.000034  -0.000015   0.000000   0.000000   0.000000   0.000298
    24  H    0.000010  -0.000071   0.000002   0.000003   0.000000  -0.000003
    25  H    0.000001   0.000025   0.000000   0.000000   0.000000   0.011525
    26  C   -0.000081  -0.001030   0.000035   0.000000  -0.000002  -0.004116
    27  H   -0.000067   0.000482  -0.000001  -0.000001   0.000000   0.000006
    28  H   -0.000009  -0.000036   0.000000   0.000000   0.000000   0.000030
    29  H    0.000018   0.000039   0.000000   0.000000   0.000000   0.003095
    30  C    0.430454   0.417010  -0.007881   0.002626   0.000337   0.000002
    31  H    0.488850  -0.018213  -0.000458   0.000104  -0.000004   0.000000
    32  H   -0.018213   0.464566   0.015939  -0.003212  -0.000010   0.000001
    33  O   -0.000458   0.015939   7.978252   0.321679   0.321706   0.000000
    34  H    0.000104  -0.003212   0.321679   0.363915  -0.029941   0.000000
    35  H   -0.000004  -0.000010   0.321706  -0.029941   0.355422   0.000000
    36  O    0.000000   0.000001   0.000000   0.000000   0.000000   8.001666
    37  H    0.000000  -0.000001   0.000000   0.000000   0.000000   0.315268
    38  H    0.000000  -0.000027   0.000004   0.000001   0.000001   0.315847
              37         38
     1  C   -0.000349   0.000475
     2  C    0.000322  -0.000625
     3  C    0.000002   0.000806
     4  C    0.002495  -0.000788
     5  C    0.002162   0.018638
     6  C    0.000704  -0.001536
     7  H   -0.000003   0.000001
     8  H    0.000001  -0.000002
     9  H   -0.001000   0.001037
    10  H    0.000059  -0.000054
    11  C    0.000803  -0.019445
    12  C   -0.000178   0.000506
    13  C   -0.000081   0.000804
    14  H    0.000001   0.000084
    15  C    0.000062  -0.000492
    16  H    0.000001  -0.000004
    17  O   -0.000029   0.033468
    18  Cl   0.000000  -0.000001
    19  C   -0.001052  -0.008694
    20  C    0.000009   0.001552
    21  H    0.000000  -0.000024
    22  C    0.000623   0.000579
    23  H   -0.000003   0.000005
    24  H   -0.000009   0.000185
    25  H   -0.000179  -0.004932
    26  C    0.000405   0.001784
    27  H    0.000002  -0.000682
    28  H   -0.000004   0.000097
    29  H   -0.000214  -0.000609
    30  C   -0.000001  -0.000155
    31  H    0.000000   0.000000
    32  H   -0.000001  -0.000027
    33  O    0.000000   0.000004
    34  H    0.000000   0.000001
    35  H    0.000000   0.000001
    36  O    0.315268   0.315847
    37  H    0.370283  -0.030241
    38  H   -0.030241   0.386631
 Mulliken charges:
               1
     1  C   -0.136186
     2  C   -0.176775
     3  C    0.013046
     4  C   -0.081136
     5  C   -0.328726
     6  C   -0.086196
     7  H    0.145293
     8  H    0.142518
     9  H    0.178414
    10  H    0.146101
    11  C    0.422027
    12  C    0.114913
    13  C   -0.257622
    14  H    0.166104
    15  C   -0.275736
    16  H    0.147514
    17  O   -0.344206
    18  Cl  -0.097642
    19  C    0.204456
    20  C   -0.211868
    21  H    0.152386
    22  C   -0.394193
    23  H    0.143670
    24  H    0.138911
    25  H    0.153797
    26  C   -0.363711
    27  H    0.143628
    28  H    0.137763
    29  H    0.149146
    30  C   -0.324718
    31  H    0.152199
    32  H    0.171534
    33  O   -0.639507
    34  H    0.338172
    35  H    0.347708
    36  O   -0.637023
    37  H    0.340140
    38  H    0.305805
 Sum of Mulliken charges =   0.00000
 Mulliken charges with hydrogens summed into heavy atoms:
               1
     1  C    0.009107
     2  C   -0.034257
     3  C    0.013046
     4  C   -0.081136
     5  C   -0.150312
     6  C    0.059906
    11  C    0.422027
    12  C    0.114913
    13  C   -0.091518
    15  C   -0.128222
    17  O   -0.344206
    18  Cl  -0.097642
    19  C    0.204456
    20  C   -0.059483
    22  C    0.042185
    26  C    0.066826
    30  C   -0.000985
    33  O    0.046373
    36  O    0.008922
 APT charges:
               1
     1  C    0.000007
     2  C   -0.091866
     3  C    0.011156
     4  C   -0.071244
     5  C   -0.087063
     6  C   -0.043122
     7  H    0.051267
     8  H    0.074681
     9  H    0.080383
    10  H    0.052734
    11  C    0.752772
    12  C    0.294812
    13  C   -0.233776
    14  H    0.072012
    15  C    0.014073
    16  H    0.076617
    17  O   -1.232227
    18  Cl  -0.363368
    19  C    0.770293
    20  C   -0.056961
    21  H    0.034117
    22  C   -0.081015
    23  H    0.007521
    24  H    0.017413
    25  H    0.022117
    26  C   -0.032584
    27  H    0.013279
    28  H    0.007774
    29  H    0.004184
    30  C   -0.147198
    31  H    0.050520
    32  H    0.077101
    33  O   -0.558078
    34  H    0.260958
    35  H    0.259849
    36  O   -0.628733
    37  H    0.273335
    38  H    0.348262
 Sum of APT charges =   0.00000
 APT charges with hydrogens summed into heavy atoms:
               1
     1  C    0.051274
     2  C   -0.017185
     3  C    0.011156
     4  C   -0.071244
     5  C   -0.006680
     6  C    0.009612
    11  C    0.752772
    12  C    0.294812
    13  C   -0.161764
    15  C    0.090691
    17  O   -1.232227
    18  Cl  -0.363368
    19  C    0.770293
    20  C   -0.022844
    22  C   -0.033965
    26  C   -0.007348
    30  C   -0.019577
    33  O   -0.037272
    36  O   -0.007137
 Electronic spatial extent (au):  <R**2>=           5720.2104
 Charge=              0.0000 electrons
 Dipole moment (field-independent basis, Debye):
    X=              1.5742    Y=             -0.1738    Z=             -0.6294  Tot=              1.7042
 Quadrupole moment (field-independent basis, Debye-Ang):
   XX=           -114.4285   YY=           -116.9002   ZZ=           -133.9450
   XY=            -16.5888   XZ=              1.2509   YZ=             13.2911
 Traceless Quadrupole moment (field-independent basis, Debye-Ang):
   XX=              7.3294   YY=              4.8577   ZZ=            -12.1871
   XY=            -16.5888   XZ=              1.2509   YZ=             13.2911
 Octapole moment (field-independent basis, Debye-Ang**2):
  XXX=             34.1969  YYY=             -8.2618  ZZZ=            -24.0813  XYY=            -20.6063
  XXY=             -1.5113  XXZ=              7.1203  XZZ=              1.7666  YZZ=              9.5410
  YYZ=             13.9273  XYZ=              5.3836
 Hexadecapole moment (field-independent basis, Debye-Ang**3):
 XXXX=          -4271.2448 YYYY=          -1871.5003 ZZZZ=          -1263.7624 XXXY=           -101.2878
 XXXZ=            -61.3580 YYYX=            -86.7867 YYYZ=             65.1906 ZZZX=             39.7912
 ZZZY=             57.1930 XXYY=          -1075.4828 XXZZ=           -990.6078 YYZZ=           -528.5247
 XXYZ=             56.2073 YYXZ=             40.1680 ZZXY=            -46.0496
 N-N= 1.625812683999D+03 E-N=-6.230684819376D+03  KE= 1.264500966261D+03
  Exact polarizability: 287.273 -10.060 252.262  -4.645  30.548 181.018
 Approx polarizability: 261.466  -5.384 249.134  -4.189  31.254 187.913
   1 Symmetry operations used in ECPInt.
 ECPInt:  NShTT=   41328 NPrTT=  126240 LenC2=   37545 LenP2D=   82230.
 LDataN:  DoStor=T MaxTD1= 8 Len=  415
 D2PCM: PCM CHGder 2nd derivatives, FixD1E=F FixD2E=F DoIter=F DoCFld=F I1PDM=0
 Calling FoFJK, ICntrl=    100127 FMM=F ISym2X=0 I1Cent= 0 IOpClX= 0 NMat=1 NMatS=1 NMatT=0.
 Full mass-weighted force constant matrix:
 Low frequencies ---  -10.4029   -0.0020    0.0006    0.0010    9.5181   15.1090
 Low frequencies ---   33.9052   41.9234   43.9161
 Diagonal vibrational polarizability:
      169.7006450     137.2456091     154.5241756
 Harmonic frequencies (cm**-1), IR intensities (KM/Mole), Raman scattering
 activities (A**4/AMU), depolarization ratios for plane and unpolarized
 incident light, reduced masses (AMU), force constants (mDyne/A),
 and normal coordinates:
                      1                      2                      3
                      A                      A                      A
 Frequencies --     33.8334                41.5933                43.5684
 Red. masses --      6.3787                 6.9535                 5.3394
 Frc consts  --      0.0043                 0.0071                 0.0060
 IR Inten    --      1.0076                 3.5503                 0.7071
  Atom  AN      X      Y      Z        X      Y      Z        X      Y      Z
     1   6     0.02   0.07  -0.04     0.03  -0.06   0.18     0.01   0.09  -0.15
     2   6     0.02   0.05   0.00     0.03  -0.02   0.11     0.01   0.08  -0.12
     3   6     0.01   0.04   0.02     0.03   0.01   0.03     0.00   0.03  -0.01
     4   6     0.01   0.04  -0.01     0.03   0.00   0.03     0.00  -0.01   0.06
     5   6     0.02   0.06  -0.05     0.04  -0.03   0.09     0.00   0.00   0.04
     6   6     0.03   0.07  -0.07     0.04  -0.06   0.17     0.01   0.05  -0.06
     7   1     0.03   0.08  -0.06     0.04  -0.08   0.25     0.02   0.13  -0.23
     8   1     0.01   0.04   0.02     0.03  -0.02   0.11     0.01   0.11  -0.18
     9   1     0.02   0.07  -0.07     0.04  -0.04   0.07     0.00  -0.03   0.10
    10   1     0.03   0.09  -0.10     0.04  -0.09   0.22     0.01   0.06  -0.08
    11   6     0.01   0.04  -0.01     0.03   0.02  -0.02     0.00  -0.04   0.13
    12   6     0.01   0.02   0.05     0.03   0.04  -0.05     0.00   0.02   0.01
    13   6     0.01   0.03   0.01     0.03   0.03  -0.06    -0.01  -0.05   0.16
    14   1     0.01   0.03   0.01     0.03   0.04  -0.08    -0.02  -0.08   0.22
    15   6     0.00   0.02   0.04     0.03   0.05  -0.08    -0.01  -0.02   0.11
    16   1     0.00   0.01   0.07     0.02   0.07  -0.13    -0.01  -0.03   0.13
    17   8     0.01   0.04  -0.03     0.03   0.02  -0.03     0.00  -0.05   0.15
    18  17     0.00   0.00   0.11     0.03   0.07  -0.10     0.01   0.07  -0.10
    19   6     0.01   0.03   0.02     0.03   0.00   0.04     0.00   0.00   0.01
    20   6    -0.01   0.05   0.06    -0.02   0.03   0.09     0.13  -0.01  -0.03
    21   1     0.01   0.05   0.10    -0.03   0.00   0.13     0.18   0.07  -0.07
    22   6     0.04  -0.02   0.03     0.09  -0.06   0.05    -0.13   0.04  -0.01
    23   1     0.04  -0.03   0.06     0.11  -0.01   0.11    -0.14   0.07  -0.11
    24   1     0.04  -0.03   0.04     0.15  -0.11   0.06    -0.16   0.04   0.03
    25   1     0.06  -0.03   0.00     0.06  -0.09   0.00    -0.21   0.05   0.02
    26   6     0.01   0.04   0.00     0.01   0.02   0.04     0.01   0.03  -0.06
    27   1    -0.01   0.07  -0.01    -0.02   0.05   0.02     0.09   0.00  -0.04
    28   1     0.01   0.03   0.03     0.02   0.01   0.09     0.02   0.06  -0.15
    29   1     0.02   0.02  -0.02     0.03   0.00   0.00    -0.07   0.04  -0.04
    30   6    -0.05   0.07   0.04    -0.06   0.09   0.08     0.18  -0.10  -0.02
    31   1    -0.06   0.09   0.07    -0.09   0.10   0.11     0.27  -0.10  -0.05
    32   1    -0.08   0.07  -0.01    -0.05   0.12   0.03     0.13  -0.18   0.02
    33   8    -0.14  -0.48  -0.15    -0.05   0.02   0.01     0.08  -0.11   0.04
    34   1     0.01  -0.34  -0.20    -0.03   0.03   0.01     0.08  -0.10   0.03
    35   1    -0.30  -0.51  -0.05    -0.04   0.02   0.01     0.06  -0.12   0.04
    36   8     0.03  -0.02  -0.11    -0.29  -0.21  -0.32    -0.24  -0.07   0.00
    37   1     0.03   0.00  -0.11    -0.31  -0.23  -0.16    -0.24  -0.07   0.14
    38   1     0.02   0.00  -0.08    -0.14  -0.09  -0.21    -0.13  -0.01   0.05
                      4                      5                      6
                      A                      A                      A
 Frequencies --     63.5714                67.2276                73.9076
 Red. masses --      5.3110                 5.3999                 4.9526
 Frc consts  --      0.0126                 0.0144                 0.0159
 IR Inten    --      2.7490                 2.3330                 6.4891
  Atom  AN      X      Y      Z        X      Y      Z        X      Y      Z
     1   6     0.04   0.03  -0.06    -0.02   0.04  -0.06    -0.06  -0.01   0.04
     2   6     0.04   0.02  -0.04    -0.02   0.02  -0.03    -0.04  -0.02   0.04
     3   6     0.04   0.01  -0.01    -0.02   0.02  -0.02    -0.03   0.00   0.03
     4   6     0.04   0.01  -0.01    -0.02   0.02  -0.03    -0.03   0.02   0.03
     5   6     0.04   0.01  -0.01    -0.02   0.03  -0.05    -0.05   0.03   0.02
     6   6     0.04   0.02  -0.05    -0.02   0.04  -0.07    -0.07   0.02   0.02
     7   1     0.04   0.04  -0.09    -0.02   0.05  -0.08    -0.07  -0.03   0.05
     8   1     0.04   0.02  -0.04    -0.02   0.02  -0.03    -0.04  -0.04   0.05
     9   1     0.03   0.01   0.00    -0.02   0.04  -0.05    -0.06   0.06   0.00
    10   1     0.04   0.03  -0.06    -0.02   0.05  -0.09    -0.08   0.02   0.01
    11   6     0.04   0.01   0.00    -0.01   0.03  -0.03    -0.02   0.03   0.05
    12   6     0.04  -0.01   0.02    -0.02   0.01  -0.01    -0.01   0.01   0.01
    13   6     0.04   0.02  -0.04    -0.01   0.04  -0.08    -0.01   0.03   0.03
    14   1     0.04   0.03  -0.07    -0.01   0.06  -0.11     0.00   0.04   0.03
    15   6     0.04   0.01  -0.02    -0.01   0.04  -0.06     0.00   0.03   0.00
    16   1     0.04   0.01  -0.01    -0.01   0.04  -0.07     0.01   0.03  -0.02
    17   8     0.04  -0.01   0.04    -0.02   0.01   0.02    -0.03   0.02   0.10
    18  17     0.03  -0.05   0.12    -0.02  -0.02   0.07     0.00   0.00  -0.02
    19   6     0.04   0.01   0.02    -0.02  -0.02   0.08    -0.01   0.07   0.02
    20   6     0.04  -0.05  -0.08    -0.10  -0.09  -0.01     0.06   0.02  -0.07
    21   1     0.11   0.03  -0.08    -0.19  -0.13  -0.09     0.13   0.11  -0.10
    22   6     0.06   0.12   0.00     0.08   0.08   0.07    -0.05   0.15   0.00
    23   1     0.06   0.11  -0.01     0.08   0.05   0.12    -0.05   0.15  -0.03
    24   1     0.05   0.16  -0.06     0.08   0.14  -0.02    -0.06   0.17  -0.02
    25   1     0.09   0.16   0.07     0.15   0.12   0.12    -0.05   0.18   0.05
    26   6     0.03  -0.03   0.12    -0.03  -0.08   0.22    -0.03   0.07   0.05
    27   1     0.02  -0.12   0.13    -0.09  -0.16   0.23    -0.01   0.00   0.07
    28   1     0.03  -0.02   0.09    -0.03  -0.09   0.25    -0.02   0.10   0.00
    29   1     0.03   0.02   0.19     0.02  -0.02   0.30    -0.07   0.10   0.10
    30   6    -0.06  -0.21  -0.17    -0.08  -0.10   0.00     0.04  -0.13  -0.11
    31   1    -0.05  -0.26  -0.25    -0.15  -0.15  -0.08     0.10  -0.17  -0.19
    32   1    -0.13  -0.30  -0.17     0.00  -0.05   0.08    -0.02  -0.23  -0.08
    33   8    -0.29   0.11   0.00     0.38  -0.02  -0.09    -0.01   0.01   0.01
    34   1    -0.33   0.09   0.00     0.25  -0.04  -0.09    -0.08  -0.01   0.01
    35   1    -0.06   0.18  -0.02     0.23  -0.06  -0.06     0.07   0.03   0.02
    36   8    -0.18   0.03  -0.03    -0.10  -0.01  -0.06     0.27  -0.26  -0.17
    37   1    -0.21  -0.03   0.10    -0.12  -0.06  -0.01     0.31  -0.19  -0.46
    38   1    -0.05   0.04  -0.02    -0.03   0.01  -0.04     0.05  -0.10   0.01
                      7                      8                      9
                      A                      A                      A
 Frequencies --    106.3948               120.6211               123.8917
 Red. masses --      3.4278                 3.6541                 4.0727
 Frc consts  --      0.0229                 0.0313                 0.0368
 IR Inten    --      0.2220                 3.6454                 0.5426
  Atom  AN      X      Y      Z        X      Y      Z        X      Y      Z
     1   6     0.02   0.00   0.02     0.07   0.03  -0.06    -0.02   0.04  -0.08
     2   6     0.01   0.02  -0.03     0.02   0.03  -0.05     0.00   0.06  -0.13
     3   6     0.00   0.02  -0.03    -0.01  -0.02  -0.02     0.00   0.04  -0.06
     4   6     0.00  -0.01  -0.02     0.00  -0.06  -0.01     0.00   0.02   0.01
     5   6     0.01  -0.03   0.03     0.04  -0.09   0.01    -0.02  -0.02   0.10
     6   6     0.02  -0.03   0.05     0.08  -0.04  -0.01    -0.03  -0.01   0.06
     7   1     0.02   0.00   0.03     0.09   0.07  -0.10    -0.02   0.06  -0.14
     8   1     0.00   0.04  -0.04     0.01   0.08  -0.08     0.01   0.09  -0.22
     9   1     0.01  -0.06   0.06     0.05  -0.14   0.04    -0.03  -0.05   0.19
    10   1     0.03  -0.05   0.10     0.11  -0.05   0.00    -0.05  -0.04   0.13
    11   6    -0.01  -0.02  -0.01    -0.02  -0.07  -0.06     0.01   0.04  -0.02
    12   6    -0.02   0.01  -0.02    -0.04  -0.01  -0.02     0.02   0.04  -0.06
    13   6    -0.02  -0.01  -0.02    -0.04  -0.05  -0.09     0.02   0.08  -0.11
    14   1    -0.02  -0.02   0.01    -0.04  -0.04  -0.12     0.03   0.10  -0.15
    15   6    -0.02   0.00  -0.02    -0.06  -0.03  -0.06     0.03   0.07  -0.11
    16   1    -0.03   0.00  -0.01    -0.09  -0.02  -0.07     0.04   0.07  -0.12
    17   8    -0.01  -0.04   0.04    -0.03  -0.04  -0.07     0.01   0.02   0.01
    18  17    -0.03   0.00   0.06    -0.07   0.04   0.02     0.02  -0.04   0.07
[...]
 .00001126,-0.00000497,-0.00002084,0.00002149,0.00001044,0.00001469,-0.
 00006221,-0.00011041,0.00014579,-0.00016257,-0.00000888,-0.00002925,-0
 .00000209,-0.00001818,-0.00002367,0.00000271,0.00005522,0.00009503,0.0
 0000076,0.00014893,0.00113774,0.00016501,0.00001079,-0.00010912,-0.000
 13354,-0.00126956,-0.00089994,-0.00043777,-0.01233855,0.03386117,0.038
 65324,0.01537717,0.00004715,0.00010584,0.00008268,0.00022003,-0.000305
 62,-0.00019989,0.00055417,-0.00008642,0.00001040,-0.00018503,-0.000922
 89,0.00001974,0.00002773,-0.00045483,-0.00031542,-0.00014818,0.0000279
 8,0.00005822,-0.00001715,0.00002916,0.00001503,-0.00004233,0.00001653,
 0.00002680,0.00000286,-0.00000144,0.00004270,-0.00001426,0.00003267,0.
 00002013,-0.00109570,-0.00009095,0.00084700,0.00034021,0.00058430,0.00
 052792,0.00035007,0.00015103,0.00031621,0.00009778,0.00001125,-0.00019
 140,-0.00011913,-0.00016414,0.00025845,-0.00005129,-0.00005391,-0.0003
 1062,0.00036642,-0.00022664,-0.00005912,-0.00030537,-0.00017908,-0.000
 07700,-0.00043219,0.00023919,0.00008117,0.00013903,-0.00019268,-0.0001
 4931,0.00004767,-0.00001396,-0.00006104,0.00008144,-0.00006070,-0.0000
 1004,0.00003211,0.00000103,-0.00001880,-0.00002134,0.00002646,0.000007
 49,-0.00001775,-0.00000707,0.00001625,0.00005834,-0.00004977,0.0000226
 1,-0.00001891,0.00000382,-0.00001175,0.00003356,0.00000673,-0.00000218
 ,-0.00001741,-0.00001049,0.00000227,-0.00024837,0.00019401,0.00024082,
 0.00027629,-0.00014103,0.00001352,-0.00042497,0.00004979,-0.00009608,0
 .03522826,-0.11942496,-0.14818630,-0.04074116,0.14209204,0.00008605,-0
 .00011808,-0.00007358,-0.00004942,-0.00006793,-0.00002522,0.00018324,0
 .00091037,-0.00015516,-0.00029562,0.00123349,-0.00103027,0.00006088,-0
 .00006750,-0.00005918,0.00001863,-0.00016337,-0.00009787,0.00001202,-0
 .00003517,-0.00000341,0.00003073,-0.00000680,0.00002670,-0.00003666,-0
 .00004297,0.00001549,0.00000592,-0.00003424,-0.00000267,0.00163672,0.0
 0187560,-0.00056222,-0.00166103,0.00025892,-0.00008480,0.00134068,-0.0
 0045003,-0.00045364,-0.00007069,0.00001342,0.00004967,-0.00043981,-0.0
 0104460,-0.00047106,0.00002645,0.00001704,0.00005261,-0.00131931,-0.00
 040082,-0.00023992,0.00044719,0.00011565,0.00003442,0.00060215,-0.0002
 8626,0.00004767,0.00007518,-0.00021591,-0.00005378,0.00001377,0.000029
 43,-0.00010521,-0.00007976,0.00010954,0.00002328,-0.00004050,-0.000002
 92,0.00002006,0.00000537,-0.00004559,-0.00003088,0.00001557,0.00000438
 ,-0.00003303,-0.00008160,0.00008991,-0.00002667,0.00000181,-0.00001740
 ,-0.00000413,-0.00003731,-0.00001826,-0.00000515,0.00002520,0.00003200
 ,-0.00000241,-0.00000924,0.00030519,-0.00003212,-0.00006391,0.00000631
 ,-0.00001757,-0.00055981,-0.00028316,0.00011577,0.05759120,-0.20367957
 ,-0.43987999,-0.05382911,0.19109836,0.43988595,0.00003858,0.00024954,0
 .00040312,-0.00052156,-0.00019757,0.00009903,0.00017050,0.00000830,-0.
 00063301,0.00022001,0.00057685,-0.00004043,-0.00013907,-0.00034092,-0.
 00047532,0.00025534,0.00008565,-0.00012422,-0.00004461,0.00005374,-0.0
 0004921,-0.00008447,0.00005176,-0.00013100,-0.00009680,-0.00013654,0.0
 0013275,-0.00001982,-0.00001707,0.00001665,0.00011388,0.00042455,0.000
 29344,0.00026034,-0.00020991,0.00006559,-0.00002814,0.00000833,-0.0000
 1453,-0.00001014,-0.00000940,0.00000682,0.00008914,0.00006276,0.000042
 02,-0.00001568,-0.00000250,-0.00002637,-0.00032481,-0.00017841,-0.0002
 6612,-0.00029300,-0.00007495,-0.00001520,-0.00013019,0.00002245,0.0000
 9773,0.00006623,-0.00015321,-0.00003775,0.00005597,0.00001703,-0.00004
 002,0.00002545,0.00000296,-0.00000604,0.00000963,-0.00000457,-0.000008
 79,-0.00000794,-0.00000531,-0.00000019,-0.00000065,0.00000377,-0.00000
 660,-0.00000184,0.00001710,0.00002520,-0.00003038,-0.00001135,-0.00001
 995,0.00001176,-0.00001103,-0.00001203,0.00000201,0.00001633,-0.000007
 30,-0.00029433,0.00003558,0.00016189,0.00017395,-0.00010213,-0.0000746
 1,-0.00040011,0.00034224,0.00002877,-0.05433066,0.15567085,-0.02252402
 ,-0.00151943,0.00600406,-0.00360794,0.05679770,0.00028162,-0.00020484,
 -0.00016485,-0.00006447,0.00022906,0.00027269,-0.00006362,0.00013452,0
 .00039170,0.00013324,0.00009765,0.00100528,-0.00042144,0.00021567,0.00
 000149,0.00025689,-0.00032114,-0.00046421,-0.00001451,-0.00001589,0.00
 000585,-0.00002416,0.00002458,-0.00005767,-0.00004885,-0.00002519,0.00
 003832,-0.00000360,-0.00005488,0.00003924,0.00005338,0.00036285,0.0001
 1268,-0.00005432,-0.00014612,0.00006615,0.00008822,-0.00033274,-0.0000
 0766,-0.00001406,-0.00001545,-0.00000968,0.00010153,-0.00031538,-0.000
 12327,0.00001040,-0.00000149,-0.00001862,-0.00001617,-0.00014891,-0.00
 008939,-0.00009731,-0.00006748,-0.00003465,-0.00003367,0.00004077,-0.0
 0005696,-0.00004941,0.00010308,-0.00000240,0.00000427,0.00000745,0.000
 05415,0.00000930,-0.00001934,0.00000160,0.00000057,0.00000111,-0.00000
 426,-0.00000362,-0.00000205,-0.00001033,-0.00000182,-0.00000181,0.0000
 1311,0.00002007,-0.00001844,0.00004452,-0.00000755,0.00001228,-0.00001
 089,0.00000580,-0.00000273,-0.00000681,-0.00001390,-0.00001893,0.00000
 604,-0.00012425,-0.00016074,-0.00001333,0.00000289,0.00001796,0.000019
 43,0.00032511,0.00013047,-0.00004410,0.15437835,-0.45507232,0.06070676
 ,0.00756958,-0.02115805,0.01083862,-0.16217839,0.47670472,0.00005413,0
 .00000163,-0.00010904,-0.00048710,0.00038906,0.00016620,-0.00096687,-0
 .00027212,-0.00041827,0.00051938,0.00023942,-0.00021674,0.00006347,0.0
 0085715,0.00020408,0.00007441,-0.00002441,-0.00017450,0.00004998,-0.00
 008944,0.00002547,0.00005812,-0.00001558,0.00000854,-0.00006679,-0.000
 07402,0.00003485,0.00000588,-0.00013189,0.00002621,0.00124730,-0.00026
 063,-0.00011312,-0.00051875,-0.00070911,-0.00030642,-0.00013884,-0.000
 02385,-0.00011901,-0.00002734,0.00003306,0.00005997,0.00018831,0.00011
 832,-0.00006195,-0.00000216,0.00002546,0.00006771,-0.00101184,-0.00003
 674,-0.00010864,0.00028655,0.00017608,0.00006449,0.00050429,-0.0002120
 7,-0.00000519,-0.00006888,-0.00004538,0.00000794,0.00000437,0.00003619
 ,-0.00000570,-0.00008513,0.00004968,0.00001414,-0.00003386,0.00000701,
 0.00002209,0.00001072,-0.00002892,-0.00002574,0.00001733,0.00000175,-0
 .00001445,-0.00005786,0.00005333,0.00002686,0.00000531,-0.00000581,-0.
 00000309,-0.00003215,-0.00001167,-0.00000785,0.00001393,0.00000444,-0.
 00000295,-0.00004621,0.00001567,-0.00008429,-0.00000856,0.00001749,-0.
 00000079,0.00009180,-0.00000074,0.00009137,-0.04136753,0.11642034,-0.0
 6231187,0.01498005,-0.04403900,0.00319630,0.02673258,-0.07250733,0.060
 09906,0.00001078,-0.00019985,-0.00021570,-0.00018647,0.00010515,0.0000
 7364,0.00022870,0.00021117,0.00002159,-0.00011237,-0.00011766,0.000621
 09,-0.00086101,-0.00038254,0.00121380,0.00054378,-0.00057035,0.0002247
 7,-0.00003823,0.00001652,-0.00002664,0.00000792,0.00000107,-0.00001886
 ,-0.00065179,-0.00009356,-0.00022346,-0.00000797,0.00002848,-0.0000533
 1,-0.00219831,-0.00003260,-0.00036827,0.00031066,0.00003532,0.00002213
 ,0.00045027,0.00037746,0.00018974,-0.00001996,-0.00008672,-0.00005017,
 -0.00018353,-0.00007566,-0.00000434,0.00001053,0.00000151,-0.00000310,
 0.00311525,0.00140588,-0.00078821,-0.00002428,-0.00005289,-0.00001533,
 -0.00056581,-0.00055811,0.00060895,0.00029655,-0.00018155,0.00000138,-
 0.00002514,-0.00004393,0.00000465,-0.00014491,-0.00018832,0.00061358,-
 0.00000815,0.00022762,-0.00014302,-0.00002816,0.00038049,-0.00007115,-
 0.00023890,0.00004464,-0.00061049,-0.00043471,-0.00074223,0.00036612,0
 .00000420,0.00010410,-0.00011920,-0.00000163,0.00031581,-0.00016312,0.
 00048792,0.00053916,-0.00012101,0.00005299,0.00018259,-0.00005752,0.00
 000057,-0.00000059,-0.00005118,-0.00003262,-0.00001507,-0.00001120,0.0
 0008835,-0.00008644,0.00009070,-0.00005944,0.00006751,-0.00004211,-0.0
 0001107,0.00003930,-0.00009387,0.54747120,-0.00033264,-0.00003411,-0.0
 0011910,-0.00002314,0.00026467,0.00016027,0.00037475,-0.00010104,-0.00
 004306,-0.00036629,-0.00059230,0.00019477,-0.00059563,-0.00012602,-0.0
 0036426,0.00026486,0.00006089,0.00004888,-0.00003443,0.00000684,0.0000
 3078,-0.00002650,0.00001684,0.00000456,0.00019745,-0.00039022,0.000308
 75,-0.00009237,0.00009204,0.00015464,0.00453709,0.00196588,0.00057844,
 0.00011302,0.00019633,0.00009390,-0.00075885,-0.00058223,-0.00008538,0
 .00001473,0.00010676,-0.00002632,0.00041486,0.00019809,0.00003725,-0.0
 0005059,-0.00002464,-0.00002321,-0.00183956,-0.00569685,0.00412471,-0.
 00037522,-0.00009385,-0.00005852,-0.00217507,0.00044020,-0.00026989,0.
 00033901,0.00012277,0.00002123,0.00003188,-0.00013399,0.00005331,0.000
 83018,0.00053956,-0.00074851,0.00018054,-0.00044085,0.00024605,-0.0000
 4835,-0.00002291,0.00008719,-0.00038014,-0.00075304,0.00029212,0.00005
 492,0.00006931,0.00001539,0.00000841,-0.00006294,0.00013603,0.00008158
 ,0.00001396,0.00004767,0.00005018,-0.00023615,-0.00012685,0.00003075,-
 0.00014185,0.00012776,-0.00001670,-0.00006582,0.00002295,0.00000242,0.
 00002149,-0.00011144,-0.00011698,-0.00000114,0.00015258,0.00008122,0.0
 0005303,-0.00008031,0.00004714,-0.00005689,-0.00010211,-0.12905497,0.3
 2232024,-0.00007888,0.00005894,0.00022903,0.00040726,-0.00000998,0.000
 09689,0.00010026,-0.00002748,-0.00002946,0.00065392,-0.00057021,-0.000
 26704,-0.00015988,0.00017270,-0.00217473,-0.00011402,0.00052421,-0.000
 01495,0.00011158,-0.00000641,-0.00000590,0.00001678,0.00004136,-0.0000
 3755,0.00077567,0.00027716,0.00116699,-0.00008050,0.00004805,-0.000029
 73,-0.00266138,-0.00090705,-0.00087119,-0.00019643,-0.00004568,-0.0000
 0928,0.00031072,0.00059281,0.00045581,-0.00001117,0.00005287,-0.000097
 21,-0.00003248,0.00005395,0.00011405,0.00004752,0.00005577,-0.00001578
 ,0.00042834,0.00464573,-0.00127665,0.00028158,0.00012033,0.00008175,0.
 00189022,-0.00035151,-0.00102873,-0.00032314,0.00019053,0.00030891,-0.
 00006636,0.00015174,-0.00009744,0.00011140,0.00043255,-0.00015857,0.00
 001183,-0.00015722,0.00021907,0.00001175,0.00009084,-0.00000811,-0.000
 33911,-0.00051066,-0.00003400,-0.00023009,-0.00025297,0.00034805,0.000
 08763,-0.00005360,0.00015349,-0.00008209,0.00015145,-0.00005410,-0.000
 01911,0.00023433,-0.00050412,0.00002854,0.00000292,0.00002473,-0.00003
 604,0.00001388,-0.00001150,-0.00001944,-0.00003813,0.00005568,0.000064
 93,0.00011594,-0.00003554,-0.00002269,-0.00007247,0.00001831,-0.000057
 25,-0.00005748,0.00005292,0.02217877,-0.28181318,0.27277101,-0.0001477
 9,0.00002573,-0.00006434,-0.00012388,0.00005295,-0.00003474,0.00007251
 ,-0.00012963,0.00000411,-0.00023817,-0.00027499,-0.00014554,0.00051504
 ,-0.00008194,0.00040821,-0.00014516,0.00023430,-0.00009019,-0.00001806
 ,-0.00000594,0.00002087,-0.00000980,-0.00000887,0.00002159,-0.00011070
 ,-0.00000486,-0.00032872,0.00002792,-0.00002424,0.00005552,0.00109684,
 0.00051860,0.00011458,-0.00007742,0.00000713,-0.00000889,-0.00018107,-
 0.00016468,-0.00006849,-0.00000103,0.00001993,0.00000121,0.00012203,0.
 00003898,0.00001622,-0.00000973,-0.00000636,0.00000145,-0.00061614,-0.
 00105506,0.00050885,-0.00005243,-0.00000204,-0.00001178,-0.00032275,0.
 00019932,-0.00009422,0.00004452,0.00001051,-0.00002209,0.00000929,-0.0
 0001750,0.00001434,0.00011680,-0.00005446,0.00001966,0.00002346,-0.000
 05265,0.00000962,-0.00000508,-0.00000172,-0.00001339,-0.00017655,0.000
 11611,0.00004389,0.00001892,-0.00008701,0.00002241,-0.00000990,0.00003
 615,-0.00002138,0.00002350,-0.00001432,0.00000320,-0.00008548,0.000042
 82,-0.00000552,-0.00001259,-0.00003151,0.00001622,0.00000230,-0.000006
 03,0.00000586,0.00001093,0.00000772,-0.00000877,-0.00003724,0.00001201
 ,-0.00001154,0.00002173,-0.00000566,0.00000510,0.00001487,-0.00001474,
 0.00001420,-0.50120349,0.13562722,-0.03766909,0.50791272,0.00023730,0.
 00008234,0.00017356,0.00009432,-0.00017693,-0.00010449,-0.00043400,-0.
 00004715,-0.00001244,-0.00016788,-0.00013809,-0.00019514,0.00011058,0.
 00005146,0.00015816,-0.00026353,0.00011733,0.00000326,0.00004834,0.000
 00033,-0.00002335,0.00001240,-0.00000897,-0.00000439,0.00004327,0.0001
 2163,0.00010539,0.00004062,-0.00005844,-0.00014812,0.00034929,-0.00047
 195,0.00004073,-0.00017585,-0.00009360,-0.00004828,-0.00001219,-0.0000
 2838,-0.00010320,0.00000444,0.00000193,0.00004147,-0.00003623,-0.00004
 255,-0.00003516,0.00000610,0.00000420,0.00000941,-0.00053381,-0.000230
 92,0.00034912,0.00013768,0.00005588,0.00002833,0.00026869,0.00006742,-
 0.00012268,-0.00006411,-0.00000369,0.00000116,0.00000189,0.00002563,-0
 .00000800,0.00000544,0.00002456,-0.00014519,-0.00003460,-0.00004586,0.
 00001178,0.00002533,-0.00012176,0.00001495,0.00006193,-0.00002854,0.00
 016436,-0.00002577,0.00011930,-0.00004391,0.00001095,-0.00000217,-0.00
 000573,-0.00002112,-0.00001008,0.00000459,0.00003998,-0.00014748,0.000
 08100,-0.00002318,-0.00000481,-0.00002121,-0.00000052,0.00001289,0.000
 00244,0.00000756,0.00000670,0.00002385,0.00002123,0.00003544,-0.000094
 30,-0.00000807,-0.00004629,0.00003950,-0.00002360,0.00001099,0.0000754
 7,0.09487576,-0.04966343,0.02943185,-0.13115823,0.05941458,0.00019181,
 -0.00007660,-0.00008657,-0.00029209,-0.00004562,-0.00011987,-0.0000551
 1,0.00014831,0.00004901,-0.00005973,0.00054071,0.00036258,-0.00006464,
 0.00000100,0.00037523,0.00027906,-0.00044553,0.00011152,-0.00007114,0.
 00001054,0.00000430,-0.00001109,-0.00003327,0.00002474,-0.00050876,0.0
 0013878,-0.00063328,0.00002997,-0.00002990,-0.00004652,-0.00035245,0.0
 0019871,0.00004123,0.00023061,-0.00002188,-0.00001450,0.00023462,-0.00
 003805,-0.00009546,0.00000506,-0.00002995,0.00000405,-0.00014606,-0.00
 007503,-0.00003128,-0.00000397,-0.00002579,0.00001209,0.00066378,0.000
 35290,-0.00036179,-0.00013164,-0.00007134,-0.00004859,-0.00017492,-0.0
 0011288,0.00006691,0.00003803,-0.00001567,0.00000488,0.00000488,-0.000
 01287,0.00000709,0.00007729,-0.00015678,-0.00003245,0.00001363,-0.0000
 1764,-0.00000903,-0.00000388,-0.00007147,0.00004532,-0.00003001,0.0002
 9812,0.00003622,-0.00011175,-0.00008761,0.00006200,-0.00001167,0.00001
 479,-0.00002835,0.00001149,0.00005245,-0.00004259,0.00011650,0.0000598
 4,-0.00007495,0.00000137,0.00001347,0.00000329,0.00000420,-0.00000766,
 -0.00000223,-0.00000273,0.00000439,-0.00000662,-0.00000976,-0.00008371
 ,0.00003188,-0.00000379,0.00004905,-0.00000773,0.00002450,0.00004755,-
 0.00004526,0.00184527,0.02185727,-0.02270257,0.03220465,-0.03207881,0.
 02594224,0.00015430,0.00015362,0.00024336,0.00027794,-0.00016269,-0.00
 009309,-0.00035078,-0.00018527,-0.00006458,-0.00054568,-0.00013908,-0.
 00033433,-0.00043304,-0.00000918,-0.00000496,-0.00032209,0.00041852,-0
 .00019811,0.00006489,-0.00000932,0.00001270,0.00001061,-0.00000014,-0.
 00000225,0.00010410,0.00010524,0.00137662,0.00001780,-0.00004393,-0.00
 001243,0.00122501,-0.00219148,0.00131704,-0.00030378,0.00003675,0.0000
 0246,-0.00055580,-0.00028940,-0.00024223,0.00002406,0.00009291,0.00008
 605,0.00021084,0.00007281,-0.00002724,-0.00000562,0.00000863,-0.000003
 30,-0.00424885,-0.00022998,-0.00001853,0.00009217,0.00007240,0.0000369
 2,0.00100172,0.00204210,-0.00128415,-0.00057844,0.00026346,0.00001453,
 0.00002148,0.00008052,-0.00002482,-0.00019548,0.00059048,-0.00052056,0
 .00000822,-0.00022514,0.00012350,0.00004154,-0.00042050,0.00002175,-0.
 00011147,0.00048555,0.00105914,0.00055068,0.00129118,-0.00078513,0.000
 04447,-0.00021456,0.00020997,0.00005912,-0.00055683,0.00034693,-0.0015
 0174,-0.00081328,0.00000108,-0.00004486,-0.00022381,0.00007604,0.00000
 272,0.00000899,0.00006473,0.00002917,0.00000176,0.00001780,-0.00007496
 ,0.00008561,-0.00009014,0.00005177,-0.00006851,0.00003999,-0.00000067,
 -0.00003065,0.00009164,-0.04604170,-0.00699476,0.01468048,-0.00644892,
 0.03657955,-0.03393152,0.05777128,0.00009907,-0.00011404,-0.00011863,-
 0.00015408,-0.00006843,-0.00006265,-0.00011729,0.00005145,0.00000546,0
 .00042425,0.00026192,0.00001217,0.00056486,0.00026796,0.00133705,0.000
 02269,-0.00046384,-0.00010833,-0.00001910,-0.00001615,-0.00003438,0.00
 003493,-0.00001939,-0.00000283,-0.00057750,0.00033787,-0.00069143,0.00
 007078,-0.00009195,-0.00002413,-0.00936888,-0.00439834,-0.00015950,0.0
 0003452,-0.00000775,-0.00002355,0.00123051,0.00118904,0.00034883,-0.00
 001982,-0.00009720,-0.00003890,-0.00041589,-0.00026861,-0.00003094,0.0
 0009340,0.00004743,0.00002571,0.00342662,0.00336629,-0.00215554,0.0004
 8999,0.00010522,0.00007237,0.00487665,-0.00277619,0.00074746,-0.000647
 98,0.00003188,0.00012789,-0.00006453,0.00026884,-0.00013787,-0.0006009
 3,-0.00059190,0.00028351,-0.00022055,0.00041368,0.00003199,0.00002413,
 0.00008978,-0.00006164,0.00084256,-0.00046863,-0.00109634,0.00023832,0
 .00029673,0.00006489,-0.00002699,0.00004504,-0.00011644,-0.00022305,-0
 .00018625,-0.00006758,-0.00015712,0.00029379,0.00020442,-0.00002067,0.
 00016992,-0.00014209,0.00000586,0.00008312,-0.00002156,-0.00002815,-0.
 00004956,0.00016120,0.00013232,-0.00002681,-0.00012252,-0.00009971,-0.
 00003393,0.00008317,-0.00004413,0.00006766,0.00006929,0.03352351,-0.26
 726863,0.24741414,-0.00374704,-0.00878154,0.00975021,-0.02958156,0.278
 34150,-0.00003308,0.00012320,-0.00000570,-0.00015211,-0.00004957,-0.00
 004595,-0.00012871,-0.00005618,0.00002242,-0.00053583,0.00063942,-0.00
 014701,0.00150068,0.00043812,0.00007429,-0.00040764,-0.00018386,-0.000
 18897,-0.00008561,-0.00000513,0.00000343,-0.00001994,-0.00001703,0.000
 01789,0.00098638,-0.00059485,-0.00226894,0.00000584,0.00000138,0.00007
 899,0.00487057,0.00132008,0.00112048,0.00003308,-0.00005401,-0.0000245
 3,-0.00080669,-0.00086867,-0.00052058,0.00000746,-0.00005024,0.0001211
 4,0.00007401,-0.00000073,-0.00014388,-0.00007581,-0.00004755,-0.000003
 54,-0.00128975,-0.00211570,-0.00212627,-0.00028042,-0.00009632,-0.0000
 6135,-0.00326134,0.00099102,0.00163563,0.00061514,-0.00033784,-0.00047
 095,0.00008503,-0.00025221,0.00016476,-0.00013597,-0.00076685,0.000870
 65,-0.00005298,0.00038440,-0.00045339,-0.00003830,0.00011193,-0.000126
 56,0.00098478,-0.00052680,-0.00090530,0.00027966,0.00011152,-0.0004775
 6,-0.00012209,0.00007509,-0.00023585,0.00018323,-0.00020030,0.00008796
 ,-0.00032093,-0.00008961,0.00052488,-0.00003779,-0.00000067,-0.0000305
 0,0.00003982,-0.00002045,0.00000744,0.00003117,0.00004836,-0.00007638,
 -0.00007037,-0.00005906,0.00003153,0.00003407,0.00004359,-0.00002855,0
 .00004780,0.00001872,-0.00003333,-0.02482492,0.25517566,-0.24663254,0.
 00508691,0.00243404,-0.00279493,0.01781466,-0.25552290,0.25304106\\-0.
 00001240,0.00000635,-0.00001299,0.00000081,-0.00000894,-0.00000663,0.0
 0000274,-0.00000006,0.00000285,-0.00000265,-0.00000389,-0.00000532,-0.
 00000769,0.00000140,-0.00001486,0.00000476,0.00000374,-0.00001632,0.00
 000267,-0.00000294,-0.00001994,0.00000002,-0.00000456,-0.00000282,-0.0
 0000063,0.00000704,-0.00001605,-0.00000421,0.00000620,-0.00002535,-0.0
 0000132,0.00000051,0.00000645,-0.00000895,-0.00000806,0.00001226,-0.00
 000197,-0.00000706,0.00001007,0.00000080,-0.00000604,0.00001585,0.0000
 1233,-0.00001366,0.00001241,0.00000249,-0.00001103,0.00002191,-0.00000
 564,0.00000250,0.00000008,0.00000474,-0.00001190,0.00001436,0.00000950
 ,-0.00000518,-0.00000326,0.00000895,0.00000798,0.00000534,0.00000072,0
 .00000786,0.00001487,-0.00000119,-0.00001241,0.00000734,-0.00000020,-0
 .00000965,0.00000522,0.00000080,-0.00001240,0.00000832,-0.00000208,-0.
 00001058,-0.00000364,-0.00000289,0.00000011,0.00000120,0.00000010,0.00
 001237,-0.00001038,0.00000151,0.00000553,-0.00000377,-0.00000111,0.000
 00698,-0.00001378,-0.00000160,0.00000497,0.00002229,0.00000579,0.00001
 863,0.00001657,-0.00000076,0.00002211,0.00000649,0.00000498,0.00002101
 ,0.00000448,0.00000316,0.00000803,0.00001289,0.00000144,0.00001473,0.0
 0000735,-0.00000063,-0.00001641,-0.00001544,-0.00001092,-0.00001197,-0
 .00002083,-0.00000147,-0.00000134,-0.00001721\\\@


 IT IS DOUBTED WHETHER A MAN EVER BRINGS HIS FACULTIES TO BEAR WITH THEIR FULL FORCE
 ON A SUBJECT UNTIL HE WRITES UPON IT.

                          -- CICERO
 Job cpu time:       1 days  3 hours  2 minutes 48.7 seconds.
 File lengths (MBytes):  RWF=   1753 Int=      0 D2E=      0 Chk=     38 Scr=      1
 Normal termination of Gaussian 09 at Fri Feb  4 17:21:05 2022.
