 Entering Gaussian System, Link 0=g09
 Input=ts_claisen_water_freq.com
 Output=ts_claisen_water_freq.log
 Initial command:
 /apps/applications/gaussian/G09.D01/2/default/g09/l1.exe "/nobackup/pmmass/Temp/Gau-185537.inp" -scrdir="/nobackup/pmmass/Temp/"
 Entering Link 1 = /apps/applications/gaussian/G09.D01/2/default/g09/l1.exe PID=    185538.
  
 Copyright (c) 1988,1990,1992,1993,1995,1998,2003,2009,2013,
            Gaussian, Inc.  All Rights Reserved.
  
 This is part of the Gaussian(R) 09 program.  It is based on
 the Gaussian(R) 03 system (copyright 2003, Gaussian, Inc.),
 the Gaussian(R) 98 system (copyright 1998, Gaussian, Inc.),
 the Gaussian(R) 94 system (copyright 1995, Gaussian, Inc.),
 the Gaussian 92(TM) system (copyright 1992, Gaussian, Inc.),
 the Gaussian 90(TM) system (copyright 1990, Gaussian, Inc.),
 the Gaussian 88(TM) system (copyright 1988, Gaussian, Inc.),
 the Gaussian 86(TM) system (copyright 1986, Carnegie Mellon
 University), and the Gaussian 82(TM) system (copyright 1983,
 Carnegie Mellon University). Gaussian is a federally registered
 trademark of Gaussian, Inc.
  
 This software contains proprietary and confidential information,
 including trade secrets, belonging to Gaussian, Inc.
  
 This software is provided under written license and may be
 used, copied, transmitted, or stored only in accord with that
 written license.
  
 The following legend is applicable only to US Government
 contracts under FAR:
  
                    RESTRICTED RIGHTS LEGEND
  
 Use, reproduction and disclosure by the US Government is
 subject to restrictions as set forth in subparagraphs (a)
 and (c) of the Commercial Computer Software - Restricted
 Rights clause in FAR 52.227-19.
  
 Gaussian, Inc.
 340 Quinnipiac St., Bldg. 40, Wallingford CT 06492
  
  
 ---------------------------------------------------------------
 Warning -- This program may not be used in any manner that
 competes with the business of Gaussian, Inc. or will provide
 assistance to any competitor of Gaussian, Inc.  The licensee
 of this program is prohibited from giving any competitor of
 Gaussian, Inc. access to this program.  By using this program,
 the user acknowledges that Gaussian, Inc. is engaged in the
 business of creating and licensing software in the field of
 computational chemistry and represents and warrants to the
 licensee that it is not a competitor of Gaussian, Inc. and that
 it will not use this program in any manner prohibited above.
 ---------------------------------------------------------------
  

 Cite this work as:
 Gaussian 09, Revision D.01,
 M. J. Frisch, G. W. Trucks, H. B. Schlegel, G. E. Scuseria, 
 M. A. Robb, J. R. Cheeseman, G. Scalmani, V. Barone, B. Mennucci, 
 G. A. Petersson, H. Nakatsuji, M. Caricato, X. Li, H. P. Hratchian, 
 A. F. Izmaylov, J. Bloino, G. Zheng, J. L. Sonnenberg, M. Hada, 
 M. Ehara, K. Toyota, R. Fukuda, J. Hasegawa, M. Ishida, T. Nakajima, 
 Y. Honda, O. Kitao, H. Nakai, T. Vreven, J. A. Montgomery, Jr., 
 J. E. Peralta, F. Ogliaro, M. Bearpark, J. J. Heyd, E. Brothers, 
 K. N. Kudin, V. N. Staroverov, T. Keith, R. Kobayashi, J. Normand, 
 K. Raghavachari, A. Rendell, J. C. Burant, S. S. Iyengar, J. Tomasi, 
 M. Cossi, N. Rega, J. M. Millam, M. Klene, J. E. Knox, J. B. Cross, 
 V. Bakken, C. Adamo, J. Jaramillo, R. Gomperts, R. E. Stratmann, 
 O. Yazyev, A. J. Austin, R. Cammi, C. Pomelli, J. W. Ochterski, 
 R. L. Martin, K. Morokuma, V. G. Zakrzewski, G. A. Voth, 
 P. Salvador, J. J. Dannenberg, S. Dapprich, A. D. Daniels, 
 O. Farkas, J. B. Foresman, J. V. Ortiz, J. Cioslowski, 
 and D. J. Fox, Gaussian, Inc., Wallingford CT, 2013.
 
 ******************************************
 Gaussian 09:  ES64L-G09RevD.01 24-Apr-2013
                 4-Feb-2022 
 ******************************************
 %nprocshared=8
 Will use up to    8 processors via shared memory.
 %mem=4GB
 %NoSave
 %chk="ts_claisen_water_freq.chk"
 -------------------------------------------------
 #n wB97XD/Def2TZVP scrf(smd,solvent=toluene) freq
 -------------------------------------------------
 1/10=4,30=1,38=1/1,3;
 2/12=2,17=6,18=5,40=1/2;
 3/5=44,7=101,11=2,16=1,25=1,30=1,70=32201,71=2,72=13,74=-58,140=1/1,2,3;
 4//1;
 5/5=2,38=5,53=13,98=1/2;
 8/6=4,10=90,11=11/1;
 11/6=1,8=1,9=11,15=111,16=1/1,2,10;
 10/6=1/2;
 6/7=2,8=2,9=2,10=2,18=1,28=1/1;
 7/8=1,10=1,25=1/1,2,3,16;
 1/10=4,30=1/3;
 99//99;
 -------------------------
 ts_claisen toluene - freq
 -------------------------
 Symbolic Z-matrix:
 Charge =  0 Multiplicity = 1
 C                     2.69211   2.7283   -0.30125 
 C                     3.06805   1.41965  -0.14645 
 C                     2.11221   0.42137   0.12784 
 C                     0.75109   0.79373   0.23221 
 C                     0.39814   2.14502   0.08091 
 C                     1.34582   3.09853  -0.18231 
 H                     3.44231   3.48087  -0.50937 
 H                     4.11048   1.14555  -0.23098 
 H                    -0.64384   2.41697   0.17953 
 H                     1.05787   4.136    -0.2959 
 C                    -0.27016  -0.20149   0.52894 
 C                     2.4536   -0.95667   0.32721 
 C                     0.14336  -1.53598   0.66649 
 H                    -0.57594  -2.26487   1.01204 
 C                     1.51368  -1.88877   0.6108 
 H                     1.8028   -2.91774   0.77974 
 O                    -1.50538   0.12072   0.58613 
 Cl                    4.12292  -1.45038   0.22853 
 C                    -2.48229  -0.36038  -1.4304 
 C                    -1.99584  -1.6672   -1.37861 
 H                    -2.6574   -2.41991  -0.96486 
 C                    -3.89326  -0.09203  -1.04885 
 H                    -3.96723   0.83229  -0.47379 
 H                    -4.481     0.05139  -1.96246 
 H                    -4.32905  -0.90689  -0.47408 
 C                    -1.79374   0.72877  -2.17517 
 H                    -0.7102    0.63844  -2.18224 
 H                    -2.136     0.68983  -3.2154 
 H                    -2.0679    1.70346  -1.77606 
 C                    -0.68658  -1.99805  -1.57928 
 H                    -0.36479  -3.0271   -1.49104 
 H                     0.02632  -1.31913  -2.02588 
 O                    -3.41586   1.84937   1.78756 
 H                    -2.6061    1.50686   1.38413 
 H                    -3.8504    1.03995   2.0782 
 O                    -3.4017   -1.19052   2.09758 
 H                    -3.02188  -1.34305   2.96457 
 H                    -2.67128  -0.83177   1.55635 
 

 GradGradGradGradGradGradGradGradGradGradGradGradGradGradGradGradGradGrad
 Berny optimization.
 Initialization pass.
 Trust Radius=3.00D-01 FncErr=1.00D-07 GrdErr=1.00D-07
 Number of steps in this run=      2 maximum allowed number of steps=      2.
 GradGradGradGradGradGradGradGradGradGradGradGradGradGradGradGradGradGrad

                          Input orientation:                          
 ---------------------------------------------------------------------
 Center     Atomic      Atomic             Coordinates (Angstroms)
 Number     Number       Type             X           Y           Z
 ---------------------------------------------------------------------
      1          6           0        2.692110    2.728300   -0.301250
      2          6           0        3.068050    1.419650   -0.146450
      3          6           0        2.112210    0.421370    0.127840
      4          6           0        0.751090    0.793730    0.232210
      5          6           0        0.398140    2.145020    0.080910
      6          6           0        1.345820    3.098530   -0.182310
      7          1           0        3.442310    3.480870   -0.509370
      8          1           0        4.110480    1.145550   -0.230980
      9          1           0       -0.643840    2.416970    0.179530
     10          1           0        1.057870    4.136000   -0.295900
     11          6           0       -0.270160   -0.201490    0.528940
     12          6           0        2.453600   -0.956670    0.327210
     13          6           0        0.143360   -1.535980    0.666490
     14          1           0       -0.575940   -2.264870    1.012040
     15          6           0        1.513680   -1.888770    0.610800
     16          1           0        1.802800   -2.917740    0.779740
     17          8           0       -1.505380    0.120720    0.586130
     18         17           0        4.122920   -1.450380    0.228530
     19          6           0       -2.482290   -0.360380   -1.430400
     20          6           0       -1.995840   -1.667200   -1.378610
     21          1           0       -2.657400   -2.419910   -0.964860
     22          6           0       -3.893260   -0.092030   -1.048850
     23          1           0       -3.967230    0.832290   -0.473790
     24          1           0       -4.481000    0.051390   -1.962460
     25          1           0       -4.329050   -0.906890   -0.474080
     26          6           0       -1.793740    0.728770   -2.175170
     27          1           0       -0.710200    0.638440   -2.182240
     28          1           0       -2.136000    0.689830   -3.215400
     29          1           0       -2.067900    1.703460   -1.776060
     30          6           0       -0.686580   -1.998050   -1.579280
     31          1           0       -0.364790   -3.027100   -1.491040
     32          1           0        0.026320   -1.319130   -2.025880
     33          8           0       -3.415860    1.849370    1.787560
     34          1           0       -2.606100    1.506860    1.384130
     35          1           0       -3.850400    1.039950    2.078200
     36          8           0       -3.401700   -1.190520    2.097580
     37          1           0       -3.021880   -1.343050    2.964570
     38          1           0       -2.671280   -0.831770    1.556350
 ---------------------------------------------------------------------
                    Distance matrix (angstroms):
                    1          2          3          4          5
     1  C    0.000000
     2  C    1.370350   0.000000
     3  C    2.417091   1.409052   0.000000
     4  C    2.791899   2.429704   1.414989   0.000000
     5  C    2.397616   2.776018   2.431298   1.404795   0.000000
     6  C    1.401326   2.405411   2.801916   2.416120   1.369877
     7  H    1.082809   2.126125   3.396431   3.874704   3.376373
     8  H    2.126455   1.081174   2.155521   3.409373   3.857160
     9  H    3.384766   3.857336   3.403073   2.140914   1.081390
    10  H    2.156940   3.382561   3.884542   3.397614   2.131016
    11  C    4.248285   3.771988   2.494899   1.456524   2.480618
    12  C    3.745778   2.499760   1.433628   2.443658   3.729083
    13  C    5.061297   4.236795   2.828026   2.446525   3.735984
    14  H    6.110371   5.310033   3.901775   3.424059   4.611178
    15  C    4.851584   3.732980   2.434797   2.814370   4.218611
    16  H    5.816973   4.612119   3.416191   3.896266   5.300280
    17  O    5.020542   4.810421   3.658877   2.381147   2.824257
    18  Cl   4.448511   3.080655   2.748916   4.050343   5.179062
    19  C    6.131015   5.968526   4.914130   3.814576   4.105845
    20  C    6.515980   6.057214   4.848463   4.024493   4.732268
    21  H    7.453972   6.942103   5.658272   4.835107   5.591828
    22  C    7.202796   7.180483   6.141160   4.898538   4.969594
    23  H    6.926141   7.067341   6.122941   4.771003   4.592103
    24  H    7.834473   7.884046   6.926518   5.722098   5.688994
    25  H    7.908297   7.761264   6.604272   5.403589   5.654069
    26  C    5.256667   5.313193   4.544755   3.503692   3.449638
    27  H    4.413768   4.362328   3.653709   2.826491   2.935992
    28  H    5.996522   6.085493   5.412635   4.498011   4.405122
    29  H    5.087539   5.395754   4.768848   3.578751   3.118440
    30  C    5.948722   5.275502   4.074442   3.625248   4.593243
    31  H    6.624565   5.776322   4.544034   4.337456   5.459296
    32  H    5.144169   4.503920   3.466812   3.176230   4.071505
    33  O    6.514825   6.779834   5.945874   4.571319   4.188873
    34  H    5.692403   5.877607   5.001900   3.620248   3.336329
    35  H    7.163571   7.277238   6.303909   4.964072   4.822908
    36  O    7.631910   7.328460   6.072995   4.966137   5.443489
    37  H    7.738937   7.375514   6.125283   5.125127   5.672624
    38  H    6.700054   6.395962   5.147113   4.013504   4.523222
                    6          7          8          9         10
     6  C    0.000000
     7  H    2.156020   0.000000
     8  H    3.385239   2.444928   0.000000
     9  H    2.134057   4.278211   4.938480   0.000000
    10  H    1.082664   2.481999   4.273808   2.465140   0.000000
    11  C    3.742646   5.331069   4.645643   2.667969   4.610623
    12  C    4.234552   4.622680   2.734256   4.582291   5.317106
    13  C    4.862618   6.118374   4.871765   4.059880   5.825279
    14  H    5.821142   7.174577   5.927782   4.755766   6.734328
    15  C    5.052758   5.814416   4.081551   4.835316   6.109642
    16  H    6.109818   6.729934   4.780927   5.899613   7.174062
    17  O    4.193709   6.080326   5.766787   2.486029   4.844657
    18  Cl   5.345433   5.032390   2.636315   6.138469   6.393528
    19  C    5.308127   7.120701   6.868118   3.699385   5.834146
    20  C    5.942222   7.538679   6.820246   4.575604   6.646393
    21  H    6.862313   8.499008   7.684744   5.362785   7.565097
    22  C    6.195040   8.177239   8.140047   4.285175   6.554148
    23  H    5.783537   7.868769   8.087428   3.739379   6.016459
    24  H    6.812182   8.755093   8.832256   4.990780   7.080999
    25  H    6.952170   8.924557   8.688917   5.005599   7.381151
    26  C    4.409545   6.145337   6.230040   3.117194   4.824163
    27  H    3.778754   5.302947   5.225278   2.957284   4.349400
    28  H    5.208123   6.799268   6.937792   4.090856   5.531760
    29  H    4.017430   5.926728   6.393036   2.522177   4.228305
    30  C    5.661917   6.943414   5.891682   4.752646   6.505132
    31  H    6.493251   7.603378   6.247143   5.701453   7.400157
    32  H    4.965436   6.083485   5.096732   4.389919   5.815098
    33  O    5.302300   7.414322   7.824044   3.254539   5.439094
    34  H    4.539253   6.638172   6.917483   2.475848   4.812437
    35  H    6.028960   8.114014   8.289697   3.972802   6.270007
    36  O    6.792113   8.686688   8.204405   4.929370   7.347675
    37  H    6.979061   8.782039   8.202148   5.248740   7.569347
    38  H    5.882796   7.761575   7.286742   4.069454   6.481985
                   11         12         13         14         15
    11  C    0.000000
    12  C    2.833701   0.000000
    13  C    1.403846   2.405810   0.000000
    14  H    2.141127   3.370236   1.080777   0.000000
    15  C    2.456766   1.353766   1.416100   2.160777   0.000000
    16  H    3.426088   2.115211   2.162366   2.477621   1.082086
    17  O    1.277833   4.111123   2.338687   2.595438   3.626759
    18  Cl   4.577021   1.743593   4.004502   4.832863   2.673284
    19  C    2.959354   5.273307   3.559919   3.636862   4.740279
    20  C    2.960578   4.817903   2.962403   2.844035   4.040245
    21  H    3.584932   5.471091   3.359597   2.874830   4.490292
    22  C    3.953259   6.551624   4.617541   4.469129   5.934451
    23  H    3.967681   6.713348   4.879128   4.827105   6.214570
    24  H    4.899204   7.372072   5.551201   5.427910   6.806032
    25  H    4.240074   6.829999   4.658230   4.258931   6.023168
    26  C    3.240199   5.209847   4.117825   4.539078   5.054916
    27  H    2.872214   4.341814   3.684010   4.318641   4.374186
    28  H    4.277370   6.027062   5.021831   5.388440   5.882954
    29  H    3.489087   5.651902   4.620573   5.074159   5.606151
    30  C    2.801004   3.818364   2.438399   2.607369   3.106370
    31  H    3.474672   3.941578   2.671440   2.625069   3.040095
    32  H    2.804305   3.400014   2.703623   3.238225   3.080391
    33  O    3.960502   6.667612   5.038397   5.059007   6.297525
    34  H    3.017685   5.725961   4.163342   4.299529   5.394528
    35  H    4.093837   6.840532   4.957667   4.772905   6.285222
    36  O    3.639417   6.121555   3.838595   3.212093   5.182570
    37  H    3.848040   6.089814   3.916266   3.262629   5.139003
    38  H    2.686671   5.271696   3.034792   2.596247   4.418733
                   16         17         18         19         20
    16  H    0.000000
    17  O    4.495974   0.000000
    18  Cl   2.799988   5.854400   0.000000
    19  C    5.457729   2.291769   6.897025   0.000000
    20  C    4.544446   2.701372   6.330018   1.395383   0.000000
    21  H    4.815065   3.191790   6.952475   2.118739   1.084169
    22  C    6.616153   2.901791   8.230186   1.486078   2.487992
    23  H    6.994806   2.773169   8.435305   2.131340   3.309460
    24  H    7.471381   3.918473   9.004620   2.108906   3.077410
    25  H    6.573824   3.186399   8.498520   2.150289   2.615361
    26  C    5.913005   2.842121   6.747839   1.488298   2.532987
    27  H    5.266394   2.926468   5.790857   2.168688   2.759469
    28  H    6.670071   3.895279   7.457562   2.099782   2.991493
    29  H    6.547513   2.898523   7.231275   2.133222   3.394777
    30  C    3.550749   3.138251   5.167147   2.434893   1.365244
    31  H    3.141154   3.940095   5.057915   3.405713   2.126568
    32  H    3.685504   3.352890   4.677790   2.750804   2.151567
    33  O    7.139709   2.842815   8.375687   4.013703   4.940380
    34  H    6.275410   1.941590   7.440456   3.379866   4.252036
    35  H    7.021964   2.927520   8.555516   4.017826   4.766297
    36  O    5.639753   2.756785   7.757627   3.739130   3.779889
    37  H    5.525456   3.177951   7.651510   4.535698   4.474488
    38  H    4.997178   1.791057   6.950319   3.029621   3.125404
                   21         22         23         24         25
    21  H    0.000000
    22  C    2.636936   0.000000
    23  H    3.540284   1.091115   0.000000
    24  H    3.229249   1.095760   1.757812   0.000000
    25  H    2.307490   1.088242   1.776418   1.776700   0.000000
    26  C    3.482089   2.519979   2.762149   2.779470   3.463652
    27  H    3.824540   3.456882   3.683018   3.822547   4.289747
    28  H    3.873922   2.897103   3.300019   2.734317   3.856659
    29  H    4.243552   2.661683   2.462174   2.930381   3.690783
    30  C    2.107038   3.767899   4.471644   4.329510   3.959758
    31  H    2.429322   4.610886   5.376547   5.161639   4.609214
    32  H    3.088662   4.221785   4.794375   4.711505   4.641904
    33  O    5.135935   3.470182   2.540111   4.293007   3.680476
    34  H    4.576014   3.183178   2.399914   4.102841   3.499670
    35  H    4.759632   3.325907   2.563089   4.207356   3.245524
    36  O    3.382886   3.368729   3.320170   4.380771   2.748428
    37  H    4.090586   4.293238   4.177094   5.324389   3.704490
    38  H    2.979745   2.971114   2.927465   4.054267   2.622306
                   26         27         28         29         30
    26  C    0.000000
    27  H    1.087322   0.000000
    28  H    1.095781   1.761524   0.000000
    29  H    1.088335   1.772738   1.761756   0.000000
    30  C    3.002738   2.704662   3.464449   3.955748   0.000000
    31  H    4.076333   3.746098   4.463874   5.035873   1.081794
    32  H    2.743866   2.097377   3.182217   3.685677   1.081023
    33  O    4.426087   4.954418   5.292654   3.812830   5.795448
    34  H    3.732823   4.131293   4.695126   3.211715   4.975013
    35  H    4.734748   5.307864   5.575298   4.298008   5.711074
    36  O    4.952333   5.376442   5.776285   5.015898   4.641474
    37  H    5.676063   5.979952   6.565776   5.715319   5.150653
    38  H    4.138792   4.470392   5.037002   4.230415   3.889912
                   31         32         33         34         35
    31  H    0.000000
    32  H    1.831989   0.000000
    33  O    6.621043   6.035753   0.000000
    34  H    5.817806   5.152089   0.967357   0.000000
    35  H    6.436602   6.118635   0.963565   1.499340   0.000000
    36  O    5.047182   5.363840   3.055690   2.901353   2.275237
    37  H    5.454229   5.847793   3.425218   3.285217   2.674095
    38  H    4.407489   4.510758   2.792198   2.345868   2.272881
                   36         37         38
    36  O    0.000000
    37  H    0.958749   0.000000
    38  H    0.977315   1.538639   0.000000
 Stoichiometry    C15H19ClO3
 Framework group  C1[X(C15H19ClO3)]
 Deg. of freedom   108
 Full point group                 C1      NOp   1
 Largest Abelian subgroup         C1      NOp   1
 Largest concise Abelian subgroup C1      NOp   1
                         Standard orientation:                         
 ---------------------------------------------------------------------
 Center     Atomic      Atomic             Coordinates (Angstroms)
 Number     Number       Type             X           Y           Z
 ---------------------------------------------------------------------
      1          6           0       -2.692110    2.728299    0.301251
      2          6           0       -3.068050    1.419649    0.146451
      3          6           0       -2.112210    0.421369   -0.127839
      4          6           0       -0.751090    0.793729   -0.232209
      5          6           0       -0.398140    2.145020   -0.080909
      6          6           0       -1.345821    3.098529    0.182311
      7          1           0       -3.442311    3.480869    0.509371
      8          1           0       -4.110480    1.145549    0.230981
      9          1           0        0.643840    2.416970   -0.179529
     10          1           0       -1.057871    4.135999    0.295901
     11          6           0        0.270160   -0.201490   -0.528939
     12          6           0       -2.453600   -0.956671   -0.327209
     13          6           0       -0.143359   -1.535980   -0.666489
     14          1           0        0.575941   -2.264870   -1.012039
     15          6           0       -1.513679   -1.888771   -0.610799
     16          1           0       -1.802799   -2.917741   -0.779739
     17          8           0        1.505380    0.120720   -0.586129
     18         17           0       -4.122919   -1.450381   -0.228529
     19          6           0        2.482290   -0.360380    1.430401
     20          6           0        1.995841   -1.667200    1.378611
     21          1           0        2.657401   -2.419910    0.964861
     22          6           0        3.893260   -0.092029    1.048851
     23          1           0        3.967230    0.832291    0.473791
     24          1           0        4.481000    0.051391    1.962461
     25          1           0        4.329050   -0.906889    0.474081
     26          6           0        1.793740    0.728770    2.175171
     27          1           0        0.710200    0.638440    2.182241
     28          1           0        2.136000    0.689830    3.215401
     29          1           0        2.067900    1.703460    1.776061
     30          6           0        0.686581   -1.998050    1.579281
     31          1           0        0.364791   -3.027100    1.491041
     32          1           0       -0.026319   -1.319130    2.025881
     33          8           0        3.415860    1.849371   -1.787559
     34          1           0        2.606100    1.506860   -1.384129
     35          1           0        3.850400    1.039951   -2.078199
     36          8           0        3.401701   -1.190519   -2.097579
     37          1           0        3.021881   -1.343050   -2.964569
     38          1           0        2.671280   -0.831770   -1.556349
 ---------------------------------------------------------------------
 Rotational constants (GHZ):      0.4870914      0.2277115      0.1965287
 Standard basis: def2TZVP (5D, 7F)
 There are   804 symmetry adapted cartesian basis functions of A   symmetry.
 There are   709 symmetry adapted basis functions of A   symmetry.
   709 basis functions,  1139 primitive gaussians,   804 cartesian basis functions
    75 alpha electrons       75 beta electrons
       nuclear repulsion energy      1612.6190133574 Hartrees.
 NAtoms=   38 NActive=   38 NUniq=   38 SFac= 1.00D+00 NAtFMM=   60 NAOKFM=F Big=F
 Integral buffers will be    131072 words long.
 Raffenetti 2 integral format.
 Two-electron integral symmetry is turned on.
 Nuclear repulsion after empirical dispersion term =     1612.5848332712 Hartrees.
 Force inversion solution in PCM.
 ------------------------------------------------------------------------------
 Polarizable Continuum Model (PCM)
 =================================
 Model                : PCM (using non-symmetric T matrix).
 Atomic radii         : SMD-Coulomb.
 Polarization charges : Total charges.
 Charge compensation  : None.
 Solution method      : Matrix inversion.
 Cavity type          : VdW (van der Waals Surface) (Alpha=1.000).
 Cavity algorithm     : GePol (No added spheres)
                        Default sphere list used, NSphG=   38.
                        Lebedev-Laikov grids with approx.  5.0 points / Ang**2.
                        Smoothing algorithm: Karplus/York (Gamma=1.0000).
                        Polarization charges: spherical gaussians, with
                                              point-specific exponents (IZeta= 3).
                        Self-potential: point-specific (ISelfS= 7).
                        Self-field    : sphere-specific E.n sum rule (ISelfD= 2).
 1st derivatives      : Analytical E(r).r(x)/FMM algorithm (CHGder, D1EAlg=3).
                        Cavity 1st derivative terms included.
 2nd derivatives      : Analytical E(r).r(xy)/FMM algorithm (CHGder, D2EAlg=3).
                        Cavity 2nd derivative terms included.
 Solvent              : Toluene, Eps=   2.374100 Eps(inf)=   2.238315
 ------------------------------------------------------------------------------
 ------------------------------------------------------------------------------
 Atomic radii for non-electrostatic terms: SMD-CDS.
 ------------------------------------------------------------------------------
 Nuclear repulsion after PCM non-electrostatic terms =     1612.5732536830 Hartrees.
 One-electron integrals computed using PRISM.
   1 Symmetry operations used in ECPInt.
 ECPInt:  NShTT=   41328 NPrTT=  126240 LenC2=   37413 LenP2D=   82032.
 LDataN:  DoStor=T MaxTD1= 6 Len=  172
 NBasis=   709 RedAO= T EigKep=  5.15D-06  NBF=   709
 NBsUse=   709 1.00D-06 EigRej= -1.00D+00 NBFU=   709
 ExpMin= 9.52D-02 ExpMax= 6.95D+04 ExpMxC= 2.37D+03 IAcc=2 IRadAn=         4 AccDes= 0.00D+00
 Harris functional with IExCor= 4639 and IRadAn=       4 diagonalized for initial guess.
 HarFok:  IExCor= 4639 AccDes= 0.00D+00 IRadAn=         4 IDoV= 1 UseB2=F ITyADJ=14
 ICtDFT=  3500011 ScaDFX=  1.000000  1.000000  1.000000  1.000000
 FoFCou: FMM=F IPFlag=           0 FMFlag=      100000 FMFlg1=           0
         NFxFlg=           0 DoJE=T BraDBF=F KetDBF=T FulRan=T
         wScrn=  0.000000 ICntrl=     500 IOpCl=  0 I1Cent=   200000004 NGrid=           0
         NMat0=    1 NMatS0=      1 NMatT0=    0 NMatD0=    1 NMtDS0=    0 NMtDT0=    0
 Petite list used in FoFCou.
 Requested convergence on RMS density matrix=1.00D-08 within 128 cycles.
 Requested convergence on MAX density matrix=1.00D-06.
 Requested convergence on             energy=1.00D-06.
 No special actions if energy rises.
 Inv3:  Mode=1 IEnd=    24573132.
 Iteration    1 A*A^-1 deviation from unit magnitude is 5.77D-15 for   2834.
 Iteration    1 A*A^-1 deviation from orthogonality  is 2.62D-15 for   1863    381.
 Iteration    1 A^-1*A deviation from unit magnitude is 5.55D-15 for   2834.
 Iteration    1 A^-1*A deviation from orthogonality  is 9.83D-15 for    832    808.
 Error on total polarization charges =  0.02122
 SCF Done:  E(RwB97XD) =  -1268.94531182     A.U. after   16 cycles
            NFock= 16  Conv=0.47D-08     -V/T= 2.0035
 SMD-CDS (non-electrostatic) energy       (kcal/mol) =      -7.27
 (included in total energy above)
 DoSCS=F DFT=T ScalE2(SS,OS)=  1.000000  1.000000
 Range of M.O.s used for correlation:     1   709
 NBasis=   709 NAE=    75 NBE=    75 NFC=     0 NFV=     0
 NROrb=    709 NOA=    75 NOB=    75 NVA=   634 NVB=   634

 **** Warning!!: The largest alpha MO coefficient is  0.68330977D+02

   1 Symmetry operations used in ECPInt.
 ECPInt:  NShTT=   41328 NPrTT=  126240 LenC2=   37413 LenP2D=   82032.
 LDataN:  DoStor=T MaxTD1= 7 Len=  274
 Number of processors reduced to   3 by ecpmxn.
 Symmetrizing basis deriv contribution to polar:
 IMax=3 JMax=2 DiffMx= 0.00D+00
 G2DrvN: will do    39 centers at a time, making    1 passes.
 Calling FoFCou, ICntrl=  3107 FMM=F I1Cent=   0 AccDes= 0.00D+00.
 NEqPCM:  Using equilibrium solvation (IEInf=0, Eps=   2.3741, EpsInf=   2.2383)
 G2PCM: DoFxE=T DoFxN=T DoGrad=T DoDP/DQ/DG/TGxP=FFFF NFrqRd=   0 IEInf=0 SqF1=F DoCFld=F IF1Alg=4.
 End of G2Drv F.D. properties file   721 does not exist.
 End of G2Drv F.D. properties file   722 does not exist.
 End of G2Drv F.D. properties file   788 does not exist.
          IDoAtm=11111111111111111111111111111111111111
 NEqPCM:  Using equilibrium solvation (IEInf=0, Eps=   2.3741, EpsInf=   2.2383)
          Differentiating once with respect to electric field.
                with respect to dipole field.
          Differentiating once with respect to nuclear coordinates.
          There are   117 degrees of freedom in the 1st order CPHF.  IDoFFX=6 NUNeed=     3.
    114 vectors produced by pass  0 Test12= 4.75D-14 1.00D-09 XBig12= 1.76D+02 7.38D+00.
 AX will form   114 AO Fock derivatives at one time.
    114 vectors produced by pass  1 Test12= 4.75D-14 1.00D-09 XBig12= 1.60D+01 5.78D-01.
    114 vectors produced by pass  2 Test12= 4.75D-14 1.00D-09 XBig12= 4.53D-01 1.05D-01.
    114 vectors produced by pass  3 Test12= 4.75D-14 1.00D-09 XBig12= 5.26D-03 8.43D-03.
    114 vectors produced by pass  4 Test12= 4.75D-14 1.00D-09 XBig12= 5.36D-05 7.23D-04.
    114 vectors produced by pass  5 Test12= 4.75D-14 1.00D-09 XBig12= 5.30D-07 7.37D-05.
    114 vectors produced by pass  6 Test12= 4.75D-14 1.00D-09 XBig12= 4.19D-09 3.66D-06.
     47 vectors produced by pass  7 Test12= 4.75D-14 1.00D-09 XBig12= 2.92D-11 4.09D-07.
      3 vectors produced by pass  8 Test12= 4.75D-14 1.00D-09 XBig12= 2.53D-13 3.59D-08.
      3 vectors produced by pass  9 Test12= 4.75D-14 1.00D-09 XBig12= 1.23D-14 1.17D-08.
      2 vectors produced by pass 10 Test12= 4.75D-14 1.00D-09 XBig12= 2.73D-16 1.68D-09.
 InvSVY:  IOpt=1 It=  1 EMax= 1.42D-14
 Solved reduced A of dimension   853 with   117 vectors.
 Isotropic polarizability for W=    0.000000      274.70 Bohr**3.
 End of Minotr F.D. properties file   721 does not exist.
 End of Minotr F.D. properties file   722 does not exist.
 End of Minotr F.D. properties file   788 does not exist.

 **********************************************************************

            Population analysis using the SCF density.

 **********************************************************************

 Orbital symmetries:
       Occupied  (A) (A) (A) (A) (A) (A) (A) (A) (A) (A) (A) (A)
                 (A) (A) (A) (A) (A) (A) (A) (A) (A) (A) (A) (A)
                 (A) (A) (A) (A) (A) (A) (A) (A) (A) (A) (A) (A)
                 (A) (A) (A) (A) (A) (A) (A) (A) (A) (A) (A) (A)
                 (A) (A) (A) (A) (A) (A) (A) (A) (A) (A) (A) (A)
                 (A) (A) (A) (A) (A) (A) (A) (A) (A) (A) (A) (A)
                 (A) (A) (A)
       Virtual   (A) (A) (A) (A) (A) (A) (A) (A) (A) (A) (A) (A)
                 (A) (A) (A) (A) (A) (A) (A) (A) (A) (A) (A) (A)
                 (A) (A) (A) (A) (A) (A) (A) (A) (A) (A) (A) (A)
                 (A) (A) (A) (A) (A) (A) (A) (A) (A) (A) (A) (A)
                 (A) (A) (A) (A) (A) (A) (A) (A) (A) (A) (A) (A)
                 (A) (A) (A) (A) (A) (A) (A) (A) (A) (A) (A) (A)
                 (A) (A) (A) (A) (A) (A) (A) (A) (A) (A) (A) (A)
                 (A) (A) (A) (A) (A) (A) (A) (A) (A) (A) (A) (A)
                 (A) (A) (A) (A) (A) (A) (A) (A) (A) (A) (A) (A)
                 (A) (A) (A) (A) (A) (A) (A) (A) (A) (A) (A) (A)
                 (A) (A) (A) (A) (A) (A) (A) (A) (A) (A) (A) (A)
                 (A) (A) (A) (A) (A) (A) (A) (A) (A) (A) (A) (A)
                 (A) (A) (A) (A) (A) (A) (A) (A) (A) (A) (A) (A)
                 (A) (A) (A) (A) (A) (A) (A) (A) (A) (A) (A) (A)
                 (A) (A) (A) (A) (A) (A) (A) (A) (A) (A) (A) (A)
                 (A) (A) (A) (A) (A) (A) (A) (A) (A) (A) (A) (A)
                 (A) (A) (A) (A) (A) (A) (A) (A) (A) (A) (A) (A)
                 (A) (A) (A) (A) (A) (A) (A) (A) (A) (A) (A) (A)
                 (A) (A) (A) (A) (A) (A) (A) (A) (A) (A) (A) (A)
                 (A) (A) (A) (A) (A) (A) (A) (A) (A) (A) (A) (A)
                 (A) (A) (A) (A) (A) (A) (A) (A) (A) (A) (A) (A)
                 (A) (A) (A) (A) (A) (A) (A) (A) (A) (A) (A) (A)
                 (A) (A) (A) (A) (A) (A) (A) (A) (A) (A) (A) (A)
                 (A) (A) (A) (A) (A) (A) (A) (A) (A) (A) (A) (A)
                 (A) (A) (A) (A) (A) (A) (A) (A) (A) (A) (A) (A)
                 (A) (A) (A) (A) (A) (A) (A) (A) (A) (A) (A) (A)
                 (A) (A) (A) (A) (A) (A) (A) (A) (A) (A) (A) (A)
                 (A) (A) (A) (A) (A) (A) (A) (A) (A) (A) (A) (A)
                 (A) (A) (A) (A) (A) (A) (A) (A) (A) (A) (A) (A)
                 (A) (A) (A) (A) (A) (A) (A) (A) (A) (A) (A) (A)
                 (A) (A) (A) (A) (A) (A) (A) (A) (A) (A) (A) (A)
                 (A) (A) (A) (A) (A) (A) (A) (A) (A) (A) (A) (A)
                 (A) (A) (A) (A) (A) (A) (A) (A) (A) (A) (A) (A)
                 (A) (A) (A) (A) (A) (A) (A) (A) (A) (A) (A) (A)
                 (A) (A) (A) (A) (A) (A) (A) (A) (A) (A) (A) (A)
                 (A) (A) (A) (A) (A) (A) (A) (A) (A) (A) (A) (A)
                 (A) (A) (A) (A) (A) (A) (A) (A) (A) (A) (A) (A)
                 (A) (A) (A) (A) (A) (A) (A) (A) (A) (A) (A) (A)
                 (A) (A) (A) (A) (A) (A) (A) (A) (A) (A) (A) (A)
                 (A) (A) (A) (A) (A) (A) (A) (A) (A) (A) (A) (A)
                 (A) (A) (A) (A) (A) (A) (A) (A) (A) (A) (A) (A)
                 (A) (A) (A) (A) (A) (A) (A) (A) (A) (A) (A) (A)
                 (A) (A) (A) (A) (A) (A) (A) (A) (A) (A) (A) (A)
                 (A) (A) (A) (A) (A) (A) (A) (A) (A) (A) (A) (A)
                 (A) (A) (A) (A) (A) (A) (A) (A) (A) (A) (A) (A)
                 (A) (A) (A) (A) (A) (A) (A) (A) (A) (A) (A) (A)
                 (A) (A) (A) (A) (A) (A) (A) (A) (A) (A) (A) (A)
                 (A) (A) (A) (A) (A) (A) (A) (A) (A) (A) (A) (A)
                 (A) (A) (A) (A) (A) (A) (A) (A) (A) (A) (A) (A)
                 (A) (A) (A) (A) (A) (A) (A) (A) (A) (A) (A) (A)
                 (A) (A) (A) (A) (A) (A) (A) (A) (A) (A) (A) (A)
                 (A) (A) (A) (A) (A) (A) (A) (A) (A) (A) (A) (A)
                 (A) (A) (A) (A) (A) (A) (A) (A) (A) (A)
 The electronic state is 1-A.
 Alpha  occ. eigenvalues -- -101.69829 -19.23287 -19.22989 -19.21493 -10.35903
 Alpha  occ. eigenvalues --  -10.34992 -10.34832 -10.32803 -10.31288 -10.30144
 Alpha  occ. eigenvalues --  -10.30024 -10.29711 -10.29491 -10.29271 -10.29155
 Alpha  occ. eigenvalues --  -10.29102 -10.28989 -10.28925 -10.28194  -9.58386
 Alpha  occ. eigenvalues --   -7.33019  -7.32173  -7.32149  -1.12356  -1.09249
 Alpha  occ. eigenvalues --   -1.07826  -1.00087  -0.95873  -0.95057  -0.91766
 Alpha  occ. eigenvalues --   -0.86688  -0.86067  -0.85173  -0.80959  -0.80083
 Alpha  occ. eigenvalues --   -0.73776  -0.72620  -0.72274  -0.67310  -0.63410
 Alpha  occ. eigenvalues --   -0.61924  -0.61272  -0.60363  -0.58969  -0.58306
 Alpha  occ. eigenvalues --   -0.57889  -0.56142  -0.55668  -0.54868  -0.52903
 Alpha  occ. eigenvalues --   -0.51975  -0.51823  -0.50830  -0.50220  -0.49559
 Alpha  occ. eigenvalues --   -0.48356  -0.47863  -0.47452  -0.46916  -0.46293
 Alpha  occ. eigenvalues --   -0.45938  -0.45051  -0.44808  -0.44510  -0.44068
 Alpha  occ. eigenvalues --   -0.42558  -0.39767  -0.39053  -0.38676  -0.38061
 Alpha  occ. eigenvalues --   -0.37053  -0.35203  -0.34635  -0.32463  -0.27444
 Alpha virt. eigenvalues --   -0.03344   0.02002   0.04158   0.08899   0.10148
 Alpha virt. eigenvalues --    0.10710   0.10916   0.12367   0.13241   0.13753
 Alpha virt. eigenvalues --    0.14316   0.15848   0.16312   0.16543   0.17300
 Alpha virt. eigenvalues --    0.17875   0.18280   0.19253   0.19552   0.20221
 Alpha virt. eigenvalues --    0.20497   0.20714   0.22035   0.22715   0.23013
 Alpha virt. eigenvalues --    0.23476   0.24445   0.25063   0.25737   0.26315
 Alpha virt. eigenvalues --    0.26407   0.27096   0.27339   0.27938   0.29183
 Alpha virt. eigenvalues --    0.29477   0.29703   0.30322   0.30676   0.31776
 Alpha virt. eigenvalues --    0.32013   0.32267   0.33101   0.33442   0.34078
 Alpha virt. eigenvalues --    0.34543   0.34972   0.35670   0.36651   0.37099
 Alpha virt. eigenvalues --    0.37520   0.37915   0.38260   0.38839   0.39557
 Alpha virt. eigenvalues --    0.39965   0.41398   0.41611   0.42094   0.42708
 Alpha virt. eigenvalues --    0.43172   0.43566   0.43813   0.44066   0.44801
 Alpha virt. eigenvalues --    0.44997   0.45366   0.45808   0.46340   0.46644
 Alpha virt. eigenvalues --    0.47157   0.48107   0.48301   0.48390   0.48991
 Alpha virt. eigenvalues --    0.49482   0.50078   0.50232   0.50997   0.51441
 Alpha virt. eigenvalues --    0.51628   0.51738   0.52401   0.52688   0.53935
 Alpha virt. eigenvalues --    0.54329   0.54673   0.55081   0.55203   0.55588
 Alpha virt. eigenvalues --    0.56203   0.56924   0.57043   0.57591   0.57749
 Alpha virt. eigenvalues --    0.58223   0.59446   0.60622   0.60798   0.61339
 Alpha virt. eigenvalues --    0.61918   0.62609   0.62917   0.63935   0.64525
 Alpha virt. eigenvalues --    0.65625   0.65776   0.66481   0.67060   0.67122
 Alpha virt. eigenvalues --    0.68523   0.69441   0.69610   0.69944   0.71106
 Alpha virt. eigenvalues --    0.71551   0.71887   0.73007   0.73462   0.73886
 Alpha virt. eigenvalues --    0.75466   0.75708   0.76587   0.77617   0.78191
 Alpha virt. eigenvalues --    0.78665   0.79572   0.80078   0.80716   0.81574
 Alpha virt. eigenvalues --    0.81719   0.82080   0.82665   0.83892   0.84516
 Alpha virt. eigenvalues --    0.85169   0.85435   0.86889   0.87235   0.88541
 Alpha virt. eigenvalues --    0.88765   0.89606   0.89955   0.91228   0.91978
 Alpha virt. eigenvalues --    0.93186   0.93532   0.94387   0.95178   0.97215
 Alpha virt. eigenvalues --    0.98326   0.98473   0.99436   1.00060   1.01082
 Alpha virt. eigenvalues --    1.02081   1.02509   1.03404   1.03924   1.04180
 Alpha virt. eigenvalues --    1.05612   1.06266   1.07263   1.08134   1.09236
 Alpha virt. eigenvalues --    1.09558   1.11064   1.11775   1.12741   1.13093
 Alpha virt. eigenvalues --    1.13589   1.15418   1.15837   1.18271   1.19176
 Alpha virt. eigenvalues --    1.19518   1.20658   1.22406   1.22623   1.23752
 Alpha virt. eigenvalues --    1.24838   1.24924   1.25752   1.26257   1.27357
 Alpha virt. eigenvalues --    1.28807   1.29022   1.29539   1.30862   1.31364
 Alpha virt. eigenvalues --    1.31922   1.33081   1.34448   1.34949   1.35333
 Alpha virt. eigenvalues --    1.35862   1.36572   1.37973   1.38685   1.39248
 Alpha virt. eigenvalues --    1.39525   1.40004   1.41790   1.42544   1.43561
 Alpha virt. eigenvalues --    1.44545   1.45179   1.46425   1.47355   1.48259
 Alpha virt. eigenvalues --    1.48978   1.49160   1.51466   1.52648   1.53240
 Alpha virt. eigenvalues --    1.54402   1.55130   1.56496   1.57311   1.58278
 Alpha virt. eigenvalues --    1.59237   1.59784   1.61129   1.62243   1.62870
 Alpha virt. eigenvalues --    1.63348   1.64065   1.65061   1.65412   1.66004
 Alpha virt. eigenvalues --    1.66725   1.67619   1.68455   1.69064   1.70113
 Alpha virt. eigenvalues --    1.71098   1.71780   1.72468   1.73051   1.73493
 Alpha virt. eigenvalues --    1.75159   1.75275   1.75683   1.76174   1.77278
 Alpha virt. eigenvalues --    1.77753   1.78554   1.78901   1.79569   1.80255
 Alpha virt. eigenvalues --    1.81213   1.82497   1.82842   1.83694   1.84698
 Alpha virt. eigenvalues --    1.85883   1.87115   1.88350   1.89181   1.89727
 Alpha virt. eigenvalues --    1.91239   1.92181   1.93017   1.93549   1.95333
 Alpha virt. eigenvalues --    1.95763   1.96651   1.98160   1.99095   1.99227
 Alpha virt. eigenvalues --    2.00523   2.01267   2.01506   2.02210   2.04028
 Alpha virt. eigenvalues --    2.04759   2.06136   2.07495   2.07879   2.08209
 Alpha virt. eigenvalues --    2.09019   2.10514   2.11408   2.11740   2.12445
 Alpha virt. eigenvalues --    2.13591   2.14387   2.15973   2.17316   2.17547
 Alpha virt. eigenvalues --    2.18336   2.19585   2.19924   2.20017   2.21506
 Alpha virt. eigenvalues --    2.21933   2.22964   2.23950   2.24382   2.25566
 Alpha virt. eigenvalues --    2.26156   2.26889   2.27433   2.27826   2.28496
 Alpha virt. eigenvalues --    2.29284   2.30175   2.30674   2.31633   2.32385
 Alpha virt. eigenvalues --    2.32484   2.34207   2.35312   2.36301   2.36973
 Alpha virt. eigenvalues --    2.37300   2.38310   2.38822   2.40099   2.41520
 Alpha virt. eigenvalues --    2.42188   2.42760   2.43721   2.44621   2.45150
 Alpha virt. eigenvalues --    2.46630   2.47830   2.48775   2.49672   2.50082
 Alpha virt. eigenvalues --    2.50596   2.51464   2.53653   2.54645   2.55141
 Alpha virt. eigenvalues --    2.55697   2.57232   2.58132   2.58797   2.60248
 Alpha virt. eigenvalues --    2.61199   2.62368   2.63016   2.64187   2.64832
 Alpha virt. eigenvalues --    2.66168   2.67238   2.67917   2.68444   2.69204
 Alpha virt. eigenvalues --    2.69953   2.70232   2.70711   2.71447   2.72482
 Alpha virt. eigenvalues --    2.73093   2.73906   2.74661   2.74841   2.76048
 Alpha virt. eigenvalues --    2.77355   2.78228   2.78998   2.80363   2.81283
 Alpha virt. eigenvalues --    2.82221   2.82396   2.83104   2.83493   2.84318
 Alpha virt. eigenvalues --    2.85271   2.85318   2.86638   2.86984   2.87352
 Alpha virt. eigenvalues --    2.87981   2.88095   2.89549   2.89896   2.90235
 Alpha virt. eigenvalues --    2.90809   2.91920   2.92916   2.93889   2.94630
 Alpha virt. eigenvalues --    2.95424   2.96214   2.96645   2.97368   2.98196
 Alpha virt. eigenvalues --    2.99281   3.00659   3.01139   3.02198   3.03079
 Alpha virt. eigenvalues --    3.03203   3.04697   3.04932   3.06121   3.06563
 Alpha virt. eigenvalues --    3.07967   3.08574   3.09351   3.10822   3.11341
 Alpha virt. eigenvalues --    3.12291   3.13785   3.14064   3.15570   3.16018
 Alpha virt. eigenvalues --    3.16722   3.17652   3.17795   3.18967   3.20466
 Alpha virt. eigenvalues --    3.21940   3.22937   3.23996   3.24822   3.25384
 Alpha virt. eigenvalues --    3.26084   3.27571   3.27902   3.28271   3.29436
 Alpha virt. eigenvalues --    3.29809   3.30457   3.31880   3.32097   3.32808
 Alpha virt. eigenvalues --    3.34082   3.34449   3.34751   3.35247   3.35990
 Alpha virt. eigenvalues --    3.36643   3.37112   3.38332   3.39271   3.39871
 Alpha virt. eigenvalues --    3.40299   3.40959   3.41475   3.43352   3.43728
 Alpha virt. eigenvalues --    3.45126   3.45470   3.45949   3.47884   3.48154
 Alpha virt. eigenvalues --    3.48896   3.49103   3.50436   3.50776   3.51337
 Alpha virt. eigenvalues --    3.52262   3.52703   3.54113   3.55265   3.56030
 Alpha virt. eigenvalues --    3.57142   3.57456   3.58431   3.58931   3.60738
 Alpha virt. eigenvalues --    3.61099   3.62021   3.62382   3.63079   3.64592
 Alpha virt. eigenvalues --    3.65289   3.66901   3.67898   3.68347   3.69942
 Alpha virt. eigenvalues --    3.70038   3.71222   3.72739   3.74211   3.74924
 Alpha virt. eigenvalues --    3.76442   3.76912   3.78412   3.79643   3.80024
 Alpha virt. eigenvalues --    3.82017   3.84300   3.86013   3.87045   3.90016
 Alpha virt. eigenvalues --    3.90285   3.91935   3.93347   3.94742   3.95494
 Alpha virt. eigenvalues --    3.95959   3.98350   3.99272   4.00587   4.01553
 Alpha virt. eigenvalues --    4.03518   4.05083   4.06156   4.08027   4.09879
 Alpha virt. eigenvalues --    4.10296   4.12029   4.13001   4.13551   4.14668
 Alpha virt. eigenvalues --    4.15898   4.16867   4.19260   4.19602   4.22399
 Alpha virt. eigenvalues --    4.24088   4.25291   4.26081   4.27648   4.28111
 Alpha virt. eigenvalues --    4.29945   4.31556   4.32893   4.34507   4.34639
 Alpha virt. eigenvalues --    4.35345   4.36773   4.38917   4.40369   4.40967
 Alpha virt. eigenvalues --    4.43041   4.43308   4.44126   4.47085   4.48008
 Alpha virt. eigenvalues --    4.49106   4.53005   4.55180   4.56279   4.57152
 Alpha virt. eigenvalues --    4.57876   4.61655   4.63966   4.67889   4.70336
 Alpha virt. eigenvalues --    4.72128   4.73695   4.78365   4.80615   4.82431
 Alpha virt. eigenvalues --    4.83671   4.85199   4.85501   4.89216   4.92235
 Alpha virt. eigenvalues --    4.95519   4.98710   5.01869   5.03243   5.05627
 Alpha virt. eigenvalues --    5.07011   5.08807   5.16806   5.20393   5.20731
 Alpha virt. eigenvalues --    5.20967   5.21799   5.27085   5.27745   5.30903
 Alpha virt. eigenvalues --    5.31244   5.32791   5.34575   5.35177   5.38464
 Alpha virt. eigenvalues --    5.38973   5.42321   5.48920   5.49239   5.50221
 Alpha virt. eigenvalues --    5.53270   5.54884   5.57351   5.59718   5.63561
 Alpha virt. eigenvalues --    5.65683   5.71296   5.75988   5.90534   5.91759
 Alpha virt. eigenvalues --    6.13919   6.16632   6.19769   6.35574   6.36533
 Alpha virt. eigenvalues --    6.42827   6.46671   6.47697   6.49169   6.50099
 Alpha virt. eigenvalues --    6.54294   6.61258   6.66646   6.74377   6.87348
 Alpha virt. eigenvalues --    6.98919   7.05587   7.07626   7.16397   7.24461
 Alpha virt. eigenvalues --    7.33743   7.35181  10.84199  10.95164  11.48517
 Alpha virt. eigenvalues --   22.21961  22.52725  22.56902  22.60936  22.70104
 Alpha virt. eigenvalues --   22.74152  22.80011  22.83144  22.88575  22.97395
 Alpha virt. eigenvalues --   23.05841  23.06185  23.14032  23.39134  23.82300
 Alpha virt. eigenvalues --   26.08053  43.69729  43.77925  44.38281
          Condensed to atoms (all electrons):
               1          2          3          4          5          6
     1  C    5.042344   0.345071   0.123732  -0.188954   0.147279   0.289538
     2  C    0.345071   5.398463   0.201028   0.092467  -0.259368   0.130658
     3  C    0.123732   0.201028   5.677901  -0.092624   0.209651  -0.179032
     4  C   -0.188954   0.092467  -0.092624   6.228612   0.094000   0.130111
     5  C    0.147279  -0.259368   0.209651   0.094000   5.570208   0.279798
     6  C    0.289538   0.130658  -0.179032   0.130111   0.279798   5.068006
     7  H    0.458719  -0.063383   0.015471  -0.004462   0.015514  -0.064080
     8  H   -0.044061   0.455662  -0.070602   0.021461  -0.006063   0.011617
     9  H    0.020548  -0.011352   0.029208  -0.097993   0.477533  -0.048734
    10  H   -0.068597   0.015683  -0.005900   0.019754  -0.067601   0.466737
    11  C   -0.037015   0.098320   0.011404  -0.179598  -0.374655   0.062936
    12  C    0.030166  -0.224636   0.186971   0.101025   0.058398  -0.020011
    13  C    0.002260  -0.020394  -0.183356   0.126021   0.025251  -0.003093
    14  H    0.000044  -0.000277  -0.007668   0.032400   0.000958  -0.000094
    15  C   -0.000824   0.033082   0.156711  -0.212855  -0.004361   0.000546
    16  H   -0.000014   0.000241   0.025607  -0.008648   0.000071   0.000017
    17  O   -0.000093  -0.000068  -0.003610  -0.090057   0.024787   0.004827
    18  Cl  -0.001223   0.022847  -0.136836   0.015674  -0.001106   0.000718
    19  C   -0.000006  -0.000035   0.001063   0.010002  -0.006321  -0.000132
    20  C    0.000065  -0.000233   0.000371  -0.022712   0.004141   0.000039
    21  H    0.000000  -0.000002  -0.000088   0.000143   0.000057   0.000000
    22  C   -0.000015   0.000019  -0.000013  -0.002551  -0.000228   0.000074
    23  H    0.000016  -0.000013   0.000120   0.002184  -0.000984  -0.000060
    24  H    0.000001  -0.000001   0.000009   0.000041  -0.000009   0.000001
    25  H    0.000000   0.000000  -0.000012  -0.000164   0.000023  -0.000001
    26  C    0.000064   0.000077   0.001688   0.003103   0.003796   0.000543
    27  H   -0.000333   0.000913   0.003999  -0.003563  -0.012674   0.000334
    28  H   -0.000001  -0.000028  -0.000016  -0.000639   0.001167   0.000092
    29  H    0.000110  -0.000021  -0.000075   0.000027   0.000145  -0.000150
    30  C   -0.000172   0.000517  -0.006966   0.015834  -0.002257   0.000235
    31  H    0.000003  -0.000022   0.000750  -0.000057  -0.000010  -0.000006
    32  H   -0.000064  -0.000160  -0.001778   0.003494   0.000955   0.000160
    33  O   -0.000004   0.000006  -0.000019  -0.000377  -0.003258  -0.000138
    34  H   -0.000161   0.000131  -0.000561  -0.002797   0.002421   0.000599
    35  H   -0.000002   0.000002   0.000008  -0.000979   0.000262   0.000022
    36  O    0.000000   0.000000  -0.000050   0.001158   0.000133   0.000002
    37  H    0.000000   0.000000  -0.000040   0.000883   0.000001  -0.000002
    38  H   -0.000014   0.000041  -0.000011  -0.002289  -0.001259   0.000029
               7          8          9         10         11         12
     1  C    0.458719  -0.044061   0.020548  -0.068597  -0.037015   0.030166
     2  C   -0.063383   0.455662  -0.011352   0.015683   0.098320  -0.224636
     3  C    0.015471  -0.070602   0.029208  -0.005900   0.011404   0.186971
     4  C   -0.004462   0.021461  -0.097993   0.019754  -0.179598   0.101025
     5  C    0.015514  -0.006063   0.477533  -0.067601  -0.374655   0.058398
     6  C   -0.064080   0.011617  -0.048734   0.466737   0.062936  -0.020011
     7  H    0.515370  -0.006769  -0.000054  -0.007133  -0.000058  -0.000059
     8  H   -0.006769   0.505661  -0.000019  -0.000057   0.001082  -0.027005
     9  H   -0.000054  -0.000019   0.543233  -0.009525  -0.065558   0.001840
    10  H   -0.007133  -0.000057  -0.009525   0.516558   0.000657   0.000006
    11  C   -0.000058   0.001082  -0.065558   0.000657   6.051817  -0.290021
    12  C   -0.000059  -0.027005   0.001840   0.000006  -0.290021   5.474848
    13  C    0.000018  -0.000402   0.000725   0.000001   0.112810   0.135067
    14  H    0.000000   0.000003   0.000220  -0.000001  -0.116091   0.020415
    15  C   -0.000014   0.000968   0.000038  -0.000006   0.100172   0.258585
    16  H    0.000000   0.000019   0.000000   0.000000   0.020417  -0.097230
    17  O    0.000000   0.000010   0.006270  -0.000003   0.265667   0.001225
    18  Cl  -0.000134   0.019789   0.000003   0.000002  -0.002670   0.322852
    19  C    0.000000  -0.000002   0.000549  -0.000002  -0.048553   0.000886
    20  C    0.000000  -0.000001   0.000757  -0.000004  -0.003524   0.000235
    21  H    0.000000   0.000000   0.000010   0.000000  -0.005159   0.000092
    22  C    0.000000   0.000000  -0.002232   0.000006   0.010093  -0.000070
    23  H    0.000000   0.000000   0.002816  -0.000008  -0.000496   0.000006
    24  H    0.000000   0.000000   0.000206   0.000000  -0.000214   0.000001
    25  H    0.000000   0.000000  -0.000056   0.000000  -0.001071   0.000003
    26  C    0.000002   0.000004  -0.002015   0.000050  -0.001829  -0.001445
    27  H    0.000001  -0.000006  -0.001827   0.000045   0.013393  -0.002012
    28  H    0.000000   0.000000   0.000230  -0.000003  -0.000297   0.000045
    29  H    0.000000   0.000000  -0.000652  -0.000003  -0.000714   0.000026
    30  C    0.000000   0.000003  -0.000480   0.000004   0.038082   0.000376
    31  H    0.000000   0.000000   0.000006   0.000000  -0.002228  -0.001758
    32  H    0.000000   0.000013   0.000076   0.000000  -0.014688   0.004529
    33  O    0.000000   0.000000   0.004019  -0.000006   0.002778  -0.000008
    34  H    0.000000   0.000000  -0.009672   0.000071   0.005046  -0.000044
    35  H    0.000000   0.000000  -0.000512   0.000000   0.001345  -0.000006
    36  O    0.000000   0.000000  -0.000012   0.000000  -0.005246   0.000080
    37  H    0.000000   0.000000  -0.000006   0.000000   0.002734   0.000029
    38  H    0.000000   0.000000  -0.000923   0.000001  -0.010732   0.000064
              13         14         15         16         17         18
     1  C    0.002260   0.000044  -0.000824  -0.000014  -0.000093  -0.001223
     2  C   -0.020394  -0.000277   0.033082   0.000241  -0.000068   0.022847
     3  C   -0.183356  -0.007668   0.156711   0.025607  -0.003610  -0.136836
     4  C    0.126021   0.032400  -0.212855  -0.008648  -0.090057   0.015674
     5  C    0.025251   0.000958  -0.004361   0.000071   0.024787  -0.001106
     6  C   -0.003093  -0.000094   0.000546   0.000017   0.004827   0.000718
     7  H    0.000018   0.000000  -0.000014   0.000000   0.000000  -0.000134
     8  H   -0.000402   0.000003   0.000968   0.000019   0.000010   0.019789
     9  H    0.000725   0.000220   0.000038   0.000000   0.006270   0.000003
    10  H    0.000001  -0.000001  -0.000006   0.000000  -0.000003   0.000002
    11  C    0.112810  -0.116091   0.100172   0.020417   0.265667  -0.002670
    12  C    0.135067   0.020415   0.258585  -0.097230   0.001225   0.322852
    13  C    5.413512   0.454857   0.216249  -0.059168  -0.032346   0.015146
    14  H    0.454857   0.507652  -0.035044  -0.008161  -0.002715  -0.000245
    15  C    0.216249  -0.035044   5.284119   0.470343   0.007817  -0.039184
    16  H   -0.059168  -0.008161   0.470343   0.510217  -0.000252   0.001531
    17  O   -0.032346  -0.002715   0.007817  -0.000252   8.488383   0.000004
    18  Cl   0.015146  -0.000245  -0.039184   0.001531   0.000004  16.888579
    19  C   -0.019646  -0.002062   0.000439  -0.000003   0.032153  -0.000004
    20  C   -0.025693  -0.005521   0.001413   0.000169   0.000707   0.000009
    21  H    0.001437   0.002363   0.000572  -0.000016  -0.000992   0.000000
    22  C    0.000628   0.000336   0.000200   0.000000  -0.004870   0.000000
    23  H   -0.000581   0.000106   0.000000   0.000000  -0.001196   0.000000
    24  H   -0.000079   0.000019   0.000006   0.000000   0.001557   0.000000
    25  H    0.000472   0.000015   0.000000   0.000000  -0.001211   0.000000
    26  C   -0.004518  -0.000102   0.002054   0.000017  -0.003756   0.000001
    27  H   -0.004979  -0.000178   0.001874   0.000005  -0.004684   0.000004
    28  H   -0.000293   0.000007  -0.000017   0.000000   0.001871   0.000000
    29  H    0.000447   0.000010  -0.000081   0.000000  -0.001905   0.000000
    30  C    0.059466  -0.012792  -0.032638  -0.001055  -0.043976   0.000217
    31  H   -0.006570  -0.002584   0.002867   0.000687   0.000802  -0.000035
    32  H   -0.008934   0.001809  -0.002875  -0.000016   0.000965   0.000021
    33  O    0.000182   0.000005   0.000011   0.000000  -0.016140   0.000000
    34  H   -0.001230  -0.000298  -0.000100   0.000002   0.025246   0.000000
    35  H   -0.000138  -0.000141  -0.000001   0.000000   0.001726   0.000000
    36  O   -0.001316   0.010271   0.000221  -0.000015  -0.037325   0.000000
    37  H   -0.001634   0.001002  -0.000238  -0.000001   0.000305   0.000000
    38  H    0.002174  -0.000589   0.000015  -0.000033   0.046797   0.000000
              19         20         21         22         23         24
     1  C   -0.000006   0.000065   0.000000  -0.000015   0.000016   0.000001
     2  C   -0.000035  -0.000233  -0.000002   0.000019  -0.000013  -0.000001
     3  C    0.001063   0.000371  -0.000088  -0.000013   0.000120   0.000009
     4  C    0.010002  -0.022712   0.000143  -0.002551   0.002184   0.000041
     5  C   -0.006321   0.004141   0.000057  -0.000228  -0.000984  -0.000009
     6  C   -0.000132   0.000039   0.000000   0.000074  -0.000060   0.000001
     7  H    0.000000   0.000000   0.000000   0.000000   0.000000   0.000000
     8  H   -0.000002  -0.000001   0.000000   0.000000   0.000000   0.000000
     9  H    0.000549   0.000757   0.000010  -0.002232   0.002816   0.000206
    10  H   -0.000002  -0.000004   0.000000   0.000006  -0.000008   0.000000
    11  C   -0.048553  -0.003524  -0.005159   0.010093  -0.000496  -0.000214
    12  C    0.000886   0.000235   0.000092  -0.000070   0.000006   0.000001
    13  C   -0.019646  -0.025693   0.001437   0.000628  -0.000581  -0.000079
    14  H   -0.002062  -0.005521   0.002363   0.000336   0.000106   0.000019
    15  C    0.000439   0.001413   0.000572   0.000200   0.000000   0.000006
    16  H   -0.000003   0.000169  -0.000016   0.000000   0.000000   0.000000
    17  O    0.032153   0.000707  -0.000992  -0.004870  -0.001196   0.001557
    18  Cl  -0.000004   0.000009   0.000000   0.000000   0.000000   0.000000
    19  C    5.203503   0.334790  -0.031902   0.213920  -0.054580  -0.015054
    20  C    0.334790   5.279733   0.416577  -0.033811   0.011751  -0.003030
    21  H   -0.031902   0.416577   0.491256  -0.006498  -0.000107   0.000253
    22  C    0.213920  -0.033811  -0.006498   5.093449   0.415888   0.364611
    23  H   -0.054580   0.011751  -0.000107   0.415888   0.497870  -0.013357
    24  H   -0.015054  -0.003030   0.000253   0.364611  -0.013357   0.528365
    25  H   -0.032990  -0.011668   0.003999   0.412552  -0.021842  -0.017902
    26  C    0.276773  -0.069881   0.004215  -0.058206  -0.016359   0.000643
    27  H   -0.029530  -0.026426  -0.000162   0.005805  -0.000046   0.000073
    28  H   -0.029174   0.001784  -0.000136  -0.002405   0.000148   0.001620
    29  H   -0.051190   0.012273  -0.000032  -0.004090   0.002810  -0.000886
    30  C   -0.011801   0.392897  -0.027884   0.005967   0.000413  -0.001473
    31  H    0.006939  -0.031801  -0.004019  -0.000274  -0.000005   0.000032
    32  H    0.002821  -0.035034   0.002695   0.000154  -0.000003   0.000032
    33  O   -0.005825   0.001815  -0.000005  -0.007825   0.033093   0.001266
    34  H   -0.000801  -0.000925  -0.000025   0.003672  -0.005799  -0.000615
    35  H   -0.001295   0.000226  -0.000020   0.002947  -0.002445   0.000049
    36  O    0.000429  -0.002721   0.003708  -0.000613  -0.001002   0.000335
    37  H    0.000199  -0.000263  -0.000060  -0.000184   0.000040  -0.000016
    38  H   -0.005954  -0.001645  -0.000814  -0.000761  -0.001573  -0.000297
              25         26         27         28         29         30
     1  C    0.000000   0.000064  -0.000333  -0.000001   0.000110  -0.000172
     2  C    0.000000   0.000077   0.000913  -0.000028  -0.000021   0.000517
     3  C   -0.000012   0.001688   0.003999  -0.000016  -0.000075  -0.006966
     4  C   -0.000164   0.003103  -0.003563  -0.000639   0.000027   0.015834
     5  C    0.000023   0.003796  -0.012674   0.001167   0.000145  -0.002257
     6  C   -0.000001   0.000543   0.000334   0.000092  -0.000150   0.000235
     7  H    0.000000   0.000002   0.000001   0.000000   0.000000   0.000000
     8  H    0.000000   0.000004  -0.000006   0.000000   0.000000   0.000003
     9  H   -0.000056  -0.002015  -0.001827   0.000230  -0.000652  -0.000480
    10  H    0.000000   0.000050   0.000045  -0.000003  -0.000003   0.000004
    11  C   -0.001071  -0.001829   0.013393  -0.000297  -0.000714   0.038082
    12  C    0.000003  -0.001445  -0.002012   0.000045   0.000026   0.000376
    13  C    0.000472  -0.004518  -0.004979  -0.000293   0.000447   0.059466
    14  H    0.000015  -0.000102  -0.000178   0.000007   0.000010  -0.012792
    15  C    0.000000   0.002054   0.001874  -0.000017  -0.000081  -0.032638
    16  H    0.000000   0.000017   0.000005   0.000000   0.000000  -0.001055
    17  O   -0.001211  -0.003756  -0.004684   0.001871  -0.001905  -0.043976
    18  Cl   0.000000   0.000001   0.000004   0.000000   0.000000   0.000217
    19  C   -0.032990   0.276773  -0.029530  -0.029174  -0.051190  -0.011801
    20  C   -0.011668  -0.069881  -0.026426   0.001784   0.012273   0.392897
    21  H    0.003999   0.004215  -0.000162  -0.000136  -0.000032  -0.027884
    22  C    0.412552  -0.058206   0.005805  -0.002405  -0.004090   0.005967
    23  H   -0.021842  -0.016359  -0.000046   0.000148   0.002810   0.000413
    24  H   -0.017902   0.000643   0.000073   0.001620  -0.000886  -0.001473
    25  H    0.499204   0.009411  -0.000166  -0.000286   0.000008   0.000116
    26  C    0.009411   5.009814   0.419368   0.393190   0.427584   0.002184
    27  H   -0.000166   0.419368   0.524631  -0.018936  -0.023451   0.013751
    28  H   -0.000286   0.393190  -0.018936   0.505333  -0.018820  -0.002477
    29  H    0.000008   0.427584  -0.023451  -0.018820   0.505082  -0.001858
    30  C    0.000116   0.002184   0.013751  -0.002477  -0.001858   5.054580
    31  H   -0.000054   0.000724   0.000245   0.000007  -0.000009   0.406153
    32  H    0.000008  -0.005485  -0.003205   0.000513   0.000345   0.412618
    33  O   -0.002304  -0.001938   0.000049  -0.000006   0.000152  -0.000054
    34  H    0.000424   0.000725   0.000004  -0.000015   0.000312   0.000341
    35  H   -0.000305   0.000047   0.000002   0.000002   0.000002  -0.000041
    36  O    0.003423  -0.000037  -0.000007   0.000005   0.000003  -0.000060
    37  H    0.000004  -0.000005  -0.000001   0.000000   0.000000   0.000169
    38  H   -0.001943   0.000152   0.000058  -0.000041   0.000028   0.003329
              31         32         33         34         35         36
     1  C    0.000003  -0.000064  -0.000004  -0.000161  -0.000002   0.000000
     2  C   -0.000022  -0.000160   0.000006   0.000131   0.000002   0.000000
     3  C    0.000750  -0.001778  -0.000019  -0.000561   0.000008  -0.000050
     4  C   -0.000057   0.003494  -0.000377  -0.002797  -0.000979   0.001158
     5  C   -0.000010   0.000955  -0.003258   0.002421   0.000262   0.000133
     6  C   -0.000006   0.000160  -0.000138   0.000599   0.000022   0.000002
     7  H    0.000000   0.000000   0.000000   0.000000   0.000000   0.000000
     8  H    0.000000   0.000013   0.000000   0.000000   0.000000   0.000000
     9  H    0.000006   0.000076   0.004019  -0.009672  -0.000512  -0.000012
    10  H    0.000000   0.000000  -0.000006   0.000071   0.000000   0.000000
    11  C   -0.002228  -0.014688   0.002778   0.005046   0.001345  -0.005246
    12  C   -0.001758   0.004529  -0.000008  -0.000044  -0.000006   0.000080
    13  C   -0.006570  -0.008934   0.000182  -0.001230  -0.000138  -0.001316
    14  H   -0.002584   0.001809   0.000005  -0.000298  -0.000141   0.010271
    15  C    0.002867  -0.002875   0.000011  -0.000100  -0.000001   0.000221
    16  H    0.000687  -0.000016   0.000000   0.000002   0.000000  -0.000015
    17  O    0.000802   0.000965  -0.016140   0.025246   0.001726  -0.037325
    18  Cl  -0.000035   0.000021   0.000000   0.000000   0.000000   0.000000
    19  C    0.006939   0.002821  -0.005825  -0.000801  -0.001295   0.000429
    20  C   -0.031801  -0.035034   0.001815  -0.000925   0.000226  -0.002721
    21  H   -0.004019   0.002695  -0.000005  -0.000025  -0.000020   0.003708
    22  C   -0.000274   0.000154  -0.007825   0.003672   0.002947  -0.000613
    23  H   -0.000005  -0.000003   0.033093  -0.005799  -0.002445  -0.001002
    24  H    0.000032   0.000032   0.001266  -0.000615   0.000049   0.000335
    25  H   -0.000054   0.000008  -0.002304   0.000424  -0.000305   0.003423
    26  C    0.000724  -0.005485  -0.001938   0.000725   0.000047  -0.000037
    27  H    0.000245  -0.003205   0.000049   0.000004   0.000002  -0.000007
    28  H    0.000007   0.000513  -0.000006  -0.000015   0.000002   0.000005
    29  H   -0.000009   0.000345   0.000152   0.000312   0.000002   0.000003
    30  C    0.406153   0.412618  -0.000054   0.000341  -0.000041  -0.000060
    31  H    0.467660  -0.012450   0.000000  -0.000002   0.000000  -0.000013
    32  H   -0.012450   0.462310   0.000004  -0.000024   0.000001   0.000004
    33  O    0.000000   0.000004   8.022383   0.322967   0.319140  -0.009729
    34  H   -0.000002  -0.000024   0.322967   0.364152  -0.033949   0.002277
    35  H    0.000000   0.000001   0.319140  -0.033949   0.363957   0.019841
    36  O   -0.000013   0.000004  -0.009729   0.002277   0.019841   8.096338
    37  H   -0.000002  -0.000001   0.000396   0.000284  -0.001147   0.305461
    38  H   -0.000049  -0.000083   0.002788   0.002819  -0.000922   0.295452
              37         38
     1  C    0.000000  -0.000014
     2  C    0.000000   0.000041
     3  C   -0.000040  -0.000011
     4  C    0.000883  -0.002289
     5  C    0.000001  -0.001259
     6  C   -0.000002   0.000029
     7  H    0.000000   0.000000
     8  H    0.000000   0.000000
     9  H   -0.000006  -0.000923
    10  H    0.000000   0.000001
    11  C    0.002734  -0.010732
    12  C    0.000029   0.000064
    13  C   -0.001634   0.002174
    14  H    0.001002  -0.000589
    15  C   -0.000238   0.000015
    16  H   -0.000001  -0.000033
    17  O    0.000305   0.046797
    18  Cl   0.000000   0.000000
    19  C    0.000199  -0.005954
    20  C   -0.000263  -0.001645
    21  H   -0.000060  -0.000814
    22  C   -0.000184  -0.000761
    23  H    0.000040  -0.001573
    24  H   -0.000016  -0.000297
    25  H    0.000004  -0.001943
    26  C   -0.000005   0.000152
    27  H   -0.000001   0.000058
    28  H    0.000000  -0.000041
    29  H    0.000000   0.000028
    30  C    0.000169   0.003329
    31  H   -0.000002  -0.000049
    32  H   -0.000001  -0.000083
    33  O    0.000396   0.002788
    34  H    0.000284   0.002819
    35  H   -0.001147  -0.000922
    36  O    0.305461   0.295452
    37  H    0.378718  -0.022639
    38  H   -0.022639   0.382154
 Mulliken charges:
               1
     1  C   -0.118405
     2  C   -0.215237
     3  C    0.043566
     4  C    0.012925
     5  C   -0.176396
     6  C   -0.132107
     7  H    0.141053
     8  H    0.138695
     9  H    0.163333
    10  H    0.139274
    11  C    0.361664
    12  C    0.066532
    13  C   -0.192350
    14  H    0.162074
    15  C   -0.210064
    16  H    0.145273
    17  O   -0.665919
    18  Cl  -0.105957
    19  C    0.262396
    20  C   -0.184860
    21  H    0.150544
    22  C   -0.405671
    23  H    0.153194
    24  H    0.153814
    25  H    0.162312
    26  C   -0.390655
    27  H    0.147631
    28  H    0.167578
    29  H    0.154572
    30  C   -0.261268
    31  H    0.175074
    32  H    0.191272
    33  O   -0.663419
    34  H    0.325524
    35  H    0.332324
    36  O   -0.680996
    37  H    0.336013
    38  H    0.316670
 Sum of Mulliken charges =   0.00000
 Mulliken charges with hydrogens summed into heavy atoms:
               1
     1  C    0.022649
     2  C   -0.076541
     3  C    0.043566
     4  C    0.012925
     5  C   -0.013063
     6  C    0.007167
    11  C    0.361664
    12  C    0.066532
    13  C   -0.030276
    15  C   -0.064791
    17  O   -0.665919
    18  Cl  -0.105957
    19  C    0.262396
    20  C   -0.034316
    22  C    0.063648
    26  C    0.079125
    30  C    0.105077
    33  O   -0.005571
    36  O   -0.028313
 APT charges:
               1
     1  C   -0.010873
     2  C   -0.127797
     3  C    0.002717
     4  C   -0.045133
     5  C   -0.077644
     6  C   -0.022605
     7  H    0.043467
     8  H    0.076465
     9  H    0.072841
    10  H    0.047239
    11  C    0.434529
    12  C    0.329810
    13  C   -0.387074
    14  H    0.063135
    15  C    0.086224
    16  H    0.061362
    17  O   -0.927720
    18  Cl  -0.427393
    19  C    0.785473
    20  C   -0.621899
    21  H    0.058756
    22  C   -0.196965
    23  H    0.073300
    24  H   -0.000009
    25  H    0.030317
    26  C   -0.140995
    27  H    0.031429
    28  H    0.037671
    29  H    0.052949
    30  C    0.608612
    31  H    0.050459
    32  H    0.004288
    33  O   -0.694700
    34  H    0.388070
    35  H    0.329172
    36  O   -0.735769
    37  H    0.283373
    38  H    0.464919
 Sum of APT charges =   0.00000
 APT charges with hydrogens summed into heavy atoms:
               1
     1  C    0.032594
     2  C   -0.051332
     3  C    0.002717
     4  C   -0.045133
     5  C   -0.004803
     6  C    0.024633
    11  C    0.434529
    12  C    0.329810
    13  C   -0.323939
    15  C    0.147585
    17  O   -0.927720
    18  Cl  -0.427393
    19  C    0.785473
    20  C   -0.563143
    22  C   -0.093357
    26  C   -0.018946
    30  C    0.663359
    33  O    0.022542
    36  O    0.012522
 Electronic spatial extent (au):  <R**2>=           5927.9542
 Charge=              0.0000 electrons
 Dipole moment (field-independent basis, Debye):
    X=             -0.8532    Y=             -2.4439    Z=              4.3915  Tot=              5.0976
 Quadrupole moment (field-independent basis, Debye-Ang):
   XX=           -135.5479   YY=           -114.8728   ZZ=           -117.7153
   XY=            -11.6211   XZ=             10.9621   YZ=              7.2413
 Traceless Quadrupole moment (field-independent basis, Debye-Ang):
   XX=            -12.8359   YY=              7.8392   ZZ=              4.9967
   XY=            -11.6211   XZ=             10.9621   YZ=              7.2413
 Octapole moment (field-independent basis, Debye-Ang**2):
  XXX=             -9.2480  YYY=            -15.9463  ZZZ=            -22.0858  XYY=            -28.8141
  XXY=              1.2675  XXZ=             48.0009  XZZ=             23.1080  YZZ=            -21.6878
  YYZ=             13.9998  XYZ=             15.5029
 Hexadecapole moment (field-independent basis, Debye-Ang**3):
 XXXX=          -4914.4161 YYYY=          -1807.7605 ZZZZ=           -931.8557 XXXY=           -115.6159
 XXXZ=            104.6708 YYYX=            -71.1267 YYYZ=             54.7158 ZZZX=            -71.0408
 ZZZY=             67.6969 XXYY=          -1206.2193 XXZZ=           -976.1099 YYZZ=           -539.2478
 XXYZ=             60.1192 YYXZ=             27.6148 ZZXY=            -15.3761
 N-N= 1.612573253683D+03 E-N=-6.205200593708D+03  KE= 1.264490259766D+03
  Exact polarizability: 356.289 -11.082 278.850  35.516   5.205 188.956
 Approx polarizability: 311.025   2.254 273.024  17.017   6.822 197.277
   1 Symmetry operations used in ECPInt.
 ECPInt:  NShTT=   41328 NPrTT=  126240 LenC2=   37413 LenP2D=   82032.
 LDataN:  DoStor=T MaxTD1= 8 Len=  415
 D2PCM: PCM CHGder 2nd derivatives, FixD1E=F FixD2E=F DoIter=F DoCFld=F I1PDM=0
 Calling FoFJK, ICntrl=    100127 FMM=F ISym2X=0 I1Cent= 0 IOpClX= 0 NMat=1 NMatS=1 NMatT=0.
 Full mass-weighted force constant matrix:
 Low frequencies --- -228.7204  -17.0893   -0.0014    0.0008    0.0021    2.7960
 Low frequencies ---   17.7920   37.2855   45.1788
 ******    1 imaginary frequencies (negative Signs) ****** 
 Diagonal vibrational polarizability:
      166.4959675     144.9563901     126.6861528
 Harmonic frequencies (cm**-1), IR intensities (KM/Mole), Raman scattering
 activities (A**4/AMU), depolarization ratios for plane and unpolarized
 incident light, reduced masses (AMU), force constants (mDyne/A),
 and normal coordinates:
                      1                      2                      3
                      A                      A                      A
 Frequencies --   -228.7162                36.3766                45.0763
 Red. masses --      6.9346                 5.6063                 6.3588
 Frc consts  --      0.2137                 0.0044                 0.0076
 IR Inten    --     90.9655                 0.8773                 1.8510
  Atom  AN      X      Y      Z        X      Y      Z        X      Y      Z
     1   6    -0.01   0.00   0.00    -0.02  -0.03   0.18     0.05   0.02  -0.02
     2   6     0.00  -0.01   0.00     0.00  -0.03   0.13     0.04   0.02   0.04
     3   6     0.00   0.00   0.02     0.00   0.00   0.03     0.01   0.01   0.00
     4   6    -0.03   0.02   0.00    -0.01   0.03  -0.01     0.01  -0.01  -0.09
     5   6    -0.02   0.00  -0.02    -0.03   0.03   0.03     0.03   0.00  -0.15
     6   6    -0.02   0.01   0.00    -0.03   0.00   0.13     0.05   0.01  -0.12
     7   1    -0.01  -0.01   0.00    -0.02  -0.05   0.27     0.07   0.03   0.01
     8   1     0.00  -0.01   0.01     0.00  -0.05   0.17     0.04   0.03   0.12
     9   1    -0.02   0.00  -0.03    -0.04   0.05  -0.01     0.02  -0.01  -0.22
    10   1    -0.02   0.01   0.00    -0.04   0.00   0.16     0.06   0.01  -0.18
    11   6     0.01   0.02  -0.02     0.00   0.06  -0.06    -0.01  -0.02  -0.10
    12   6     0.01  -0.03   0.04     0.01   0.01  -0.04    -0.01   0.01   0.04
    13   6     0.05  -0.08   0.27     0.01   0.06  -0.11    -0.04  -0.01  -0.13
    14   1     0.00  -0.02   0.04     0.02   0.08  -0.14    -0.06  -0.02  -0.15
    15   6     0.00  -0.04   0.16     0.02   0.04  -0.11    -0.04   0.00  -0.05
    16   1     0.00  -0.05   0.18     0.03   0.04  -0.15    -0.06   0.01  -0.03
    17   8    -0.10   0.06  -0.25    -0.01   0.08  -0.04     0.00  -0.05  -0.08
    18  17     0.00   0.00  -0.01     0.02  -0.02  -0.02     0.00   0.01   0.22
    19   6     0.11  -0.09   0.21    -0.04   0.07  -0.02    -0.10  -0.02  -0.04
    20   6     0.00   0.06  -0.08     0.01   0.05  -0.07    -0.04  -0.05  -0.08
    21   1    -0.05   0.04  -0.14     0.05   0.09  -0.08     0.01  -0.01  -0.07
    22   6     0.09  -0.05   0.15    -0.04   0.14   0.03    -0.09   0.04   0.06
    23   1    -0.03  -0.14  -0.02    -0.07   0.13   0.00    -0.08   0.07   0.10
    24   1     0.15   0.18   0.07    -0.09   0.21   0.05    -0.15   0.02   0.10
    25   1     0.13  -0.10   0.24     0.03   0.15   0.07    -0.02   0.07   0.06
    26   6     0.04  -0.02   0.05    -0.10   0.02   0.00    -0.18  -0.07  -0.05
    27   1     0.04  -0.04   0.02    -0.10  -0.01  -0.04    -0.18  -0.11  -0.13
    28   1     0.00   0.15   0.07    -0.14  -0.01   0.01    -0.26  -0.09  -0.03
    29   1     0.02  -0.06  -0.07    -0.11   0.05   0.05    -0.19  -0.05   0.00
    30   6    -0.16   0.12  -0.41     0.02   0.00  -0.10    -0.03  -0.11  -0.11
    31   1    -0.14   0.12  -0.38     0.06  -0.01  -0.14     0.02  -0.12  -0.15
    32   1    -0.09   0.03  -0.16    -0.01  -0.04  -0.10    -0.06  -0.14  -0.12
    33   8     0.02   0.01   0.00     0.11  -0.16  -0.18     0.04   0.08   0.14
    34   1    -0.01   0.04  -0.04     0.07  -0.06  -0.17     0.02   0.02   0.05
    35   1     0.02  -0.01   0.04     0.09  -0.22  -0.02     0.11   0.11   0.16
    36   8     0.02  -0.01   0.01     0.01  -0.22   0.23     0.23   0.10   0.09
    37   1     0.03   0.05  -0.01     0.06  -0.29   0.22     0.35   0.06   0.04
    38   1     0.02  -0.01   0.01     0.00  -0.09   0.13     0.14   0.03   0.00
                      4                      5                      6
                      A                      A                      A
 Frequencies --     60.5180                64.8625                78.6585
 Red. masses --      6.6450                 4.2083                 6.2252
 Frc consts  --      0.0143                 0.0104                 0.0227
 IR Inten    --      2.6169                 0.9557                10.1911
  Atom  AN      X      Y      Z        X      Y      Z        X      Y      Z
     1   6     0.06   0.03  -0.02     0.04  -0.05   0.16    -0.07   0.02  -0.07
     2   6     0.03   0.04  -0.03     0.02  -0.03   0.11    -0.06   0.02  -0.06
     3   6     0.02   0.01   0.00    -0.01  -0.03   0.01    -0.04   0.02  -0.01
     4   6     0.03  -0.02   0.04    -0.01  -0.04  -0.04    -0.04   0.02   0.01
     5   6     0.06  -0.03   0.05     0.01  -0.05  -0.02    -0.05   0.02   0.02
     6   6     0.08  -0.01   0.02     0.03  -0.05   0.08    -0.06   0.02  -0.02
     7   1     0.08   0.05  -0.05     0.06  -0.05   0.25    -0.08   0.02  -0.11
     8   1     0.03   0.07  -0.06     0.02  -0.03   0.17    -0.06   0.01  -0.09
     9   1     0.07  -0.06   0.08     0.00  -0.05  -0.07    -0.05   0.03   0.05
    10   1     0.10  -0.01   0.03     0.05  -0.06   0.11    -0.07   0.02  -0.02
    11   6     0.01  -0.05   0.05    -0.02  -0.05  -0.06    -0.04   0.03  -0.01
    12   6    -0.01   0.02   0.01    -0.03  -0.02  -0.02    -0.03   0.01   0.00
    13   6    -0.01  -0.04   0.07    -0.04  -0.04  -0.02    -0.03   0.03  -0.02
    14   1    -0.03  -0.05   0.05    -0.04  -0.07   0.03    -0.03   0.04  -0.03
    15   6    -0.02  -0.01   0.05    -0.04  -0.03  -0.03    -0.03   0.02   0.00
    16   1    -0.05   0.00   0.05    -0.05  -0.02  -0.03    -0.02   0.02   0.01
    17   8     0.01  -0.06   0.03    -0.02  -0.06  -0.08    -0.04   0.03  -0.05
    18  17    -0.03   0.07  -0.07    -0.04   0.01  -0.05    -0.03   0.00   0.00
    19   6     0.01  -0.04   0.03     0.00   0.03  -0.03     0.13  -0.02  -0.11
    20   6     0.06  -0.05  -0.01    -0.09   0.06   0.08     0.11  -0.02  -0.10
    21   1     0.07  -0.01  -0.05    -0.13  -0.02   0.16     0.08  -0.02  -0.14
    22   6    -0.02   0.05   0.01     0.02  -0.10  -0.06     0.12  -0.04  -0.13
    23   1    -0.13  -0.01  -0.12     0.08  -0.15  -0.15     0.14  -0.02  -0.09
    24   1    -0.03   0.26  -0.01     0.03  -0.04  -0.07     0.13  -0.09  -0.13
    25   1     0.07   0.03   0.12    -0.03  -0.18   0.02     0.10  -0.03  -0.16
    26   6    -0.04  -0.09   0.06     0.09   0.15  -0.12     0.17  -0.01  -0.09
    27   1    -0.04  -0.11   0.02     0.08   0.22  -0.08     0.17   0.00  -0.04
    28   1    -0.08  -0.13   0.07     0.12   0.21  -0.12     0.21   0.00  -0.10
    29   1    -0.05  -0.06   0.12     0.15   0.09  -0.20     0.16  -0.02  -0.11
    30   6     0.06  -0.10  -0.01    -0.11   0.16   0.10     0.12  -0.01  -0.01
    31   1     0.10  -0.11  -0.03    -0.18   0.18   0.20     0.10   0.00  -0.01
    32   1     0.05  -0.15   0.05    -0.08   0.26   0.01     0.15   0.00   0.02
    33   8    -0.37   0.11  -0.28    -0.01   0.01   0.02    -0.11   0.13   0.26
    34   1    -0.26  -0.02  -0.16    -0.02  -0.01  -0.02    -0.09  -0.05   0.14
    35   1    -0.21   0.17  -0.18     0.01   0.02   0.02     0.08   0.25   0.22
    36   8     0.19   0.04   0.15     0.19   0.07   0.05     0.01  -0.24   0.25
    37   1     0.22  -0.13   0.17     0.26  -0.06   0.04     0.13  -0.21   0.20
    38   1     0.13  -0.02   0.10     0.10  -0.01  -0.01    -0.01  -0.08   0.11
                      7                      8                      9
                      A                      A                      A
 Frequencies --     82.5179                89.0517               130.5517
 Red. masses --      6.6930                 5.1759                 4.3634
 Frc consts  --      0.0269                 0.0242                 0.0438
 IR Inten    --      5.8521                 1.9828                 0.7190
  Atom  AN      X      Y      Z        X      Y      Z        X      Y      Z
     1   6     0.10  -0.02   0.09     0.07  -0.01   0.07    -0.03   0.00   0.08
     2   6     0.09  -0.02   0.08     0.02   0.00   0.07     0.02  -0.04   0.25
     3   6     0.08  -0.01  -0.01    -0.01  -0.02   0.03     0.02   0.00   0.13
     4   6     0.07  -0.01  -0.07    -0.01  -0.06   0.00     0.00   0.04  -0.01
     5   6     0.08  -0.01  -0.08     0.03  -0.06  -0.04    -0.05   0.07  -0.22
     6   6     0.09  -0.02   0.00     0.07  -0.04   0.00    -0.07   0.06  -0.23
     7   1     0.12  -0.03   0.17     0.09   0.01   0.11    -0.03  -0.03   0.15
     8   1     0.10  -0.02   0.15     0.02   0.03   0.11     0.04  -0.08   0.44
     9   1     0.07   0.00  -0.13     0.03  -0.09  -0.08    -0.08   0.12  -0.40
    10   1     0.10  -0.02  -0.01     0.10  -0.05  -0.02    -0.11   0.09  -0.43
    11   6     0.06  -0.01  -0.06    -0.03  -0.09   0.00     0.01   0.04   0.04
    12   6     0.07  -0.01  -0.03    -0.05  -0.01   0.04     0.03   0.00   0.08
    13   6     0.06  -0.02  -0.05    -0.05  -0.09   0.10     0.03   0.03   0.06
    14   1     0.06  -0.02  -0.04    -0.08  -0.11   0.09     0.03   0.04   0.06
    15   6     0.06  -0.01  -0.06    -0.07  -0.05   0.11     0.03   0.02   0.05
    16   1     0.05   0.00  -0.07    -0.10  -0.05   0.12     0.03   0.03  -0.02
    17   8     0.06  -0.03  -0.02    -0.04  -0.09  -0.08     0.01   0.04   0.05
[...]
 259646,-0.00125061,0.00156168,-0.00105570,0.00113978,-0.00036758,-0.00
 000181,-0.00005880,0.00007035,-0.00010540,-0.00012642,0.00012572,-0.00
 091689,-0.00011334,-0.00163212,-0.00026241,0.00030997,0.00048033,-0.00
 007150,-0.00000410,0.00004931,-0.00035425,-0.00009203,-0.00041946,-0.0
 0008421,0.00005300,0.00015650,0.00006771,0.00014670,-0.00013667,0.0001
 9199,0.00007607,0.00002796,0.00129429,-0.00041132,0.00086509,-0.000047
 64,0.00000937,-0.00020978,-0.00006220,-0.00007599,-0.00013499,-0.34940
 846,0.11042358,0.17159963,0.37468860,0.00001952,-0.00009225,0.00005070
 ,0.00008578,-0.00002832,-0.00001505,0.00013298,-0.00043774,-0.00002914
 ,-0.00090423,-0.00053418,0.00031098,-0.00097395,0.00058842,-0.00022466
 ,0.00008546,-0.00033967,0.00000333,0.00003101,-0.00002547,0.00000259,-
 0.00002711,-0.00002140,0.00000314,-0.00069001,-0.00012778,0.00072210,-
 0.00007072,-0.00007814,0.00002973,0.00778723,-0.00046820,0.00072379,0.
 00008707,0.00018995,-0.00002137,-0.00106872,0.00164585,0.00067162,-0.0
 0003638,-0.00008886,-0.00005869,0.00016738,0.00000812,-0.00025117,-0.0
 0010807,0.00003954,0.00001157,-0.00588484,-0.00177494,0.00086323,-0.00
 027293,0.00002448,0.00004309,-0.00094859,0.00026318,-0.00194103,0.0001
 2383,-0.00050284,0.00028112,-0.00000076,-0.00001814,-0.00005330,0.0002
 0481,-0.00035938,0.00028005,-0.00028153,0.00056466,-0.00026385,0.00011
 786,0.00009680,0.00011767,-0.00004590,-0.00011510,-0.00006043,0.000091
 87,0.00020200,0.00044177,0.00000428,-0.00005466,-0.00006424,-0.0000691
 9,-0.00017587,0.00008525,-0.00003404,-0.00004219,0.00005760,-0.0006475
 8,0.00045269,-0.00052770,0.00002225,0.00000366,0.00020300,0.00001749,0
 .00005478,0.00007536,0.15974726,-0.10518835,-0.07688943,-0.11933818,0.
 10089199,-0.00004882,-0.00010188,0.00003386,-0.00007429,-0.00002280,-0
 .00002188,-0.00008053,-0.00000032,0.00003322,-0.00055036,-0.00011233,0
 .00007309,0.00044920,-0.00032841,0.00006488,-0.00031204,0.00006464,-0.
 00006733,-0.00004840,-0.00000659,0.00002101,-0.00002490,-0.00000465,0.
 00001284,0.00065804,0.00067469,-0.00004646,0.00000719,-0.00003646,0.00
 004839,0.00348420,0.00147478,-0.00008891,0.00010291,-0.00009587,0.0000
 2605,-0.00129314,0.00049651,0.00013528,0.00001919,0.00000166,0.0000603
 2,0.00014960,0.00022559,-0.00014133,-0.00011484,0.00004777,0.00001554,
 -0.00256137,-0.00017573,-0.00296192,-0.00026025,0.00007348,0.00002058,
 0.00016308,-0.00124966,-0.00114607,-0.00059132,0.00033250,-0.00000904,
 0.00000804,0.00003238,-0.00000349,0.00024963,-0.00053476,-0.00014212,-
 0.00158476,-0.00014759,-0.00102653,0.00005021,0.00029582,0.00021691,0.
 00003030,0.00024128,0.00017519,0.00016749,-0.00023941,0.00003039,-0.00
 002081,0.00006263,-0.00000227,-0.00003415,0.00011462,0.00011157,-0.000
 02505,0.00026879,-0.00031741,0.00024432,0.00013755,-0.00003334,-0.0000
 0731,0.00001435,0.00005170,0.00000879,-0.00001284,-0.00002121,0.167711
 98,-0.05092887,-0.09429917,-0.18132501,0.05599232,0.10383520,-0.000038
 77,0.00003726,-0.00001268,-0.00000243,-0.00003371,-0.00000030,-0.00002
 191,0.00014220,-0.00001150,0.00032665,0.00017873,-0.00000809,0.0000753
 7,-0.00014488,0.00001115,0.00005657,0.00003728,-0.00001524,0.00000703,
 0.00000923,0.00000201,0.00000906,0.00000288,0.00000438,0.00000497,0.00
 003076,-0.00005027,0.00000063,0.00000908,0.00000180,-0.00169002,0.0005
 5803,-0.00017678,-0.00007506,-0.00005642,0.00002809,0.00009244,-0.0004
 7360,-0.00023621,0.00000226,0.00004953,0.00004506,0.00000353,0.0000179
 8,0.00001759,0.00001666,-0.00000837,0.00000383,0.00209469,-0.00034924,
 -0.00103424,0.00008669,-0.00002109,-0.00001147,0.00043477,-0.00012896,
 0.00057876,-0.00021729,0.00022472,-0.00008591,0.00002257,0.00000294,0.
 00004432,-0.00042709,0.00008864,-0.00022213,0.00043292,0.00016560,0.00
 004796,-0.00003171,-0.00003298,-0.00005658,0.00009298,-0.00014742,-0.0
 0000514,-0.00010709,0.00001139,-0.00011944,-0.00001341,-0.00000547,0.0
 0002832,0.00002187,0.00003609,-0.00004667,0.00001317,0.00001440,0.0000
 4261,0.00027617,-0.00010405,0.00019470,-0.00000963,0.00000139,-0.00005
 123,-0.00001014,-0.00001423,-0.00002310,-0.12962915,-0.15045964,0.0760
 1499,-0.02250862,-0.03798093,0.01626882,0.15423755,-0.00003122,0.00001
 160,0.00000452,0.00001074,-0.00004405,0.00000890,-0.00001483,0.0000167
 7,-0.00000436,-0.00011198,0.00001730,-0.00005991,-0.00018880,0.0000902
 0,-0.00001940,0.00007445,-0.00005387,-0.00001417,0.00000587,-0.0000036
 6,0.00000114,-0.00000287,-0.00000143,0.00000064,-0.00012367,-0.0001109
 1,0.00009988,-0.00001192,-0.00001366,0.00001061,0.00017769,-0.00032985
 ,-0.00000848,-0.00000477,-0.00003704,-0.00000101,0.00015952,0.00015080
 ,-0.00000373,0.00009777,-0.00011923,-0.00005125,0.00006869,-0.00010236
 ,0.00007504,0.00001758,0.00000063,-0.00000653,-0.00031863,-0.00165103,
 0.00025158,-0.00004526,-0.00000495,0.00000286,-0.00014017,0.00004439,-
 0.00010573,0.00013677,0.00004817,0.00001978,-0.00004160,-0.00007546,-0
 .00006633,0.00024335,0.00017069,-0.00014365,0.00006804,0.00043602,0.00
 038237,-0.00005599,-0.00005970,0.00010941,-0.00014980,-0.00024481,-0.0
 0018238,-0.00005684,0.00003469,0.00003927,-0.00000584,-0.00002485,0.00
 000025,-0.00000498,-0.00002095,0.00000161,-0.00002206,-0.00003611,0.00
 004723,0.00000679,-0.00004632,0.00005839,0.00000866,-0.00000248,-0.000
 01653,-0.00001893,-0.00000341,-0.00000551,-0.19957217,-0.37549072,0.13
 303698,0.01049251,0.00864799,-0.00582342,0.18828271,0.36615353,-0.0000
 2876,0.00001878,-0.00000378,-0.00002418,-0.00005618,0.00000717,-0.0000
 5071,0.00009395,-0.00002683,-0.00008681,0.00006748,0.00001046,-0.00003
 281,-0.00001757,0.00000333,0.00002749,-0.00002025,-0.00001215,-0.00000
 729,-0.00000721,0.00000711,-0.00000717,0.00000003,0.00000537,-0.000018
 61,0.00000496,-0.00000744,0.00000469,-0.00000700,0.00000720,0.00030773
 ,0.00000909,-0.00000117,0.00002741,-0.00012564,0.00003872,-0.00028887,
 -0.00006989,-0.00018741,0.00000205,0.00002300,0.00006268,0.00016498,-0
 .00002344,-0.00006010,-0.00002564,0.00001848,0.00000962,-0.00085964,0.
 00020694,-0.00002184,-0.00013885,0.00003946,0.00001143,0.00118124,-0.0
 0059835,-0.00007462,-0.00083261,0.00050425,0.00001281,0.00002693,-0.00
 002028,0.00002878,-0.00028376,-0.00029487,0.00039132,0.00008060,0.0005
 7637,-0.00166971,-0.00016451,0.00023260,0.00045580,-0.00007222,-0.0003
 1182,-0.00010543,-0.00016532,0.00003679,0.00000649,-0.00004482,-0.0000
 2419,0.00003153,0.00001160,0.00002231,-0.00001967,0.00003276,0.0000669
 4,0.00001038,0.00048167,0.00006146,0.00016213,-0.00002205,0.00001328,0
 .00001039,-0.00002399,-0.00002125,-0.00004933,0.07984322,0.10734043,-0
 .05706691,0.01230263,0.01939917,-0.00546181,-0.09181854,-0.12666563,0.
 06630899,0.00006517,-0.00017378,0.00001400,-0.00004502,0.00011338,0.00
 002786,0.00002105,-0.00066038,-0.00001568,-0.00165557,-0.00045552,-0.0
 0011160,-0.00020364,0.00038944,-0.00003035,-0.00024870,-0.00009769,0.0
 0003923,-0.00003200,-0.00002854,0.00000736,-0.00004624,-0.00002403,0.0
 0000068,0.00002239,0.00019976,0.00001369,-0.00001929,-0.00005953,0.000
 02772,0.00784804,-0.00400993,0.00060908,0.00025476,0.00016841,-0.00008
 834,0.00022781,0.00218097,0.00088427,-0.00066229,-0.00052873,0.0000339
 1,-0.00001490,-0.00019110,0.00005214,-0.00006834,0.00003734,0.00000133
 ,-0.01261600,-0.00620286,0.01110221,-0.00033931,0.00007097,0.00002789,
 -0.00194429,0.00066563,-0.00159544,0.00067991,-0.00093388,0.00046217,-
 0.00012558,0.00001253,-0.00009179,0.00026178,-0.00056311,0.00043548,-0
 .00002274,-0.00009943,0.00011650,0.00027789,0.00009841,-0.00021499,0.0
 0018499,0.00029941,-0.00027343,0.00035118,0.00000198,0.00051270,0.0000
 5791,-0.00001775,-0.00014554,-0.00008000,-0.00014568,0.00017579,-0.000
 11149,-0.00002100,-0.00005439,-0.00098538,0.00035038,-0.00072318,0.000
 02795,-0.00001805,0.00014903,0.00006648,0.00005753,0.00011513,0.002190
 16,0.00136254,-0.00048371,-0.00123895,0.00096413,0.00028025,-0.0018303
 2,-0.00295296,0.00043420,0.40806027,0.00015890,-0.00012451,-0.00000253
 ,-0.00007539,0.00021111,-0.00000442,0.00005052,-0.00058334,0.00000885,
 -0.00147207,-0.00026589,0.00001318,0.00022008,0.00030681,-0.00000606,-
 0.00029732,-0.00000872,0.00005981,-0.00002128,-0.00001139,-0.00000206,
 -0.00002869,-0.00002151,-0.00000360,0.00007962,0.00012873,-0.00008912,
 0.00001410,0.00000347,-0.00000333,0.00533891,-0.00362107,0.00105067,0.
 00013689,0.00023032,-0.00004288,-0.00069202,0.00049564,0.00063513,-0.0
 0051849,0.00032102,0.00014690,-0.00001738,0.00031480,-0.00034817,-0.00
 012716,0.00002774,0.00002429,-0.01169776,0.00122558,0.00692749,-0.0000
 9229,0.00008300,0.00001910,0.00005761,-0.00060982,-0.00105881,-0.00070
 273,-0.00026835,0.00027922,0.00026588,0.00009414,0.00004412,0.00016079
 ,-0.00030302,0.00066656,-0.00011907,0.00018879,-0.00053153,-0.00003258
 ,0.00004276,0.00018501,-0.00004553,-0.00025144,0.00020631,0.00003425,0
 .00005745,0.00024357,-0.00000774,-0.00002607,-0.00003690,-0.00000964,-
 0.00003335,0.00007264,0.00000504,0.00008978,-0.00008319,-0.00013097,0.
 00044171,-0.00044554,-0.00006318,0.00000959,0.00019825,0.00006135,0.00
 003971,0.00002859,0.00058855,-0.00882728,0.00257761,0.00226804,0.00078
 617,-0.00195403,-0.00422960,0.00440952,-0.00053402,0.10727235,0.093855
 25,0.00003806,0.00006087,-0.00000374,0.00011850,0.00002226,-0.00000530
 ,0.00012730,0.00030006,-0.00001784,0.00154855,-0.00006859,-0.00004239,
 0.00014803,-0.00014917,0.00001473,0.00009792,0.00007290,0.00000285,0.0
 0003141,0.00002494,-0.00001715,0.00004775,0.00002544,-0.00001593,-0.00
 006489,-0.00020131,-0.00002783,0.00000778,0.00004918,-0.00003607,-0.00
 485421,0.00376966,-0.00094340,-0.00015388,0.00015589,-0.00002635,0.000
 38698,-0.00095531,0.00016249,-0.00002906,0.00011409,-0.00017721,-0.000
 29948,0.00006042,0.00005141,0.00009765,-0.00006343,-0.00003087,0.01404
 560,0.00549724,-0.00528339,0.00040541,-0.00011199,-0.00002602,-0.00003
 912,0.00060861,0.00172567,0.00061506,-0.00071673,-0.00038381,0.0001250
 4,0.00025207,0.00009338,-0.00067278,-0.00041918,-0.00068198,0.00008542
 ,-0.00037281,0.00011670,0.00019478,0.00024786,-0.00049392,0.00049609,0
 .00090041,-0.00093346,0.00012224,-0.00003643,-0.00017877,0.00003418,0.
 00005606,0.00002487,0.00001048,0.00004085,-0.00005736,0.00002384,-0.00
 002472,0.00005392,-0.00056050,-0.00006733,-0.00015596,-0.00000595,-0.0
 0001764,-0.00007584,0.00007946,0.00003005,0.00009186,0.00015371,0.0009
 3501,0.00302710,0.00018134,-0.00097209,-0.00119910,-0.00040459,0.00040
 960,-0.00408410,0.00909866,-0.17645361,0.61146033,0.00001518,-0.000001
 30,-0.00000527,-0.00002167,0.00003045,-0.00000989,-0.00000055,-0.00006
 971,0.00001542,-0.00020439,0.00004401,0.00006133,0.00003898,0.00001410
 ,-0.00000811,-0.00001578,0.00000371,-0.00000106,0.00000493,0.00000532,
 0.00000029,-0.00000031,-0.00000355,0.00000344,0.00000270,0.00000270,0.
 00000108,0.00000120,0.00000808,0.00000023,0.00007743,-0.00045071,0.000
 13478,-0.00005226,0.00004736,0.00000320,-0.00012482,-0.00016445,-0.000
 19601,0.00008261,0.00016469,0.00016378,-0.00004596,0.00008712,-0.00007
 054,-0.00001138,0.00000880,0.00001848,-0.00192264,-0.00073299,0.000264
 92,0.00006030,-0.00000418,-0.00000414,-0.00004072,-0.00004538,-0.00015
 560,-0.00012375,0.00014434,-0.00006255,-0.00000801,-0.00001495,0.00000
 218,-0.00010965,-0.00013439,-0.00014957,-0.00002788,-0.00004752,0.0000
 2730,0.00004173,0.00004987,-0.00007273,0.00004909,0.00014721,0.0002143
 1,0.00004114,-0.00000899,-0.00002913,0.00000897,0.00001551,0.00000423,
 0.00000591,0.00000612,-0.00000631,0.00000576,0.00000268,0.00000360,0.0
 0020554,0.00000686,0.00009437,0.00000687,0.00000568,-0.00000011,-0.000
 01797,-0.00001714,-0.00003682,-0.00011605,0.00000080,0.00037373,0.0001
 3114,-0.00001770,0.00002725,-0.00012650,0.00022070,-0.00092957,-0.1193
 8722,0.02958987,-0.20485796,0.10888111,-0.00003023,0.00000926,0.000001
 46,0.00000688,-0.00003252,-0.00000128,-0.00003288,0.00005683,-0.000009
 97,0.00009045,0.00005929,0.00000810,-0.00005039,-0.00003786,-0.0000014
 2,0.00004180,-0.00001668,-0.00001813,0.00000380,0.00000129,0.00000275,
 0.00000219,0.00000248,0.00000201,0.00000544,-0.00001361,0.00002755,-0.
 00000385,-0.00000500,0.00000821,-0.00104766,0.00017988,0.00012907,-0.0
 0002329,-0.00002784,0.00000919,0.00014184,-0.00002930,-0.00000942,0.00
 005120,0.00000475,-0.00012215,-0.00002195,-0.00004191,0.00005974,0.000
 03711,-0.00000754,-0.00001300,0.00005845,-0.00037564,-0.00059347,0.000
 01093,-0.00002210,-0.00000312,0.00001567,0.00010304,0.00010217,0.00009
 647,-0.00010682,-0.00006388,-0.00004258,0.00006604,0.00002610,-0.00002
 602,-0.00004553,-0.00010343,0.00002195,0.00012728,0.00002065,0.0000012
 3,0.00004348,0.00000536,0.00010368,-0.00012860,0.00019674,0.00000910,-
 0.00000783,-0.00003105,0.00000376,0.00000678,-0.00000108,0.00000026,0.
 00000750,-0.00000944,-0.00000140,-0.00000982,0.00001292,-0.00005814,-0
 .00001716,0.00002178,0.00001588,-0.00000461,-0.00004704,0.00001010,-0.
 00000596,0.00001501,-0.00053540,0.00000487,-0.00147615,-0.00008522,0.0
 0002154,0.00072536,0.00108801,-0.00052929,0.00198138,0.01461295,-0.019
 07061,0.07245656,-0.02296784,0.02218863,-0.00001489,-0.00001844,0.0000
 0082,0.00000001,-0.00002432,0.00000673,-0.00001936,0.00000921,-0.00001
 060,-0.00005833,-0.00010259,-0.00002225,-0.00003985,0.00000204,-0.0000
 0185,-0.00001931,-0.00001837,-0.00000015,-0.00000814,-0.00000712,0.000
 00489,-0.00000735,0.00000040,0.00000304,0.00001758,0.00003155,-0.00000
 070,-0.00000006,-0.00001156,0.00000741,0.00099018,0.00002858,-0.000147
 26,0.00003390,-0.00005035,-0.00000856,0.00004739,0.00045005,0.00011006
 ,0.00017118,-0.00022852,-0.00015573,0.00005899,-0.00012844,0.00007100,
 -0.00000242,0.00001364,0.00000506,-0.00038850,-0.00024199,0.00106470,-
 0.00011923,0.00001787,0.00000441,-0.00022688,0.00010071,-0.00017407,0.
 00008763,-0.00010960,0.00007153,-0.00003724,0.00000654,-0.00005060,-0.
 00013136,-0.00023313,0.00008496,-0.00000423,0.00001836,-0.00004282,0.0
 0007228,0.00005546,-0.00001485,0.00009471,0.00015181,-0.00016936,0.000
 04459,-0.00001554,0.00008582,0.00000234,-0.00000126,-0.00001781,-0.000
 01458,-0.00002226,0.00002599,-0.00001262,-0.00000498,-0.00001256,-0.00
 014115,0.00003724,-0.00008547,0.00001386,-0.00000307,0.00000857,0.0000
 0700,0.00000329,0.00002009,0.00001937,-0.00101173,0.00005903,0.0000888
 9,0.00028144,-0.00016973,-0.00033915,0.00114621,0.00012169,-0.15602346
 ,0.08645724,-0.43896541,0.17300758,-0.08922007,0.46297218,-0.00011245,
 0.00025604,-0.00001194,0.00007264,-0.00017997,-0.00000467,-0.00004829,
 0.00092362,0.00000468,0.00243160,0.00089520,-0.00021288,0.00027186,-0.
 00051404,0.00005299,0.00039602,0.00013825,-0.00005023,0.00004034,0.000
 03331,-0.00001211,0.00006369,0.00003362,-0.00000203,-0.00002281,-0.000
 31288,-0.00000786,0.00002316,0.00007271,-0.00004490,-0.01467017,0.0043
 4042,0.00077891,-0.00022162,-0.00024849,0.00009649,0.00004155,-0.00299
 288,-0.00115132,-0.00010720,0.00078388,0.00016682,-0.00003409,0.000004
 04,-0.00008032,0.00016170,-0.00006628,-0.00000784,0.00838459,0.0032924
 0,-0.00660863,0.00041994,-0.00009753,-0.00002366,0.00329478,-0.0008312
 5,0.00231374,-0.00079541,0.00160922,-0.00049152,-0.00000214,-0.0002391
 2,-0.00003440,0.00005569,0.00100652,-0.00058985,-0.00011228,0.00030049
 ,-0.00023744,-0.00052533,-0.00022655,0.00061559,-0.00087654,-0.0006676
 3,-0.00060903,-0.00060179,-0.00004005,-0.00083705,-0.00009597,0.000011
 55,0.00021661,0.00012308,0.00023026,-0.00027527,0.00015134,0.00001499,
 0.00007233,0.00139563,-0.00063447,0.00110155,-0.00002637,0.00001915,-0
 .00027311,-0.00012621,-0.00009830,-0.00018506,-0.00111483,-0.00230303,
 0.00055750,0.00256707,-0.00028883,-0.00112315,-0.00156942,0.00380346,0
 .00099754,-0.27892047,-0.12592190,0.18362118,0.01269693,0.00849769,-0.
 01714936,0.26739180,-0.00022718,0.00022486,-0.00000079,0.00007307,-0.0
 0029323,0.00001861,-0.00007304,0.00092198,0.00001284,0.00242933,0.0005
 4878,-0.00018320,-0.00010708,-0.00054467,0.00004728,0.00042913,0.00010
 084,-0.00007821,0.00002427,0.00002009,-0.00000266,0.00004458,0.0000300
 3,0.00000572,-0.00007405,-0.00017254,0.00003921,0.00000081,0.00002095,
 -0.00001811,-0.00793272,0.00588495,-0.00166238,-0.00018986,-0.00039620
 ,0.00007681,0.00123331,-0.00104128,-0.00134646,0.00070787,-0.00077505,
 0.00005785,0.00000584,-0.00043190,0.00037663,0.00012734,-0.00003908,-0
 .00001495,0.00899534,-0.00798568,-0.00208323,0.00016800,-0.00009273,-0
 .00002403,0.00073252,0.00052569,0.00179452,0.00031814,0.00079907,-0.00
 052503,-0.00030155,-0.00037101,-0.00013288,0.00012732,0.00061068,-0.00
 022156,0.00023104,-0.00037419,0.00046727,-0.00013126,-0.00021820,-0.00
 007916,-0.00029891,0.00003900,-0.00008443,-0.00019658,-0.00009971,-0.0
 0051021,-0.00001393,0.00003038,0.00008492,0.00004912,0.00010330,-0.000
 14305,0.00003556,-0.00007283,0.00008485,0.00070130,-0.00074901,0.00082
 061,0.00002283,-0.00000938,-0.00025587,-0.00010251,-0.00005802,-0.0000
 9264,-0.00114353,0.00161755,0.00058319,-0.00066334,-0.00400837,0.00049
 892,0.00320175,-0.00122615,-0.00191956,-0.11167417,-0.06933671,0.09454
 033,-0.00592518,-0.00234670,0.00264170,0.10939640,0.07916450,-0.000032
 40,-0.00008913,0.00001104,-0.00017023,0.00000305,-0.00003485,-0.000180
 53,-0.00047363,0.00005962,-0.00223327,0.00011829,0.00060157,-0.0002084
 5,0.00019728,-0.00003449,-0.00014639,-0.00008972,0.00000875,-0.0000386
 7,-0.00002971,0.00001739,-0.00006458,-0.00003848,0.00001596,0.00005751
 ,0.00027513,0.00001227,-0.00001562,-0.00006401,0.00004204,0.00703658,-
 0.00489570,0.00099013,0.00018532,-0.00014818,0.00006191,-0.00076497,0.
 00103255,-0.00030028,0.00007438,0.00002275,0.00031128,0.00032522,0.000
 13028,-0.00013030,-0.00015910,0.00007986,0.00002284,-0.00866866,-0.000
 97330,-0.00198655,-0.00046601,0.00013903,0.00003165,-0.00055646,-0.000
 35407,-0.00382552,-0.00079777,0.00039777,-0.00008975,-0.00012961,-0.00
 029636,-0.00010857,0.00003137,0.00027733,-0.00035080,-0.00021424,0.000
 25306,0.00002484,0.00009634,-0.00009110,0.00025504,-0.00094795,-0.0001
 5689,-0.00048368,0.00009862,0.00006547,0.00031858,0.00000867,-0.000028
 30,-0.00007111,-0.00004021,-0.00009827,0.00012333,-0.00005461,0.000020
 87,-0.00006355,0.00075185,0.00018685,0.00013539,-0.00002393,0.00001000
 ,0.00012346,-0.00005589,-0.00000984,-0.00008481,0.00022381,0.00153937,
 -0.00210206,-0.00114714,0.00072154,0.00219309,0.00139485,-0.00252822,0
 .00114889,0.13523061,0.08175529,-0.16296209,0.03217386,0.01591200,-0.0
 2467823,-0.16057228,-0.09277284,0.19079755\\-0.00000798,-0.00000180,-0
 .00001620,-0.00000541,-0.00000100,-0.00001540,0.00000015,0.00000627,-0
 .00000818,0.00000549,-0.00000102,-0.00000691,-0.00000416,0.00000730,-0
 .00001019,0.00000139,-0.00000144,-0.00001609,0.00000100,0.00000457,-0.
 00002512,0.00000285,0.00000183,-0.00001693,0.00000230,0.00000006,-0.00
 001270,-0.00000313,0.00000276,-0.00001980,0.00000300,0.00000499,-0.000
 00419,0.00000484,0.00000587,-0.00000470,-0.00000275,-0.00000085,0.0000
 0824,0.00000517,0.00000612,0.00000794,0.00000411,-0.00000051,0.0000009
 9,0.00000372,0.00000573,0.00000454,-0.00000280,-0.00000414,0.00000557,
 0.00000169,0.00000366,-0.00000718,-0.00000307,-0.00000340,0.00000486,0
 .00000779,-0.00000090,0.00000610,-0.00000562,-0.00000994,0.00001800,0.
 00000970,-0.00001028,0.00001104,-0.00001748,0.00000591,0.00000911,-0.0
 0000586,-0.00000825,0.00001167,-0.00000029,-0.00000204,0.00001308,-0.0
 0000608,-0.00000557,0.00000034,-0.00000227,-0.00000817,-0.00000190,-0.
 00000943,-0.00001145,0.00000196,-0.00000391,-0.00000771,-0.00000357,-0
 .00000905,-0.00000832,0.00000948,-0.00000060,-0.00000413,0.00001045,-0
 .00000345,-0.00000527,0.00000270,0.00000488,0.00000041,-0.00000613,0.0
 0001347,0.00000812,0.00000884,-0.00000119,0.00000523,0.00000886,-0.000
 00064,0.00000977,0.00001377,0.00000908,0.00001132,0.00001030,0.0000145
 2,0.00000626,0.00000736\\\@


 IN THE WOODS WE RETURN TO REASON AND FAITH.

                                 -- EMERSON
 Job cpu time:       1 days 12 hours 25 minutes 20.2 seconds.
 File lengths (MBytes):  RWF=   1751 Int=      0 D2E=      0 Chk=     38 Scr=      1
 Normal termination of Gaussian 09 at Fri Feb  4 18:39:55 2022.
