 Entering Gaussian System, Link 0=g09
 Input=ts_claisen_water.com
 Output=ts_claisen_water.log
 Initial command:
 /apps/applications/gaussian/G09.D01/2/default/g09/l1.exe "/nobackup/pmmass/Temp/Gau-55737.inp" -scrdir="/nobackup/pmmass/Temp/"
 Entering Link 1 = /apps/applications/gaussian/G09.D01/2/default/g09/l1.exe PID=     55738.
  
 Copyright (c) 1988,1990,1992,1993,1995,1998,2003,2009,2013,
            Gaussian, Inc.  All Rights Reserved.
  
 This is part of the Gaussian(R) 09 program.  It is based on
 the Gaussian(R) 03 system (copyright 2003, Gaussian, Inc.),
 the Gaussian(R) 98 system (copyright 1998, Gaussian, Inc.),
 the Gaussian(R) 94 system (copyright 1995, Gaussian, Inc.),
 the Gaussian 92(TM) system (copyright 1992, Gaussian, Inc.),
 the Gaussian 90(TM) system (copyright 1990, Gaussian, Inc.),
 the Gaussian 88(TM) system (copyright 1988, Gaussian, Inc.),
 the Gaussian 86(TM) system (copyright 1986, Carnegie Mellon
 University), and the Gaussian 82(TM) system (copyright 1983,
 Carnegie Mellon University). Gaussian is a federally registered
 trademark of Gaussian, Inc.
  
 This software contains proprietary and confidential information,
 including trade secrets, belonging to Gaussian, Inc.
  
 This software is provided under written license and may be
 used, copied, transmitted, or stored only in accord with that
 written license.
  
 The following legend is applicable only to US Government
 contracts under FAR:
  
                    RESTRICTED RIGHTS LEGEND
  
 Use, reproduction and disclosure by the US Government is
 subject to restrictions as set forth in subparagraphs (a)
 and (c) of the Commercial Computer Software - Restricted
 Rights clause in FAR 52.227-19.
  
 Gaussian, Inc.
 340 Quinnipiac St., Bldg. 40, Wallingford CT 06492
  
  
 ---------------------------------------------------------------
 Warning -- This program may not be used in any manner that
 competes with the business of Gaussian, Inc. or will provide
 assistance to any competitor of Gaussian, Inc.  The licensee
 of this program is prohibited from giving any competitor of
 Gaussian, Inc. access to this program.  By using this program,
 the user acknowledges that Gaussian, Inc. is engaged in the
 business of creating and licensing software in the field of
 computational chemistry and represents and warrants to the
 licensee that it is not a competitor of Gaussian, Inc. and that
 it will not use this program in any manner prohibited above.
 ---------------------------------------------------------------
  

 Cite this work as:
 Gaussian 09, Revision D.01,
 M. J. Frisch, G. W. Trucks, H. B. Schlegel, G. E. Scuseria, 
 M. A. Robb, J. R. Cheeseman, G. Scalmani, V. Barone, B. Mennucci, 
 G. A. Petersson, H. Nakatsuji, M. Caricato, X. Li, H. P. Hratchian, 
 A. F. Izmaylov, J. Bloino, G. Zheng, J. L. Sonnenberg, M. Hada, 
 M. Ehara, K. Toyota, R. Fukuda, J. Hasegawa, M. Ishida, T. Nakajima, 
 Y. Honda, O. Kitao, H. Nakai, T. Vreven, J. A. Montgomery, Jr., 
 J. E. Peralta, F. Ogliaro, M. Bearpark, J. J. Heyd, E. Brothers, 
 K. N. Kudin, V. N. Staroverov, T. Keith, R. Kobayashi, J. Normand, 
 K. Raghavachari, A. Rendell, J. C. Burant, S. S. Iyengar, J. Tomasi, 
 M. Cossi, N. Rega, J. M. Millam, M. Klene, J. E. Knox, J. B. Cross, 
 V. Bakken, C. Adamo, J. Jaramillo, R. Gomperts, R. E. Stratmann, 
 O. Yazyev, A. J. Austin, R. Cammi, C. Pomelli, J. W. Ochterski, 
 R. L. Martin, K. Morokuma, V. G. Zakrzewski, G. A. Voth, 
 P. Salvador, J. J. Dannenberg, S. Dapprich, A. D. Daniels, 
 O. Farkas, J. B. Foresman, J. V. Ortiz, J. Cioslowski, 
 and D. J. Fox, Gaussian, Inc., Wallingford CT, 2013.
 
 ******************************************
 Gaussian 09:  ES64L-G09RevD.01 24-Apr-2013
                 2-Feb-2022 
 ******************************************
 %nprocshared=8
 Will use up to    8 processors via shared memory.
 %mem=4GB
 %NoSave
 %chk="ts_claisen_water.chk"
 ----------------------------------------------------------------------
 #n wB97XD/Def2TZVP scrf(smd,solvent=toluene) opt=(calcfc,ts,noeigentes
 t)
 ----------------------------------------------------------------------
 1/5=1,10=4,11=1,14=-1,18=20,26=3,38=1/1,3;
 2/9=110,12=2,17=6,18=5,40=1/2;
 3/5=44,7=101,11=2,16=1,25=1,30=1,70=32201,71=2,72=13,74=-58,140=1/1,2,3;
 4//1;
 5/5=2,38=5,53=13/2;
 8/6=4,10=90,11=11/1;
 11/6=1,8=1,9=11,15=111,16=1/1,2,10;
 10/6=1,13=1/2;
 6/7=2,8=2,9=2,10=2,28=1/1;
 7/10=1,18=20,25=1/1,2,3,16;
 1/5=1,10=4,11=1,14=-1,18=20,26=3/3(2);
 2/9=110/2;
 99//99;
 2/9=110/2;
 3/5=44,7=101,11=2,16=1,25=1,30=1,70=32205,71=1,72=13,74=-58/1,2,3;
 4/5=5,16=3,69=1/1;
 5/5=2,38=5,53=13/2;
 7//1,2,3,16;
 1/5=1,11=1,14=-1,18=20,26=3/3(-5);
 2/9=110/2;
 6/7=2,8=2,9=2,10=2,19=2,28=1/1;
 99/9=1/99;
 ------------------------
 ts_claisen toluene - opt
 ------------------------
 Symbolic Z-matrix:
 Charge =  0 Multiplicity = 1
 C                     2.43841   2.80473  -0.56024 
 C                     2.93317   1.54354  -0.30438 
 C                     2.06812   0.49421   0.08879 
 C                     0.67358   0.75462   0.20187 
 C                     0.1983    2.06278  -0.04373 
 C                     1.06205   3.07036  -0.42083 
 H                     3.11904   3.6023   -0.86145 
 H                     3.99964   1.34064  -0.39549 
 H                    -0.8629    2.27656   0.0817 
 H                     0.67751   4.0742   -0.60542 
 C                    -0.24802  -0.30841   0.60943 
 C                     2.54822  -0.82849   0.40072 
 C                     0.29678  -1.59398   0.83673 
 H                    -0.35597  -2.35284   1.26538 
 C                     1.70292  -1.82192   0.7942 
 H                     2.10317  -2.80425   1.04673 
 O                    -1.51347  -0.12038   0.64506 
 Cl                    4.25735  -1.16023   0.30296 
 C                    -2.42966  -0.8677   -1.17382 
 C                    -1.76957  -2.10775  -1.11884 
 H                    -2.31498  -2.94025  -0.66579 
 C                    -3.86     -0.79333  -0.7481 
 H                    -4.05384   0.17603  -0.27188 
 H                    -4.49965  -0.85832  -1.64435 
 H                    -4.12762  -1.6028   -0.05826 
 C                    -1.95014   0.27093  -2.01796 
 H                    -0.85811   0.31615  -2.10837 
 H                    -2.37093   0.14584  -3.02974 
 H                    -2.3241    1.21941  -1.61021 
 C                    -0.41425  -2.24502  -1.30411 
 H                     0.06026  -3.22135  -1.19553 
 H                     0.18648  -1.47635  -1.79448 
 O                    -3.16347   2.15628   0.57779 
 H                    -2.50914   1.43617   0.60591 
 H                    -3.78054   1.84688   1.25703 
 O                    -3.76624  -0.03057   2.3182 
 H                    -3.47002   0.17797   3.21163 
 H                    -2.9472   -0.28224   1.8554 
 
 Add virtual bond connecting atoms H34        and H9         Dist= 3.63D+00.
 Add virtual bond connecting atoms H34        and O17        Dist= 3.49D+00.
 Add virtual bond connecting atoms H38        and O17        Dist= 3.56D+00.
 Add virtual bond connecting atoms C19        and O17        Dist= 4.10D+00.
 Add virtual bond connecting atoms H23        and H34        Dist= 4.12D+00.
 Add virtual bond connecting atoms H23        and H35        Dist= 4.31D+00.
 Add virtual bond connecting atoms H29        and H34        Dist= 4.22D+00.

 GradGradGradGradGradGradGradGradGradGradGradGradGradGradGradGradGradGrad
 Berny optimization.
 Initialization pass.
                           ----------------------------
                           !    Initial Parameters    !
                           ! (Angstroms and Degrees)  !
 --------------------------                            --------------------------
 ! Name  Definition              Value          Derivative Info.                !
 --------------------------------------------------------------------------------
 ! R1    R(1,2)                  1.3787         calculate D2E/DX2 analytically  !
 ! R2    R(1,6)                  1.4087         calculate D2E/DX2 analytically  !
 ! R3    R(1,7)                  1.0909         calculate D2E/DX2 analytically  !
 ! R4    R(2,3)                  1.4156         calculate D2E/DX2 analytically  !
 ! R5    R(2,8)                  1.0894         calculate D2E/DX2 analytically  !
 ! R6    R(3,4)                  1.4231         calculate D2E/DX2 analytically  !
 ! R7    R(3,12)                 1.4413         calculate D2E/DX2 analytically  !
 ! R8    R(4,5)                  1.4133         calculate D2E/DX2 analytically  !
 ! R9    R(4,11)                 1.4647         calculate D2E/DX2 analytically  !
 ! R10   R(5,6)                  1.3797         calculate D2E/DX2 analytically  !
 ! R11   R(5,9)                  1.0898         calculate D2E/DX2 analytically  !
 ! R12   R(6,10)                 1.0907         calculate D2E/DX2 analytically  !
 ! R13   R(9,34)                 1.9212         calculate D2E/DX2 analytically  !
 ! R14   R(11,13)                1.4146         calculate D2E/DX2 analytically  !
 ! R15   R(11,17)                1.2798         calculate D2E/DX2 analytically  !
 ! R16   R(12,15)                1.3624         calculate D2E/DX2 analytically  !
 ! R17   R(12,18)                1.7438         calculate D2E/DX2 analytically  !
 ! R18   R(13,14)                1.0889         calculate D2E/DX2 analytically  !
 ! R19   R(13,15)                1.4251         calculate D2E/DX2 analytically  !
 ! R20   R(15,16)                1.0904         calculate D2E/DX2 analytically  !
 ! R21   R(17,19)                2.1694         calculate D2E/DX2 analytically  !
 ! R22   R(17,34)                1.8482         calculate D2E/DX2 analytically  !
 ! R23   R(17,38)                1.8833         calculate D2E/DX2 analytically  !
 ! R24   R(19,20)                1.4059         calculate D2E/DX2 analytically  !
 ! R25   R(19,22)                1.4942         calculate D2E/DX2 analytically  !
 ! R26   R(19,26)                1.4963         calculate D2E/DX2 analytically  !
 ! R27   R(20,21)                1.0935         calculate D2E/DX2 analytically  !
 ! R28   R(20,30)                1.3748         calculate D2E/DX2 analytically  !
 ! R29   R(22,23)                1.0973         calculate D2E/DX2 analytically  !
 ! R30   R(22,24)                1.103          calculate D2E/DX2 analytically  !
 ! R31   R(22,25)                1.0967         calculate D2E/DX2 analytically  !
 ! R32   R(23,34)                2.1782         calculate D2E/DX2 analytically  !
 ! R33   R(23,35)                2.2812         calculate D2E/DX2 analytically  !
 ! R34   R(26,27)                1.0967         calculate D2E/DX2 analytically  !
 ! R35   R(26,28)                1.1029         calculate D2E/DX2 analytically  !
 ! R36   R(26,29)                1.0981         calculate D2E/DX2 analytically  !
 ! R37   R(29,34)                2.2344         calculate D2E/DX2 analytically  !
 ! R38   R(30,31)                1.0909         calculate D2E/DX2 analytically  !
 ! R39   R(30,32)                1.0919         calculate D2E/DX2 analytically  !
 ! R40   R(33,34)                0.9734         calculate D2E/DX2 analytically  !
 ! R41   R(33,35)                0.9684         calculate D2E/DX2 analytically  !
 ! R42   R(36,37)                0.9641         calculate D2E/DX2 analytically  !
 ! R43   R(36,38)                0.9738         calculate D2E/DX2 analytically  !
 ! A1    A(2,1,6)              120.3149         calculate D2E/DX2 analytically  !
 ! A2    A(2,1,7)              119.7441         calculate D2E/DX2 analytically  !
 ! A3    A(6,1,7)              119.9376         calculate D2E/DX2 analytically  !
 ! A4    A(1,2,3)              120.6851         calculate D2E/DX2 analytically  !
 ! A5    A(1,2,8)              120.4076         calculate D2E/DX2 analytically  !
 ! A6    A(3,2,8)              118.9061         calculate D2E/DX2 analytically  !
 ! A7    A(2,3,4)              119.0272         calculate D2E/DX2 analytically  !
 ! A8    A(2,3,12)             122.4671         calculate D2E/DX2 analytically  !
 ! A9    A(4,3,12)             118.4986         calculate D2E/DX2 analytically  !
 ! A10   A(3,4,5)              119.018          calculate D2E/DX2 analytically  !
 ! A11   A(3,4,11)             120.3879         calculate D2E/DX2 analytically  !
 ! A12   A(5,4,11)             120.5644         calculate D2E/DX2 analytically  !
 ! A13   A(4,5,6)              120.859          calculate D2E/DX2 analytically  !
 ! A14   A(4,5,9)              119.2778         calculate D2E/DX2 analytically  !
 ! A15   A(6,5,9)              119.8573         calculate D2E/DX2 analytically  !
 ! A16   A(1,6,5)              120.0684         calculate D2E/DX2 analytically  !
 ! A17   A(1,6,10)             120.0843         calculate D2E/DX2 analytically  !
 ! A18   A(5,6,10)             119.8465         calculate D2E/DX2 analytically  !
 ! A19   A(5,9,34)             141.2607         calculate D2E/DX2 analytically  !
 ! A20   A(4,11,13)            117.5117         calculate D2E/DX2 analytically  !
 ! A21   A(4,11,17)            121.5495         calculate D2E/DX2 analytically  !
 ! A22   A(13,11,17)           120.6525         calculate D2E/DX2 analytically  !
 ! A23   A(3,12,15)            121.6677         calculate D2E/DX2 analytically  !
 ! A24   A(3,12,18)            119.2711         calculate D2E/DX2 analytically  !
 ! A25   A(15,12,18)           119.0504         calculate D2E/DX2 analytically  !
 ! A26   A(11,13,14)           117.7567         calculate D2E/DX2 analytically  !
 ! A27   A(11,13,15)           121.3688         calculate D2E/DX2 analytically  !
 ! A28   A(14,13,15)           119.456          calculate D2E/DX2 analytically  !
 ! A29   A(12,15,13)           120.2754         calculate D2E/DX2 analytically  !
 ! A30   A(12,15,16)           119.7382         calculate D2E/DX2 analytically  !
 ! A31   A(13,15,16)           119.9578         calculate D2E/DX2 analytically  !
 ! A32   A(11,17,19)           110.098          calculate D2E/DX2 analytically  !
 ! A33   A(11,17,34)           130.9819         calculate D2E/DX2 analytically  !
 ! A34   A(11,17,38)           139.2886         calculate D2E/DX2 analytically  !
 ! A35   A(19,17,34)            92.5704         calculate D2E/DX2 analytically  !
 ! A36   A(19,17,38)           100.8197         calculate D2E/DX2 analytically  !
 ! A37   A(34,17,38)            71.0867         calculate D2E/DX2 analytically  !
 ! A38   A(17,19,20)            94.1732         calculate D2E/DX2 analytically  !
 ! A39   A(17,19,22)            98.5255         calculate D2E/DX2 analytically  !
 ! A40   A(17,19,26)            94.3309         calculate D2E/DX2 analytically  !
 ! A41   A(20,19,22)           118.8303         calculate D2E/DX2 analytically  !
 ! A42   A(20,19,26)           122.8741         calculate D2E/DX2 analytically  !
 ! A43   A(22,19,26)           115.4438         calculate D2E/DX2 analytically  !
 ! A44   A(19,20,21)           116.9704         calculate D2E/DX2 analytically  !
 ! A45   A(19,20,30)           123.0708         calculate D2E/DX2 analytically  !
 ! A46   A(21,20,30)           118.1329         calculate D2E/DX2 analytically  !
 ! A47   A(19,22,23)           109.6777         calculate D2E/DX2 analytically  !
 ! A48   A(19,22,24)           108.7045         calculate D2E/DX2 analytically  !
 ! A49   A(19,22,25)           112.0907         calculate D2E/DX2 analytically  !
 ! A50   A(23,22,24)           107.593          calculate D2E/DX2 analytically  !
 ! A51   A(23,22,25)           109.6304         calculate D2E/DX2 analytically  !
 ! A52   A(24,22,25)           109.0325         calculate D2E/DX2 analytically  !
 ! A53   A(22,23,34)           124.1042         calculate D2E/DX2 analytically  !
 ! A54   A(22,23,35)           156.4568         calculate D2E/DX2 analytically  !
 ! A55   A(34,23,35)            38.8511         calculate D2E/DX2 analytically  !
 ! A56   A(19,26,27)           113.3898         calculate D2E/DX2 analytically  !
 ! A57   A(19,26,28)           107.9964         calculate D2E/DX2 analytically  !
 ! A58   A(19,26,29)           109.7958         calculate D2E/DX2 analytically  !
 ! A59   A(27,26,28)           107.9961         calculate D2E/DX2 analytically  !
 ! A60   A(27,26,29)           109.5186         calculate D2E/DX2 analytically  !
 ! A61   A(28,26,29)           107.9803         calculate D2E/DX2 analytically  !
 ! A62   A(26,29,34)           118.7055         calculate D2E/DX2 analytically  !
 ! A63   A(20,30,31)           120.3138         calculate D2E/DX2 analytically  !
 ! A64   A(20,30,32)           122.1826         calculate D2E/DX2 analytically  !
 ! A65   A(31,30,32)           115.8122         calculate D2E/DX2 analytically  !
 ! A66   A(34,33,35)            99.8872         calculate D2E/DX2 analytically  !
 ! A67   A(9,34,17)             84.9837         calculate D2E/DX2 analytically  !
 ! A68   A(9,34,23)            138.6561         calculate D2E/DX2 analytically  !
 ! A69   A(9,34,29)             72.5936         calculate D2E/DX2 analytically  !
 ! A70   A(9,34,33)            104.1531         calculate D2E/DX2 analytically  !
 ! A71   A(17,34,23)            84.4536         calculate D2E/DX2 analytically  !
 ! A72   A(17,34,29)            83.955          calculate D2E/DX2 analytically  !
 ! A73   A(23,34,29)            66.6036         calculate D2E/DX2 analytically  !
 ! A74   A(23,34,33)            86.5393         calculate D2E/DX2 analytically  !
 ! A75   A(29,34,33)            95.6692         calculate D2E/DX2 analytically  !
 ! A76   A(23,35,33)            80.8085         calculate D2E/DX2 analytically  !
 ! A77   A(37,36,38)           103.7622         calculate D2E/DX2 analytically  !
 ! A78   A(17,38,36)           157.4436         calculate D2E/DX2 analytically  !
 ! A79   L(17,34,33,9,-1)      189.1367         calculate D2E/DX2 analytically  !
 ! A80   L(17,34,33,9,-2)      176.8114         calculate D2E/DX2 analytically  !
 ! D1    D(6,1,2,3)              0.617          calculate D2E/DX2 analytically  !
 ! D2    D(6,1,2,8)           -178.9683         calculate D2E/DX2 analytically  !
 ! D3    D(7,1,2,3)            179.9481         calculate D2E/DX2 analytically  !
 ! D4    D(7,1,2,8)              0.3628         calculate D2E/DX2 analytically  !
 ! D5    D(2,1,6,5)             -0.8547         calculate D2E/DX2 analytically  !
 ! D6    D(2,1,6,10)           178.8108         calculate D2E/DX2 analytically  !
 ! D7    D(7,1,6,5)            179.8155         calculate D2E/DX2 analytically  !
 ! D8    D(7,1,6,10)            -0.519          calculate D2E/DX2 analytically  !
 ! D9    D(1,2,3,4)              0.733          calculate D2E/DX2 analytically  !
 ! D10   D(1,2,3,12)          -178.277          calculate D2E/DX2 analytically  !
 ! D11   D(8,2,3,4)           -179.6756         calculate D2E/DX2 analytically  !
 ! D12   D(8,2,3,12)             1.3144         calculate D2E/DX2 analytically  !
 ! D13   D(2,3,4,5)             -1.8296         calculate D2E/DX2 analytically  !
 ! D14   D(2,3,4,11)          -179.8551         calculate D2E/DX2 analytically  !
 ! D15   D(12,3,4,5)           177.22           calculate D2E/DX2 analytically  !
 ! D16   D(12,3,4,11)           -0.8055         calculate D2E/DX2 analytically  !
 ! D17   D(2,3,12,15)          179.1402         calculate D2E/DX2 analytically  !
 ! D18   D(2,3,12,18)            0.3535         calculate D2E/DX2 analytically  !
 ! D19   D(4,3,12,15)            0.1252         calculate D2E/DX2 analytically  !
 ! D20   D(4,3,12,18)         -178.6615         calculate D2E/DX2 analytically  !
 ! D21   D(3,4,5,6)              1.6231         calculate D2E/DX2 analytically  !
 ! D22   D(3,4,5,9)           -177.4922         calculate D2E/DX2 analytically  !
 ! D23   D(11,4,5,6)           179.645          calculate D2E/DX2 analytically  !
 ! D24   D(11,4,5,9)             0.5297         calculate D2E/DX2 analytically  !
 ! D25   D(3,4,11,13)           -2.0797         calculate D2E/DX2 analytically  !
 ! D26   D(3,4,11,17)         -175.9715         calculate D2E/DX2 analytically  !
 ! D27   D(5,4,11,13)          179.9256         calculate D2E/DX2 analytically  !
 ! D28   D(5,4,11,17)            6.0337         calculate D2E/DX2 analytically  !
 ! D29   D(4,5,6,1)             -0.2844         calculate D2E/DX2 analytically  !
 ! D30   D(4,5,6,10)          -179.9508         calculate D2E/DX2 analytically  !
 ! D31   D(9,5,6,1)            178.8258         calculate D2E/DX2 analytically  !
 ! D32   D(9,5,6,10)            -0.8405         calculate D2E/DX2 analytically  !
 ! D33   D(4,5,9,34)             1.7303         calculate D2E/DX2 analytically  !
 ! D34   D(6,5,9,34)          -177.394          calculate D2E/DX2 analytically  !
 ! D35   D(5,9,34,17)           -6.6481         calculate D2E/DX2 analytically  !
 ! D36   D(5,9,34,23)          -82.3695         calculate D2E/DX2 analytically  !
 ! D37   D(5,9,34,29)          -91.8716         calculate D2E/DX2 analytically  !
 ! D38   D(5,9,34,33)          176.5405         calculate D2E/DX2 analytically  !
 ! D39   D(4,11,13,14)         172.0685         calculate D2E/DX2 analytically  !
 ! D40   D(4,11,13,15)           5.7387         calculate D2E/DX2 analytically  !
 ! D41   D(17,11,13,14)        -13.982          calculate D2E/DX2 analytically  !
 ! D42   D(17,11,13,15)        179.6882         calculate D2E/DX2 analytically  !
 ! D43   D(4,11,17,19)          97.3688         calculate D2E/DX2 analytically  !
 ! D44   D(4,11,17,34)         -15.0352         calculate D2E/DX2 analytically  !
 ! D45   D(4,11,17,38)        -125.602          calculate D2E/DX2 analytically  !
 ! D46   D(13,11,17,19)        -76.3331         calculate D2E/DX2 analytically  !
 ! D47   D(13,11,17,34)        171.2628         calculate D2E/DX2 analytically  !
 ! D48   D(13,11,17,38)         60.6961         calculate D2E/DX2 analytically  !
 ! D49   D(3,12,15,13)           3.4867         calculate D2E/DX2 analytically  !
 ! D50   D(3,12,15,16)        -178.4614         calculate D2E/DX2 analytically  !
 ! D51   D(18,12,15,13)       -177.724          calculate D2E/DX2 analytically  !
 ! D52   D(18,12,15,16)          0.3279         calculate D2E/DX2 analytically  !
 ! D53   D(11,13,15,12)         -6.5741         calculate D2E/DX2 analytically  !
 ! D54   D(11,13,15,16)        175.3784         calculate D2E/DX2 analytically  !
 ! D55   D(14,13,15,12)       -172.6766         calculate D2E/DX2 analytically  !
 ! D56   D(14,13,15,16)          9.2759         calculate D2E/DX2 analytically  !
 ! D57   D(11,17,19,20)         48.7339         calculate D2E/DX2 analytically  !
 ! D58   D(11,17,19,22)        168.7232         calculate D2E/DX2 analytically  !
 ! D59   D(11,17,19,26)        -74.7239         calculate D2E/DX2 analytically  !
 ! D60   D(34,17,19,20)       -175.5839         calculate D2E/DX2 analytically  !
 ! D61   D(34,17,19,22)        -55.5946         calculate D2E/DX2 analytically  !
 ! D62   D(34,17,19,26)         60.9583         calculate D2E/DX2 analytically  !
 ! D63   D(38,17,19,20)       -104.3531         calculate D2E/DX2 analytically  !
 ! D64   D(38,17,19,22)         15.6362         calculate D2E/DX2 analytically  !
 ! D65   D(38,17,19,26)        132.1891         calculate D2E/DX2 analytically  !
 ! D66   D(11,17,34,9)          12.8413         calculate D2E/DX2 analytically  !
 ! D67   D(11,17,34,23)        152.8118         calculate D2E/DX2 analytically  !
 ! D68   D(11,17,34,29)         85.8227         calculate D2E/DX2 analytically  !
 ! D69   D(19,17,34,9)        -106.805          calculate D2E/DX2 analytically  !
 ! D70   D(19,17,34,23)         33.1656         calculate D2E/DX2 analytically  !
 ! D71   D(19,17,34,29)        -33.8235         calculate D2E/DX2 analytically  !
 ! D72   D(38,17,34,9)         152.6359         calculate D2E/DX2 analytically  !
 ! D73   D(38,17,34,23)        -67.3936         calculate D2E/DX2 analytically  !
 ! D74   D(38,17,34,29)       -134.3827         calculate D2E/DX2 analytically  !
 ! D75   D(11,17,38,36)        136.9294         calculate D2E/DX2 analytically  !
 ! D76   D(19,17,38,36)        -83.7409         calculate D2E/DX2 analytically  !
 ! D77   D(34,17,38,36)          5.2725         calculate D2E/DX2 analytically  !
 ! D78   D(17,19,20,21)         95.9752         calculate D2E/DX2 analytically  !
 ! D79   D(17,19,20,30)        -68.3262         calculate D2E/DX2 analytically  !
 ! D80   D(22,19,20,21)         -6.1377         calculate D2E/DX2 analytically  !
 ! D81   D(22,19,20,30)       -170.4391         calculate D2E/DX2 analytically  !
 ! D82   D(26,19,20,21)       -166.1325         calculate D2E/DX2 analytically  !
 ! D83   D(26,19,20,30)         29.5661         calculate D2E/DX2 analytically  !
 ! D84   D(17,19,22,23)         46.2853         calculate D2E/DX2 analytically  !
 ! D85   D(17,19,22,24)        163.6707         calculate D2E/DX2 analytically  !
 ! D86   D(17,19,22,25)        -75.7335         calculate D2E/DX2 analytically  !
 ! D87   D(20,19,22,23)        145.8703         calculate D2E/DX2 analytically  !
 ! D88   D(20,19,22,24)        -96.7442         calculate D2E/DX2 analytically  !
 ! D89   D(20,19,22,25)         23.8515         calculate D2E/DX2 analytically  !
 ! D90   D(26,19,22,23)        -52.6828         calculate D2E/DX2 analytically  !
 ! D91   D(26,19,22,24)         64.7026         calculate D2E/DX2 analytically  !
 ! D92   D(26,19,22,25)       -174.7016         calculate D2E/DX2 analytically  !
 ! D93   D(17,19,26,27)         64.3898         calculate D2E/DX2 analytically  !
 ! D94   D(17,19,26,28)       -175.9777         calculate D2E/DX2 analytically  !
 ! D95   D(17,19,26,29)        -58.4692         calculate D2E/DX2 analytically  !
 ! D96   D(20,19,26,27)        -33.4175         calculate D2E/DX2 analytically  !
 ! D97   D(20,19,26,28)         86.2151         calculate D2E/DX2 analytically  !
 ! D98   D(20,19,26,29)       -156.2764         calculate D2E/DX2 analytically  !
 ! D99   D(22,19,26,27)        165.9663         calculate D2E/DX2 analytically  !
 ! D100  D(22,19,26,28)        -74.4012         calculate D2E/DX2 analytically  !
 ! D101  D(22,19,26,29)         43.1073         calculate D2E/DX2 analytically  !
 ! D102  D(19,20,30,31)        176.5011         calculate D2E/DX2 analytically  !
 ! D103  D(19,20,30,32)        -18.9429         calculate D2E/DX2 analytically  !
 ! D104  D(21,20,30,31)         12.3712         calculate D2E/DX2 analytically  !
 ! D105  D(21,20,30,32)        176.9272         calculate D2E/DX2 analytically  !
 ! D106  D(19,22,23,34)        -21.7727         calculate D2E/DX2 analytically  !
 ! D107  D(19,22,23,35)        -58.5974         calculate D2E/DX2 analytically  !
 ! D108  D(24,22,23,34)       -139.8511         calculate D2E/DX2 analytically  !
 ! D109  D(24,22,23,35)       -176.6758         calculate D2E/DX2 analytically  !
 ! D110  D(25,22,23,34)        101.704          calculate D2E/DX2 analytically  !
 ! D111  D(25,22,23,35)         64.8793         calculate D2E/DX2 analytically  !
 ! D112  D(22,23,34,9)          56.1958         calculate D2E/DX2 analytically  !
 ! D113  D(22,23,34,17)        -19.7194         calculate D2E/DX2 analytically  !
 ! D114  D(22,23,34,29)         66.0788         calculate D2E/DX2 analytically  !
 ! D115  D(22,23,34,33)        163.7795         calculate D2E/DX2 analytically  !
 ! D116  D(35,23,34,9)        -146.2405         calculate D2E/DX2 analytically  !
 ! D117  D(35,23,34,17)        137.8443         calculate D2E/DX2 analytically  !
 ! D118  D(35,23,34,29)       -136.3575         calculate D2E/DX2 analytically  !
 ! D119  D(35,23,34,33)        -38.6569         calculate D2E/DX2 analytically  !
 ! D120  D(22,23,35,33)         91.7029         calculate D2E/DX2 analytically  !
 ! D121  D(34,23,35,33)         39.4095         calculate D2E/DX2 analytically  !
 ! D122  D(19,26,29,34)         35.1333         calculate D2E/DX2 analytically  !
 ! D123  D(27,26,29,34)        -89.9827         calculate D2E/DX2 analytically  !
 ! D124  D(28,26,29,34)        152.6518         calculate D2E/DX2 analytically  !
 ! D125  D(26,29,34,9)          98.8237         calculate D2E/DX2 analytically  !
 ! D126  D(26,29,34,17)         12.2032         calculate D2E/DX2 analytically  !
 ! D127  D(26,29,34,23)        -74.3523         calculate D2E/DX2 analytically  !
 ! D128  D(26,29,34,33)       -158.092          calculate D2E/DX2 analytically  !
 ! D129  D(35,33,34,9)        -150.9551         calculate D2E/DX2 analytically  !
 ! D130  D(35,33,34,23)         69.5432         calculate D2E/DX2 analytically  !
 ! D131  D(35,33,34,29)        135.6035         calculate D2E/DX2 analytically  !
 ! D132  D(34,33,35,23)        -64.7703         calculate D2E/DX2 analytically  !
 ! D133  D(37,36,38,17)       -109.3391         calculate D2E/DX2 analytically  !
 --------------------------------------------------------------------------------
 Trust Radius=3.00D-01 FncErr=1.00D-07 GrdErr=1.00D-06
 Number of steps in this run=    228 maximum allowed number of steps=    228.
 Search for a saddle point of order  1.
 GradGradGradGradGradGradGradGradGradGradGradGradGradGradGradGradGradGrad

                          Input orientation:                          
 ---------------------------------------------------------------------
 Center     Atomic      Atomic             Coordinates (Angstroms)
 Number     Number       Type             X           Y           Z
 ---------------------------------------------------------------------
      1          6           0        2.438410    2.804730   -0.560240
      2          6           0        2.933170    1.543540   -0.304380
      3          6           0        2.068120    0.494210    0.088790
      4          6           0        0.673580    0.754620    0.201870
      5          6           0        0.198300    2.062780   -0.043730
      6          6           0        1.062050    3.070360   -0.420830
      7          1           0        3.119040    3.602300   -0.861450
      8          1           0        3.999640    1.340640   -0.395490
      9          1           0       -0.862900    2.276560    0.081700
     10          1           0        0.677510    4.074200   -0.605420
     11          6           0       -0.248020   -0.308410    0.609430
     12          6           0        2.548220   -0.828490    0.400720
     13          6           0        0.296780   -1.593980    0.836730
     14          1           0       -0.355970   -2.352840    1.265380
     15          6           0        1.702920   -1.821920    0.794200
     16          1           0        2.103170   -2.804250    1.046730
     17          8           0       -1.513470   -0.120380    0.645060
     18         17           0        4.257350   -1.160230    0.302960
     19          6           0       -2.429660   -0.867700   -1.173820
     20          6           0       -1.769570   -2.107750   -1.118840
     21          1           0       -2.314980   -2.940250   -0.665790
     22          6           0       -3.860000   -0.793330   -0.748100
     23          1           0       -4.053840    0.176030   -0.271880
     24          1           0       -4.499650   -0.858320   -1.644350
     25          1           0       -4.127620   -1.602800   -0.058260
     26          6           0       -1.950140    0.270930   -2.017960
     27          1           0       -0.858110    0.316150   -2.108370
     28          1           0       -2.370930    0.145840   -3.029740
     29          1           0       -2.324100    1.219410   -1.610210
     30          6           0       -0.414250   -2.245020   -1.304110
     31          1           0        0.060260   -3.221350   -1.195530
     32          1           0        0.186480   -1.476350   -1.794480
     33          8           0       -3.163470    2.156280    0.577790
     34          1           0       -2.509140    1.436170    0.605910
     35          1           0       -3.780540    1.846880    1.257030
     36          8           0       -3.766240   -0.030570    2.318200
     37          1           0       -3.470020    0.177970    3.211630
     38          1           0       -2.947200   -0.282240    1.855400
 ---------------------------------------------------------------------
                    Distance matrix (angstroms):
                    1          2          3          4          5
     1  C    0.000000
     2  C    1.378714   0.000000
     3  C    2.428345   1.415623   0.000000
     4  C    2.810407   2.446310   1.423145   0.000000
     5  C    2.415650   2.795901   2.444218   1.413327   0.000000
     6  C    1.408674   2.417815   2.812195   2.429262   1.379669
     7  H    1.090918   2.140880   3.415789   3.901308   3.401398
     8  H    2.146658   1.089416   2.163733   3.429713   3.885281
     9  H    3.404365   3.885424   3.430408   2.165990   1.089761
    10  H    2.171259   3.403361   3.902826   3.416335   2.142650
    11  C    4.275123   3.792722   2.505947   1.464747   2.499672
    12  C    3.759759   2.504372   1.441295   2.461718   3.752213
    13  C    5.087903   4.254024   2.838591   2.461899   3.762553
    14  H    6.143450   5.335201   3.919983   3.441996   4.638824
    15  C    4.876612   3.747895   2.448557   2.837068   4.249341
    16  H    5.844262   4.627924   3.434926   3.927222   5.339065
    17  O    5.062250   4.841763   3.676268   2.396921   2.858457
    18  Cl   4.446860   3.071268   2.752411   4.064514   5.194600
    19  C    6.128730   5.943900   4.866108   3.762252   4.095240
    20  C    6.492426   6.009245   4.791287   3.988285   4.735155
    21  H    7.457255   6.912168   5.619295   4.830775   5.633280
    22  C    7.256121   7.197570   6.123786   4.883845   5.012315
    23  H    7.010173   7.119652   6.140824   4.786199   4.657529
    24  H    7.920221   7.925356   6.925945   5.724719   5.758953
    25  H    7.924081   7.734002   6.542650   5.355055   5.670121
    26  C    5.272994   5.329410   4.542539   3.470664   3.424048
    27  H    4.410984   4.374319   3.663610   2.806339   2.903353
    28  H    6.024772   6.124919   5.436153   4.481401   4.380851
    29  H    5.128077   5.426706   4.764883   3.533518   3.086687
    30  C    5.847306   5.153433   3.950407   3.528341   4.530002
    31  H    6.509442   5.634886   4.414336   4.258782   5.409966
    32  H    4.992212   4.345623   3.312157   3.033135   3.948507
    33  O    5.752970   6.190533   5.511001   4.102307   3.420019
    34  H    5.264135   5.518958   4.701703   3.279858   2.853928
    35  H    6.549449   6.899559   6.115662   4.705909   4.191629
    36  O    7.404190   7.364635   6.267808   4.980701   5.067386
    37  H    7.485748   7.431551   6.365778   5.153698   5.254184
    38  H    6.661043   6.525096   5.373753   4.113306   4.358897
                    6          7          8          9         10
     6  C    0.000000
     7  H    2.169865   0.000000
     8  H    3.409107   2.471372   0.000000
     9  H    2.141982   4.301507   4.974731   0.000000
    10  H    1.090706   2.499862   4.307316   2.465057   0.000000
    11  C    3.767467   5.366026   4.666031   2.708994   4.641092
    12  C    4.252608   4.642285   2.728680   4.623727   5.343056
    13  C    4.891131   6.152259   4.882779   4.110475   5.861145
    14  H    5.853647   7.215455   5.947405   4.805145   6.773095
    15  C    5.081478   5.845403   4.085593   4.887599   6.146107
    16  H    6.143998   6.761437   4.780869   5.961836   7.216313
    17  O    4.236773   6.130911   5.797560   2.546750   4.894752
    18  Cl   5.350860   5.033219   2.609329   6.170692   6.406221
    19  C    5.316705   7.132079   6.842402   3.730608   5.865148
    20  C    5.942904   7.521265   6.760060   4.635248   6.668456
    21  H    6.898679   8.507163   7.633709   5.466478   7.626346
    22  C    6.265922   8.248722   8.151816   4.369828   6.655990
    23  H    5.879767   7.971018   8.138190   3.836580   6.139434
    24  H    6.918384   8.863098   8.867525   5.102222   7.225795
    25  H    6.993036   8.958363   8.650429   5.072220   7.457680
    26  C    4.411453   6.175122   6.259119   3.100518   4.833702
    27  H    3.757723   5.307666   5.251788   2.939326   4.328964
    28  H    5.210046   6.840202   6.996498   4.061426   5.531937
    29  H    4.038150   5.988871   6.440491   2.472899   4.262522
    30  C    5.586852   6.846257   5.758904   4.750415   6.450787
    31  H    6.417894   7.485315   6.080340   5.719314   7.345358
    32  H    4.829711   5.938277   4.942954   4.324995   5.697682
    33  O    4.437094   6.605476   7.274798   2.356522   4.453261
    34  H    4.059331   6.206583   6.586057   1.921239   4.310599
    35  H    5.269041   7.427897   7.969837   3.174689   5.320139
    36  O    6.358493   8.409221   8.339857   4.330608   6.718899
    37  H    6.488478   8.469459   8.376093   4.582316   6.852188
    38  H    5.700459   7.698714   7.480564   3.746702   6.178408
                   11         12         13         14         15
    11  C    0.000000
    12  C    2.851842   0.000000
    13  C    1.414625   2.417656   0.000000
    14  H    2.149795   3.391990   1.088895   0.000000
    15  C    2.476090   1.362447   1.425130   2.177823   0.000000
    16  H    3.456666   2.125800   2.184468   2.509771   1.090387
    17  O    1.279839   4.130187   2.342059   2.590074   3.641792
    18  Cl   4.595419   1.743770   4.019846   4.861203   2.684076
    19  C    2.872688   5.221111   3.464573   3.529239   4.675666
    20  C    2.922269   4.752776   2.891023   2.782596   3.974872
    21  H    3.581214   5.408113   3.300197   2.812861   4.418795
    22  C    3.889015   6.510477   4.520127   4.331789   5.863682
    23  H    3.936452   6.711829   4.825955   4.736306   6.186163
    24  H    4.843375   7.338642   5.450018   5.279224   6.734013
    25  H    4.143978   6.736250   4.514023   4.066931   5.896601
    26  C    3.183713   5.224364   4.083601   4.495094   5.062915
    27  H    2.854597   4.382786   3.695400   4.331032   4.422118
    28  H    4.237529   6.075805   5.009315   5.362045   5.923753
    29  H    3.401638   5.654842   4.557597   4.990343   5.589970
    30  C    2.727586   3.699896   2.347895   2.572411   3.010702
    31  H    3.440659   3.803122   2.614260   2.642657   2.935262
    32  H    2.707703   3.288836   2.636147   3.228812   3.019979
    33  O    3.817793   6.446984   5.109289   5.356025   6.289250
    34  H    2.855912   5.545059   4.136215   4.407679   5.328419
    35  H    4.188479   6.924166   5.351701   5.418985   6.613822
    36  O    3.921092   6.647241   4.598601   4.258088   5.953421
    37  H    4.170047   6.718139   4.792571   4.459843   6.050028
    38  H    2.972995   5.710878   3.644414   3.368973   5.012023
                   16         17         18         19         20
    16  H    0.000000
    17  O    4.521569   0.000000
    18  Cl   2.810069   5.873728   0.000000
    19  C    5.406257   2.169381   6.854382   0.000000
    20  C    4.491427   2.669564   6.264429   1.405868   0.000000
    21  H    4.740387   3.211295   6.877679   2.136986   1.093518
    22  C    6.544052   2.810687   8.193333   1.494202   2.497007
    23  H    6.966317   2.717005   8.437530   2.130922   3.339294
    24  H    7.390926   3.834478   8.975980   2.122815   3.048044
    25  H    6.441058   3.086423   8.404408   2.160536   2.634427
    26  C    5.939560   2.726808   6.779957   1.496326   2.549341
    27  H    5.334860   2.863814   5.844839   2.178223   2.772223
    28  H    6.733365   3.782891   7.533047   2.115455   3.015268
    29  H    6.545983   2.745615   7.255232   2.134855   3.408657
    30  C    3.489497   3.085716   5.057993   2.444558   1.374795
    31  H    3.061892   3.934516   4.910117   3.426345   2.143423
    32  H    3.675526   3.268002   4.590334   2.756785   2.163628
    33  O    7.250121   2.812509   8.132856   3.570864   4.796192
    34  H    6.280835   1.848172   7.253858   2.912314   4.010124
    35  H    7.503018   3.063368   8.634850   3.886239   5.032679
    36  O    6.615127   2.807568   8.349570   3.831636   4.484932
    37  H    6.681383   3.241046   8.364412   4.626872   5.183533
    38  H    5.702694   1.883269   7.422026   3.128384   3.683124
                   21         22         23         24         25
    21  H    0.000000
    22  C    2.646342   0.000000
    23  H    3.590265   1.097278   0.000000
    24  H    3.172506   1.103014   1.775472   0.000000
    25  H    2.333137   1.096696   1.793129   1.791183   0.000000
    26  C    3.503305   2.528391   2.735572   2.813324   3.477457
    27  H    3.848071   3.477445   3.688498   3.854284   4.309874
    28  H    3.887845   2.881883   3.230927   2.731134   3.869547
    29  H    4.265534   2.674574   2.423173   3.008512   3.691355
    30  C    2.122162   3.780178   4.491503   4.327724   3.969094
    31  H    2.449777   4.632916   5.414900   5.155398   4.631568
    32  H    3.110345   4.235024   4.798852   4.729092   4.652086
    33  O    5.314230   3.308072   2.331542   3.976317   3.932534
    34  H    4.561575   2.937488   2.178203   3.780276   3.506556
    35  H    5.362995   3.316258   2.281227   4.031530   3.708200
    36  O    4.413229   3.161137   2.614175   4.113984   2.872293
    37  H    5.108013   4.095726   3.532094   5.070954   3.780973
    38  H    3.717676   2.805821   2.441308   3.871720   2.607559
                   26         27         28         29         30
    26  C    0.000000
    27  H    1.096699   0.000000
    28  H    1.102910   1.779481   0.000000
    29  H    1.098053   1.792531   1.780396   0.000000
    30  C    3.032910   2.720926   3.538730   3.967808   0.000000
    31  H    4.112678   3.767039   4.540152   5.057418   1.090949
    32  H    2.769129   2.098273   3.270736   3.688372   1.091876
    33  O    3.429961   3.989514   4.205266   2.523809   5.520072
    34  H    2.924886   3.368629   3.860311   2.234371   4.646278
    35  H    4.069342   4.712711   4.822544   3.276584   5.885150
    36  O    4.710775   5.307726   5.529781   4.367450   5.409321
    37  H    5.446769   5.928201   6.337486   5.064373   5.966617
    38  H    4.037703   4.520381   4.937604   3.828010   4.500094
                   31         32         33         34         35
    31  H    0.000000
    32  H    1.849242   0.000000
    33  O    6.515827   5.481408   0.000000
    34  H    5.616003   4.637997   0.973395   0.000000
    35  H    6.815699   6.007730   0.968437   1.486303   0.000000
    36  O    6.096678   5.884591   2.859138   2.581388   2.156642
    37  H    6.591002   6.416222   3.308292   3.048956   2.588850
    38  H    5.195321   4.956559   2.761420   2.169344   2.363399
                   36         37         38
    36  O    0.000000
    37  H    0.964081   0.000000
    38  H    0.973832   1.524629   0.000000
 Stoichiometry    C15H19ClO3
 Framework group  C1[X(C15H19ClO3)]
 Deg. of freedom   108
 Full point group                 C1      NOp   1
 Largest Abelian subgroup         C1      NOp   1
 Largest concise Abelian subgroup C1      NOp   1
                         Standard orientation:                         
 ---------------------------------------------------------------------
 Center     Atomic      Atomic             Coordinates (Angstroms)
 Number     Number       Type             X           Y           Z
 ---------------------------------------------------------------------
      1          6           0        2.438407    2.804733   -0.560239
      2          6           0        2.933168    1.543543   -0.304379
      3          6           0        2.068119    0.494213    0.088791
      4          6           0        0.673579    0.754621    0.201871
      5          6           0        0.198298    2.062781   -0.043729
      6          6           0        1.062047    3.070362   -0.420829
      7          1           0        3.119036    3.602304   -0.861449
      8          1           0        3.999638    1.340645   -0.395489
      9          1           0       -0.862903    2.276560    0.081701
     10          1           0        0.677506    4.074201   -0.605419
     11          6           0       -0.248020   -0.308410    0.609431
     12          6           0        2.548220   -0.828487    0.400721
     13          6           0        0.296781   -1.593979    0.836731
     14          1           0       -0.355968   -2.352840    1.265381
     15          6           0        1.702921   -1.821918    0.794201
     16          1           0        2.103172   -2.804247    1.046731
     17          8           0       -1.513470   -0.120381    0.645061
     18         17           0        4.257351   -1.160225    0.302961
     19          6           0       -2.429660   -0.867702   -1.173819
     20          6           0       -1.769568   -2.107751   -1.118839
     21          1           0       -2.314978   -2.940252   -0.665789
     22          6           0       -3.860000   -0.793333   -0.748099
     23          1           0       -4.053841    0.176027   -0.271879
     24          1           0       -4.499650   -0.858324   -1.644349
     25          1           0       -4.127619   -1.602803   -0.058259
     26          6           0       -1.950141    0.270929   -2.017959
     27          1           0       -0.858111    0.316150   -2.108369
     28          1           0       -2.370931    0.145838   -3.029739
     29          1           0       -2.324102    1.219408   -1.610209
     30          6           0       -0.414248   -2.245020   -1.304109
     31          1           0        0.060263   -3.221349   -1.195529
     32          1           0        0.186481   -1.476349   -1.794479
     33          8           0       -3.163473    2.156278    0.577791
     34          1           0       -2.509142    1.436168    0.605911
     35          1           0       -3.780542    1.846877    1.257031
     36          8           0       -3.766240   -0.030573    2.318201
     37          1           0       -3.470021    0.177967    3.211631
     38          1           0       -2.947200   -0.282242    1.855401
 ---------------------------------------------------------------------
 Rotational constants (GHZ):      0.5082936      0.2321308      0.1939248
 Standard basis: def2TZVP (5D, 7F)
 There are   804 symmetry adapted cartesian basis functions of A   symmetry.
 There are   709 symmetry adapted basis functions of A   symmetry.
   709 basis functions,  1139 primitive gaussians,   804 cartesian basis functions
    75 alpha electrons       75 beta electrons
       nuclear repulsion energy      1620.9880622281 Hartrees.
 NAtoms=   38 NActive=   38 NUniq=   38 SFac= 1.00D+00 NAtFMM=   60 NAOKFM=F Big=F
 Integral buffers will be    131072 words long.
 Raffenetti 2 integral format.
 Two-electron integral symmetry is turned on.
 Nuclear repulsion after empirical dispersion term =     1620.9532191506 Hartrees.
 Force inversion solution in PCM.
 ------------------------------------------------------------------------------
 Polarizable Continuum Model (PCM)
 =================================
 Model                : PCM (using non-symmetric T matrix).
 Atomic radii         : SMD-Coulomb.
 Polarization charges : Total charges.
 Charge compensation  : None.
 Solution method      : Matrix inversion.
 Cavity type          : VdW (van der Waals Surface) (Alpha=1.000).
 Cavity algorithm     : GePol (No added spheres)
                        Default sphere list used, NSphG=   38.
                        Lebedev-Laikov grids with approx.  5.0 points / Ang**2.
                        Smoothing algorithm: Karplus/York (Gamma=1.0000).
                        Polarization charges: spherical gaussians, with
                                              point-specific exponents (IZeta= 3).
                        Self-potential: point-specific (ISelfS= 7).
                        Self-field    : sphere-specific E.n sum rule (ISelfD= 2).
 1st derivatives      : Analytical E(r).r(x)/FMM algorithm (CHGder, D1EAlg=3).
                        Cavity 1st derivative terms included.
 2nd derivatives      : Analytical E(r).r(xy)/FMM algorithm (CHGder, D2EAlg=3).
                        Cavity 2nd derivative terms included.
 Solvent              : Toluene, Eps=   2.374100 Eps(inf)=   2.238315
 ------------------------------------------------------------------------------
 ------------------------------------------------------------------------------
 Atomic radii for non-electrostatic terms: SMD-CDS.
 ------------------------------------------------------------------------------
 Nuclear repulsion after PCM non-electrostatic terms =     1620.9420757636 Hartrees.
 One-electron integrals computed using PRISM.
   1 Symmetry operations used in ECPInt.
 ECPInt:  NShTT=   41328 NPrTT=  126240 LenC2=   37470 LenP2D=   82284.
 LDataN:  DoStor=T MaxTD1= 6 Len=  172
 NBasis=   709 RedAO= T EigKep=  5.31D-06  NBF=   709
 NBsUse=   709 1.00D-06 EigRej= -1.00D+00 NBFU=   709
 ExpMin= 9.52D-02 ExpMax= 6.95D+04 ExpMxC= 2.37D+03 IAcc=2 IRadAn=         4 AccDes= 0.00D+00
 Harris functional with IExCor= 4639 and IRadAn=       4 diagonalized for initial guess.
 HarFok:  IExCor= 4639 AccDes= 0.00D+00 IRadAn=         4 IDoV= 1 UseB2=F ITyADJ=14
 ICtDFT=  3500011 ScaDFX=  1.000000  1.000000  1.000000  1.000000
 FoFCou: FMM=F IPFlag=           0 FMFlag=      100000 FMFlg1=           0
         NFxFlg=           0 DoJE=T BraDBF=F KetDBF=T FulRan=T
         wScrn=  0.000000 ICntrl=     500 IOpCl=  0 I1Cent=   200000004 NGrid=           0
         NMat0=    1 NMatS0=      1 NMatT0=    0 NMatD0=    1 NMtDS0=    0 NMtDT0=    0
 Petite list used in FoFCou.
 Requested convergence on RMS density matrix=1.00D-08 within 128 cycles.
 Requested convergence on MAX density matrix=1.00D-06.
 Requested convergence on             energy=1.00D-06.
 No special actions if energy rises.
 Inv3:  Mode=1 IEnd=    23118528.
 Iteration    1 A*A^-1 deviation from unit magnitude is 5.55D-15 for    324.
 Iteration    1 A*A^-1 deviation from orthogonality  is 2.16D-15 for   1352     56.
 Iteration    1 A^-1*A deviation from unit magnitude is 5.11D-15 for    343.
 Iteration    1 A^-1*A deviation from orthogonality  is 7.46D-15 for   2032   1297.
 Error on total polarization charges =  0.02153
 SCF Done:  E(RwB97XD) =  -1268.93857140     A.U. after   16 cycles
            NFock= 16  Conv=0.44D-08     -V/T= 2.0038
 SMD-CDS (non-electrostatic) energy       (kcal/mol) =      -6.99
 (included in total energy above)
 DoSCS=F DFT=T ScalE2(SS,OS)=  1.000000  1.000000
 Range of M.O.s used for correlation:     1   709
 NBasis=   709 NAE=    75 NBE=    75 NFC=     0 NFV=     0
 NROrb=    709 NOA=    75 NOB=    75 NVA=   634 NVB=   634

 **** Warning!!: The largest alpha MO coefficient is  0.60531929D+02

   1 Symmetry operations used in ECPInt.
 ECPInt:  NShTT=   41328 NPrTT=  126240 LenC2=   37470 LenP2D=   82284.
 LDataN:  DoStor=T MaxTD1= 7 Len=  274
 Number of processors reduced to   3 by ecpmxn.
 Symmetrizing basis deriv contribution to polar:
 IMax=3 JMax=2 DiffMx= 0.00D+00
 G2DrvN: will do    39 centers at a time, making    1 passes.
 Calling FoFCou, ICntrl=  3107 FMM=F I1Cent=   0 AccDes= 0.00D+00.
 NEqPCM:  Using equilibrium solvation (IEInf=0, Eps=   2.3741, EpsInf=   2.2383)
 G2PCM: DoFxE=T DoFxN=T DoGrad=T DoDP/DQ/DG/TGxP=FFFF NFrqRd=   0 IEInf=0 SqF1=F DoCFld=F IF1Alg=4.
 End of G2Drv F.D. properties file   721 does not exist.
 End of G2Drv F.D. properties file   722 does not exist.
 End of G2Drv F.D. properties file   788 does not exist.
          IDoAtm=11111111111111111111111111111111111111
 NEqPCM:  Using equilibrium solvation (IEInf=0, Eps=   2.3741, EpsInf=   2.2383)
          Differentiating once with respect to nuclear coordinates.
          There are   117 degrees of freedom in the 1st order CPHF.  IDoFFX=6 NUNeed=     0.
    111 vectors produced by pass  0 Test12= 4.75D-14 1.00D-09 XBig12= 1.07D-01 6.69D-02.
 AX will form   111 AO Fock derivatives at one time.
    111 vectors produced by pass  1 Test12= 4.75D-14 1.00D-09 XBig12= 1.50D-02 2.08D-02.
    111 vectors produced by pass  2 Test12= 4.75D-14 1.00D-09 XBig12= 3.13D-04 3.39D-03.
    111 vectors produced by pass  3 Test12= 4.75D-14 1.00D-09 XBig12= 4.19D-06 2.38D-04.
    111 vectors produced by pass  4 Test12= 4.75D-14 1.00D-09 XBig12= 4.30D-08 2.41D-05.
    111 vectors produced by pass  5 Test12= 4.75D-14 1.00D-09 XBig12= 3.53D-10 2.16D-06.
    111 vectors produced by pass  6 Test12= 4.75D-14 1.00D-09 XBig12= 2.78D-12 1.57D-07.
     49 vectors produced by pass  7 Test12= 4.75D-14 1.00D-09 XBig12= 4.42D-14 1.72D-08.
     14 vectors produced by pass  8 Test12= 4.75D-14 1.00D-09 XBig12= 2.39D-15 6.89D-09.
     12 vectors produced by pass  9 Test12= 4.75D-14 1.00D-09 XBig12= 2.05D-15 4.11D-09.
     12 vectors produced by pass 10 Test12= 4.75D-14 1.00D-09 XBig12= 4.68D-15 5.61D-09.
     12 vectors produced by pass 11 Test12= 4.75D-14 1.00D-09 XBig12= 6.43D-15 5.71D-09.
     12 vectors produced by pass 12 Test12= 4.75D-14 1.00D-09 XBig12= 7.00D-15 5.68D-09.
     10 vectors produced by pass 13 Test12= 4.75D-14 1.00D-09 XBig12= 4.37D-15 4.35D-09.
      8 vectors produced by pass 14 Test12= 4.75D-14 1.00D-09 XBig12= 3.82D-15 3.65D-09.
      8 vectors produced by pass 15 Test12= 4.75D-14 1.00D-09 XBig12= 5.47D-15 4.98D-09.
      8 vectors produced by pass 16 Test12= 4.75D-14 1.00D-09 XBig12= 6.22D-15 4.98D-09.
      7 vectors produced by pass 17 Test12= 4.75D-14 1.00D-09 XBig12= 3.81D-15 3.88D-09.
      6 vectors produced by pass 18 Test12= 4.75D-14 1.00D-09 XBig12= 2.79D-15 3.14D-09.
      6 vectors produced by pass 19 Test12= 4.75D-14 1.00D-09 XBig12= 3.26D-15 3.51D-09.
      5 vectors produced by pass 20 Test12= 4.75D-14 1.00D-09 XBig12= 3.44D-15 3.70D-09.
      3 vectors produced by pass 21 Test12= 4.75D-14 1.00D-09 XBig12= 1.17D-15 1.86D-09.
      2 vectors produced by pass 22 Test12= 4.75D-14 1.00D-09 XBig12= 4.52D-16 1.16D-09.
 InvSVY:  IOpt=1 It=  1 EMax= 6.66D-16
 Solved reduced A of dimension   951 with   117 vectors.
 End of Minotr F.D. properties file   721 does not exist.
 End of Minotr F.D. properties file   722 does not exist.
 End of Minotr F.D. properties file   788 does not exist.

 **********************************************************************

            Population analysis using the SCF density.

 **********************************************************************

 Orbital symmetries:
       Occupied  (A) (A) (A) (A) (A) (A) (A) (A) (A) (A) (A) (A)
                 (A) (A) (A) (A) (A) (A) (A) (A) (A) (A) (A) (A)
                 (A) (A) (A) (A) (A) (A) (A) (A) (A) (A) (A) (A)
                 (A) (A) (A) (A) (A) (A) (A) (A) (A) (A) (A) (A)
                 (A) (A) (A) (A) (A) (A) (A) (A) (A) (A) (A) (A)
                 (A) (A) (A) (A) (A) (A) (A) (A) (A) (A) (A) (A)
                 (A) (A) (A)
       Virtual   (A) (A) (A) (A) (A) (A) (A) (A) (A) (A) (A) (A)
                 (A) (A) (A) (A) (A) (A) (A) (A) (A) (A) (A) (A)
                 (A) (A) (A) (A) (A) (A) (A) (A) (A) (A) (A) (A)
                 (A) (A) (A) (A) (A) (A) (A) (A) (A) (A) (A) (A)
                 (A) (A) (A) (A) (A) (A) (A) (A) (A) (A) (A) (A)
                 (A) (A) (A) (A) (A) (A) (A) (A) (A) (A) (A) (A)
                 (A) (A) (A) (A) (A) (A) (A) (A) (A) (A) (A) (A)
                 (A) (A) (A) (A) (A) (A) (A) (A) (A) (A) (A) (A)
                 (A) (A) (A) (A) (A) (A) (A) (A) (A) (A) (A) (A)
                 (A) (A) (A) (A) (A) (A) (A) (A) (A) (A) (A) (A)
                 (A) (A) (A) (A) (A) (A) (A) (A) (A) (A) (A) (A)
                 (A) (A) (A) (A) (A) (A) (A) (A) (A) (A) (A) (A)
                 (A) (A) (A) (A) (A) (A) (A) (A) (A) (A) (A) (A)
                 (A) (A) (A) (A) (A) (A) (A) (A) (A) (A) (A) (A)
                 (A) (A) (A) (A) (A) (A) (A) (A) (A) (A) (A) (A)
                 (A) (A) (A) (A) (A) (A) (A) (A) (A) (A) (A) (A)
                 (A) (A) (A) (A) (A) (A) (A) (A) (A) (A) (A) (A)
                 (A) (A) (A) (A) (A) (A) (A) (A) (A) (A) (A) (A)
                 (A) (A) (A) (A) (A) (A) (A) (A) (A) (A) (A) (A)
                 (A) (A) (A) (A) (A) (A) (A) (A) (A) (A) (A) (A)
                 (A) (A) (A) (A) (A) (A) (A) (A) (A) (A) (A) (A)
                 (A) (A) (A) (A) (A) (A) (A) (A) (A) (A) (A) (A)
                 (A) (A) (A) (A) (A) (A) (A) (A) (A) (A) (A) (A)
                 (A) (A) (A) (A) (A) (A) (A) (A) (A) (A) (A) (A)
                 (A) (A) (A) (A) (A) (A) (A) (A) (A) (A) (A) (A)
                 (A) (A) (A) (A) (A) (A) (A) (A) (A) (A) (A) (A)
                 (A) (A) (A) (A) (A) (A) (A) (A) (A) (A) (A) (A)
                 (A) (A) (A) (A) (A) (A) (A) (A) (A) (A) (A) (A)
                 (A) (A) (A) (A) (A) (A) (A) (A) (A) (A) (A) (A)
                 (A) (A) (A) (A) (A) (A) (A) (A) (A) (A) (A) (A)
                 (A) (A) (A) (A) (A) (A) (A) (A) (A) (A) (A) (A)
                 (A) (A) (A) (A) (A) (A) (A) (A) (A) (A) (A) (A)
                 (A) (A) (A) (A) (A) (A) (A) (A) (A) (A) (A) (A)
                 (A) (A) (A) (A) (A) (A) (A) (A) (A) (A) (A) (A)
                 (A) (A) (A) (A) (A) (A) (A) (A) (A) (A) (A) (A)
                 (A) (A) (A) (A) (A) (A) (A) (A) (A) (A) (A) (A)
                 (A) (A) (A) (A) (A) (A) (A) (A) (A) (A) (A) (A)
                 (A) (A) (A) (A) (A) (A) (A) (A) (A) (A) (A) (A)
                 (A) (A) (A) (A) (A) (A) (A) (A) (A) (A) (A) (A)
                 (A) (A) (A) (A) (A) (A) (A) (A) (A) (A) (A) (A)
                 (A) (A) (A) (A) (A) (A) (A) (A) (A) (A) (A) (A)
                 (A) (A) (A) (A) (A) (A) (A) (A) (A) (A) (A) (A)
                 (A) (A) (A) (A) (A) (A) (A) (A) (A) (A) (A) (A)
                 (A) (A) (A) (A) (A) (A) (A) (A) (A) (A) (A) (A)
                 (A) (A) (A) (A) (A) (A) (A) (A) (A) (A) (A) (A)
                 (A) (A) (A) (A) (A) (A) (A) (A) (A) (A) (A) (A)
                 (A) (A) (A) (A) (A) (A) (A) (A) (A) (A) (A) (A)
                 (A) (A) (A) (A) (A) (A) (A) (A) (A) (A) (A) (A)
                 (A) (A) (A) (A) (A) (A) (A) (A) (A) (A) (A) (A)
                 (A) (A) (A) (A) (A) (A) (A) (A) (A) (A) (A) (A)
                 (A) (A) (A) (A) (A) (A) (A) (A) (A) (A) (A) (A)
                 (A) (A) (A) (A) (A) (A) (A) (A) (A) (A) (A) (A)
                 (A) (A) (A) (A) (A) (A) (A) (A) (A) (A)
 The electronic state is 1-A.
 Alpha  occ. eigenvalues -- -101.69920 -19.23912 -19.23904 -19.21823 -10.35528
 Alpha  occ. eigenvalues --  -10.35336 -10.35126 -10.32651 -10.31542 -10.30518
 Alpha  occ. eigenvalues --  -10.30370 -10.30203 -10.29521 -10.29396 -10.29258
 Alpha  occ. eigenvalues --  -10.29200 -10.29175 -10.28462 -10.27967  -9.58475
 Alpha  occ. eigenvalues --   -7.33110  -7.32260  -7.32236  -1.12771  -1.10206
 Alpha  occ. eigenvalues --   -1.08117  -0.99881  -0.95571  -0.94177  -0.91590
 Alpha  occ. eigenvalues --   -0.86159  -0.85762  -0.84770  -0.80102  -0.79915
 Alpha  occ. eigenvalues --   -0.73097  -0.72326  -0.72024  -0.67166  -0.62853
 Alpha  occ. eigenvalues --   -0.62595  -0.61017  -0.60554  -0.58926  -0.57798
 Alpha  occ. eigenvalues --   -0.57501  -0.55648  -0.55252  -0.54693  -0.53054
 Alpha  occ. eigenvalues --   -0.51618  -0.51451  -0.50434  -0.49898  -0.49021
 Alpha  occ. eigenvalues --   -0.48291  -0.47766  -0.47521  -0.46993  -0.46258
 Alpha  occ. eigenvalues --   -0.45714  -0.45293  -0.44620  -0.44168  -0.43837
 Alpha  occ. eigenvalues --   -0.42574  -0.39774  -0.39275  -0.39031  -0.37767
 Alpha  occ. eigenvalues --   -0.36967  -0.35510  -0.34557  -0.32031  -0.27570
 Alpha virt. eigenvalues --   -0.02098   0.01810   0.04229   0.08577   0.10167
 Alpha virt. eigenvalues --    0.10847   0.11012   0.12529   0.13198   0.14082
 Alpha virt. eigenvalues --    0.14438   0.16049   0.16319   0.16738   0.17456
 Alpha virt. eigenvalues --    0.17991   0.18503   0.19073   0.19469   0.20620
 Alpha virt. eigenvalues --    0.21076   0.21695   0.22174   0.22240   0.23284
 Alpha virt. eigenvalues --    0.24186   0.24786   0.24971   0.25637   0.26198
 Alpha virt. eigenvalues --    0.26686   0.27174   0.27397   0.27793   0.29028
 Alpha virt. eigenvalues --    0.29465   0.29966   0.30314   0.31023   0.31392
 Alpha virt. eigenvalues --    0.31984   0.32445   0.32803   0.33457   0.33901
 Alpha virt. eigenvalues --    0.34567   0.35104   0.35648   0.36195   0.36869
 Alpha virt. eigenvalues --    0.37217   0.37868   0.38638   0.39092   0.39470
 Alpha virt. eigenvalues --    0.39782   0.41231   0.41727   0.41908   0.42377
 Alpha virt. eigenvalues --    0.43071   0.43678   0.43976   0.44198   0.44816
 Alpha virt. eigenvalues --    0.44934   0.45363   0.45764   0.46318   0.46396
 Alpha virt. eigenvalues --    0.46796   0.47795   0.48225   0.48575   0.48998
 Alpha virt. eigenvalues --    0.49511   0.50151   0.50412   0.50609   0.51431
 Alpha virt. eigenvalues --    0.51681   0.51751   0.52768   0.53582   0.53874
 Alpha virt. eigenvalues --    0.54019   0.54586   0.54794   0.55402   0.55491
 Alpha virt. eigenvalues --    0.56603   0.56650   0.57489   0.57940   0.58627
 Alpha virt. eigenvalues --    0.59144   0.59727   0.60728   0.60936   0.61346
 Alpha virt. eigenvalues --    0.61634   0.62588   0.63505   0.63907   0.64223
 Alpha virt. eigenvalues --    0.65496   0.65772   0.66554   0.66914   0.68107
 Alpha virt. eigenvalues --    0.68655   0.69399   0.70105   0.70696   0.70929
 Alpha virt. eigenvalues --    0.71788   0.72570   0.72839   0.73550   0.74308
 Alpha virt. eigenvalues --    0.75767   0.76532   0.77924   0.78151   0.78417
 Alpha virt. eigenvalues --    0.78830   0.79976   0.80578   0.80871   0.81677
 Alpha virt. eigenvalues --    0.81983   0.82559   0.83276   0.84364   0.85157
 Alpha virt. eigenvalues --    0.85879   0.86278   0.86992   0.87880   0.88481
 Alpha virt. eigenvalues --    0.89315   0.90410   0.90556   0.90925   0.92295
 Alpha virt. eigenvalues --    0.93475   0.93845   0.94988   0.96196   0.97284
 Alpha virt. eigenvalues --    0.97445   0.98500   0.98910   0.99572   1.01126
 Alpha virt. eigenvalues --    1.02215   1.03092   1.03770   1.04910   1.05051
 Alpha virt. eigenvalues --    1.05401   1.05914   1.08178   1.08830   1.10233
 Alpha virt. eigenvalues --    1.11096   1.11694   1.12604   1.13679   1.14179
 Alpha virt. eigenvalues --    1.15226   1.16351   1.16707   1.18054   1.18627
 Alpha virt. eigenvalues --    1.19393   1.20188   1.22325   1.22846   1.23668
 Alpha virt. eigenvalues --    1.24200   1.25608   1.26394   1.26426   1.27384
 Alpha virt. eigenvalues --    1.28728   1.29415   1.30307   1.31092   1.31579
 Alpha virt. eigenvalues --    1.32165   1.32608   1.34179   1.34952   1.35565
 Alpha virt. eigenvalues --    1.36423   1.37338   1.37985   1.38714   1.40153
 Alpha virt. eigenvalues --    1.40598   1.40820   1.42303   1.43099   1.44316
 Alpha virt. eigenvalues --    1.44560   1.45962   1.46743   1.47808   1.48356
 Alpha virt. eigenvalues --    1.50568   1.51257   1.52283   1.53103   1.53352
 Alpha virt. eigenvalues --    1.54584   1.55207   1.55944   1.57537   1.57951
 Alpha virt. eigenvalues --    1.59143   1.61064   1.61220   1.61428   1.61999
 Alpha virt. eigenvalues --    1.63256   1.64249   1.64821   1.65365   1.66265
 Alpha virt. eigenvalues --    1.67055   1.67655   1.68505   1.69317   1.69669
 Alpha virt. eigenvalues --    1.71183   1.71771   1.72014   1.72957   1.74480
 Alpha virt. eigenvalues --    1.74870   1.75315   1.75842   1.76571   1.77521
 Alpha virt. eigenvalues --    1.77912   1.79059   1.79519   1.80245   1.80667
 Alpha virt. eigenvalues --    1.81060   1.82119   1.82518   1.84498   1.85392
 Alpha virt. eigenvalues --    1.86205   1.88020   1.88598   1.88916   1.90771
 Alpha virt. eigenvalues --    1.91352   1.91723   1.92773   1.93116   1.93753
 Alpha virt. eigenvalues --    1.95366   1.95748   1.97525   1.98730   1.99558
 Alpha virt. eigenvalues --    2.00021   2.01230   2.01662   2.02452   2.03925
 Alpha virt. eigenvalues --    2.04593   2.05177   2.06309   2.06828   2.08564
 Alpha virt. eigenvalues --    2.09539   2.10361   2.10828   2.11340   2.12194
 Alpha virt. eigenvalues --    2.13920   2.14904   2.16289   2.16793   2.17346
 Alpha virt. eigenvalues --    2.17528   2.18897   2.19540   2.20234   2.21871
 Alpha virt. eigenvalues --    2.22894   2.23537   2.23820   2.24932   2.25200
 Alpha virt. eigenvalues --    2.25772   2.26290   2.27218   2.27911   2.28309
 Alpha virt. eigenvalues --    2.29201   2.31126   2.31532   2.32503   2.32892
 Alpha virt. eigenvalues --    2.33902   2.34372   2.36540   2.37247   2.38008
 Alpha virt. eigenvalues --    2.38968   2.39248   2.40018   2.40680   2.41561
 Alpha virt. eigenvalues --    2.41950   2.43907   2.44242   2.44916   2.46295
 Alpha virt. eigenvalues --    2.46723   2.48048   2.48820   2.49639   2.50806
 Alpha virt. eigenvalues --    2.51832   2.52210   2.53898   2.54403   2.55975
 Alpha virt. eigenvalues --    2.56521   2.57323   2.59156   2.59776   2.60222
 Alpha virt. eigenvalues --    2.61994   2.62988   2.63144   2.64141   2.65638
 Alpha virt. eigenvalues --    2.65921   2.67047   2.67684   2.68498   2.68996
 Alpha virt. eigenvalues --    2.69657   2.70147   2.70602   2.71096   2.72311
 Alpha virt. eigenvalues --    2.72917   2.73449   2.74177   2.75680   2.75836
 Alpha virt. eigenvalues --    2.78268   2.79070   2.80100   2.80767   2.81036
 Alpha virt. eigenvalues --    2.81848   2.82038   2.82929   2.83343   2.83943
 Alpha virt. eigenvalues --    2.84631   2.85734   2.86140   2.87149   2.87636
 Alpha virt. eigenvalues --    2.88231   2.88531   2.88805   2.90086   2.90900
 Alpha virt. eigenvalues --    2.91817   2.92495   2.93480   2.94578   2.94971
 Alpha virt. eigenvalues --    2.95402   2.96224   2.96787   2.97490   2.98608
 Alpha virt. eigenvalues --    2.99643   3.00048   3.00730   3.02190   3.02528
 Alpha virt. eigenvalues --    3.03276   3.04243   3.05243   3.06494   3.07102
 Alpha virt. eigenvalues --    3.07691   3.08138   3.09911   3.11230   3.11869
 Alpha virt. eigenvalues --    3.12626   3.14096   3.14575   3.15089   3.16114
 Alpha virt. eigenvalues --    3.16270   3.17329   3.18649   3.19402   3.19841
 Alpha virt. eigenvalues --    3.22054   3.23417   3.24586   3.24971   3.25472
 Alpha virt. eigenvalues --    3.26675   3.27157   3.28070   3.28247   3.30354
 Alpha virt. eigenvalues --    3.30665   3.31025   3.31662   3.32807   3.33091
 Alpha virt. eigenvalues --    3.34337   3.34536   3.34782   3.35855   3.36045
 Alpha virt. eigenvalues --    3.36650   3.37906   3.39520   3.39774   3.40769
 Alpha virt. eigenvalues --    3.41329   3.41429   3.41811   3.42367   3.42804
 Alpha virt. eigenvalues --    3.45239   3.45734   3.46198   3.47172   3.47937
 Alpha virt. eigenvalues --    3.49000   3.49241   3.49920   3.50109   3.51549
 Alpha virt. eigenvalues --    3.52642   3.53341   3.55121   3.55602   3.56932
 Alpha virt. eigenvalues --    3.57116   3.57612   3.58624   3.59413   3.60504
 Alpha virt. eigenvalues --    3.61557   3.62320   3.62497   3.63341   3.65037
 Alpha virt. eigenvalues --    3.66446   3.66765   3.67903   3.69457   3.70419
 Alpha virt. eigenvalues --    3.71041   3.72307   3.72948   3.73926   3.74750
 Alpha virt. eigenvalues --    3.76189   3.77523   3.79055   3.80120   3.80593
 Alpha virt. eigenvalues --    3.81264   3.83491   3.84729   3.86806   3.89207
 Alpha virt. eigenvalues --    3.90686   3.91777   3.93272   3.94721   3.95062
 Alpha virt. eigenvalues --    3.96432   3.96976   3.98104   4.00293   4.01770
 Alpha virt. eigenvalues --    4.04011   4.04336   4.06630   4.08102   4.09339
 Alpha virt. eigenvalues --    4.09689   4.11194   4.11517   4.13559   4.14353
 Alpha virt. eigenvalues --    4.15921   4.16441   4.18295   4.18544   4.21757
 Alpha virt. eigenvalues --    4.23254   4.24090   4.25542   4.26497   4.27495
 Alpha virt. eigenvalues --    4.28239   4.30156   4.30692   4.32170   4.32883
 Alpha virt. eigenvalues --    4.33710   4.34809   4.36964   4.38302   4.39366
 Alpha virt. eigenvalues --    4.41433   4.41805   4.43513   4.45180   4.46594
 Alpha virt. eigenvalues --    4.47452   4.52527   4.53462   4.54361   4.55266
 Alpha virt. eigenvalues --    4.55766   4.59726   4.61963   4.66675   4.69165
 Alpha virt. eigenvalues --    4.71824   4.72512   4.77651   4.78037   4.80169
 Alpha virt. eigenvalues --    4.82505   4.82911   4.83876   4.88201   4.91400
 Alpha virt. eigenvalues --    4.95103   4.99463   5.00160   5.00827   5.05039
 Alpha virt. eigenvalues --    5.06563   5.08427   5.14463   5.18425   5.18806
 Alpha virt. eigenvalues --    5.19587   5.22220   5.26346   5.26709   5.28813
 Alpha virt. eigenvalues --    5.30314   5.31825   5.32705   5.36826   5.37463
 Alpha virt. eigenvalues --    5.37908   5.40522   5.45436   5.47777   5.50314
 Alpha virt. eigenvalues --    5.52310   5.54950   5.56598   5.58525   5.62652
 Alpha virt. eigenvalues --    5.65204   5.71116   5.74648   5.88255   5.89642
 Alpha virt. eigenvalues --    6.10996   6.18733   6.20556   6.34781   6.36128
 Alpha virt. eigenvalues --    6.42025   6.45167   6.49455   6.50885   6.53523
 Alpha virt. eigenvalues --    6.56021   6.63949   6.66810   6.71326   6.88490
 Alpha virt. eigenvalues --    6.98357   7.01890   7.07620   7.16617   7.23983
 Alpha virt. eigenvalues --    7.36434   7.39761  10.84156  10.95072  11.47955
 Alpha virt. eigenvalues --   22.21589  22.50831  22.55125  22.57721  22.66931
 Alpha virt. eigenvalues --   22.70969  22.75560  22.78213  22.85045  22.93102
 Alpha virt. eigenvalues --   22.99682  23.01455  23.08425  23.34926  23.75771
 Alpha virt. eigenvalues --   26.06239  43.62704  43.81661  44.40187
          Condensed to atoms (all electrons):
               1          2          3          4          5          6
     1  C    5.032912   0.377757   0.053387  -0.129353   0.100144   0.323856
     2  C    0.377757   5.333432   0.307656   0.018372  -0.198833   0.092865
     3  C    0.053387   0.307656   5.541833   0.026735   0.030271  -0.099644
     4  C   -0.129353   0.018372   0.026735   5.941373   0.155764   0.031023
     5  C    0.100144  -0.198833   0.030271   0.155764   5.484014   0.364159
     6  C    0.323856   0.092865  -0.099644   0.031023   0.364159   5.042082
     7  H    0.455893  -0.062917   0.013967  -0.003189   0.014976  -0.062984
     8  H   -0.043453   0.453561  -0.069931   0.019366  -0.005642   0.011051
     9  H    0.017285  -0.007468   0.009758  -0.151903   0.457946  -0.006668
    10  H   -0.068836   0.013699  -0.003870   0.018586  -0.055499   0.455378
    11  C   -0.014705   0.054198   0.079937   0.079772  -0.247742   0.015309
    12  C    0.021749  -0.201326   0.178383   0.089073   0.051484  -0.013694
    13  C    0.003071  -0.020111  -0.180008   0.119887   0.030852  -0.004618
    14  H    0.000005   0.000034  -0.005095   0.021087  -0.000191  -0.000010
    15  C   -0.002150   0.036088   0.179038  -0.217952  -0.016115   0.002054
    16  H   -0.000008   0.000175   0.025374  -0.008074  -0.000026   0.000011
    17  O   -0.000410   0.000158  -0.005278  -0.081220   0.032197   0.006725
    18  Cl  -0.001596   0.021471  -0.133069   0.016057  -0.001214   0.000850
    19  C    0.000017  -0.000121   0.002960   0.002807  -0.007561   0.000185
    20  C   -0.000013  -0.000075  -0.002168  -0.000408   0.004125   0.000136
    21  H    0.000000   0.000000  -0.000063   0.000421   0.000047   0.000001
    22  C    0.000022  -0.000012   0.000151  -0.001487  -0.001945  -0.000322
    23  H   -0.000006   0.000004   0.000088   0.001268  -0.000296   0.000095
    24  H    0.000000   0.000000   0.000011   0.000048   0.000001   0.000005
    25  H    0.000000   0.000000  -0.000015   0.000045   0.000076   0.000003
    26  C   -0.000282   0.000348  -0.000549  -0.001903   0.007340   0.001979
    27  H   -0.000035   0.000552   0.004488  -0.004999  -0.011553  -0.000440
    28  H    0.000000  -0.000029   0.000049  -0.000416   0.001109   0.000131
    29  H    0.000231  -0.000108  -0.000402  -0.001883  -0.000737   0.000378
    30  C   -0.000149   0.000221  -0.006780   0.003862  -0.000299   0.000326
    31  H    0.000000  -0.000009   0.001089  -0.000635  -0.000053   0.000000
    32  H   -0.000169   0.000098  -0.002564   0.006417   0.000601   0.000299
    33  O    0.000172  -0.000038  -0.000027  -0.000281  -0.020631   0.000600
    34  H   -0.000205   0.000161  -0.000911   0.003269   0.008538  -0.001037
    35  H    0.000002   0.000000   0.000018   0.000122   0.001314  -0.000218
    36  O    0.000000   0.000000  -0.000025  -0.000213  -0.000447  -0.000058
    37  H    0.000000   0.000000  -0.000037   0.000065   0.000128  -0.000002
    38  H   -0.000001   0.000000   0.000005   0.000908  -0.000359   0.000020
               7          8          9         10         11         12
     1  C    0.455893  -0.043453   0.017285  -0.068836  -0.014705   0.021749
     2  C   -0.062917   0.453561  -0.007468   0.013699   0.054198  -0.201326
     3  C    0.013967  -0.069931   0.009758  -0.003870   0.079937   0.178383
     4  C   -0.003189   0.019366  -0.151903   0.018586   0.079772   0.089073
     5  C    0.014976  -0.005642   0.457946  -0.055499  -0.247742   0.051484
     6  C   -0.062984   0.011051  -0.006668   0.455378   0.015309  -0.013694
     7  H    0.515546  -0.006509  -0.000176  -0.006598   0.000058  -0.000166
     8  H   -0.006509   0.504813  -0.000014  -0.000064   0.001067  -0.025232
     9  H   -0.000176  -0.000014   0.591572  -0.010652  -0.042259   0.002172
    10  H   -0.006598  -0.000064  -0.010652   0.513967   0.000153   0.000005
    11  C    0.000058   0.001067  -0.042259   0.000153   5.416005  -0.235724
    12  C   -0.000166  -0.025232   0.002172   0.000005  -0.235724   5.408988
    13  C    0.000011  -0.000479   0.004210  -0.000032   0.241785   0.148074
    14  H    0.000000   0.000000   0.000109   0.000000  -0.071777   0.016224
    15  C   -0.000006   0.001447  -0.001034   0.000014   0.153890   0.240293
    16  H    0.000000   0.000026  -0.000005   0.000000   0.018141  -0.093754
    17  O   -0.000001   0.000009  -0.001368   0.000031   0.278632   0.002250
    18  Cl  -0.000132   0.019660   0.000000   0.000002  -0.002042   0.322083
    19  C    0.000000  -0.000003   0.005079  -0.000017  -0.047593   0.000378
    20  C    0.000000   0.000001   0.000810  -0.000003  -0.020908   0.002715
    21  H    0.000000   0.000000   0.000009   0.000000  -0.001812   0.000062
    22  C    0.000000   0.000000  -0.001579   0.000003   0.007172  -0.000086
    23  H    0.000000   0.000000   0.001773  -0.000003  -0.000139  -0.000005
    24  H    0.000000   0.000000   0.000042   0.000000  -0.000498   0.000000
    25  H    0.000000   0.000000   0.000030   0.000000  -0.000584   0.000007
    26  C    0.000001   0.000006  -0.011980   0.000140   0.015971  -0.001403
    27  H    0.000003  -0.000008  -0.000382   0.000021   0.011137  -0.001833
    28  H    0.000000   0.000000   0.000518  -0.000004  -0.000726   0.000045
    29  H   -0.000001   0.000000   0.006237  -0.000101  -0.005155   0.000144
    30  C    0.000000   0.000002  -0.000363   0.000003   0.026055  -0.001121
    31  H    0.000000   0.000000   0.000000   0.000000  -0.001229  -0.002304
    32  H   -0.000001   0.000020   0.000098   0.000001  -0.016952   0.006495
    33  O    0.000000   0.000000   0.030959  -0.000150  -0.002848   0.000000
    34  H    0.000003   0.000001  -0.047617   0.000304   0.013958  -0.000207
    35  H    0.000000   0.000000  -0.003105   0.000002   0.000549  -0.000003
    36  O    0.000000   0.000000  -0.001210   0.000000   0.004121   0.000006
    37  H    0.000000   0.000000  -0.000063   0.000000   0.000867   0.000009
    38  H    0.000000   0.000000   0.000614  -0.000001  -0.008779   0.000067
              13         14         15         16         17         18
     1  C    0.003071   0.000005  -0.002150  -0.000008  -0.000410  -0.001596
     2  C   -0.020111   0.000034   0.036088   0.000175   0.000158   0.021471
     3  C   -0.180008  -0.005095   0.179038   0.025374  -0.005278  -0.133069
     4  C    0.119887   0.021087  -0.217952  -0.008074  -0.081220   0.016057
     5  C    0.030852  -0.000191  -0.016115  -0.000026   0.032197  -0.001214
     6  C   -0.004618  -0.000010   0.002054   0.000011   0.006725   0.000850
     7  H    0.000011   0.000000  -0.000006   0.000000  -0.000001  -0.000132
     8  H   -0.000479   0.000000   0.001447   0.000026   0.000009   0.019660
     9  H    0.004210   0.000109  -0.001034  -0.000005  -0.001368   0.000000
    10  H   -0.000032   0.000000   0.000014   0.000000   0.000031   0.000002
    11  C    0.241785  -0.071777   0.153890   0.018141   0.278632  -0.002042
    12  C    0.148074   0.016224   0.240293  -0.093754   0.002250   0.322083
    13  C    5.292524   0.457682   0.155179  -0.060615  -0.027474   0.013436
    14  H    0.457682   0.502036  -0.059693  -0.007577   0.005268  -0.000240
    15  C    0.155179  -0.059693   5.342342   0.468592   0.006831  -0.039555
    16  H   -0.060615  -0.007577   0.468592   0.508779  -0.000299   0.001637
    17  O   -0.027474   0.005268   0.006831  -0.000299   8.465776   0.000003
    18  Cl   0.013436  -0.000240  -0.039555   0.001637   0.000003  16.885683
    19  C   -0.019884  -0.002977   0.002723   0.000001   0.017550  -0.000004
    20  C   -0.040303   0.000001  -0.006252   0.000004  -0.009345   0.000016
    21  H   -0.001731   0.000770  -0.000127  -0.000002  -0.000480   0.000000
    22  C    0.002342  -0.000102   0.000282   0.000003   0.003710   0.000000
    23  H   -0.000810   0.000045  -0.000006   0.000000  -0.003640   0.000000
    24  H   -0.000137   0.000002   0.000007   0.000000   0.001846   0.000000
    25  H    0.000194   0.000114  -0.000018  -0.000001  -0.001352   0.000000
    26  C   -0.004146  -0.000099   0.001781   0.000016  -0.010151   0.000001
    27  H   -0.004739  -0.000168   0.001885   0.000007  -0.006603   0.000002
    28  H   -0.000527   0.000007  -0.000016   0.000000   0.002642   0.000000
    29  H    0.001347   0.000057  -0.000205  -0.000001  -0.004831   0.000000
    30  C    0.066507  -0.013548  -0.027198  -0.001071  -0.040027   0.000186
    31  H   -0.009369  -0.002393   0.003245   0.000756   0.000616  -0.000030
    32  H   -0.013773   0.001739  -0.006179  -0.000052   0.001075   0.000050
    33  O   -0.000305   0.000010   0.000026   0.000000  -0.027689   0.000000
    34  H   -0.002685  -0.000279   0.000107   0.000005   0.032835   0.000000
    35  H    0.000041  -0.000007   0.000003   0.000000   0.001509   0.000000
    36  O   -0.000413  -0.000030  -0.000061   0.000000  -0.024744   0.000000
    37  H   -0.000022   0.000067  -0.000045   0.000000   0.000350   0.000000
    38  H    0.002144   0.000778   0.000222  -0.000013   0.028874   0.000000
              19         20         21         22         23         24
     1  C    0.000017  -0.000013   0.000000   0.000022  -0.000006   0.000000
     2  C   -0.000121  -0.000075   0.000000  -0.000012   0.000004   0.000000
     3  C    0.002960  -0.002168  -0.000063   0.000151   0.000088   0.000011
     4  C    0.002807  -0.000408   0.000421  -0.001487   0.001268   0.000048
     5  C   -0.007561   0.004125   0.000047  -0.001945  -0.000296   0.000001
     6  C    0.000185   0.000136   0.000001  -0.000322   0.000095   0.000005
     7  H    0.000000   0.000000   0.000000   0.000000   0.000000   0.000000
     8  H   -0.000003   0.000001   0.000000   0.000000   0.000000   0.000000
     9  H    0.005079   0.000810   0.000009  -0.001579   0.001773   0.000042
    10  H   -0.000017  -0.000003   0.000000   0.000003  -0.000003   0.000000
    11  C   -0.047593  -0.020908  -0.001812   0.007172  -0.000139  -0.000498
    12  C    0.000378   0.002715   0.000062  -0.000086  -0.000005   0.000000
    13  C   -0.019884  -0.040303  -0.001731   0.002342  -0.000810  -0.000137
    14  H   -0.002977   0.000001   0.000770  -0.000102   0.000045   0.000002
    15  C    0.002723  -0.006252  -0.000127   0.000282  -0.000006   0.000007
    16  H    0.000001   0.000004  -0.000002   0.000003   0.000000   0.000000
    17  O    0.017550  -0.009345  -0.000480   0.003710  -0.003640   0.001846
[...]
    20  C    0.000000  -0.000001   0.000757  -0.000004  -0.003524   0.000235
    21  H    0.000000   0.000000   0.000010   0.000000  -0.005159   0.000092
    22  C    0.000000   0.000000  -0.002232   0.000006   0.010093  -0.000070
    23  H    0.000000   0.000000   0.002816  -0.000008  -0.000496   0.000006
    24  H    0.000000   0.000000   0.000206   0.000000  -0.000214   0.000001
    25  H    0.000000   0.000000  -0.000056   0.000000  -0.001071   0.000003
    26  C    0.000002   0.000004  -0.002014   0.000050  -0.001829  -0.001445
    27  H    0.000001  -0.000006  -0.001827   0.000045   0.013393  -0.002012
    28  H    0.000000   0.000000   0.000230  -0.000003  -0.000297   0.000045
    29  H    0.000000   0.000000  -0.000652  -0.000003  -0.000714   0.000026
    30  C    0.000000   0.000003  -0.000480   0.000004   0.038080   0.000377
    31  H    0.000000   0.000000   0.000006   0.000000  -0.002228  -0.001758
    32  H    0.000000   0.000013   0.000076   0.000000  -0.014689   0.004529
    33  O    0.000000   0.000000   0.004019  -0.000006   0.002778  -0.000008
    34  H    0.000000   0.000000  -0.009672   0.000071   0.005047  -0.000044
    35  H    0.000000   0.000000  -0.000512   0.000000   0.001345  -0.000006
    36  O    0.000000   0.000000  -0.000012   0.000000  -0.005246   0.000080
    37  H    0.000000   0.000000  -0.000006   0.000000   0.002734   0.000029
    38  H    0.000000   0.000000  -0.000923   0.000001  -0.010732   0.000064
              13         14         15         16         17         18
     1  C    0.002260   0.000044  -0.000824  -0.000014  -0.000093  -0.001223
     2  C   -0.020394  -0.000277   0.033082   0.000241  -0.000068   0.022847
     3  C   -0.183357  -0.007668   0.156713   0.025607  -0.003610  -0.136835
     4  C    0.126024   0.032401  -0.212859  -0.008648  -0.090056   0.015674
     5  C    0.025250   0.000958  -0.004361   0.000071   0.024787  -0.001106
     6  C   -0.003093  -0.000094   0.000546   0.000017   0.004827   0.000718
     7  H    0.000018   0.000000  -0.000014   0.000000   0.000000  -0.000134
     8  H   -0.000402   0.000003   0.000968   0.000019   0.000010   0.019789
     9  H    0.000725   0.000220   0.000038   0.000000   0.006270   0.000003
    10  H    0.000001  -0.000001  -0.000006   0.000000  -0.000003   0.000002
    11  C    0.112806  -0.116091   0.100176   0.020417   0.265666  -0.002670
    12  C    0.135070   0.020416   0.258583  -0.097230   0.001225   0.322852
    13  C    5.413512   0.454855   0.216246  -0.059169  -0.032345   0.015146
    14  H    0.454855   0.507653  -0.035044  -0.008162  -0.002715  -0.000245
    15  C    0.216246  -0.035044   5.284124   0.470344   0.007817  -0.039184
    16  H   -0.059169  -0.008162   0.470344   0.510217  -0.000252   0.001530
    17  O   -0.032345  -0.002715   0.007817  -0.000252   8.488382   0.000004
    18  Cl   0.015146  -0.000245  -0.039184   0.001530   0.000004  16.888578
    19  C   -0.019646  -0.002062   0.000439  -0.000003   0.032153  -0.000004
    20  C   -0.025694  -0.005521   0.001413   0.000169   0.000706   0.000009
    21  H    0.001437   0.002363   0.000572  -0.000016  -0.000992   0.000000
    22  C    0.000628   0.000336   0.000200   0.000000  -0.004870   0.000000
    23  H   -0.000581   0.000106   0.000000   0.000000  -0.001196   0.000000
    24  H   -0.000079   0.000019   0.000006   0.000000   0.001557   0.000000
    25  H    0.000472   0.000015   0.000000   0.000000  -0.001211   0.000000
    26  C   -0.004518  -0.000102   0.002054   0.000017  -0.003756   0.000001
    27  H   -0.004979  -0.000178   0.001874   0.000005  -0.004684   0.000004
    28  H   -0.000293   0.000007  -0.000017   0.000000   0.001871   0.000000
    29  H    0.000447   0.000010  -0.000081   0.000000  -0.001905   0.000000
    30  C    0.059468  -0.012792  -0.032640  -0.001055  -0.043976   0.000217
    31  H   -0.006570  -0.002584   0.002867   0.000687   0.000802  -0.000035
    32  H   -0.008933   0.001809  -0.002875  -0.000016   0.000965   0.000021
    33  O    0.000182   0.000005   0.000011   0.000000  -0.016140   0.000000
    34  H   -0.001230  -0.000298  -0.000100   0.000002   0.025246   0.000000
    35  H   -0.000138  -0.000141  -0.000001   0.000000   0.001726   0.000000
    36  O   -0.001316   0.010271   0.000221  -0.000015  -0.037325   0.000000
    37  H   -0.001634   0.001002  -0.000238  -0.000001   0.000305   0.000000
    38  H    0.002174  -0.000589   0.000015  -0.000033   0.046797   0.000000
              19         20         21         22         23         24
     1  C   -0.000006   0.000065   0.000000  -0.000015   0.000016   0.000001
     2  C   -0.000035  -0.000233  -0.000002   0.000019  -0.000013  -0.000001
     3  C    0.001063   0.000371  -0.000088  -0.000013   0.000120   0.000009
     4  C    0.010002  -0.022711   0.000143  -0.002551   0.002184   0.000041
     5  C   -0.006321   0.004141   0.000057  -0.000228  -0.000984  -0.000009
     6  C   -0.000132   0.000039   0.000000   0.000074  -0.000060   0.000001
     7  H    0.000000   0.000000   0.000000   0.000000   0.000000   0.000000
     8  H   -0.000002  -0.000001   0.000000   0.000000   0.000000   0.000000
     9  H    0.000549   0.000757   0.000010  -0.002232   0.002816   0.000206
    10  H   -0.000002  -0.000004   0.000000   0.000006  -0.000008   0.000000
    11  C   -0.048554  -0.003524  -0.005159   0.010093  -0.000496  -0.000214
    12  C    0.000887   0.000235   0.000092  -0.000070   0.000006   0.000001
    13  C   -0.019646  -0.025694   0.001437   0.000628  -0.000581  -0.000079
    14  H   -0.002062  -0.005521   0.002363   0.000336   0.000106   0.000019
    15  C    0.000439   0.001413   0.000572   0.000200   0.000000   0.000006
    16  H   -0.000003   0.000169  -0.000016   0.000000   0.000000   0.000000
    17  O    0.032153   0.000706  -0.000992  -0.004870  -0.001196   0.001557
    18  Cl  -0.000004   0.000009   0.000000   0.000000   0.000000   0.000000
    19  C    5.203504   0.334794  -0.031901   0.213920  -0.054580  -0.015054
    20  C    0.334794   5.279726   0.416579  -0.033811   0.011751  -0.003030
    21  H   -0.031901   0.416579   0.491252  -0.006498  -0.000107   0.000253
    22  C    0.213920  -0.033811  -0.006498   5.093443   0.415889   0.364612
    23  H   -0.054580   0.011751  -0.000107   0.415889   0.497870  -0.013357
    24  H   -0.015054  -0.003030   0.000253   0.364612  -0.013357   0.528365
    25  H   -0.032991  -0.011668   0.003999   0.412552  -0.021842  -0.017902
    26  C    0.276773  -0.069880   0.004215  -0.058206  -0.016359   0.000643
    27  H   -0.029530  -0.026425  -0.000162   0.005805  -0.000046   0.000073
    28  H   -0.029174   0.001784  -0.000136  -0.002405   0.000148   0.001620
    29  H   -0.051191   0.012273  -0.000032  -0.004090   0.002810  -0.000886
    30  C   -0.011801   0.392896  -0.027884   0.005967   0.000413  -0.001473
    31  H    0.006939  -0.031802  -0.004019  -0.000274  -0.000005   0.000032
    32  H    0.002821  -0.035033   0.002695   0.000154  -0.000003   0.000032
    33  O   -0.005825   0.001815  -0.000005  -0.007825   0.033093   0.001266
    34  H   -0.000801  -0.000925  -0.000025   0.003672  -0.005799  -0.000615
    35  H   -0.001295   0.000226  -0.000020   0.002947  -0.002445   0.000049
    36  O    0.000429  -0.002721   0.003708  -0.000613  -0.001002   0.000335
    37  H    0.000199  -0.000263  -0.000060  -0.000184   0.000040  -0.000016
    38  H   -0.005954  -0.001645  -0.000814  -0.000761  -0.001573  -0.000297
              25         26         27         28         29         30
     1  C    0.000000   0.000064  -0.000333  -0.000001   0.000110  -0.000172
     2  C    0.000000   0.000077   0.000913  -0.000028  -0.000021   0.000517
     3  C   -0.000012   0.001688   0.003999  -0.000016  -0.000075  -0.006967
     4  C   -0.000164   0.003103  -0.003563  -0.000639   0.000027   0.015835
     5  C    0.000023   0.003797  -0.012674   0.001167   0.000145  -0.002257
     6  C   -0.000001   0.000543   0.000335   0.000092  -0.000150   0.000235
     7  H    0.000000   0.000002   0.000001   0.000000   0.000000   0.000000
     8  H    0.000000   0.000004  -0.000006   0.000000   0.000000   0.000003
     9  H   -0.000056  -0.002014  -0.001827   0.000230  -0.000652  -0.000480
    10  H    0.000000   0.000050   0.000045  -0.000003  -0.000003   0.000004
    11  C   -0.001071  -0.001829   0.013393  -0.000297  -0.000714   0.038080
    12  C    0.000003  -0.001445  -0.002012   0.000045   0.000026   0.000377
    13  C    0.000472  -0.004518  -0.004979  -0.000293   0.000447   0.059468
    14  H    0.000015  -0.000102  -0.000178   0.000007   0.000010  -0.012792
    15  C    0.000000   0.002054   0.001874  -0.000017  -0.000081  -0.032640
    16  H    0.000000   0.000017   0.000005   0.000000   0.000000  -0.001055
    17  O   -0.001211  -0.003756  -0.004684   0.001871  -0.001905  -0.043976
    18  Cl   0.000000   0.000001   0.000004   0.000000   0.000000   0.000217
    19  C   -0.032991   0.276773  -0.029530  -0.029174  -0.051191  -0.011801
    20  C   -0.011668  -0.069880  -0.026425   0.001784   0.012273   0.392896
    21  H    0.003999   0.004215  -0.000162  -0.000136  -0.000032  -0.027884
    22  C    0.412552  -0.058206   0.005805  -0.002405  -0.004090   0.005967
    23  H   -0.021842  -0.016359  -0.000046   0.000148   0.002810   0.000413
    24  H   -0.017902   0.000643   0.000073   0.001620  -0.000886  -0.001473
    25  H    0.499206   0.009411  -0.000166  -0.000286   0.000008   0.000116
    26  C    0.009411   5.009814   0.419368   0.393190   0.427584   0.002184
    27  H   -0.000166   0.419368   0.524631  -0.018936  -0.023451   0.013751
    28  H   -0.000286   0.393190  -0.018936   0.505332  -0.018820  -0.002477
    29  H    0.000008   0.427584  -0.023451  -0.018820   0.505084  -0.001858
    30  C    0.000116   0.002184   0.013751  -0.002477  -0.001858   5.054580
    31  H   -0.000054   0.000724   0.000245   0.000007  -0.000009   0.406153
    32  H    0.000008  -0.005485  -0.003205   0.000513   0.000345   0.412618
    33  O   -0.002304  -0.001938   0.000049  -0.000006   0.000152  -0.000054
    34  H    0.000424   0.000725   0.000004  -0.000015   0.000312   0.000341
    35  H   -0.000305   0.000047   0.000002   0.000002   0.000002  -0.000041
    36  O    0.003423  -0.000037  -0.000007   0.000005   0.000003  -0.000060
    37  H    0.000004  -0.000005  -0.000001   0.000000   0.000000   0.000169
    38  H   -0.001943   0.000152   0.000058  -0.000041   0.000028   0.003329
              31         32         33         34         35         36
     1  C    0.000003  -0.000064  -0.000004  -0.000161  -0.000002   0.000000
     2  C   -0.000022  -0.000160   0.000006   0.000131   0.000002   0.000000
     3  C    0.000750  -0.001778  -0.000019  -0.000561   0.000008  -0.000050
     4  C   -0.000057   0.003494  -0.000377  -0.002797  -0.000979   0.001158
     5  C   -0.000010   0.000956  -0.003258   0.002421   0.000262   0.000133
     6  C   -0.000006   0.000160  -0.000138   0.000599   0.000022   0.000002
     7  H    0.000000   0.000000   0.000000   0.000000   0.000000   0.000000
     8  H    0.000000   0.000013   0.000000   0.000000   0.000000   0.000000
     9  H    0.000006   0.000076   0.004019  -0.009672  -0.000512  -0.000012
    10  H    0.000000   0.000000  -0.000006   0.000071   0.000000   0.000000
    11  C   -0.002228  -0.014689   0.002778   0.005047   0.001345  -0.005246
    12  C   -0.001758   0.004529  -0.000008  -0.000044  -0.000006   0.000080
    13  C   -0.006570  -0.008933   0.000182  -0.001230  -0.000138  -0.001316
    14  H   -0.002584   0.001809   0.000005  -0.000298  -0.000141   0.010271
    15  C    0.002867  -0.002875   0.000011  -0.000100  -0.000001   0.000221
    16  H    0.000687  -0.000016   0.000000   0.000002   0.000000  -0.000015
    17  O    0.000802   0.000965  -0.016140   0.025246   0.001726  -0.037325
    18  Cl  -0.000035   0.000021   0.000000   0.000000   0.000000   0.000000
    19  C    0.006939   0.002821  -0.005825  -0.000801  -0.001295   0.000429
    20  C   -0.031802  -0.035033   0.001815  -0.000925   0.000226  -0.002721
    21  H   -0.004019   0.002695  -0.000005  -0.000025  -0.000020   0.003708
    22  C   -0.000274   0.000154  -0.007825   0.003672   0.002947  -0.000613
    23  H   -0.000005  -0.000003   0.033093  -0.005799  -0.002445  -0.001002
    24  H    0.000032   0.000032   0.001266  -0.000615   0.000049   0.000335
    25  H   -0.000054   0.000008  -0.002304   0.000424  -0.000305   0.003423
    26  C    0.000724  -0.005485  -0.001938   0.000725   0.000047  -0.000037
    27  H    0.000245  -0.003205   0.000049   0.000004   0.000002  -0.000007
    28  H    0.000007   0.000513  -0.000006  -0.000015   0.000002   0.000005
    29  H   -0.000009   0.000345   0.000152   0.000312   0.000002   0.000003
    30  C    0.406153   0.412618  -0.000054   0.000341  -0.000041  -0.000060
    31  H    0.467662  -0.012450   0.000000  -0.000002   0.000000  -0.000013
    32  H   -0.012450   0.462307   0.000004  -0.000024   0.000001   0.000004
    33  O    0.000000   0.000004   8.022384   0.322966   0.319139  -0.009729
    34  H   -0.000002  -0.000024   0.322966   0.364154  -0.033949   0.002277
    35  H    0.000000   0.000001   0.319139  -0.033949   0.363958   0.019841
    36  O   -0.000013   0.000004  -0.009729   0.002277   0.019841   8.096334
    37  H   -0.000002  -0.000001   0.000396   0.000284  -0.001147   0.305462
    38  H   -0.000049  -0.000083   0.002788   0.002819  -0.000922   0.295454
              37         38
     1  C    0.000000  -0.000014
     2  C    0.000000   0.000041
     3  C   -0.000040  -0.000011
     4  C    0.000883  -0.002289
     5  C    0.000001  -0.001259
     6  C   -0.000002   0.000029
     7  H    0.000000   0.000000
     8  H    0.000000   0.000000
     9  H   -0.000006  -0.000923
    10  H    0.000000   0.000001
    11  C    0.002734  -0.010732
    12  C    0.000029   0.000064
    13  C   -0.001634   0.002174
    14  H    0.001002  -0.000589
    15  C   -0.000238   0.000015
    16  H   -0.000001  -0.000033
    17  O    0.000305   0.046797
    18  Cl   0.000000   0.000000
    19  C    0.000199  -0.005954
    20  C   -0.000263  -0.001645
    21  H   -0.000060  -0.000814
    22  C   -0.000184  -0.000761
    23  H    0.000040  -0.001573
    24  H   -0.000016  -0.000297
    25  H    0.000004  -0.001943
    26  C   -0.000005   0.000152
    27  H   -0.000001   0.000058
    28  H    0.000000  -0.000041
    29  H    0.000000   0.000028
    30  C    0.000169   0.003329
    31  H   -0.000002  -0.000049
    32  H   -0.000001  -0.000083
    33  O    0.000396   0.002788
    34  H    0.000284   0.002819
    35  H   -0.001147  -0.000922
    36  O    0.305462   0.295454
    37  H    0.378718  -0.022639
    38  H   -0.022639   0.382152
 Mulliken charges:
               1
     1  C   -0.118404
     2  C   -0.215237
     3  C    0.043565
     4  C    0.012923
     5  C   -0.176393
     6  C   -0.132108
     7  H    0.141054
     8  H    0.138694
     9  H    0.163332
    10  H    0.139274
    11  C    0.361662
    12  C    0.066537
    13  C   -0.192350
    14  H    0.162073
    15  C   -0.210063
    16  H    0.145273
    17  O   -0.665921
    18  Cl  -0.105957
    19  C    0.262392
    20  C   -0.184859
    21  H    0.150545
    22  C   -0.405667
    23  H    0.153193
    24  H    0.153813
    25  H    0.162310
    26  C   -0.390656
    27  H    0.147630
    28  H    0.167577
    29  H    0.154571
    30  C   -0.261267
    31  H    0.175072
    32  H    0.191274
    33  O   -0.663419
    34  H    0.325524
    35  H    0.332324
    36  O   -0.680995
    37  H    0.336013
    38  H    0.316669
 Sum of Mulliken charges =   0.00000
 Mulliken charges with hydrogens summed into heavy atoms:
               1
     1  C    0.022650
     2  C   -0.076542
     3  C    0.043565
     4  C    0.012923
     5  C   -0.013061
     6  C    0.007166
    11  C    0.361662
    12  C    0.066537
    13  C   -0.030276
    15  C   -0.064790
    17  O   -0.665921
    18  Cl  -0.105957
    19  C    0.262392
    20  C   -0.034314
    22  C    0.063648
    26  C    0.079123
    30  C    0.105079
    33  O   -0.005572
    36  O   -0.028312
 Electronic spatial extent (au):  <R**2>=           5927.9528
 Charge=              0.0000 electrons
 Dipole moment (field-independent basis, Debye):
    X=              0.8533    Y=             -2.4439    Z=             -4.3914  Tot=              5.0976
 Quadrupole moment (field-independent basis, Debye-Ang):
   XX=           -135.5480   YY=           -114.8728   ZZ=           -117.7152
   XY=             11.6213   XZ=             10.9620   YZ=             -7.2413
 Traceless Quadrupole moment (field-independent basis, Debye-Ang):
   XX=            -12.8360   YY=              7.8392   ZZ=              4.9968
   XY=             11.6213   XZ=             10.9620   YZ=             -7.2413
 Octapole moment (field-independent basis, Debye-Ang**2):
  XXX=              9.2494  YYY=            -15.9462  ZZZ=             22.0863  XYY=             28.8144
  XXY=              1.2671  XXZ=            -48.0005  XZZ=            -23.1083  YZZ=            -21.6879
  YYZ=            -13.9998  XYZ=             15.5029
 Hexadecapole moment (field-independent basis, Debye-Ang**3):
 XXXX=          -4914.4190 YYYY=          -1807.7589 ZZZZ=           -931.8534 XXXY=            115.6182
 XXXZ=            104.6716 YYYX=             71.1288 YYYZ=            -54.7158 ZZZX=            -71.0408
 ZZZY=            -67.6972 XXYY=          -1206.2184 XXZZ=           -976.1084 YYZZ=           -539.2475
 XXYZ=            -60.1191 YYXZ=             27.6157 ZZXY=             15.3764
 N-N= 1.612573509535D+03 E-N=-6.205201146450D+03  KE= 1.264490309966D+03
 1\1\GINC-D10S5B1\FTS\RwB97XD\def2TZVP\C15H19Cl1O3\PMMASS\03-Feb-2022\0
 \\#n wB97XD/Def2TZVP scrf(smd,solvent=toluene) opt=(calcfc,ts,noeigent
 est)\\ts_claisen toluene - opt\\0,1\C,2.5326539379,2.7739563123,-0.762
 1423197\C,2.9740978195,1.5406063161,-0.3598592813\C,2.0678723354,0.562
 5590053,0.0957923027\C,0.687880657,0.874197956,0.1224270021\C,0.267126
 2502,2.1512521513,-0.284440487\C,1.1673804047,3.0870635069,-0.72074574
 43\H,3.2454209994,3.5126049689,-1.1068438615\H,4.0304588121,1.31191952
 69,-0.38687346\H,-0.788876938,2.3805226808,-0.243185306\H,0.8273595215
 ,4.0671113878,-1.0306585865\C,-0.2841271107,-0.1001048668,0.5992908667
 \C,2.4778144403,-0.732219576,0.5548992557\C,0.1964328276,-1.3600366714
 ,0.9896821859\H,-0.4886208011,-2.0477341215,1.4649278504\C,1.583909002
 7,-1.6427546269,1.0071537692\H,1.9238901926,-2.6039084102,1.3697973852
 \O,-1.5351339689,0.160183089,0.5896059843\Cl,4.1717994343,-1.145162838
 2,0.5580725967\C,-2.4576457505,-0.7466452776,-1.3021742463\C,-1.904524
 7921,-1.9918048479,-1.0009631675\H,-2.5316164631,-2.6868026026,-0.4540
 344214\C,-3.8858317496,-0.4870614521,-0.9838318327\H,-4.0158106779,0.5
 242340588,-0.595365144\H,-4.4675469049,-0.5514310874,-1.910198032\H,-4
 .2864712218,-1.2002996333,-0.2661627395\C,-1.8165476775,0.2168292399,-
 2.2379856327\H,-0.729783172,0.1852171281,-2.2237645072\H,-2.1418909635
 ,-0.0371328361,-3.2530669107\H,-2.1466213255,1.2333603787,-2.032570621
 3\C,-0.5771467246,-2.2837996945,-1.1302277758\H,-0.2034285073,-3.25858
 75146,-0.8466706048\H,0.1055180223,-1.6646116477,-1.6951851867\O,-3.54
 95404179,1.9800867017,1.433243005\H,-2.7175272783,1.6113045814,1.10531
 21918\H,-3.9452848435,1.2183391801,1.8709472221\O,-3.3812725845,-0.940
 5109581,2.3158922568\H,-3.0060577497,-0.9051031223,3.1974600773\H,-2.6
 631270345,-0.652216385,1.7189959173\\Version=ES64L-G09RevD.01\State=1-
 A\HF=-1268.9453118\RMSD=9.732e-09\RMSF=7.521e-06\Dipole=0.4092373,-1.2
 523881,-1.5120453\Quadrupole=-10.6311011,4.7823268,5.8487744,9.278205,
 6.5798582,-5.0051379\PG=C01 [X(C15H19Cl1O3)]\\@


 PICNIC:  A SNACK IN THE GRASS.
 Job cpu time:       6 days  9 hours 34 minutes 14.1 seconds.
 File lengths (MBytes):  RWF=   1739 Int=      0 D2E=      0 Chk=     43 Scr=      1
 Normal termination of Gaussian 09 at Thu Feb  3 10:39:41 2022.
