 Entering Gaussian System, Link 0=g09
 Input=freq_m062x_TS_2H2O_claisen_PM6_toluene_gd3.com
 Output=freq_m062x_TS_2H2O_claisen_PM6_toluene_gd3.log
 Initial command:
 /apps/applications/gaussian/G09.D01/2/default/g09/l1.exe "/local/743721.1.40core-192G.q/Gau-124880.inp" -scrdir="/local/743721.1.40core-192G.q/"
 Entering Link 1 = /apps/applications/gaussian/G09.D01/2/default/g09/l1.exe PID=    124881.
  
 Copyright (c) 1988,1990,1992,1993,1995,1998,2003,2009,2013,
            Gaussian, Inc.  All Rights Reserved.
  
 This is part of the Gaussian(R) 09 program.  It is based on
 the Gaussian(R) 03 system (copyright 2003, Gaussian, Inc.),
 the Gaussian(R) 98 system (copyright 1998, Gaussian, Inc.),
 the Gaussian(R) 94 system (copyright 1995, Gaussian, Inc.),
 the Gaussian 92(TM) system (copyright 1992, Gaussian, Inc.),
 the Gaussian 90(TM) system (copyright 1990, Gaussian, Inc.),
 the Gaussian 88(TM) system (copyright 1988, Gaussian, Inc.),
 the Gaussian 86(TM) system (copyright 1986, Carnegie Mellon
 University), and the Gaussian 82(TM) system (copyright 1983,
 Carnegie Mellon University). Gaussian is a federally registered
 trademark of Gaussian, Inc.
  
 This software contains proprietary and confidential information,
 including trade secrets, belonging to Gaussian, Inc.
  
 This software is provided under written license and may be
 used, copied, transmitted, or stored only in accord with that
 written license.
  
 The following legend is applicable only to US Government
 contracts under FAR:
  
                    RESTRICTED RIGHTS LEGEND
  
 Use, reproduction and disclosure by the US Government is
 subject to restrictions as set forth in subparagraphs (a)
 and (c) of the Commercial Computer Software - Restricted
 Rights clause in FAR 52.227-19.
  
 Gaussian, Inc.
 340 Quinnipiac St., Bldg. 40, Wallingford CT 06492
  
  
 ---------------------------------------------------------------
 Warning -- This program may not be used in any manner that
 competes with the business of Gaussian, Inc. or will provide
 assistance to any competitor of Gaussian, Inc.  The licensee
 of this program is prohibited from giving any competitor of
 Gaussian, Inc. access to this program.  By using this program,
 the user acknowledges that Gaussian, Inc. is engaged in the
 business of creating and licensing software in the field of
 computational chemistry and represents and warrants to the
 licensee that it is not a competitor of Gaussian, Inc. and that
 it will not use this program in any manner prohibited above.
 ---------------------------------------------------------------
  

 Cite this work as:
 Gaussian 09, Revision D.01,
 M. J. Frisch, G. W. Trucks, H. B. Schlegel, G. E. Scuseria, 
 M. A. Robb, J. R. Cheeseman, G. Scalmani, V. Barone, B. Mennucci, 
 G. A. Petersson, H. Nakatsuji, M. Caricato, X. Li, H. P. Hratchian, 
 A. F. Izmaylov, J. Bloino, G. Zheng, J. L. Sonnenberg, M. Hada, 
 M. Ehara, K. Toyota, R. Fukuda, J. Hasegawa, M. Ishida, T. Nakajima, 
 Y. Honda, O. Kitao, H. Nakai, T. Vreven, J. A. Montgomery, Jr., 
 J. E. Peralta, F. Ogliaro, M. Bearpark, J. J. Heyd, E. Brothers, 
 K. N. Kudin, V. N. Staroverov, T. Keith, R. Kobayashi, J. Normand, 
 K. Raghavachari, A. Rendell, J. C. Burant, S. S. Iyengar, J. Tomasi, 
 M. Cossi, N. Rega, J. M. Millam, M. Klene, J. E. Knox, J. B. Cross, 
 V. Bakken, C. Adamo, J. Jaramillo, R. Gomperts, R. E. Stratmann, 
 O. Yazyev, A. J. Austin, R. Cammi, C. Pomelli, J. W. Ochterski, 
 R. L. Martin, K. Morokuma, V. G. Zakrzewski, G. A. Voth, 
 P. Salvador, J. J. Dannenberg, S. Dapprich, A. D. Daniels, 
 O. Farkas, J. B. Foresman, J. V. Ortiz, J. Cioslowski, 
 and D. J. Fox, Gaussian, Inc., Wallingford CT, 2013.
 
 ******************************************
 Gaussian 09:  ES64L-G09RevD.01 24-Apr-2013
                16-Sep-2020 
 ******************************************
 %nprocshared=4
 Will use up to    4 processors via shared memory.
 %chk=freq_m062x_TS_2H2O_claisen_PM6_toluene_gd3.chk
 ----------------------------------------------------------------------
 # freq scrf=(cpcm,solvent=toluene) geom=connectivity def2svp empirical
 dispersion=gd3 m062x
 ----------------------------------------------------------------------
 1/10=4,30=1,38=1,57=2/1,3;
 2/12=2,17=6,18=5,40=1/2;
 3/5=43,7=101,11=2,16=1,25=1,30=1,70=2101,71=2,72=13,74=-55,124=31,140=1/1,2,3;
 4//1;
 5/5=2,38=5,53=13,98=1/2;
 8/6=4,10=90,11=11/1;
 11/6=1,8=1,9=11,15=111,16=1/1,2,10;
 10/6=1/2;
 6/7=2,8=2,9=2,10=2,18=1,28=1/1;
 7/8=1,10=1,25=1/1,2,3,16;
 1/10=4,30=1/3;
 99//99;
 -------------------
 Title Card Required
 -------------------
 Symbolic Z-matrix:
 Charge =  0 Multiplicity = 1
 C                     2.43841   2.80473  -0.56024 
 C                     2.93317   1.54355  -0.30438 
 C                     2.06812   0.49421   0.08879 
 C                     0.67359   0.75462   0.20188 
 C                     0.1983    2.06278  -0.04373 
 C                     1.06205   3.07036  -0.42083 
 H                     3.11904   3.6023   -0.86145 
 H                     3.99964   1.34064  -0.39549 
 H                    -0.8629    2.27656   0.0817 
 H                     0.67751   4.0742   -0.60542 
 C                    -0.24802  -0.30842   0.60943 
 C                     2.54822  -0.82849   0.40072 
 C                     0.29678  -1.59398   0.83673 
 H                    -0.35597  -2.35284   1.26538 
 C                     1.70292  -1.82192   0.7942 
 H                     2.10317  -2.80426   1.04673 
 O                    -1.51347  -0.12038   0.64506 
 Cl                    4.25735  -1.16023   0.30296 
 C                    -2.42966  -0.8677   -1.17382 
 C                    -1.76957  -2.10775  -1.11884 
 H                    -2.31498  -2.94025  -0.66579 
 C                    -3.86     -0.79333  -0.7481 
 H                    -4.05384   0.17603  -0.27188 
 H                    -4.49965  -0.85832  -1.64435 
 H                    -4.12762  -1.6028   -0.05826 
 C                    -1.95014   0.27093  -2.01796 
 H                    -0.85811   0.31615  -2.10837 
 H                    -2.37093   0.14584  -3.02974 
 H                    -2.3241    1.21941  -1.61021 
 C                    -0.41425  -2.24502  -1.30411 
 H                     0.06026  -3.22135  -1.19553 
 H                     0.18648  -1.47635  -1.79448 
 O                    -3.16347   2.15628   0.57779 
 H                    -2.50914   1.43617   0.60591 
 H                    -3.78054   1.84688   1.25703 
 O                    -3.76624  -0.03057   2.3182 
 H                    -3.47002   0.17797   3.21163 
 H                    -2.9472   -0.28224   1.8554 
 

 GradGradGradGradGradGradGradGradGradGradGradGradGradGradGradGradGradGrad
 Berny optimization.
 Initialization pass.
 Trust Radius=3.00D-01 FncErr=1.00D-07 GrdErr=1.00D-07
 Number of steps in this run=      2 maximum allowed number of steps=      2.
 GradGradGradGradGradGradGradGradGradGradGradGradGradGradGradGradGradGrad

                          Input orientation:                          
 ---------------------------------------------------------------------
 Center     Atomic      Atomic             Coordinates (Angstroms)
 Number     Number       Type             X           Y           Z
 ---------------------------------------------------------------------
      1          6           0        2.438409    2.804732   -0.560239
      2          6           0        2.933167    1.543545   -0.304376
      3          6           0        2.068116    0.494211    0.088788
      4          6           0        0.673585    0.754619    0.201875
      5          6           0        0.198300    2.062781   -0.043729
      6          6           0        1.062054    3.070358   -0.420830
      7          1           0        3.119043    3.602296   -0.861451
      8          1           0        3.999636    1.340637   -0.395491
      9          1           0       -0.862897    2.276560    0.081703
     10          1           0        0.677512    4.074203   -0.605417
     11          6           0       -0.248016   -0.308415    0.609426
     12          6           0        2.548219   -0.828486    0.400719
     13          6           0        0.296780   -1.593979    0.836734
     14          1           0       -0.355973   -2.352838    1.265376
     15          6           0        1.702916   -1.821922    0.794200
     16          1           0        2.103169   -2.804255    1.046727
     17          8           0       -1.513474   -0.120376    0.645064
     18         17           0        4.257348   -1.160225    0.302964
     19          6           0       -2.429662   -0.867704   -1.173817
     20          6           0       -1.769566   -2.107747   -1.118844
     21          1           0       -2.314981   -2.940246   -0.665786
     22          6           0       -3.859998   -0.793326   -0.748098
     23          1           0       -4.053840    0.176027   -0.271882
     24          1           0       -4.499653   -0.858324   -1.644347
     25          1           0       -4.127616   -1.602798   -0.058261
     26          6           0       -1.950142    0.270925   -2.017961
     27          1           0       -0.858107    0.316149   -2.108373
     28          1           0       -2.370926    0.145841   -3.029736
     29          1           0       -2.324098    1.219410   -1.610214
     30          6           0       -0.414252   -2.245024   -1.304111
     31          1           0        0.060256   -3.221349   -1.195526
     32          1           0        0.186479   -1.476353   -1.794483
     33          8           0       -3.163471    2.156277    0.577787
     34          1           0       -2.509141    1.436168    0.605906
     35          1           0       -3.780538    1.846881    1.257030
     36          8           0       -3.766239   -0.030567    2.318199
     37          1           0       -3.470015    0.177974    3.211631
     38          1           0       -2.947197   -0.282241    1.855397
 ---------------------------------------------------------------------
                    Distance matrix (angstroms):
                    1          2          3          4          5
     1  C    0.000000
     2  C    1.378711   0.000000
     3  C    2.428345   1.415625   0.000000
     4  C    2.810407   2.446304   1.423137   0.000000
     5  C    2.415649   2.795897   2.444214   1.413331   0.000000
     6  C    1.408668   2.417805   2.812189   2.429263   1.379669
     7  H    1.090917   2.140873   3.415786   3.901306   3.401399
     8  H    2.146659   1.089417   2.163731   3.429705   3.885278
     9  H    3.404361   3.885418   3.430402   2.165992   1.089759
    10  H    2.171257   3.403356   3.902825   3.416339   2.142652
    11  C    4.275123   3.792719   2.505941   1.464748   2.499676
    12  C    3.759757   2.504371   1.441294   2.461709   3.752210
    13  C    5.087904   4.254025   2.838590   2.461898   3.762553
    14  H    6.143449   5.335200   3.919981   3.441993   4.638822
    15  C    4.876616   3.747900   2.448561   2.837064   4.249343
    16  H    5.844267   4.627931   3.434931   3.927222   5.339069
    17  O    5.062252   4.841765   3.676268   2.396927   2.858458
    18  Cl   4.446858   3.071268   2.752411   4.064505   5.194597
    19  C    6.128734   5.943903   4.866106   3.762260   4.095244
    20  C    6.492422   6.009242   4.791280   3.988286   4.735153
    21  H    7.457253   6.912167   5.619290   4.830775   5.633278
    22  C    7.256118   7.197565   6.123779   4.883847   5.012311
    23  H    7.010174   7.119651   6.140820   4.786205   4.657530
    24  H    7.920226   7.925359   6.925944   5.724728   5.758958
    25  H    7.924076   7.733997   6.542642   5.355055   5.670117
    26  C    5.272998   5.329413   4.542537   3.470674   3.424054
    27  H    4.410984   4.374319   3.663605   2.806347   2.903356
    28  H    6.024767   6.124914   5.436143   4.481402   4.380847
    29  H    5.128076   5.426704   4.764878   3.533525   3.086688
    30  C    5.847312   5.153440   3.950408   3.528348   4.530007
    31  H    6.509443   5.634890   4.414335   4.258782   5.409965
    32  H    4.992218   4.345630   3.312158   3.033143   3.948512
    33  O    5.752969   6.190529   5.510997   4.102311   3.420019
    34  H    5.264135   5.518955   4.701699   3.279862   2.853928
    35  H    6.549446   6.899553   6.115657   4.705911   4.191627
    36  O    7.404187   7.364630   6.267804   4.980701   5.067384
    37  H    7.485742   7.431543   6.365772   5.153695   5.254179
    38  H    6.661040   6.525090   5.373746   4.113305   4.358894
                    6          7          8          9         10
     6  C    0.000000
     7  H    2.169864   0.000000
     8  H    3.409100   2.471369   0.000000
     9  H    2.141983   4.301507   4.974725   0.000000
    10  H    1.090711   2.499865   4.307315   2.465059   0.000000
    11  C    3.767468   5.366025   4.666024   2.708997   4.641098
    12  C    4.252601   4.642278   2.728673   4.623721   5.343053
    13  C    4.891130   6.152258   4.882775   4.110474   5.861147
    14  H    5.853644   7.215452   5.947400   4.805141   6.773095
    15  C    5.081477   5.845403   4.085593   4.887597   6.146110
    16  H    6.143999   6.761438   4.780869   5.961837   7.216319
    17  O    4.236774   6.130912   5.797559   2.546749   4.894754
    18  Cl   5.350852   5.033210   2.609323   6.170685   6.406217
    19  C    5.316710   7.132082   6.842400   3.730614   5.865156
    20  C    5.942901   7.521259   6.760051   4.635246   6.668456
    21  H    6.898676   8.507159   7.633702   5.466475   7.626346
    22  C    6.265920   8.248718   8.151808   4.369827   6.655989
    23  H    5.879771   7.971020   8.138186   3.836584   6.139439
    24  H    6.918390   8.863102   8.867524   5.102229   7.225803
    25  H    6.993034   8.958358   8.650420   5.072218   7.457679
    26  C    4.411460   6.175126   6.259117   3.100526   4.833712
    27  H    3.757724   5.307664   5.251781   2.939331   4.328969
    28  H    5.210042   6.840197   6.996488   4.061424   5.531937
    29  H    4.038152   5.988871   6.440486   2.472905   4.262525
    30  C    5.586855   6.846260   5.758903   4.750419   6.450795
    31  H    6.417891   7.485313   6.080336   5.719312   7.345360
    32  H    4.829714   5.938279   4.942952   4.324999   5.697689
    33  O    4.437098   6.605479   7.274795   2.356525   4.453264
    34  H    4.059335   6.206585   6.586053   1.921241   4.310602
    35  H    5.269042   7.427898   7.969832   3.174688   5.320139
    36  O    6.358493   8.409220   8.339852   4.330606   6.718898
    37  H    6.488475   8.469455   8.376085   4.582311   6.852185
    38  H    5.700458   7.698711   7.480556   3.746700   6.178408
                   11         12         13         14         15
    11  C    0.000000
    12  C    2.851835   0.000000
    13  C    1.414619   2.417657   0.000000
    14  H    2.149788   3.391992   1.088893   0.000000
    15  C    2.476082   1.362454   1.425127   2.177821   0.000000
    16  H    3.456663   2.125808   2.184469   2.509774   1.090390
    17  O    1.279849   4.130191   2.342064   2.590074   3.641794
    18  Cl   4.595411   1.743769   4.019845   4.861203   2.684079
    19  C    2.872688   5.221111   3.464575   3.529231   4.675663
    20  C    2.922264   4.752773   2.891026   2.782592   3.974867
    21  H    3.581207   5.408112   3.300196   2.812854   4.418790
    22  C    3.889013   6.510473   4.520126   4.331783   5.863677
    23  H    3.936456   6.711827   4.825955   4.736300   6.186160
    24  H    4.843378   7.338643   5.450020   5.279218   6.734010
    25  H    4.143975   6.736245   4.514020   4.066923   5.896593
    26  C    3.183713   5.224363   4.083602   4.495087   5.062913
    27  H    2.854597   4.382783   3.695404   4.331029   4.422117
    28  H    4.237522   6.075798   5.009313   5.362035   5.923746
    29  H    3.401642   5.654839   4.557600   4.990340   5.589969
    30  C    2.727584   3.699900   2.347902   2.572408   3.010702
    31  H    3.440649   3.803124   2.614260   2.642650   2.935258
    32  H    2.707701   3.288839   2.636153   3.228810   3.019980
    33  O    3.817799   6.446981   5.109287   5.356019   6.289247
    34  H    2.855918   5.545056   4.136214   4.407675   5.328417
    35  H    4.188485   6.924162   5.351700   5.418981   6.613818
    36  O    3.921096   6.647239   4.598600   4.258086   5.953418
    37  H    4.170051   6.718134   4.792567   4.459840   6.050022
    38  H    2.972996   5.710873   3.644409   3.368967   5.012016
                   16         17         18         19         20
    16  H    0.000000
    17  O    4.521576   0.000000
    18  Cl   2.810072   5.873730   0.000000
    19  C    5.406256   2.169384   6.854382   0.000000
    20  C    4.491425   2.669569   6.264426   1.405865   0.000000
    21  H    4.740384   3.211294   6.877678   2.136979   1.093524
    22  C    6.544050   2.810683   8.193330   1.494199   2.497010
    23  H    6.966317   2.717003   8.437527   2.130919   3.339293
    24  H    7.390926   3.834480   8.975981   2.122816   3.048046
    25  H    6.441054   3.086419   8.404402   2.160527   2.634428
    26  C    5.939560   2.726811   6.779957   1.496327   2.549333
    27  H    5.334860   2.863822   5.844836   2.178230   2.772219
    28  H    6.733360   3.782889   7.533041   2.115457   3.015261
    29  H    6.545984   2.745618   7.255229   2.134861   3.408654
    30  C    3.489497   3.085725   5.057996   2.444558   1.374789
    31  H    3.061888   3.934518   4.910121   3.426340   2.143417
    32  H    3.675527   3.268012   4.590337   2.756787   2.163622
    33  O    7.250123   2.812502   8.132851   3.570862   4.796189
    34  H    6.280837   1.848165   7.253854   2.912311   4.010121
    35  H    7.503019   3.063361   8.634845   3.886239   5.032680
    36  O    6.615129   2.807561   8.349566   3.831633   4.484935
    37  H    6.681383   3.241039   8.364404   4.626871   5.183538
    38  H    5.702692   1.883260   7.422019   3.128378   3.683123
                   21         22         23         24         25
    21  H    0.000000
    22  C    2.646341   0.000000
    23  H    3.590257   1.097270   0.000000
    24  H    3.172503   1.103017   1.775469   0.000000
    25  H    2.333131   1.096695   1.793124   1.791179   0.000000
    26  C    3.503299   2.528385   2.735570   2.813325   3.477449
    27  H    3.848071   3.477446   3.688501   3.854292   4.309873
    28  H    3.887843   2.881882   3.230924   2.731141   3.869543
    29  H    4.265532   2.674573   2.423177   3.008518   3.691354
    30  C    2.122160   3.780178   4.491501   4.327724   3.969089
    31  H    2.449774   4.632913   5.414893   5.155395   4.631560
    32  H    3.110344   4.235023   4.798852   4.729094   4.652082
    33  O    5.314222   3.308063   2.331541   3.976315   3.932528
    34  H    4.561568   2.937479   2.178202   3.780274   3.506550
    35  H    5.362990   3.316255   2.281232   4.031532   3.708199
    36  O    4.413224   3.161134   2.614176   4.113982   2.872293
    37  H    5.108010   4.095725   3.532098   5.070956   3.780976
    38  H    3.717667   2.805815   2.441308   3.871718   2.607556
                   26         27         28         29         30
    26  C    0.000000
    27  H    1.096704   0.000000
    28  H    1.102902   1.779476   0.000000
    29  H    1.098055   1.792532   1.780389   0.000000
    30  C    3.032909   2.720928   3.538727   3.967810   0.000000
    31  H    4.112673   3.767038   4.540148   5.057415   1.090944
    32  H    2.769128   2.098273   3.270731   3.688372   1.091878
    33  O    3.429960   3.989515   4.205259   2.523810   5.520072
    34  H    2.924884   3.368630   3.860303   2.234371   4.646278
    35  H    4.069343   4.712715   4.822541   3.276587   5.885152
    36  O    4.710774   5.307729   5.529776   4.367453   5.409322
    37  H    5.446768   5.928204   6.337483   5.064376   5.966618
    38  H    4.037699   4.520381   4.937597   3.828011   4.500091
                   31         32         33         34         35
    31  H    0.000000
    32  H    1.849241   0.000000
    33  O    6.515820   5.481408   0.000000
    34  H    5.615997   4.637997   0.973394   0.000000
    35  H    6.815694   6.007732   0.968436   1.486303   0.000000
    36  O    6.096673   5.884593   2.859134   2.581386   2.156640
    37  H    6.590997   6.416223   3.308291   3.048956   2.588849
    38  H    5.195311   4.956557   2.761418   2.169343   2.363400
                   36         37         38
    36  O    0.000000
    37  H    0.964084   0.000000
    38  H    0.973835   1.524633   0.000000
 Stoichiometry    C15H19ClO3
 Framework group  C1[X(C15H19ClO3)]
 Deg. of freedom   108
 Full point group                 C1      NOp   1
 Largest Abelian subgroup         C1      NOp   1
 Largest concise Abelian subgroup C1      NOp   1
                         Standard orientation:                         
 ---------------------------------------------------------------------
 Center     Atomic      Atomic             Coordinates (Angstroms)
 Number     Number       Type             X           Y           Z
 ---------------------------------------------------------------------
      1          6           0        2.438409    2.804732   -0.560239
      2          6           0        2.933167    1.543545   -0.304376
      3          6           0        2.068116    0.494211    0.088788
      4          6           0        0.673585    0.754619    0.201875
      5          6           0        0.198300    2.062781   -0.043729
      6          6           0        1.062054    3.070358   -0.420830
      7          1           0        3.119043    3.602296   -0.861451
      8          1           0        3.999636    1.340637   -0.395491
      9          1           0       -0.862897    2.276560    0.081703
     10          1           0        0.677512    4.074203   -0.605417
     11          6           0       -0.248016   -0.308415    0.609426
     12          6           0        2.548219   -0.828486    0.400719
     13          6           0        0.296780   -1.593979    0.836734
     14          1           0       -0.355973   -2.352838    1.265376
     15          6           0        1.702916   -1.821922    0.794200
     16          1           0        2.103169   -2.804255    1.046727
     17          8           0       -1.513474   -0.120376    0.645064
     18         17           0        4.257348   -1.160225    0.302964
     19          6           0       -2.429662   -0.867704   -1.173817
     20          6           0       -1.769566   -2.107747   -1.118844
     21          1           0       -2.314981   -2.940246   -0.665786
     22          6           0       -3.859998   -0.793326   -0.748098
     23          1           0       -4.053840    0.176027   -0.271882
     24          1           0       -4.499653   -0.858324   -1.644347
     25          1           0       -4.127616   -1.602798   -0.058261
     26          6           0       -1.950142    0.270925   -2.017961
     27          1           0       -0.858107    0.316149   -2.108373
     28          1           0       -2.370926    0.145841   -3.029736
     29          1           0       -2.324098    1.219410   -1.610214
     30          6           0       -0.414252   -2.245024   -1.304111
     31          1           0        0.060256   -3.221349   -1.195526
     32          1           0        0.186479   -1.476353   -1.794483
     33          8           0       -3.163471    2.156277    0.577787
     34          1           0       -2.509141    1.436168    0.605906
     35          1           0       -3.780538    1.846881    1.257030
     36          8           0       -3.766239   -0.030567    2.318199
     37          1           0       -3.470015    0.177974    3.211631
     38          1           0       -2.947197   -0.282241    1.855397
 ---------------------------------------------------------------------
 Rotational constants (GHZ):      0.5082937      0.2321310      0.1939249
 Standard basis: def2SVP (5D, 7F)
 There are   384 symmetry adapted cartesian basis functions of A   symmetry.
 There are   365 symmetry adapted basis functions of A   symmetry.
   365 basis functions,   620 primitive gaussians,   384 cartesian basis functions
    75 alpha electrons       75 beta electrons
       nuclear repulsion energy      1620.9884599472 Hartrees.
 NAtoms=   38 NActive=   38 NUniq=   38 SFac= 1.00D+00 NAtFMM=   60 NAOKFM=F Big=F
 Integral buffers will be    131072 words long.
 Raffenetti 2 integral format.
 Two-electron integral symmetry is turned on.
 Nuclear repulsion after empirical dispersion term =     1620.9854756050 Hartrees.
 Force inversion solution in PCM.
 ------------------------------------------------------------------------------
 Polarizable Continuum Model (PCM)
 =================================
 Model                : C-PCM.
 Atomic radii         : UFF (Universal Force Field).
 Polarization charges : Total charges.
 Charge compensation  : None.
 Solution method      : Matrix inversion.
 Cavity type          : Scaled VdW (van der Waals Surface) (Alpha=1.100).
 Cavity algorithm     : GePol (No added spheres)
                        Default sphere list used, NSphG=   38.
                        Lebedev-Laikov grids with approx.  5.0 points / Ang**2.
                        Smoothing algorithm: Karplus/York (Gamma=1.0000).
                        Polarization charges: spherical gaussians, with
                                              point-specific exponents (IZeta= 3).
                        Self-potential: point-specific (ISelfS= 7).
                        Self-field    : sphere-specific E.n sum rule (ISelfD= 2).
 1st derivatives      : Analytical E(r).r(x)/FMM algorithm (CHGder, D1EAlg=3).
                        Cavity 1st derivative terms included.
 2nd derivatives      : Analytical E(r).r(xy)/FMM algorithm (CHGder, D2EAlg=3).
                        Cavity 2nd derivative terms included.
 Solvent              : Toluene, Eps=   2.374100 Eps(inf)=   2.238315
 ------------------------------------------------------------------------------
 One-electron integrals computed using PRISM.
   1 Symmetry operations used in ECPInt.
 ECPInt:  NShTT=   15051 NPrTT=   54599 LenC2=   14119 LenP2D=   36444.
 LDataN:  DoStor=T MaxTD1= 4 Len=   56
 NBasis=   365 RedAO= T EigKep=  2.30D-04  NBF=   365
 NBsUse=   365 1.00D-06 EigRej= -1.00D+00 NBFU=   365
 ExpMin= 1.22D-01 ExpMax= 1.04D+04 ExpMxC= 1.57D+03 IAcc=1 IRadAn=         1 AccDes= 0.00D+00
 Harris functional with IExCor= 1009 and IRadAn=       1 diagonalized for initial guess.
 HarFok:  IExCor= 1009 AccDes= 0.00D+00 IRadAn=         1 IDoV= 1 UseB2=F ITyADJ=14
 ICtDFT=  3500011 ScaDFX=  1.000000  1.000000  1.000000  1.000000
 FoFCou: FMM=F IPFlag=           0 FMFlag=      100000 FMFlg1=           0
         NFxFlg=           0 DoJE=T BraDBF=F KetDBF=T FulRan=T
         wScrn=  0.000000 ICntrl=     500 IOpCl=  0 I1Cent=   200000004 NGrid=           0
         NMat0=    1 NMatS0=      1 NMatT0=    0 NMatD0=    1 NMtDS0=    0 NMtDT0=    0
 Petite list used in FoFCou.
 Requested convergence on RMS density matrix=1.00D-08 within 128 cycles.
 Requested convergence on MAX density matrix=1.00D-06.
 Requested convergence on             energy=1.00D-06.
 No special actions if energy rises.
 Inv3:  Mode=1 IEnd=    20217648.
 Iteration    1 A*A^-1 deviation from unit magnitude is 7.11D-15 for   2595.
 Iteration    1 A*A^-1 deviation from orthogonality  is 2.26D-15 for   1367    810.
 Iteration    1 A^-1*A deviation from unit magnitude is 7.33D-15 for   2595.
 Iteration    1 A^-1*A deviation from orthogonality  is 2.01D-15 for   2138   1282.
 Error on total polarization charges =  0.00622
 SCF Done:  E(RM062X) =  -1267.76406914     A.U. after   15 cycles
            NFock= 15  Conv=0.39D-08     -V/T= 2.0071
 DoSCS=F DFT=T ScalE2(SS,OS)=  1.000000  1.000000
 Range of M.O.s used for correlation:     1   365
 NBasis=   365 NAE=    75 NBE=    75 NFC=     0 NFV=     0
 NROrb=    365 NOA=    75 NOB=    75 NVA=   290 NVB=   290

 **** Warning!!: The largest alpha MO coefficient is  0.10765947D+02

 PrsmSu:  requested number of processors reduced to:   2 ShMem   1 Linda.
   1 Symmetry operations used in ECPInt.
 ECPInt:  NShTT=   15051 NPrTT=   54599 LenC2=   14119 LenP2D=   36444.
 LDataN:  DoStor=T MaxTD1= 5 Len=  102
 Number of processors reduced to   1 by ecpmxn.
 Symmetrizing basis deriv contribution to polar:
 IMax=3 JMax=2 DiffMx= 0.00D+00
 G2DrvN: will do    20 centers at a time, making    2 passes.
 Calling FoFCou, ICntrl=  3107 FMM=F I1Cent=   0 AccDes= 0.00D+00.
 Calling FoFCou, ICntrl=  3107 FMM=F I1Cent=   0 AccDes= 0.00D+00.
 NEqPCM:  Using equilibrium solvation (IEInf=0, Eps=   2.3741, EpsInf=   2.2383)
 G2PCM: DoFxE=T DoFxN=T DoGrad=T DoDP/DQ/DG/TGxP=FFFF NFrqRd=   0 IEInf=0 SqF1=F DoCFld=F IF1Alg=4.
 End of G2Drv F.D. properties file   721 does not exist.
 End of G2Drv F.D. properties file   722 does not exist.
 End of G2Drv F.D. properties file   788 does not exist.
          IDoAtm=11111111111111111111111111111111111111
 NEqPCM:  Using equilibrium solvation (IEInf=0, Eps=   2.3741, EpsInf=   2.2383)
          Differentiating once with respect to electric field.
                with respect to dipole field.
          Differentiating once with respect to nuclear coordinates.
          There are   117 degrees of freedom in the 1st order CPHF.  IDoFFX=6 NUNeed=     3.
    117 vectors produced by pass  0 Test12= 2.17D-14 1.00D-09 XBig12= 2.32D+02 9.08D+00.
 AX will form    60 AO Fock derivatives at one time.
    117 vectors produced by pass  1 Test12= 2.17D-14 1.00D-09 XBig12= 2.43D+01 4.92D-01.
    114 vectors produced by pass  2 Test12= 2.17D-14 1.00D-09 XBig12= 3.77D-01 7.75D-02.
    114 vectors produced by pass  3 Test12= 2.17D-14 1.00D-09 XBig12= 2.87D-03 6.11D-03.
    114 vectors produced by pass  4 Test12= 2.17D-14 1.00D-09 XBig12= 1.44D-05 4.39D-04.
    114 vectors produced by pass  5 Test12= 2.17D-14 1.00D-09 XBig12= 5.36D-08 1.87D-05.
     64 vectors produced by pass  6 Test12= 2.17D-14 1.00D-09 XBig12= 1.74D-10 1.13D-06.
      6 vectors produced by pass  7 Test12= 2.17D-14 1.00D-09 XBig12= 5.19D-13 5.06D-08.
      3 vectors produced by pass  8 Test12= 2.17D-14 1.00D-09 XBig12= 1.74D-15 2.63D-09.
      2 vectors produced by pass  9 Test12= 2.17D-14 1.00D-09 XBig12= 7.39D-16 1.54D-09.
 InvSVY:  IOpt=1 It=  1 EMax= 2.49D-14
 Solved reduced A of dimension   765 with   117 vectors.
 Isotropic polarizability for W=    0.000000      245.92 Bohr**3.
 End of Minotr F.D. properties file   721 does not exist.
 End of Minotr F.D. properties file   722 does not exist.
 End of Minotr F.D. properties file   788 does not exist.

 **********************************************************************

            Population analysis using the SCF density.

 **********************************************************************

 Orbital symmetries:
       Occupied  (A) (A) (A) (A) (A) (A) (A) (A) (A) (A) (A) (A)
                 (A) (A) (A) (A) (A) (A) (A) (A) (A) (A) (A) (A)
                 (A) (A) (A) (A) (A) (A) (A) (A) (A) (A) (A) (A)
                 (A) (A) (A) (A) (A) (A) (A) (A) (A) (A) (A) (A)
                 (A) (A) (A) (A) (A) (A) (A) (A) (A) (A) (A) (A)
                 (A) (A) (A) (A) (A) (A) (A) (A) (A) (A) (A) (A)
                 (A) (A) (A)
       Virtual   (A) (A) (A) (A) (A) (A) (A) (A) (A) (A) (A) (A)
                 (A) (A) (A) (A) (A) (A) (A) (A) (A) (A) (A) (A)
                 (A) (A) (A) (A) (A) (A) (A) (A) (A) (A) (A) (A)
                 (A) (A) (A) (A) (A) (A) (A) (A) (A) (A) (A) (A)
                 (A) (A) (A) (A) (A) (A) (A) (A) (A) (A) (A) (A)
                 (A) (A) (A) (A) (A) (A) (A) (A) (A) (A) (A) (A)
                 (A) (A) (A) (A) (A) (A) (A) (A) (A) (A) (A) (A)
                 (A) (A) (A) (A) (A) (A) (A) (A) (A) (A) (A) (A)
                 (A) (A) (A) (A) (A) (A) (A) (A) (A) (A) (A) (A)
                 (A) (A) (A) (A) (A) (A) (A) (A) (A) (A) (A) (A)
                 (A) (A) (A) (A) (A) (A) (A) (A) (A) (A) (A) (A)
                 (A) (A) (A) (A) (A) (A) (A) (A) (A) (A) (A) (A)
                 (A) (A) (A) (A) (A) (A) (A) (A) (A) (A) (A) (A)
                 (A) (A) (A) (A) (A) (A) (A) (A) (A) (A) (A) (A)
                 (A) (A) (A) (A) (A) (A) (A) (A) (A) (A) (A) (A)
                 (A) (A) (A) (A) (A) (A) (A) (A) (A) (A) (A) (A)
                 (A) (A) (A) (A) (A) (A) (A) (A) (A) (A) (A) (A)
                 (A) (A) (A) (A) (A) (A) (A) (A) (A) (A) (A) (A)
                 (A) (A) (A) (A) (A) (A) (A) (A) (A) (A) (A) (A)
                 (A) (A) (A) (A) (A) (A) (A) (A) (A) (A) (A) (A)
                 (A) (A) (A) (A) (A) (A) (A) (A) (A) (A) (A) (A)
                 (A) (A) (A) (A) (A) (A) (A) (A) (A) (A) (A) (A)
                 (A) (A) (A) (A) (A) (A) (A) (A) (A) (A) (A) (A)
                 (A) (A) (A) (A) (A) (A) (A) (A) (A) (A) (A) (A)
                 (A) (A)
 The electronic state is 1-A.
 Alpha  occ. eigenvalues -- -102.64358 -19.63373 -19.61372 -19.59704 -10.62569
 Alpha  occ. eigenvalues --  -10.62390 -10.61848 -10.60092 -10.58356 -10.57561
 Alpha  occ. eigenvalues --  -10.57507 -10.57384 -10.56657 -10.56572 -10.56444
 Alpha  occ. eigenvalues --  -10.56375 -10.56345 -10.55938 -10.55344  -9.81354
 Alpha  occ. eigenvalues --   -7.54054  -7.53382  -7.53376  -1.13535  -1.09401
 Alpha  occ. eigenvalues --   -1.07547  -0.99794  -0.95265  -0.93624  -0.91126
 Alpha  occ. eigenvalues --   -0.85262  -0.84860  -0.83797  -0.78970  -0.78793
 Alpha  occ. eigenvalues --   -0.71656  -0.71002  -0.70746  -0.65760  -0.61317
 Alpha  occ. eigenvalues --   -0.61030  -0.59503  -0.58677  -0.57281  -0.56071
 Alpha  occ. eigenvalues --   -0.55873  -0.54126  -0.53645  -0.53325  -0.51508
 Alpha  occ. eigenvalues --   -0.50078  -0.49913  -0.48795  -0.48275  -0.47390
 Alpha  occ. eigenvalues --   -0.46429  -0.45962  -0.45795  -0.45268  -0.44504
 Alpha  occ. eigenvalues --   -0.44081  -0.43422  -0.42774  -0.42473  -0.42054
 Alpha  occ. eigenvalues --   -0.40725  -0.37824  -0.37560  -0.37264  -0.36237
 Alpha  occ. eigenvalues --   -0.35394  -0.34206  -0.32573  -0.30079  -0.25554
 Alpha virt. eigenvalues --   -0.05487  -0.01549   0.00873   0.05472   0.07670
 Alpha virt. eigenvalues --    0.08663   0.09296   0.10843   0.11495   0.11683
 Alpha virt. eigenvalues --    0.12629   0.13718   0.14530   0.15599   0.16040
 Alpha virt. eigenvalues --    0.17014   0.17498   0.18158   0.19218   0.20546
 Alpha virt. eigenvalues --    0.20649   0.21926   0.22203   0.23154   0.23895
 Alpha virt. eigenvalues --    0.25376   0.25481   0.27704   0.28051   0.28465
 Alpha virt. eigenvalues --    0.29912   0.31186   0.32019   0.32858   0.34438
 Alpha virt. eigenvalues --    0.35053   0.35646   0.37184   0.37403   0.37877
 Alpha virt. eigenvalues --    0.39708   0.41478   0.42397   0.43729   0.45090
 Alpha virt. eigenvalues --    0.45461   0.46688   0.48412   0.48867   0.49809
 Alpha virt. eigenvalues --    0.50415   0.50968   0.51707   0.52274   0.53001
 Alpha virt. eigenvalues --    0.53405   0.54279   0.54594   0.56428   0.56900
 Alpha virt. eigenvalues --    0.57540   0.59518   0.60527   0.61307   0.62337
 Alpha virt. eigenvalues --    0.63462   0.63820   0.64499   0.65258   0.66015
 Alpha virt. eigenvalues --    0.66767   0.68038   0.68075   0.68691   0.69515
 Alpha virt. eigenvalues --    0.69858   0.70373   0.70969   0.71661   0.71850
 Alpha virt. eigenvalues --    0.72687   0.73132   0.73462   0.74414   0.74580
 Alpha virt. eigenvalues --    0.75264   0.76108   0.76236   0.77119   0.77892
 Alpha virt. eigenvalues --    0.77973   0.78494   0.78938   0.79717   0.80003
 Alpha virt. eigenvalues --    0.80910   0.81640   0.82553   0.83083   0.83354
 Alpha virt. eigenvalues --    0.84494   0.85057   0.86157   0.86624   0.86947
 Alpha virt. eigenvalues --    0.87652   0.88985   0.90321   0.90510   0.92083
 Alpha virt. eigenvalues --    0.95361   0.98511   0.98956   0.99896   1.00614
 Alpha virt. eigenvalues --    1.02090   1.02945   1.05656   1.06358   1.08212
 Alpha virt. eigenvalues --    1.11483   1.12697   1.14236   1.15724   1.16269
 Alpha virt. eigenvalues --    1.18052   1.19293   1.20128   1.21658   1.21976
 Alpha virt. eigenvalues --    1.22887   1.24606   1.25375   1.26588   1.27054
 Alpha virt. eigenvalues --    1.28692   1.30018   1.30751   1.31616   1.32612
 Alpha virt. eigenvalues --    1.33934   1.34605   1.35414   1.36196   1.36483
 Alpha virt. eigenvalues --    1.38643   1.40185   1.40755   1.42697   1.43848
 Alpha virt. eigenvalues --    1.46046   1.48790   1.48835   1.49641   1.51299
 Alpha virt. eigenvalues --    1.52652   1.56010   1.56490   1.57572   1.58558
 Alpha virt. eigenvalues --    1.60234   1.60798   1.63204   1.65061   1.65532
 Alpha virt. eigenvalues --    1.67242   1.68703   1.69862   1.71312   1.71800
 Alpha virt. eigenvalues --    1.72765   1.72831   1.74039   1.75457   1.76293
 Alpha virt. eigenvalues --    1.78092   1.78748   1.79026   1.79803   1.80680
 Alpha virt. eigenvalues --    1.81176   1.82247   1.83636   1.83782   1.84839
 Alpha virt. eigenvalues --    1.85253   1.85376   1.86692   1.86952   1.87154
 Alpha virt. eigenvalues --    1.88846   1.89514   1.91197   1.92285   1.93313
 Alpha virt. eigenvalues --    1.94418   1.95363   1.96241   1.97292   1.97674
 Alpha virt. eigenvalues --    1.98683   2.00568   2.01031   2.02684   2.03583
 Alpha virt. eigenvalues --    2.04999   2.06186   2.07912   2.08777   2.09932
 Alpha virt. eigenvalues --    2.12686   2.13914   2.14873   2.15647   2.17509
 Alpha virt. eigenvalues --    2.19387   2.20141   2.21152   2.22326   2.24867
 Alpha virt. eigenvalues --    2.25032   2.27284   2.27875   2.29272   2.29706
 Alpha virt. eigenvalues --    2.29892   2.31680   2.32248   2.32868   2.34202
 Alpha virt. eigenvalues --    2.37237   2.38532   2.39428   2.39914   2.40831
 Alpha virt. eigenvalues --    2.42399   2.43836   2.45639   2.48335   2.49811
 Alpha virt. eigenvalues --    2.53408   2.54878   2.55610   2.57410   2.59093
 Alpha virt. eigenvalues --    2.59709   2.60411   2.63629   2.64516   2.66010
 Alpha virt. eigenvalues --    2.66754   2.68057   2.71798   2.75681   2.75913
 Alpha virt. eigenvalues --    2.78283   2.79292   2.80806   2.82801   2.85325
 Alpha virt. eigenvalues --    2.87883   2.88250   2.90486   2.91903   2.92871
 Alpha virt. eigenvalues --    2.93991   2.95922   2.97400   2.99398   3.02792
 Alpha virt. eigenvalues --    3.03169   3.04659   3.06751   3.07273   3.07967
 Alpha virt. eigenvalues --    3.11379   3.13590   3.14885   3.16315   3.25291
 Alpha virt. eigenvalues --    3.29656   3.31725   3.39137   3.42477   3.58367
 Alpha virt. eigenvalues --    3.61979   3.63616   3.72980   3.90428   3.95602
          Condensed to atoms (all electrons):
               1          2          3          4          5          6
     1  C    5.107479   0.314406   0.090799  -0.155952   0.105720   0.204905
     2  C    0.314406   5.169238   0.293063   0.035608  -0.143406   0.092365
     3  C    0.090799   0.293063   5.325149   0.218422   0.025666  -0.139585
     4  C   -0.155952   0.035608   0.218422   5.740030   0.236365   0.096162
     5  C    0.105720  -0.143406   0.025666   0.236365   5.246167   0.285408
     6  C    0.204905   0.092365  -0.139585   0.096162   0.285408   5.127961
     7  H    0.453034  -0.067168   0.014740  -0.001016   0.013689  -0.072900
     8  H   -0.063700   0.452646  -0.066318   0.015978  -0.002141   0.013562
     9  H    0.016306  -0.002702   0.016938  -0.076664   0.427768  -0.068883
    10  H   -0.078497   0.013919  -0.001483   0.016535  -0.066139   0.457689
    11  C   -0.003081   0.019143   0.014215   0.121990  -0.114825   0.019733
    12  C    0.015435  -0.120578   0.244960   0.002293   0.022355  -0.002085
    13  C    0.000138  -0.002912  -0.108424  -0.015862   0.022103  -0.000841
    14  H    0.000002   0.000029  -0.001507   0.018209  -0.000425  -0.000003
    15  C   -0.000610   0.015052   0.060506  -0.094038  -0.003788   0.000265
    16  H    0.000005  -0.000340   0.016710  -0.002307   0.000021   0.000002
    17  O   -0.000048  -0.000035   0.002754  -0.112195   0.012091   0.001555
    18  Cl   0.000064  -0.005985  -0.070788   0.003146  -0.000137   0.000024
    19  C   -0.000006   0.000003   0.000736  -0.006295  -0.000279   0.000104
    20  C    0.000000   0.000005   0.000390   0.001077  -0.000207   0.000014
    21  H    0.000000   0.000000   0.000000  -0.000102  -0.000010   0.000000
    22  C    0.000000   0.000000   0.000002   0.000095  -0.000262  -0.000008
    23  H    0.000000   0.000000  -0.000002   0.000028   0.000350   0.000010
    24  H    0.000000   0.000000   0.000000  -0.000002   0.000005   0.000000
    25  H    0.000000   0.000000   0.000000  -0.000002   0.000001   0.000000
    26  C    0.000031  -0.000030  -0.000503  -0.006784   0.003547  -0.000516
    27  H    0.000120   0.000077  -0.000840   0.001725   0.001741  -0.000358
    28  H   -0.000003  -0.000001   0.000047  -0.000326   0.000214   0.000070
    29  H    0.000018  -0.000004  -0.000105   0.000946   0.000474   0.000270
    30  C    0.000000  -0.000070  -0.001840  -0.007530  -0.000129   0.000009
    31  H    0.000000   0.000000   0.000265   0.000019   0.000022  -0.000001
    32  H   -0.000061  -0.000045   0.002448   0.000810  -0.000897   0.000030
    33  O    0.000000   0.000000   0.000001   0.000632  -0.014015  -0.000042
    34  H   -0.000048   0.000005  -0.000156  -0.009742   0.007213   0.000414
    35  H    0.000001   0.000000   0.000003   0.000018   0.000549  -0.000049
    36  O    0.000000   0.000000   0.000001  -0.000021  -0.000012  -0.000001
    37  H    0.000000   0.000000  -0.000001  -0.000036   0.000019   0.000000
    38  H    0.000001   0.000001  -0.000053   0.002147  -0.000189  -0.000009
               7          8          9         10         11         12
     1  C    0.453034  -0.063700   0.016306  -0.078497  -0.003081   0.015435
     2  C   -0.067168   0.452646  -0.002702   0.013919   0.019143  -0.120578
     3  C    0.014740  -0.066318   0.016938  -0.001483   0.014215   0.244960
     4  C   -0.001016   0.015978  -0.076664   0.016535   0.121990   0.002293
     5  C    0.013689  -0.002141   0.427768  -0.066139  -0.114825   0.022355
     6  C   -0.072900   0.013562  -0.068883   0.457689   0.019733  -0.002085
     7  H    0.647989  -0.011587  -0.000238  -0.010761   0.000042  -0.000420
     8  H   -0.011587   0.644698   0.000011  -0.000209  -0.000093  -0.028060
     9  H   -0.000238   0.000011   0.715216  -0.015527  -0.029167  -0.000007
    10  H   -0.010761  -0.000209  -0.015527   0.651456  -0.000273   0.000040
    11  C    0.000042  -0.000093  -0.029167  -0.000273   5.181588  -0.158125
    12  C   -0.000420  -0.028060  -0.000007   0.000040  -0.158125   5.348227
    13  C   -0.000001  -0.000087   0.000084   0.000006   0.206608   0.124926
    14  H    0.000000   0.000001   0.000039   0.000000  -0.050603   0.013909
    15  C    0.000004   0.000596  -0.000070   0.000000   0.122804   0.348024
    16  H    0.000000  -0.000007  -0.000001   0.000000   0.013658  -0.071726
    17  O    0.000000   0.000001  -0.007444   0.000010   0.499371  -0.000126
    18  Cl  -0.000024   0.022437   0.000001   0.000000   0.000520   0.241570
    19  C    0.000000   0.000000  -0.000460   0.000001  -0.037567  -0.000215
    20  C    0.000000   0.000000  -0.000133   0.000000  -0.016951   0.000279
    21  H    0.000000   0.000000  -0.000003   0.000000  -0.000235   0.000000
    22  C    0.000000   0.000000   0.000578   0.000000   0.001390   0.000001
    23  H    0.000000   0.000000  -0.001510   0.000000   0.000290   0.000000
    24  H    0.000000   0.000000  -0.000005   0.000000  -0.000057   0.000000
    25  H    0.000000   0.000000   0.000027   0.000000  -0.000368   0.000000
    26  C    0.000000   0.000001  -0.000793   0.000009   0.000771  -0.000036
    27  H   -0.000001  -0.000005  -0.000161   0.000001   0.002043  -0.000246
    28  H    0.000000   0.000000   0.000021   0.000001  -0.000145   0.000003
    29  H    0.000000   0.000000   0.003161  -0.000024   0.000104   0.000010
    30  C    0.000000  -0.000001   0.000010   0.000000  -0.002851  -0.005011
    31  H    0.000000   0.000000   0.000002   0.000000  -0.001046  -0.001272
    32  H    0.000000   0.000009  -0.000041  -0.000001  -0.002130   0.003191
    33  O    0.000000   0.000000   0.040613  -0.000054  -0.000484   0.000000
    34  H    0.000000   0.000000  -0.018117   0.000141   0.002235   0.000003
    35  H    0.000000   0.000000  -0.002402   0.000001   0.000116   0.000000
    36  O    0.000000   0.000000  -0.000303   0.000000   0.000158   0.000000
    37  H    0.000000   0.000000  -0.000038   0.000000   0.000114   0.000000
    38  H    0.000000   0.000000  -0.000057   0.000000  -0.002866   0.000008
              13         14         15         16         17         18
     1  C    0.000138   0.000002  -0.000610   0.000005  -0.000048   0.000064
     2  C   -0.002912   0.000029   0.015052  -0.000340  -0.000035  -0.005985
     3  C   -0.108424  -0.001507   0.060506   0.016710   0.002754  -0.070788
     4  C   -0.015862   0.018209  -0.094038  -0.002307  -0.112195   0.003146
     5  C    0.022103  -0.000425  -0.003788   0.000021   0.012091  -0.000137
     6  C   -0.000841  -0.000003   0.000265   0.000002   0.001555   0.000024
     7  H   -0.000001   0.000000   0.000004   0.000000   0.000000  -0.000024
     8  H   -0.000087   0.000001   0.000596  -0.000007   0.000001   0.022437
     9  H    0.000084   0.000039  -0.000070  -0.000001  -0.007444   0.000001
    10  H    0.000006   0.000000   0.000000   0.000000   0.000010   0.000000
    11  C    0.206608  -0.050603   0.122804   0.013658   0.499371   0.000520
    12  C    0.124926   0.013909   0.348024  -0.071726  -0.000126   0.241570
    13  C    5.519756   0.423342   0.087421  -0.063022  -0.080676   0.003499
    14  H    0.423342   0.641848  -0.061794  -0.011496   0.001305  -0.000118
    15  C    0.087421  -0.061794   5.139327   0.448507   0.006366  -0.065821
    16  H   -0.063022  -0.011496   0.448507   0.641140  -0.000086   0.000887
    17  O   -0.080676   0.001305   0.006366  -0.000086   8.029170   0.000000
    18  Cl   0.003499  -0.000118  -0.065821   0.000887   0.000000  16.975486
    19  C   -0.032735  -0.004605   0.002079   0.000011   0.085635   0.000000
    20  C   -0.049107   0.001773   0.004256  -0.000007  -0.008910  -0.000001
    21  H   -0.002070   0.001924   0.000261  -0.000001   0.000076   0.000000
    22  C    0.000664  -0.000050  -0.000009   0.000000  -0.018090   0.000000
    23  H    0.000028   0.000000  -0.000002   0.000000  -0.001342   0.000000
    24  H   -0.000066   0.000008   0.000001   0.000000   0.001089   0.000000
    25  H    0.000077  -0.000022   0.000005   0.000000  -0.000446   0.000000
    26  C    0.001342   0.000179  -0.000006   0.000002  -0.012078   0.000000
    27  H   -0.000802  -0.000064   0.000231  -0.000003  -0.003943   0.000001
    28  H   -0.000180  -0.000004   0.000004   0.000000   0.001815   0.000000
    29  H    0.000006   0.000023  -0.000015   0.000000  -0.004189   0.000000
    30  C    0.129396  -0.006520  -0.031645  -0.000065  -0.030985   0.000077
    31  H   -0.000354  -0.003859   0.000962   0.000862   0.000241  -0.000024
    32  H   -0.016138   0.002025  -0.000537  -0.000186  -0.000087  -0.000106
    33  O   -0.000040   0.000002   0.000001   0.000000  -0.015918   0.000000
    34  H    0.002141  -0.000180  -0.000081   0.000001   0.047270   0.000000
    35  H    0.000000  -0.000002   0.000000   0.000000   0.000127   0.000000
    36  O   -0.000037  -0.000022   0.000000   0.000000  -0.013900   0.000000
    37  H    0.000037  -0.000005  -0.000002   0.000000   0.000220   0.000000
    38  H   -0.001926   0.000972   0.000052  -0.000004   0.037387   0.000000
              19         20         21         22         23         24
     1  C   -0.000006   0.000000   0.000000   0.000000   0.000000   0.000000
     2  C    0.000003   0.000005   0.000000   0.000000   0.000000   0.000000
     3  C    0.000736   0.000390   0.000000   0.000002  -0.000002   0.000000
     4  C   -0.006295   0.001077  -0.000102   0.000095   0.000028  -0.000002
     5  C   -0.000279  -0.000207  -0.000010  -0.000262   0.000350   0.000005
     6  C    0.000104   0.000014   0.000000  -0.000008   0.000010   0.000000
     7  H    0.000000   0.000000   0.000000   0.000000   0.000000   0.000000
     8  H    0.000000   0.000000   0.000000   0.000000   0.000000   0.000000
     9  H   -0.000460  -0.000133  -0.000003   0.000578  -0.001510  -0.000005
    10  H    0.000001   0.000000   0.000000   0.000000   0.000000   0.000000
    11  C   -0.037567  -0.016951  -0.000235   0.001390   0.000290  -0.000057
    12  C   -0.000215   0.000279   0.000000   0.000001   0.000000   0.000000
    13  C   -0.032735  -0.049107  -0.002070   0.000664   0.000028  -0.000066
    14  H   -0.004605   0.001773   0.001924  -0.000050   0.000000   0.000008
    15  C    0.002079   0.004256   0.000261  -0.000009  -0.000002   0.000001
    16  H    0.000011  -0.000007  -0.000001   0.000000   0.000000   0.000000
    17  O    0.085635  -0.008910   0.000076  -0.018090  -0.001342   0.001089
    18  Cl   0.000000  -0.000001   0.000000   0.000000   0.000000   0.000000
    19  C    5.126358   0.414072  -0.044986   0.396651  -0.010075  -0.011560
    20  C    0.414072   4.938815   0.419341  -0.069722   0.010369  -0.004496
    21  H   -0.044986   0.419341   0.630167  -0.012395   0.000333   0.000143
    22  C    0.396651  -0.069722  -0.012395   4.698140   0.310496   0.373064
    23  H   -0.010075   0.010369   0.000333   0.310496   0.636060  -0.007522
    24  H   -0.011560  -0.004496   0.000143   0.373064  -0.007522   0.592549
    25  H   -0.012994  -0.012587   0.005477   0.382510  -0.017325  -0.016256
    26  C    0.381127  -0.069514   0.008411  -0.050747  -0.015822  -0.003349
    27  H   -0.002404  -0.020991  -0.000168   0.007348  -0.000036   0.000027
    28  H   -0.015022  -0.002816  -0.000157  -0.004653   0.000004   0.002572
    29  H   -0.017948   0.011519  -0.000250  -0.015547   0.013846  -0.000499
    30  C   -0.034170   0.521148  -0.041719   0.011721  -0.000676  -0.000586
    31  H    0.011692  -0.014088  -0.012006  -0.000299   0.000007   0.000011
    32  H   -0.022321  -0.005220   0.006893   0.000128   0.000018   0.000010
    33  O    0.003423   0.000186   0.000000  -0.024327   0.056059   0.000301
    34  H   -0.003740  -0.000494   0.000017   0.005383  -0.005437  -0.000261
    35  H   -0.000538  -0.000049  -0.000002   0.001831  -0.001671  -0.000009
    36  O   -0.000772  -0.000083  -0.000054  -0.000834   0.004202   0.000261
    37  H    0.000078   0.000003   0.000008   0.000143  -0.000659  -0.000024
    38  H   -0.001694  -0.000094   0.000036   0.002318  -0.001952  -0.000029
              25         26         27         28         29         30
     1  C    0.000000   0.000031   0.000120  -0.000003   0.000018   0.000000
     2  C    0.000000  -0.000030   0.000077  -0.000001  -0.000004  -0.000070
     3  C    0.000000  -0.000503  -0.000840   0.000047  -0.000105  -0.001840
     4  C   -0.000002  -0.006784   0.001725  -0.000326   0.000946  -0.007530
     5  C    0.000001   0.003547   0.001741   0.000214   0.000474  -0.000129
     6  C    0.000000  -0.000516  -0.000358   0.000070   0.000270   0.000009
     7  H    0.000000   0.000000  -0.000001   0.000000   0.000000   0.000000
     8  H    0.000000   0.000001  -0.000005   0.000000   0.000000  -0.000001
     9  H    0.000027  -0.000793  -0.000161   0.000021   0.003161   0.000010
    10  H    0.000000   0.000009   0.000001   0.000001  -0.000024   0.000000
    11  C   -0.000368   0.000771   0.002043  -0.000145   0.000104  -0.002851
    12  C    0.000000  -0.000036  -0.000246   0.000003   0.000010  -0.005011
    13  C    0.000077   0.001342  -0.000802  -0.000180   0.000006   0.129396
    14  H   -0.000022   0.000179  -0.000064  -0.000004   0.000023  -0.006520
    15  C    0.000005  -0.000006   0.000231   0.000004  -0.000015  -0.031645
    16  H    0.000000   0.000002  -0.000003   0.000000   0.000000  -0.000065
    17  O   -0.000446  -0.012078  -0.003943   0.001815  -0.004189  -0.030985
    18  Cl   0.000000   0.000000   0.000001   0.000000   0.000000   0.000077
    19  C   -0.012994   0.381127  -0.002404  -0.015022  -0.017948  -0.034170
    20  C   -0.012587  -0.069514  -0.020991  -0.002816   0.011519   0.521148
    21  H    0.005477   0.008411  -0.000168  -0.000157  -0.000250  -0.041719
    22  C    0.382510  -0.050747   0.007348  -0.004653  -0.015547   0.011721
    23  H   -0.017325  -0.015822  -0.000036   0.000004   0.013846  -0.000676
    24  H   -0.016256  -0.003349   0.000027   0.002572  -0.000499  -0.000586
    25  H    0.599507   0.007147  -0.000359  -0.000073   0.000199   0.000685
    26  C    0.007147   4.633228   0.385789   0.378852   0.366410  -0.006038
    27  H   -0.000359   0.385789   0.594628  -0.016041  -0.021114   0.008850
    28  H   -0.000073   0.378852  -0.016041   0.593760  -0.014026  -0.001677
    29  H    0.000199   0.366410  -0.021114  -0.014026   0.605105  -0.000179
    30  C    0.000685  -0.006038   0.008850  -0.001677  -0.000179   4.731732
    31  H   -0.000018  -0.000012  -0.000025   0.000007  -0.000008   0.380232
    32  H   -0.000005   0.005231   0.001438   0.000155  -0.000139   0.385970
    33  O    0.000176  -0.010999   0.000066   0.000122   0.028596  -0.000007
    34  H   -0.000953   0.004516  -0.000434   0.000011  -0.010364   0.000234
    35  H   -0.000197   0.000774   0.000001  -0.000012  -0.002079   0.000001
    36  O    0.004762  -0.000017   0.000001   0.000002  -0.000102  -0.000001
    37  H   -0.000217   0.000009   0.000000   0.000000  -0.000001   0.000004
    38  H    0.001920   0.000053   0.000017  -0.000036   0.000100  -0.000068
              31         32         33         34         35         36
     1  C    0.000000  -0.000061   0.000000  -0.000048   0.000001   0.000000
     2  C    0.000000  -0.000045   0.000000   0.000005   0.000000   0.000000
     3  C    0.000265   0.002448   0.000001  -0.000156   0.000003   0.000001
     4  C    0.000019   0.000810   0.000632  -0.009742   0.000018  -0.000021
     5  C    0.000022  -0.000897  -0.014015   0.007213   0.000549  -0.000012
     6  C   -0.000001   0.000030  -0.000042   0.000414  -0.000049  -0.000001
     7  H    0.000000   0.000000   0.000000   0.000000   0.000000   0.000000
     8  H    0.000000   0.000009   0.000000   0.000000   0.000000   0.000000
     9  H    0.000002  -0.000041   0.040613  -0.018117  -0.002402  -0.000303
    10  H    0.000000  -0.000001  -0.000054   0.000141   0.000001   0.000000
    11  C   -0.001046  -0.002130  -0.000484   0.002235   0.000116   0.000158
    12  C   -0.001272   0.003191   0.000000   0.000003   0.000000   0.000000
    13  C   -0.000354  -0.016138  -0.000040   0.002141   0.000000  -0.000037
    14  H   -0.003859   0.002025   0.000002  -0.000180  -0.000002  -0.000022
    15  C    0.000962  -0.000537   0.000001  -0.000081   0.000000   0.000000
    16  H    0.000862  -0.000186   0.000000   0.000001   0.000000   0.000000
    17  O    0.000241  -0.000087  -0.015918   0.047270   0.000127  -0.013900
    18  Cl  -0.000024  -0.000106   0.000000   0.000000   0.000000   0.000000
    19  C    0.011692  -0.022321   0.003423  -0.003740  -0.000538  -0.000772
    20  C   -0.014088  -0.005220   0.000186  -0.000494  -0.000049  -0.000083
    21  H   -0.012006   0.006893   0.000000   0.000017  -0.000002  -0.000054
    22  C   -0.000299   0.000128  -0.024327   0.005383   0.001831  -0.000834
    23  H    0.000007   0.000018   0.056059  -0.005437  -0.001671   0.004202
    24  H    0.000011   0.000010   0.000301  -0.000261  -0.000009   0.000261
    25  H   -0.000018  -0.000005   0.000176  -0.000953  -0.000197   0.004762
    26  C   -0.000012   0.005231  -0.010999   0.004516   0.000774  -0.000017
    27  H   -0.000025   0.001438   0.000066  -0.000434   0.000001   0.000001
    28  H    0.000007   0.000155   0.000122   0.000011  -0.000012   0.000002
    29  H   -0.000008  -0.000139   0.028596  -0.010364  -0.002079  -0.000102
    30  C    0.380232   0.385970  -0.000007   0.000234   0.000001  -0.000001
    31  H    0.595056  -0.034520   0.000000   0.000000   0.000000   0.000000
    32  H   -0.034520   0.594353   0.000001  -0.000019   0.000000   0.000000
    33  O    0.000000   0.000001   7.672089   0.292381   0.325224  -0.011986
    34  H    0.000000  -0.000019   0.292381   0.524732  -0.013147   0.014218
    35  H    0.000000   0.000000   0.325224  -0.013147   0.482011   0.036868
    36  O    0.000000   0.000000  -0.011986   0.014218   0.036868   7.685540
    37  H    0.000000   0.000000   0.000443   0.001252  -0.000790   0.326123
    38  H   -0.000002  -0.000004   0.003382  -0.000657  -0.005472   0.316948
              37         38
     1  C    0.000000   0.000001
     2  C    0.000000   0.000001
     3  C   -0.000001  -0.000053
     4  C   -0.000036   0.002147
     5  C    0.000019  -0.000189
     6  C    0.000000  -0.000009
     7  H    0.000000   0.000000
     8  H    0.000000   0.000000
     9  H   -0.000038  -0.000057
    10  H    0.000000   0.000000
    11  C    0.000114  -0.002866
    12  C    0.000000   0.000008
    13  C    0.000037  -0.001926
    14  H   -0.000005   0.000972
    15  C   -0.000002   0.000052
    16  H    0.000000  -0.000004
    17  O    0.000220   0.037387
    18  Cl   0.000000   0.000000
    19  C    0.000078  -0.001694
    20  C    0.000003  -0.000094
    21  H    0.000008   0.000036
    22  C    0.000143   0.002318
    23  H   -0.000659  -0.001952
    24  H   -0.000024  -0.000029
    25  H   -0.000217   0.001920
    26  C    0.000009   0.000053
    27  H    0.000000   0.000017
    28  H    0.000000  -0.000036
    29  H   -0.000001   0.000100
    30  C    0.000004  -0.000068
    31  H    0.000000  -0.000002
    32  H    0.000000  -0.000004
    33  O    0.000443   0.003382
    34  H    0.001252  -0.000657
    35  H   -0.000790  -0.005472
    36  O    0.326123   0.316948
    37  H    0.506972  -0.017602
    38  H   -0.017602   0.484136
 Mulliken charges:
               1
     1  C   -0.006457
     2  C   -0.062281
     3  C    0.063788
     4  C   -0.023358
     5  C   -0.064629
     6  C   -0.015272
     7  H    0.034616
     8  H    0.022267
     9  H    0.003950
    10  H    0.033160
    11  C    0.213976
    12  C    0.022674
    13  C   -0.146293
    14  H    0.035688
    15  C    0.021694
    16  H    0.027446
    17  O   -0.415988
    18  Cl  -0.104710
    19  C   -0.161585
    20  C   -0.047778
    21  H    0.041069
    22  C    0.004483
    23  H    0.031928
    24  H    0.074680
    25  H    0.059328
    26  C   -0.000184
    27  H    0.063892
    28  H    0.077512
    29  H    0.055807
    30  C    0.001696
    31  H    0.078155
    32  H    0.079746
    33  O   -0.345828
    34  H    0.161662
    35  H    0.178897
    36  O   -0.360939
    37  H    0.183949
    38  H    0.183236
 Sum of Mulliken charges =   0.00000
 Mulliken charges with hydrogens summed into heavy atoms:
               1
     1  C    0.028159
     2  C   -0.040014
     3  C    0.063788
     4  C   -0.023358
     5  C   -0.060678
     6  C    0.017888
    11  C    0.213976
    12  C    0.022674
    13  C   -0.110605
    15  C    0.049140
    17  O   -0.415988
    18  Cl  -0.104710
    19  C   -0.161585
    20  C   -0.006709
    22  C    0.170419
    26  C    0.197028
    30  C    0.159598
    33  O   -0.005269
    36  O    0.006247
 APT charges:
               1
     1  C   -0.011536
     2  C   -0.134614
     3  C   -0.012075
     4  C   -0.038207
     5  C   -0.104612
     6  C   -0.015033
     7  H    0.047236
     8  H    0.084035
     9  H    0.107945
    10  H    0.051334
    11  C    0.442038
    12  C    0.372439
    13  C   -0.347580
    14  H    0.058521
    15  C    0.046754
    16  H    0.071304
    17  O   -0.929249
    18  Cl  -0.426438
    19  C    0.721122
    20  C   -0.586589
    21  H    0.051685
    22  C   -0.206218
    23  H    0.094631
    24  H    0.006182
    25  H    0.026271
    26  C   -0.162846
    27  H    0.032789
    28  H    0.035887
    29  H    0.088539
    30  C    0.543293
    31  H    0.051188
    32  H    0.007439
    33  O   -0.805724
    34  H    0.442492
    35  H    0.368432
    36  O   -0.718384
    37  H    0.297814
    38  H    0.449732
 Sum of APT charges =   0.00000
 APT charges with hydrogens summed into heavy atoms:
               1
     1  C    0.035700
     2  C   -0.050579
     3  C   -0.012075
     4  C   -0.038207
     5  C    0.003333
     6  C    0.036301
    11  C    0.442038
    12  C    0.372439
    13  C   -0.289060
    15  C    0.118059
    17  O   -0.929249
    18  Cl  -0.426438
    19  C    0.721122
    20  C   -0.534904
    22  C   -0.079133
    26  C   -0.005631
    30  C    0.601921
    33  O    0.005200
    36  O    0.029162
 Electronic spatial extent (au):  <R**2>=           5873.5715
 Charge=              0.0000 electrons
 Dipole moment (field-independent basis, Debye):
    X=              0.6118    Y=             -3.1766    Z=             -1.3686  Tot=              3.5125
 Quadrupole moment (field-independent basis, Debye-Ang):
   XX=           -131.5117   YY=           -113.7144   ZZ=           -114.0754
   XY=             10.2041   XZ=              0.7402   YZ=             -1.1066
 Traceless Quadrupole moment (field-independent basis, Debye-Ang):
   XX=            -11.7446   YY=              6.0528   ZZ=              5.6918
   XY=             10.2041   XZ=              0.7402   YZ=             -1.1066
 Octapole moment (field-independent basis, Debye-Ang**2):
  XXX=             -1.0142  YYY=            -19.8973  ZZZ=             41.1940  XYY=             19.7431
  XXY=             -2.2650  XXZ=            -18.5271  XZZ=            -37.4026  YZZ=              3.1411
  YYZ=              1.3453  XYZ=            -12.4045
 Hexadecapole moment (field-independent basis, Debye-Ang**3):
 XXXX=          -4883.2845 YYYY=          -1880.4028 ZZZZ=           -735.4212 XXXY=             54.8423
 XXXZ=             12.3557 YYYX=             42.0286 YYYZ=            -49.3594 ZZZX=           -125.3481
 ZZZY=             18.0889 XXYY=          -1138.0350 XXZZ=           -890.7742 YYZZ=           -493.0153
 XXYZ=             22.3816 YYXZ=            -41.0413 ZZXY=            -53.4656
 N-N= 1.620985475605D+03 E-N=-6.214243609139D+03  KE= 1.258800344692D+03
  Exact polarizability: 322.370  17.507 257.226  21.323 -12.026 158.153
 Approx polarizability: 335.861   5.861 285.232  15.404 -15.165 184.360
   1 Symmetry operations used in ECPInt.
 ECPInt:  NShTT=   15051 NPrTT=   54599 LenC2=   14119 LenP2D=   36444.
 LDataN:  DoStor=T MaxTD1= 6 Len=  172
 D2PCM: C-PCM CHGder 2nd derivatives, FixD1E=F FixD2E=F DoIter=F DoCFld=F I1PDM=0
 Calling FoFJK, ICntrl=    100127 FMM=F ISym2X=0 I1Cent= 0 IOpClX= 0 NMat=1 NMatS=1 NMatT=0.
 Full mass-weighted force constant matrix:
 Low frequencies --- -339.7389  -17.5474   -7.3446   -1.0187   -0.0029   -0.0017
 Low frequencies ---    0.0011   44.2681   48.0647
 ******    1 imaginary frequencies (negative Signs) ****** 
 Diagonal vibrational polarizability:
      167.5789330     124.0552559     148.5201282
 Harmonic frequencies (cm**-1), IR intensities (KM/Mole), Raman scattering
 activities (A**4/AMU), depolarization ratios for plane and unpolarized
 incident light, reduced masses (AMU), force constants (mDyne/A),
 and normal coordinates:
                      1                      2                      3
                      A                      A                      A
 Frequencies --   -339.7386                44.1848                47.9612
 Red. masses --      8.0385                 5.2379                 6.9900
 Frc consts  --      0.5467                 0.0060                 0.0095
 IR Inten    --     66.7255                 0.7174                 3.5952
  Atom  AN      X      Y      Z        X      Y      Z        X      Y      Z
     1   6     0.00  -0.01   0.00    -0.01   0.05   0.17     0.03  -0.03  -0.07
     2   6     0.00   0.01   0.00     0.00   0.04   0.12     0.03  -0.02   0.00
     3   6    -0.01  -0.01   0.02     0.00   0.01   0.03     0.01  -0.01  -0.01
     4   6    -0.03  -0.03   0.01    -0.01  -0.02   0.01     0.01  -0.02  -0.09
     5   6    -0.02   0.00  -0.02    -0.02  -0.01   0.05     0.01  -0.03  -0.15
     6   6    -0.02  -0.01   0.00    -0.02   0.02   0.13     0.02  -0.04  -0.15
     7   1    -0.01   0.00   0.00    -0.01   0.07   0.25     0.03  -0.04  -0.07
     8   1     0.00   0.01   0.01     0.00   0.05   0.15     0.03  -0.01   0.07
     9   1    -0.02   0.01  -0.03    -0.02  -0.02   0.02     0.00  -0.04  -0.21
    10   1    -0.02  -0.01   0.01    -0.02   0.02   0.17     0.02  -0.05  -0.22
    11   6     0.02  -0.03  -0.03    -0.01  -0.04  -0.04     0.00  -0.01  -0.10
    12   6     0.00   0.03   0.02     0.00  -0.01  -0.03     0.00   0.00   0.04
    13   6     0.05   0.12   0.28     0.00  -0.05  -0.08    -0.02  -0.02  -0.13
    14   1     0.00   0.01   0.00     0.01  -0.06  -0.10    -0.04  -0.03  -0.16
    15   6    -0.01   0.04   0.10     0.01  -0.03  -0.08    -0.02  -0.02  -0.05
    16   1    -0.01   0.04   0.10     0.01  -0.04  -0.12    -0.03  -0.02  -0.03
    17   8    -0.13  -0.12  -0.29    -0.01  -0.05  -0.03     0.00   0.01  -0.07
    18  17    -0.01   0.00  -0.01     0.01   0.01  -0.02     0.02   0.03   0.25
    19   6     0.16   0.18   0.32    -0.03  -0.07   0.00    -0.08   0.03  -0.05
    20   6     0.04  -0.04  -0.05     0.00  -0.06  -0.04    -0.04   0.05  -0.11
    21   1    -0.03  -0.05  -0.15     0.04  -0.08  -0.03     0.00   0.02  -0.12
    22   6     0.09   0.06   0.12    -0.02  -0.12   0.05    -0.05  -0.02   0.04
    23   1    -0.12   0.09  -0.03    -0.03  -0.13   0.06    -0.02  -0.04   0.11
    24   1     0.28  -0.17   0.01    -0.06  -0.14   0.08    -0.12   0.04   0.09
    25   1     0.09   0.09   0.17     0.04  -0.13   0.06     0.00  -0.06   0.02
    26   6     0.02   0.03   0.03    -0.09  -0.06  -0.01    -0.16   0.07  -0.04
    27   1     0.02   0.07  -0.02    -0.09  -0.01  -0.01    -0.17   0.09  -0.12
    28   1    -0.01  -0.22   0.08    -0.08  -0.08  -0.01    -0.23   0.10  -0.02
    29   1    -0.02   0.08  -0.13    -0.13  -0.07  -0.02    -0.15   0.04   0.02
    30   6    -0.13  -0.14  -0.36     0.00  -0.02  -0.07    -0.04   0.09  -0.15
    31   1    -0.09  -0.11  -0.27     0.03  -0.01  -0.10    -0.01   0.10  -0.20
    32   1    -0.05  -0.01  -0.04    -0.03   0.00  -0.08    -0.07   0.12  -0.14
    33   8     0.00   0.00   0.00     0.01   0.00  -0.23    -0.02  -0.03   0.14
    34   1    -0.01  -0.01  -0.03    -0.02  -0.03  -0.16     0.01   0.00   0.07
    35   1     0.02   0.01   0.02     0.04   0.12  -0.14     0.04  -0.08   0.17
    36   8     0.01   0.00   0.00     0.12   0.30   0.14     0.22  -0.07   0.19
    37   1    -0.01  -0.02   0.01     0.25   0.46   0.06     0.36  -0.01   0.12
    38   1     0.03   0.04   0.00     0.05   0.17   0.09     0.15  -0.05   0.06
                      4                      5                      6
                      A                      A                      A
 Frequencies --     72.4331                75.4874                82.7799
 Red. masses --      3.9431                 4.6138                 5.8912
 Frc consts  --      0.0122                 0.0155                 0.0238
 IR Inten    --     10.1959                 3.6088                 3.5881
  Atom  AN      X      Y      Z        X      Y      Z        X      Y      Z
     1   6     0.01  -0.03  -0.05     0.07   0.07   0.14    -0.14  -0.02  -0.07
     2   6     0.02  -0.02  -0.02     0.06   0.06   0.12    -0.09   0.00  -0.07
     3   6     0.03  -0.02   0.00     0.04   0.03   0.00    -0.04  -0.02  -0.03
     4   6     0.02  -0.02   0.01     0.03   0.02  -0.08    -0.04  -0.07   0.01
     5   6     0.02  -0.02   0.00     0.04   0.02  -0.08    -0.09  -0.09   0.04
     6   6     0.01  -0.03  -0.03     0.05   0.04   0.03    -0.14  -0.06  -0.01
     7   1     0.00  -0.03  -0.07     0.09   0.10   0.25    -0.17   0.00  -0.11
     8   1     0.02  -0.02  -0.03     0.07   0.08   0.19    -0.08   0.03  -0.10
     9   1     0.02  -0.02   0.00     0.03   0.00  -0.15    -0.08  -0.10   0.08
    10   1     0.01  -0.04  -0.05     0.06   0.05   0.04    -0.18  -0.07   0.01
    11   6     0.03  -0.02   0.03     0.03   0.01  -0.09     0.00  -0.11   0.01
    12   6     0.04  -0.01   0.00     0.03   0.02  -0.04     0.02  -0.01  -0.03
    13   6     0.04  -0.03  -0.02     0.02   0.01  -0.09     0.04  -0.11  -0.07
    14   1     0.04  -0.05  -0.06     0.03   0.03  -0.04     0.08  -0.14  -0.07
    15   6     0.04  -0.02  -0.02     0.02   0.01  -0.10     0.05  -0.06  -0.08
    16   1     0.04  -0.03  -0.04     0.02   0.00  -0.11     0.09  -0.04  -0.09
    17   8     0.03  -0.02   0.07     0.03   0.03  -0.05     0.00  -0.14   0.05
    18  17     0.04   0.01   0.03     0.04   0.03   0.03     0.05   0.12   0.07
    19   6    -0.04   0.00   0.07    -0.09  -0.05   0.06     0.03   0.03  -0.02
    20   6     0.04   0.04  -0.04    -0.15  -0.07   0.12    -0.06  -0.01  -0.02
    21   1     0.11  -0.03  -0.08    -0.16  -0.01   0.23    -0.12   0.02  -0.03
    22   6    -0.02  -0.12   0.16    -0.08   0.06   0.10     0.02   0.15  -0.07
    23   1    -0.06  -0.17   0.24    -0.02   0.11   0.02     0.10   0.14  -0.02
    24   1    -0.07  -0.10   0.19    -0.10   0.00   0.12     0.04   0.27  -0.09
    25   1     0.07  -0.18   0.13    -0.09   0.14   0.19    -0.09   0.13  -0.13
    26   6    -0.17   0.08   0.11    -0.06  -0.13  -0.03     0.14   0.01   0.02
    27   1    -0.18   0.16   0.03    -0.06  -0.17  -0.05     0.15  -0.08   0.02
    28   1    -0.24   0.11   0.13    -0.08  -0.18  -0.02     0.14   0.08   0.01
    29   1    -0.21   0.03   0.19    -0.02  -0.08  -0.09     0.23   0.03   0.04
    30   6     0.04   0.13  -0.10    -0.17  -0.15   0.03    -0.06  -0.10  -0.02
    31   1     0.10   0.15  -0.19    -0.20  -0.16   0.08    -0.13  -0.13  -0.02
    32   1    -0.02   0.21  -0.05    -0.18  -0.23  -0.09    -0.02  -0.15  -0.04
    33   8     0.07   0.02  -0.05     0.08   0.05   0.03     0.25   0.07   0.10
    34   1     0.04  -0.01   0.03     0.06   0.04   0.02     0.10  -0.06   0.16
    35   1    -0.01   0.08  -0.10     0.05   0.03  -0.01     0.12   0.19   0.03
    36   8    -0.20   0.05  -0.16    -0.04  -0.09  -0.15    -0.09   0.15   0.02
    37   1    -0.39  -0.05  -0.07    -0.15  -0.21  -0.08    -0.07   0.15   0.01
    38   1    -0.12   0.03   0.00     0.02  -0.03  -0.08    -0.11   0.01   0.05
                      7                      8                      9
                      A                      A                      A
 Frequencies --    121.3159               128.2529               138.2208
 Red. masses --      5.2078                 5.8684                 5.0547
 Frc consts  --      0.0452                 0.0569                 0.0569
 IR Inten    --      1.0893                15.4884                 3.3268
  Atom  AN      X      Y      Z        X      Y      Z        X      Y      Z
     1   6     0.00   0.03   0.09     0.06   0.00   0.01    -0.02   0.00   0.04
     2   6     0.00   0.05   0.19     0.04  -0.01  -0.03     0.04   0.05   0.21
     3   6    -0.02   0.03   0.08     0.03  -0.01  -0.06     0.05   0.01   0.13
     4   6    -0.03   0.01  -0.04     0.03   0.00  -0.05     0.03  -0.05   0.03
     5   6    -0.05  -0.02  -0.18     0.05   0.01  -0.01    -0.03  -0.11  -0.16
     6   6    -0.03  -0.02  -0.14     0.06   0.01   0.02    -0.06  -0.10  -0.20
     7   1     0.02   0.05   0.18     0.07   0.00   0.03    -0.04   0.02   0.07
     8   1     0.02   0.08   0.34     0.04  -0.02  -0.04     0.06   0.12   0.35
     9   1    -0.06  -0.04  -0.32     0.05   0.01  -0.01    -0.05  -0.17  -0.28
    10   1    -0.04  -0.04  -0.26     0.08   0.02   0.06    -0.12  -0.15  -0.38
    11   6    -0.03   0.02  -0.02     0.02   0.00  -0.06     0.04  -0.05   0.06
    12   6    -0.03   0.02   0.06     0.03  -0.02  -0.06     0.07   0.00   0.07
    13   6    -0.03   0.02   0.03     0.02  -0.01  -0.10     0.07  -0.04   0.06
    14   1    -0.05   0.04   0.03     0.02  -0.01  -0.08     0.08  -0.07   0.03
    15   6    -0.04   0.02   0.05     0.02  -0.02  -0.09     0.07  -0.03   0.02
    16   1    -0.04   0.01   0.02     0.01  -0.02  -0.09     0.08  -0.04  -0.06
    17   8    -0.03   0.00  -0.06     0.02   0.01  -0.04     0.05  -0.03   0.10
    18  17    -0.06  -0.04  -0.08     0.04   0.00   0.04     0.07   0.01  -0.08
    19   6     0.05  -0.07  -0.05     0.06  -0.02   0.01    -0.04   0.09   0.00
    20   6     0.10  -0.04  -0.05     0.03  -0.04   0.00    -0.07   0.08   0.02
    21   1     0.14  -0.07  -0.06     0.02  -0.02   0.02    -0.10   0.10   0.02
    22   6     0.06  -0.10   0.00     0.06   0.00   0.01    -0.05   0.13  -0.06
    23   1     0.13  -0.15   0.15     0.04   0.03  -0.05    -0.05   0.13  -0.06
    24   1     0.01   0.07   0.03     0.06  -0.07   0.02     0.00   0.17  -0.10
    25   1     0.06  -0.18  -0.10     0.07   0.04   0.06    -0.12   0.12  -0.10
    26   6    -0.03  -0.06  -0.08     0.08  -0.05  -0.02     0.01   0.09   0.03
    27   1    -0.03  -0.04  -0.16     0.08  -0.04   0.03     0.01   0.06   0.04
    28   1    -0.10  -0.06  -0.05     0.13  -0.09  -0.04     0.03   0.10   0.02
    29   1    -0.01  -0.07  -0.04     0.05  -0.03  -0.08     0.02   0.09   0.02
    30   6     0.13   0.04   0.02     0.02  -0.06  -0.02    -0.09   0.02  -0.02
    31   1     0.17   0.06   0.03     0.01  -0.07  -0.02    -0.12   0.00  -0.03
    32   1     0.11   0.07   0.05     0.03  -0.09  -0.06    -0.06   0.00  -0.01
    33   8     0.18   0.08   0.23    -0.33  -0.04   0.20    -0.15  -0.10  -0.10
    34   1     0.11   0.02   0.18    -0.13   0.14  -0.02    -0.07  -0.02   0.01
    35   1     0.10   0.07   0.14    -0.10  -0.33   0.29    -0.14  -0.09  -0.08
    36   8    -0.09   0.07   0.04    -0.23   0.22   0.08    -0.02   0.02   0.03
    37   1    -0.06   0.06   0.04    -0.36  -0.13   0.21    -0.02   0.07   0.02
    38   1    -0.11   0.02   0.03    -0.20   0.18   0.15    -0.02  -0.01   0.04
                     10                     11                     12
                      A                      A                      A
 Frequencies --    155.7895               166.8680               185.8558
 Red. masses --      4.8495                 2.4611                 1.7935
 Frc consts  --      0.0693                 0.0404                 0.0365
 IR Inten    --      4.9330                11.1755                31.8472
  Atom  AN      X      Y      Z        X      Y      Z        X      Y      Z
     1   6     0.08   0.02  -0.02    -0.01   0.01   0.01     0.02   0.01   0.01
     2   6     0.04   0.00  -0.04    -0.01   0.01   0.03     0.01   0.01   0.01
     3   6     0.02   0.02  -0.02    -0.02   0.01  -0.01     0.00   0.01  -0.02
     4   6     0.02   0.05  -0.01    -0.02   0.01  -0.02    -0.01   0.01  -0.03
     5   6     0.06   0.07   0.01    -0.02   0.00  -0.04     0.01   0.02  -0.04
     6   6     0.09   0.05   0.02    -0.01   0.00  -0.03     0.02   0.01  -0.03
     7   1     0.10   0.00  -0.02     0.00   0.01   0.03     0.03   0.01   0.03
     8   1     0.03  -0.04  -0.06    -0.01   0.01   0.06     0.01   0.00   0.03
     9   1     0.07   0.11   0.03    -0.02   0.00  -0.05     0.00   0.02  -0.07
    10   1     0.12   0.07   0.05    -0.01   0.00  -0.06     0.03   0.01  -0.04
    11   6     0.00   0.05   0.00    -0.01   0.01  -0.02    -0.01   0.01  -0.02
    12   6     0.01   0.03   0.01    -0.03  -0.01  -0.04    -0.01   0.00  -0.04
    13   6     0.02   0.07   0.07    -0.03  -0.01  -0.09    -0.01   0.01  -0.05
    14   1     0.00   0.07   0.05    -0.03   0.00  -0.07    -0.01   0.01  -0.04
    15   6     0.00   0.06   0.07    -0.03  -0.02  -0.09    -0.02   0.00  -0.06
    16   1     0.00   0.06   0.11    -0.04  -0.03  -0.13    -0.02  -0.01  -0.08
    17   8    -0.01   0.01   0.01    -0.01   0.01   0.01    -0.01   0.00   0.00
    18  17     0.01   0.01   0.00    -0.03  -0.02   0.02    -0.01  -0.01   0.02
    19   6    -0.07  -0.01  -0.06     0.07   0.05   0.04     0.03  -0.01   0.07
    20   6    -0.06  -0.01  -0.02     0.04   0.04   0.03     0.01  -0.03   0.02
    21   1    -0.07  -0.01  -0.03     0.04   0.06   0.05     0.00  -0.04  -0.02
    22   6    -0.08  -0.01  -0.11     0.08   0.06   0.09     0.01  -0.03  -0.01
    23   1    -0.03  -0.08   0.06    -0.04   0.22  -0.30     0.05  -0.16   0.26
    24   1    -0.04   0.23  -0.15     0.03  -0.45   0.16     0.07   0.31  -0.08
    25   1    -0.18  -0.13  -0.29     0.24   0.31   0.45    -0.12  -0.22  -0.29
    26   6    -0.04  -0.01  -0.03     0.06   0.01  -0.02     0.07   0.02   0.14
    27   1    -0.03   0.02   0.06     0.05  -0.06  -0.14     0.08   0.11   0.32
    28   1     0.05  -0.03  -0.06    -0.06   0.03   0.03     0.26  -0.01   0.06
    29   1    -0.10  -0.02  -0.06     0.16   0.05   0.00    -0.07  -0.01   0.08
    30   6    -0.08  -0.03  -0.07     0.05   0.03   0.05     0.01  -0.03   0.00
    31   1    -0.07  -0.02  -0.03     0.03   0.02   0.03     0.00  -0.04  -0.02
    32   1    -0.08  -0.02  -0.05     0.06   0.01   0.02     0.00  -0.03  -0.01
    33   8     0.18  -0.26  -0.06     0.05  -0.05  -0.10    -0.02   0.05  -0.04
    34   1     0.19  -0.26  -0.07     0.01  -0.09  -0.02    -0.05   0.02   0.10
    35   1     0.24  -0.19   0.04    -0.02   0.05  -0.12    -0.16   0.12  -0.14
    36   8    -0.19   0.00   0.20    -0.09  -0.08   0.11    -0.05  -0.08   0.05
    37   1    -0.18  -0.09   0.22    -0.06   0.01   0.08     0.14   0.47  -0.14
    38   1    -0.20  -0.02   0.19    -0.09  -0.04   0.10    -0.09  -0.10  -0.01
                     13                     14                     15
                      A                      A                      A
 Frequencies --    196.3483               206.4827               219.8964
 Red. masses --      1.6627                 4.4055                 2.2109
 Frc consts  --      0.0378                 0.1107                 0.0630
 IR Inten    --     68.0527                23.4407                14.1787
  Atom  AN      X      Y      Z        X      Y      Z        X      Y      Z
     1   6     0.01  -0.01   0.02     0.00  -0.02  -0.18     0.00  -0.03   0.01
     2   6     0.01  -0.02  -0.03     0.02   0.03   0.06     0.00  -0.03  -0.01
     3   6     0.02  -0.02  -0.03     0.03   0.08   0.21     0.00  -0.03   0.00
     4   6     0.01  -0.02  -0.01     0.03   0.09   0.23     0.00  -0.03   0.00
     5   6     0.01  -0.02   0.01     0.04   0.08   0.16     0.00  -0.03   0.01
     6   6     0.01  -0.01   0.05     0.02   0.01  -0.10     0.01  -0.02   0.02
     7   1     0.01   0.00   0.04    -0.02  -0.09  -0.42     0.00  -0.02   0.02
     8   1     0.01  -0.02  -0.06     0.02   0.01   0.03     0.00  -0.03  -0.02
     9   1     0.01  -0.04   0.02     0.05   0.11   0.20     0.00  -0.03   0.00
    10   1     0.01   0.00   0.09     0.01  -0.02  -0.27     0.01  -0.02   0.03
    11   6     0.01  -0.01   0.00     0.00   0.04   0.06    -0.01  -0.02   0.01
    12   6     0.03  -0.01   0.01     0.01   0.04   0.10     0.01  -0.02   0.01
    13   6     0.02   0.00   0.05    -0.01   0.00  -0.08     0.00  -0.01   0.02
    14   1     0.03   0.00   0.06    -0.03  -0.04  -0.19     0.01  -0.02   0.01
    15   6     0.03   0.01   0.06    -0.02  -0.01  -0.09     0.01  -0.01   0.03
    16   1     0.03   0.02   0.11    -0.04  -0.06  -0.26     0.01  -0.01   0.04
    17   8     0.01   0.00  -0.01     0.00   0.03   0.03     0.00   0.00   0.00
    18  17     0.04   0.02  -0.01    -0.01  -0.02  -0.02     0.02   0.04  -0.01
    19   6    -0.02   0.00  -0.05    -0.02  -0.07  -0.05     0.00  -0.01  -0.03
    20   6    -0.01   0.01  -0.02    -0.04  -0.08  -0.06     0.01   0.00  -0.02
    21   1    -0.01   0.01   0.00    -0.02  -0.07  -0.02     0.02   0.00   0.00
    22   6    -0.01   0.00  -0.02     0.00  -0.03   0.02     0.02   0.02   0.02
[...]
 126799,-0.00033695,0.00037696,0.00045185,-0.00016667,0.00034315,0.0002
 0170,-0.00070672,-0.00026560,-0.00029788,-0.00018687,0.00028144,0.0004
 2026,0.00001171,0.00013678,-0.00018875,0.00089330,0.00011453,-0.000400
 48,0.00130313,-0.00016807,0.00101022,-0.00006436,0.00000402,-0.0002184
 3,-0.00005006,-0.00007363,-0.00009487,-0.23036618,0.20778184,0.0144868
 7,0.26194285,-0.00001575,0.00008636,0.00002979,0.00009274,-0.00017901,
 0.00000202,0.00024254,-0.00054924,0.00007877,-0.00076067,-0.00064079,0
 .00045728,-0.00109273,0.00095138,-0.00035422,0.00066738,-0.00063289,0.
 00001635,0.00008790,-0.00003792,-0.00000453,-0.00004121,-0.00003360,0.
 00000860,-0.00332837,-0.00050622,0.00153923,-0.00007218,-0.00006597,0.
 00002649,0.01196860,0.00217218,-0.00095641,0.00026286,0.00014504,-0.00
 004877,-0.00249743,0.00165985,0.00095971,0.00001635,-0.00017537,-0.000
 03075,0.00027240,0.00021171,-0.00025716,-0.00021473,0.00003974,0.00000
 391,-0.00850164,-0.00373623,0.00117044,-0.00047102,0.00000091,0.000064
 65,-0.00128439,-0.00190632,-0.00396447,-0.00036678,-0.00020145,0.00046
 090,0.00001171,0.00001450,-0.00005909,0.00020468,-0.00074519,0.0006850
 2,-0.00144592,0.00048733,-0.00084684,0.00018127,0.00032703,0.00011638,
 -0.00008330,-0.00010405,-0.00010747,0.00041417,0.00016784,0.00018757,-
 0.00001621,-0.00006099,-0.00010991,-0.00009338,-0.00021669,0.00021615,
 -0.00020033,0.00041337,0.00019624,-0.00043359,0.00056957,-0.00061065,0
 .00001855,0.00001420,0.00025670,0.00001613,0.00004409,0.00003344,0.243
 39654,-0.28257248,0.01086556,-0.22640161,0.28062291,-0.00009066,-0.000
 00697,0.00009799,-0.00007211,-0.00011457,0.00003089,-0.00009998,0.0002
 9832,0.00003079,0.00002367,0.00012351,-0.00043938,0.00051071,-0.000669
 29,-0.00031902,-0.00021137,0.00022455,-0.00016544,-0.00004917,-0.00000
 113,0.00001593,-0.00000840,-0.00000217,-0.00000739,0.00167319,0.001589
 88,0.00123092,-0.00000119,-0.00001945,0.00000676,-0.00114811,0.0005087
 0,-0.00040935,0.00008321,-0.00025520,0.00007296,-0.00033700,-0.0005322
 6,-0.00014531,-0.00000074,0.00002113,0.00006593,0.00020982,0.00006363,
 0.00008414,-0.00002372,0.00001634,0.00000245,0.00088712,0.00027429,-0.
 00422263,-0.00018127,0.00004912,-0.00000205,0.00060995,-0.00343031,-0.
 00016717,-0.00088667,0.00085285,-0.00028202,-0.00003490,0.00009853,-0.
 00002005,0.00019569,-0.00004271,-0.00028339,-0.00202263,-0.00087019,-0
 .00031855,-0.00001805,0.00016952,0.00007996,0.00010219,0.00045881,0.00
 022641,0.00063712,-0.00068739,0.00004910,-0.00007732,0.00027403,0.0000
 5313,-0.00015771,0.00070453,0.00031192,-0.00028312,0.00066708,-0.00256
 105,0.00087197,0.00008860,0.00043070,-0.00001804,0.00002286,-0.0000783
 9,0.00003935,-0.00007789,-0.00009474,-0.01174454,0.03832338,-0.0324658
 4,-0.01600887,-0.01665081,0.04019645,-0.00004115,-0.00002680,0.0000051
 6,-0.00000085,-0.00001154,0.00000478,-0.00000987,0.00008259,-0.0000082
 8,0.00004327,0.00017655,-0.00012543,0.00013879,-0.00033810,0.00020122,
 -0.00010153,0.00005908,-0.00001835,-0.00000623,0.00000890,0.00000170,0
 .00000367,0.00000084,0.00000083,-0.00064459,0.00028335,-0.00003920,0.0
 0000283,-0.00000258,0.00000938,-0.00122259,0.00003855,0.00002026,-0.00
 007492,-0.00002526,0.00001557,0.00016953,-0.00021354,-0.00010826,0.000
 00502,0.00001727,0.00000760,-0.00000131,-0.00000237,0.00003297,0.00001
 779,-0.00000439,0.00000006,0.00136796,-0.00036526,-0.00062721,0.000073
 19,-0.00001352,-0.00000816,0.00030881,0.00046419,0.00029297,-0.0000721
 3,0.00001587,-0.00001735,0.00001388,-0.00002386,0.00002292,-0.00046521
 ,-0.00021967,-0.00008738,0.00084772,-0.00008144,-0.00049885,-0.0000046
 3,-0.00007734,-0.00004341,0.00001425,-0.00004519,0.00002077,-0.0000567
 0,-0.00002962,-0.00025072,0.00002225,-0.00007434,-0.00001581,0.0000184
 2,-0.00004695,-0.00006782,-0.00023025,0.00013130,0.00070647,0.00009306
 ,-0.00006239,0.00010174,-0.00000808,-0.00000274,-0.00002802,-0.0000173
 1,-0.00000036,-0.00000572,-0.22108590,-0.06982768,0.20779089,-0.025921
 58,-0.00952222,0.02893927,0.25033059,-0.00002875,0.00001505,-0.0000083
 2,0.00001353,-0.00005936,0.00001539,-0.00000765,0.00005256,-0.00002957
 ,-0.00019672,-0.00003608,-0.00000397,-0.00008960,0.00022879,-0.0000125
 2,0.00011636,-0.00004544,0.00000231,0.00000308,-0.00000514,0.00000109,
 -0.00000374,-0.00000068,0.00000217,0.00001108,-0.00030694,0.00001172,0
 .00000058,-0.00001511,0.00001555,0.00063449,-0.00012034,0.00007607,0.0
 0002656,-0.00005651,0.00002495,-0.00008658,0.00003695,-0.00005410,0.00
 001627,-0.00003009,0.00001794,0.00013116,-0.00006739,-0.00001339,-0.00
 000514,0.00000529,-0.00000237,-0.00101167,-0.00138619,0.00118924,-0.00
 010041,0.00000588,0.00001108,0.00086147,0.00014849,-0.00042168,-0.0005
 0140,0.00010200,0.00010753,0.00002533,-0.00005475,0.00001095,-0.000107
 54,-0.00041792,0.00031284,0.00022372,-0.00031849,-0.00165032,-0.000133
 09,0.00026973,0.00031614,-0.00011283,-0.00017396,-0.00007484,-0.000151
 57,0.00005120,-0.00024898,-0.00000580,-0.00010059,-0.00000117,0.000032
 80,-0.00011894,-0.00005050,0.00014110,-0.00010108,0.00032834,0.0001791
 2,0.00009659,0.00004260,-0.00001527,0.00000203,0.00001673,-0.00002694,
 -0.00000653,-0.00002110,-0.10657517,-0.08154144,0.13201052,0.02533722,
 0.00906854,-0.02321857,0.08030342,0.07476595,-0.00003568,-0.00004452,0
 .00000586,-0.00004237,-0.00001578,0.00000576,-0.00008360,0.00012174,-0
 .00004220,-0.00007947,0.00000049,0.00005560,-0.00021270,0.00005427,0.0
 0017198,-0.00015572,0.00009868,-0.00001773,-0.00003607,-0.00000141,0.0
 0001215,-0.00000454,0.00000301,0.00000486,0.00054309,-0.00028427,-0.00
 049850,-0.00000260,-0.00002728,0.00001959,0.00005100,0.00019641,-0.000
 12421,0.00006826,-0.00010321,0.00003025,-0.00023444,-0.00013834,-0.000
 14444,-0.00000578,0.00003307,0.00004130,0.00008191,0.00002800,-0.00004
 482,-0.00002039,0.00001151,0.00000525,-0.00026547,0.00112091,-0.000587
 94,-0.00011890,0.00003812,0.00000599,0.00095690,-0.00025344,-0.0001410
 6,-0.00070837,0.00024020,0.00002438,0.00002291,0.00000040,0.00003330,-
 0.00013194,-0.00016728,0.00007135,-0.00018835,-0.00174435,-0.00121700,
 -0.00005389,0.00019257,0.00015541,-0.00005768,0.00044893,0.00023171,-0
 .00006816,0.00010172,-0.00016991,-0.00002063,-0.00002933,-0.00000527,0
 .00003257,-0.00000900,-0.00003082,0.00006273,-0.00017975,-0.00006902,0
 .00031939,0.00010862,0.00009315,-0.00002151,0.00000761,0.00000273,-0.0
 0000858,-0.00002238,-0.00003831,0.23455136,0.10432902,-0.25759438,0.00
 295177,0.00350476,-0.00088477,-0.23713761,-0.10698974,0.26400191,0.000
 12560,-0.00013321,0.00001175,-0.00001260,0.00010506,-0.00000595,0.0001
 2206,-0.00045986,0.00000459,-0.00117356,-0.00053572,0.00016838,-0.0000
 8690,0.00038288,-0.00007529,-0.00022355,-0.00009874,0.00007970,-0.0000
 1823,-0.00002034,0.00000280,-0.00002362,-0.00001491,-0.00000125,-0.000
 04912,0.00003227,0.00002125,-0.00001519,-0.00003320,0.00001701,0.00674
 457,-0.00202560,0.00136385,0.00021200,0.00023314,-0.00010921,-0.000250
 27,0.00142353,0.00068617,-0.00001463,-0.00014263,-0.00006611,-0.000026
 09,-0.00011515,-0.00006565,-0.00005593,0.00001791,-0.00000403,-0.01100
 752,0.00177086,0.00672892,-0.00029636,0.00004566,0.00003104,-0.0015677
 4,0.00020143,-0.00121064,0.00058469,-0.00055664,0.00035717,-0.00003937
 ,0.00001931,-0.00007162,0.00031567,-0.00036221,-0.00038745,-0.00039106
 ,-0.00004096,0.00036683,0.00016725,0.00003982,-0.00018764,-0.00009105,
 0.00028008,0.00013262,0.00033896,0.00005048,0.00037940,0.00001548,-0.0
 0001037,-0.00010420,-0.00004464,-0.00012145,0.00014068,-0.00010322,-0.
 00004455,0.00001719,-0.00076218,0.00023337,-0.00066459,0.00003421,0.00
 000362,0.00017344,0.00003257,0.00003554,0.00004961,0.00228108,-0.00146
 370,0.00135347,-0.00010573,0.00071852,-0.00156357,-0.00357251,-0.00102
 974,0.00145665,0.46598052,0.00008746,-0.00004822,-0.00000281,-0.000034
 05,0.00011170,-0.00002237,0.00002467,-0.00006023,0.00002692,0.00006637
 ,-0.00018220,0.00012783,0.00027847,0.00004727,-0.00004161,-0.00021463,
 0.00007414,0.00003555,-0.00002062,0.00000326,-0.00000047,0.00000344,0.
 00000265,-0.00000186,0.00035868,-0.00005584,-0.00007797,0.00002142,0.0
 0002109,-0.00001847,0.00009375,0.00043375,-0.00013405,0.00002578,0.000
 09094,-0.00003011,-0.00021926,0.00002601,0.00017101,-0.00009682,0.0001
 0611,0.00000976,-0.00015729,0.00011406,-0.00011015,-0.00002170,-0.0000
 0153,0.00000974,0.00046144,0.00266922,-0.00073132,0.00004542,0.0000266
 5,-0.00000986,-0.00042315,0.00006883,0.00033814,0.00019332,-0.00020764
 ,0.00001009,-0.00000708,0.00012044,0.00003249,-0.00013491,-0.00055797,
 -0.00034908,-0.00032106,-0.00093868,-0.00018858,0.00014571,0.00011947,
 -0.00030619,0.00032305,0.00071957,0.00041435,0.00021470,-0.00013372,-0
 .00000653,0.00000999,0.00008971,-0.00000838,-0.00000686,0.00006627,0.0
 0003752,0.00007350,-0.00005742,-0.00033976,-0.00023346,0.00003508,-0.0
 0022239,-0.00000266,0.00000465,0.00003134,0.00003895,0.00000317,0.0000
 1431,-0.00219564,-0.00573051,0.00908031,0.00306772,-0.00251071,-0.0023
 1259,-0.00343558,0.00216684,-0.00270425,-0.07405914,0.07378386,0.00000
 692,0.00004709,-0.00000543,0.00006391,0.00004872,-0.00002039,0.0000765
 4,0.00008752,0.00006071,0.00093655,-0.00000109,-0.00015041,-0.00000816
 ,-0.00011166,0.00008121,0.00011452,0.00002844,-0.00001886,0.00002880,0
 .00001920,-0.00001207,0.00002607,0.00001192,-0.00000771,-0.00017951,-0
 .00001361,-0.00008197,0.00000084,0.00003048,-0.00002612,-0.00363026,0.
 00136699,-0.00127799,-0.00021911,0.00012798,-0.00004932,0.00074401,-0.
 00041928,0.00000655,0.00001782,-0.00002031,-0.00011956,-0.00028950,0.0
 0003941,0.00016919,0.00008326,-0.00003478,-0.00001195,0.01036928,-0.00
 144860,-0.00266487,0.00041475,-0.00008257,-0.00003145,-0.00135686,0.00
 091302,0.00124383,0.00128425,-0.00042083,-0.00019774,-0.00005026,0.000
 03242,-0.00000233,-0.00036286,0.00034366,-0.00223035,0.00050736,-0.001
 06527,0.00113555,0.00040661,-0.00044203,-0.00094502,0.00024582,0.00097
 866,0.00032202,0.00015553,-0.00001074,-0.00016623,0.00007243,0.0000394
 0,-0.00002424,-0.00000527,-0.00002792,-0.00002979,-0.00000609,-0.00005
 561,0.00019864,-0.00052457,-0.00039378,0.00000103,0.00002701,-0.000017
 30,-0.00009607,0.00001413,0.00003978,0.00007507,0.00185635,0.00726036,
 -0.00286968,-0.00249396,-0.00064332,0.00069938,0.00221360,-0.00226750,
 -0.00376598,-0.03412840,0.16695577,0.60980313,-0.00000332,0.00000089,0
 .00000016,-0.00000244,0.00000421,-0.00000276,-0.00000986,-0.00000672,-
 0.00000816,-0.00005829,0.00003546,0.00001300,0.00002335,-0.00002044,-0
 .00000878,0.00000828,-0.00000306,-0.00000724,0.00000453,0.00000239,0.0
 0000016,-0.00000037,-0.00000154,0.00000067,0.00000504,0.00003057,-0.00
 000343,0.00000224,0.00000290,0.00000204,-0.00033847,-0.00008310,0.0001
 9234,-0.00004815,0.00000144,0.00000906,-0.00004309,-0.00004622,-0.0000
 3004,0.00000470,0.00004021,0.00002460,0.00000161,0.00001646,-0.0000237
 4,-0.00000124,0.00000196,0.00000452,-0.00121560,-0.00022767,-0.0000636
 3,0.00003523,-0.00000702,-0.00000168,-0.00006488,-0.00007956,-0.000121
 77,0.00002214,0.00002932,-0.00003804,-0.00000558,0.00000566,0.00000759
 ,0.00021605,0.00010993,0.00000156,-0.00002459,-0.00020609,0.00035572,0
 .00003458,-0.00001940,-0.00004231,0.00001724,0.00018335,0.00012416,0.0
 0000793,-0.00000592,-0.00003693,0.00000414,0.00000833,0.00000349,0.000
 00275,0.00000373,-0.00000728,0.00000040,0.00000423,-0.00000269,0.00003
 395,-0.00002043,0.00004864,0.00000053,-0.00000082,-0.00000996,-0.00000
 292,-0.00000353,-0.00000430,-0.00021786,0.00015178,-0.00009415,0.00008
 960,0.00015761,0.00010960,0.00020123,-0.00045426,-0.00028014,-0.090824
 27,-0.03352215,-0.17159475,0.08202527,-0.00002453,0.00000096,0.0000015
 1,0.00001516,-0.00003018,0.00000660,-0.00000500,0.00003575,-0.00001412
 ,0.00003464,0.00002493,-0.00002052,-0.00003008,-0.00003471,-0.00001088
 ,0.00003038,-0.00000263,-0.00001221,0.00000189,-0.00000046,0.00000188,
 -0.00000030,0.00000180,0.00000060,-0.00002291,0.00004151,0.00001796,-0
 .00000311,-0.00000731,0.00000958,-0.00008749,0.00014957,-0.00005792,-0
 .00000694,-0.00001903,0.00000913,0.00003603,0.00001463,-0.00000390,0.0
 0001862,-0.00003668,-0.00002877,0.00003388,-0.00002884,0.00002694,0.00
 000886,-0.00000056,-0.00000475,0.00024332,-0.00024501,0.00001740,-0.00
 001156,-0.00001065,0.00000250,0.00004382,0.00003697,0.00000122,-0.0000
 3425,0.00000866,-0.00001885,-0.00001490,-0.00001095,-0.00000819,-0.000
 11678,-0.00033296,0.00004878,-0.00002706,0.00008538,-0.00018508,0.0000
 2512,0.00011392,-0.00003211,0.00011133,0.00023374,0.00001940,0.0000113
 7,0.00001166,0.00001175,-0.00000127,-0.00000001,-0.00000120,-0.0000027
 2,-0.00001089,0.,-0.00000648,0.00001406,0.00001704,0.00000718,-0.00001
 177,0.00002518,0.00000338,0.00000069,-0.00000529,-0.00000351,-0.000000
 08,0.00000165,-0.00042388,-0.00120903,-0.00083401,0.00015114,0.0004563
 7,0.00032456,0.00054640,0.00059803,0.00198992,-0.01945474,-0.02905105,
 -0.10514389,0.02440670,0.03182260,0.00001602,-0.00002099,-0.00000027,-
 0.00001112,0.00000837,0.00000024,0.00000467,-0.00004200,0.00000902,-0.
 00014195,-0.00009163,0.00001541,0.00002825,0.00003655,-0.00000884,-0.0
 0005497,0.00000096,0.00001212,-0.00000793,-0.00000361,0.00000289,-0.00
 000447,-0.00000024,0.00000245,0.00005524,0.00000681,-0.00003843,0.0000
 0231,-0.00000352,0.00000302,0.00101739,-0.00016641,-0.00011089,0.00005
 942,0.00000215,-0.00001232,-0.00007038,0.00018391,0.00007694,0.0000215
 8,-0.00004274,-0.00000762,0.00001562,-0.00000625,-0.00001419,-0.000012
 93,0.00000596,0.00000412,-0.00078929,0.00032233,0.00087306,-0.00007533
 ,0.00001681,0.00000438,-0.00013077,-0.00008544,-0.00014572,-0.00002543
 ,0.00000824,0.00002126,0.00000139,0.00000117,-0.00000813,-0.00020271,0
 .00031095,0.00003067,0.00005448,-0.00036480,-0.00009554,0.00007762,-0.
 00005355,-0.00002770,-0.00001183,0.00002024,-0.00015001,0.00003470,-0.
 00002883,0.00007015,-0.00000562,0.00000081,-0.00000811,-0.00000661,-0.
 00000556,0.00002077,0.00000595,-0.00000367,-0.00005754,-0.00003004,0.0
 0006076,-0.00005690,0.00000528,0.00000389,0.00002845,0.00000285,-0.000
 00110,-0.00000257,-0.00009320,-0.00030166,0.00120015,0.00022630,-0.000
 05497,-0.00058386,-0.00038062,0.00118485,-0.00174845,-0.12051570,-0.11
 240642,-0.45926116,0.13419084,0.11616317,0.48241334,-0.00020319,0.0002
 1665,-0.00002535,0.00001234,-0.00016729,0.00001836,-0.00021519,0.00078
 128,-0.00001796,0.00200923,0.00094997,-0.00038469,0.00016981,-0.000597
 19,0.00010854,0.00034509,0.00019380,-0.00010064,0.00001684,0.00002810,
 -0.00000444,0.00003847,0.00002501,-0.00000019,0.00013328,-0.00014668,-
 0.00000534,0.00002206,0.00005008,-0.00003196,-0.01186363,0.00319887,-0
 .00080244,-0.00024326,-0.00039983,0.00015510,0.00053869,-0.00244656,-0
 .00134797,-0.00000323,0.00030904,0.00013179,0.00005228,0.00010869,0.00
 007281,0.00009956,-0.00002955,-0.00000162,0.00519362,-0.00149004,-0.00
 119847,0.00040152,-0.00005291,-0.00003554,0.00325926,-0.00044561,0.001
 91652,-0.00114152,0.00097223,-0.00061166,0.00005858,-0.00007176,0.0000
 8898,0.00011991,0.00032944,-0.00004336,-0.00027143,0.00044728,-0.00099
 789,-0.00048300,0.00008979,0.00062679,-0.00031294,-0.00093077,-0.00048
 814,-0.00065237,-0.00012822,-0.00067041,-0.00004373,0.00000965,0.00019
 175,0.00007991,0.00024659,-0.00022963,0.00017897,0.00006467,-0.0000979
 2,0.00130077,-0.00035890,0.00107965,-0.00005761,-0.00000187,-0.0002812
 9,-0.00005734,-0.00006605,-0.00009938,-0.00183100,-0.00092804,0.001352
 62,0.00257749,-0.00188649,0.00014632,-0.00013491,0.00258659,-0.0011239
 7,-0.36619928,0.10957221,0.19518321,0.01012015,-0.00545170,-0.01324900
 ,0.35698580,-0.00011147,0.00007170,-0.00000481,-0.00000941,-0.00010494
 ,0.00002737,-0.00009478,0.00011611,-0.00001427,0.00000568,0.00033121,-
 0.00013968,-0.00023326,-0.00007702,0.00003433,0.00020388,-0.00002504,-
 0.00005119,0.00001245,0.00000026,0.00000140,-0.00000237,-0.00000399,0.
 00000434,-0.00020512,-0.00010386,0.00016095,-0.00001180,-0.00000907,0.
 00001192,-0.00127133,-0.00051652,-0.00032885,-0.00002440,-0.00017125,0
 .00004903,0.00046606,-0.00028265,-0.00039064,0.00017854,-0.00021028,0.
 00005257,0.00012020,-0.00007460,0.00017969,0.00002585,-0.00000183,-0.0
 0000573,0.00078131,-0.00318079,0.00086933,-0.00000224,-0.00001774,-0.0
 0000408,0.00025723,-0.00005563,-0.00034963,-0.00018200,0.00036658,-0.0
 0006383,-0.00002910,-0.00010265,0.00001717,0.00009626,0.00079387,-0.00
 031420,0.00034620,0.00038056,0.00044493,-0.00006192,-0.00035293,0.0001
 0315,-0.00056519,-0.00063146,-0.00027608,-0.00016072,0.00007695,-0.000
 03317,-0.00000191,-0.00004443,0.00000925,0.00000971,-0.00001155,-0.000
 03352,-0.00005509,-0.00004062,0.00023734,0.00045732,-0.00014972,0.0003
 6549,-0.00000313,-0.00001110,-0.00008298,-0.00003355,-0.00001207,-0.00
 002758,-0.00002359,0.00217189,-0.00218917,-0.00226251,-0.00257781,0.00
 373729,0.00232446,-0.00265097,0.00008437,0.09512940,-0.04136899,-0.065
 75076,0.00951081,-0.00260845,-0.00465452,-0.10458046,0.05108885,0.0000
 3301,-0.00009274,0.00002121,-0.00008103,-0.00001107,-0.00000141,-0.000
 04611,-0.00037906,-0.00002508,-0.00172410,-0.00011274,0.00042876,-0.00
 013032,0.00027394,-0.00007099,-0.00014139,-0.00011961,0.00003018,-0.00
 002377,-0.00002634,0.00001224,-0.00004118,-0.00002669,0.00000974,0.000
 00539,0.00010906,0.00004482,-0.00001607,-0.00005122,0.00003331,0.00634
 215,-0.00270827,0.00175069,0.00026082,-0.00002198,0.00002453,-0.001047
 35,0.00103614,0.00031876,0.00000249,-0.00002905,0.00010391,0.00027404,
 -0.00000217,-0.00019329,-0.00012538,0.00004384,0.00001003,-0.00500522,
 0.00189130,-0.00381313,-0.00049864,0.00008773,0.00003875,0.00016368,-0
 .00110972,-0.00308187,-0.00076329,0.00011659,0.00043839,0.00000505,-0.
 00001375,-0.00001142,0.00027791,-0.00042363,-0.00002913,-0.00105594,0.
 00058039,-0.00100825,-0.00002821,0.00027440,0.00037917,-0.00051561,-0.
 00044736,-0.00029357,0.00007286,0.00009948,0.00029760,-0.00004275,-0.0
 0003902,-0.00003795,-0.00002400,-0.00007657,0.00011463,-0.00005087,0.0
 0007382,-0.00008592,0.00016801,0.00042554,-0.00028367,-0.00001030,0.00
 000801,0.00015671,-0.00000623,-0.00001113,-0.00003920,0.00090415,-0.00
 124787,-0.00147689,0.00009891,0.00381939,-0.00023542,-0.00091998,-0.00
 062939,0.00215228,0.14561881,-0.05726991,-0.13972963,0.03729365,-0.012
 31511,-0.02245018,-0.17922319,0.06832476,0.16650129\\-0.00000535,0.000
 00620,0.00000297,-0.00000246,0.00000527,-0.00000389,0.00000054,0.00000
 382,-0.00000550,0.00000042,0.00000089,-0.00000008,-0.00000179,0.000001
 99,0.00000566,-0.00000529,0.00000323,0.00000797,-0.00000714,0.00000867
 ,0.00000423,-0.00000323,0.00000866,-0.00000664,-0.00000312,-0.00000122
 ,0.00000893,-0.00000708,0.00000370,0.00001189,0.00000166,-0.00000295,-
 0.00000247,0.00000407,0.00000218,-0.00001215,0.00000553,-0.00000231,-0
 .00000904,0.00000707,-0.00000459,-0.00001025,0.00000446,-0.00000088,-0
 .00001301,0.00000687,0.00000046,-0.00001847,0.00000310,-0.00000452,0.0
 0000163,0.00000224,0.00000519,-0.00001631,-0.00000108,0.00000079,0.000
 00094,0.00000270,0.00000195,-0.00000595,0.00000319,-0.00000050,-0.0000
 0780,-0.00000060,-0.00000221,0.00000632,0.00000005,-0.00000497,0.00000
 972,-0.00000217,-0.00000009,0.00000602,0.00000236,-0.00000579,0.000001
 38,-0.00000445,0.00000605,0.00000372,-0.00000545,0.00000673,0.00000139
 ,-0.00000766,0.00000875,0.00000460,-0.00000560,0.00000289,0.00000868,-
 0.00000166,0.00000542,-0.00000930,0.00000246,0.00000521,-0.00001470,-0
 .00000178,0.00000780,-0.00000797,-0.00000124,-0.00000511,0.00001449,0.
 00000089,-0.00000661,0.00000945,-0.00000042,-0.00001093,0.00001502,0.0
 0000729,-0.00001290,0.00000819,0.00000564,-0.00001973,0.00000735,0.000
 00701,-0.00001054,0.00000301\\\@


 AND THIS OUR LIFE, EXEMPT FROM PUBLIC HAUNT,
 FINDS TONGUES IN TREES, BOOKS IN THE RUNNING BROOKS,
 SERMONS IN STONES, AND GOOD IN EVERYTHING.
 I WOULD NOT CHANGE IT. -- W. SHAKESPEARE
 AS YOU LIKE IT, ACT II, SCENE 1.
 Job cpu time:       0 days  2 hours 43 minutes 14.8 seconds.
 File lengths (MBytes):  RWF=    632 Int=      0 D2E=      0 Chk=     17 Scr=      1
 Normal termination of Gaussian 09 at Wed Sep 16 19:35:25 2020.
