 Entering Gaussian System, Link 0=g09
 Input=m062x_sm_2H2O_claisen_PM6_toluene_gd3.com
 Output=m062x_sm_2H2O_claisen_PM6_toluene_gd3.log
 Initial command:
 /apps/applications/gaussian/G09.D01/2/default/g09/l1.exe "/local/730608.1.40core-192G.q/Gau-147957.inp" -scrdir="/local/730608.1.40core-192G.q/"
 Entering Link 1 = /apps/applications/gaussian/G09.D01/2/default/g09/l1.exe PID=    147958.
  
 Copyright (c) 1988,1990,1992,1993,1995,1998,2003,2009,2013,
            Gaussian, Inc.  All Rights Reserved.
  
 This is part of the Gaussian(R) 09 program.  It is based on
 the Gaussian(R) 03 system (copyright 2003, Gaussian, Inc.),
 the Gaussian(R) 98 system (copyright 1998, Gaussian, Inc.),
 the Gaussian(R) 94 system (copyright 1995, Gaussian, Inc.),
 the Gaussian 92(TM) system (copyright 1992, Gaussian, Inc.),
 the Gaussian 90(TM) system (copyright 1990, Gaussian, Inc.),
 the Gaussian 88(TM) system (copyright 1988, Gaussian, Inc.),
 the Gaussian 86(TM) system (copyright 1986, Carnegie Mellon
 University), and the Gaussian 82(TM) system (copyright 1983,
 Carnegie Mellon University). Gaussian is a federally registered
 trademark of Gaussian, Inc.
  
 This software contains proprietary and confidential information,
 including trade secrets, belonging to Gaussian, Inc.
  
 This software is provided under written license and may be
 used, copied, transmitted, or stored only in accord with that
 written license.
  
 The following legend is applicable only to US Government
 contracts under FAR:
  
                    RESTRICTED RIGHTS LEGEND
  
 Use, reproduction and disclosure by the US Government is
 subject to restrictions as set forth in subparagraphs (a)
 and (c) of the Commercial Computer Software - Restricted
 Rights clause in FAR 52.227-19.
  
 Gaussian, Inc.
 340 Quinnipiac St., Bldg. 40, Wallingford CT 06492
  
  
 ---------------------------------------------------------------
 Warning -- This program may not be used in any manner that
 competes with the business of Gaussian, Inc. or will provide
 assistance to any competitor of Gaussian, Inc.  The licensee
 of this program is prohibited from giving any competitor of
 Gaussian, Inc. access to this program.  By using this program,
 the user acknowledges that Gaussian, Inc. is engaged in the
 business of creating and licensing software in the field of
 computational chemistry and represents and warrants to the
 licensee that it is not a competitor of Gaussian, Inc. and that
 it will not use this program in any manner prohibited above.
 ---------------------------------------------------------------
  

 Cite this work as:
 Gaussian 09, Revision D.01,
 M. J. Frisch, G. W. Trucks, H. B. Schlegel, G. E. Scuseria, 
 M. A. Robb, J. R. Cheeseman, G. Scalmani, V. Barone, B. Mennucci, 
 G. A. Petersson, H. Nakatsuji, M. Caricato, X. Li, H. P. Hratchian, 
 A. F. Izmaylov, J. Bloino, G. Zheng, J. L. Sonnenberg, M. Hada, 
 M. Ehara, K. Toyota, R. Fukuda, J. Hasegawa, M. Ishida, T. Nakajima, 
 Y. Honda, O. Kitao, H. Nakai, T. Vreven, J. A. Montgomery, Jr., 
 J. E. Peralta, F. Ogliaro, M. Bearpark, J. J. Heyd, E. Brothers, 
 K. N. Kudin, V. N. Staroverov, T. Keith, R. Kobayashi, J. Normand, 
 K. Raghavachari, A. Rendell, J. C. Burant, S. S. Iyengar, J. Tomasi, 
 M. Cossi, N. Rega, J. M. Millam, M. Klene, J. E. Knox, J. B. Cross, 
 V. Bakken, C. Adamo, J. Jaramillo, R. Gomperts, R. E. Stratmann, 
 O. Yazyev, A. J. Austin, R. Cammi, C. Pomelli, J. W. Ochterski, 
 R. L. Martin, K. Morokuma, V. G. Zakrzewski, G. A. Voth, 
 P. Salvador, J. J. Dannenberg, S. Dapprich, A. D. Daniels, 
 O. Farkas, J. B. Foresman, J. V. Ortiz, J. Cioslowski, 
 and D. J. Fox, Gaussian, Inc., Wallingford CT, 2013.
 
 ******************************************
 Gaussian 09:  ES64L-G09RevD.01 24-Apr-2013
                 9-Sep-2020 
 ******************************************
 %nprocshared=4
 Will use up to    4 processors via shared memory.
 %chk=m062x_sm_2H2O_claisen_PM6_toluene_gd3.chk
 ----------------------------------------------------------------------
 # opt freq scrf=(cpcm,solvent=toluene) geom=connectivity def2svp m062x
  empiricaldispersion=gd3
 ----------------------------------------------------------------------
 1/14=-1,18=20,19=15,26=3,38=1,57=2/1,3;
 2/9=110,12=2,17=6,18=5,40=1/2;
 3/5=43,7=101,11=2,16=1,25=1,30=1,70=2101,71=1,72=13,74=-55,124=31/1,2,3;
 4//1;
 5/5=2,38=5,53=13/2;
 6/7=2,8=2,9=2,10=2,28=1/1;
 7//1,2,3,16;
 1/14=-1,18=20,19=15,26=3/3(2);
 2/9=110/2;
 99//99;
 2/9=110/2;
 3/5=43,7=101,11=2,16=1,25=1,30=1,70=2105,71=1,72=13,74=-55,124=31/1,2,3;
 4/5=5,16=3,69=1/1;
 5/5=2,38=5,53=13/2;
 7//1,2,3,16;
 1/14=-1,18=20,19=15,26=3/3(-5);
 2/9=110/2;
 6/7=2,8=2,9=2,10=2,19=2,28=1/1;
 99/9=1/99;
 -------------------
 Title Card Required
 -------------------
 Symbolic Z-matrix:
 Charge =  0 Multiplicity = 1
 C                    -2.74366   2.47748   0.60537 
 C                    -3.01432   1.21366   0.13788 
 C                    -1.96273   0.29699  -0.1281 
 C                    -0.61455   0.71322   0.0815 
 C                    -0.36756   2.02314   0.57616 
 C                    -1.4088    2.88545   0.82995 
 H                    -3.56328   3.16763   0.80925 
 H                    -4.04205   0.89224  -0.02774 
 H                     0.66016   2.33691   0.75377 
 H                    -1.20407   3.88707   1.21005 
 C                     0.46385  -0.20875  -0.15494 
 C                    -2.19199  -1.03829  -0.57952 
 C                     0.19043  -1.49183  -0.57506 
 H                     0.98705  -2.21672  -0.71491 
 C                    -1.14781  -1.90042  -0.79018 
 H                    -1.35077  -2.91863  -1.12184 
 O                     1.68849   0.30134   0.10805 
 Cl                   -3.81978  -1.58945  -0.86218 
 C                     2.94126  -0.34024  -0.21865 
 C                     3.16361  -1.59024   0.60196 
 H                     4.0143   -2.19543   0.26983 
 C                     3.04399  -0.58961  -1.72569 
 H                     4.06472  -0.91874  -1.96361 
 H                     2.34651  -1.35403  -2.08729 
 H                     2.84874   0.35437  -2.25392 
 C                     3.98466   0.70123   0.19296 
 H                     3.85236   0.95212   1.25368 
 H                     4.99482   0.29542   0.04928 
 H                     3.87331   1.6086   -0.41781 
 C                     2.47585  -1.93985   1.68708 
 H                     2.74652  -2.83874   2.24498 
 H                     1.61555  -1.36645   2.04714 
 O                    -0.60195  -0.86116   2.76332 
 H                    -0.89402  -1.31196   1.96054 
 H                    -0.71402   0.07109   2.54107 
 O                     2.01493   2.64024  -1.62003 
 H                     1.20675   2.74737  -2.13486 
 H                     1.80862   1.91342  -1.01565 
 
 Add virtual bond connecting atoms H38        and O17        Dist= 3.72D+00.
 Add virtual bond connecting atoms O33        and H32        Dist= 4.51D+00.
 Add virtual bond connecting atoms H34        and H32        Dist= 4.75D+00.

 GradGradGradGradGradGradGradGradGradGradGradGradGradGradGradGradGradGrad
 Berny optimization.
 Initialization pass.
                           ----------------------------
                           !    Initial Parameters    !
                           ! (Angstroms and Degrees)  !
 --------------------------                            --------------------------
 ! Name  Definition              Value          Derivative Info.                !
 --------------------------------------------------------------------------------
 ! R1    R(1,2)                  1.3744         estimate D2E/DX2                !
 ! R2    R(1,6)                  1.4138         estimate D2E/DX2                !
 ! R3    R(1,7)                  1.0907         estimate D2E/DX2                !
 ! R4    R(2,3)                  1.4202         estimate D2E/DX2                !
 ! R5    R(2,8)                  1.0895         estimate D2E/DX2                !
 ! R6    R(3,4)                  1.4265         estimate D2E/DX2                !
 ! R7    R(3,12)                 1.428          estimate D2E/DX2                !
 ! R8    R(4,5)                  1.4218         estimate D2E/DX2                !
 ! R9    R(4,11)                 1.4384         estimate D2E/DX2                !
 ! R10   R(5,6)                  1.3756         estimate D2E/DX2                !
 ! R11   R(5,9)                  1.0891         estimate D2E/DX2                !
 ! R12   R(6,10)                 1.0907         estimate D2E/DX2                !
 ! R13   R(11,13)                1.3775         estimate D2E/DX2                !
 ! R14   R(11,17)                1.3524         estimate D2E/DX2                !
 ! R15   R(12,15)                1.3704         estimate D2E/DX2                !
 ! R16   R(12,18)                1.7417         estimate D2E/DX2                !
 ! R17   R(13,14)                1.0861         estimate D2E/DX2                !
 ! R18   R(13,15)                1.4157         estimate D2E/DX2                !
 ! R19   R(15,16)                1.0899         estimate D2E/DX2                !
 ! R20   R(17,19)                1.4449         estimate D2E/DX2                !
 ! R21   R(17,38)                1.9687         estimate D2E/DX2                !
 ! R22   R(19,20)                1.5117         estimate D2E/DX2                !
 ! R23   R(19,22)                1.531          estimate D2E/DX2                !
 ! R24   R(19,26)                1.5306         estimate D2E/DX2                !
 ! R25   R(20,21)                1.0955         estimate D2E/DX2                !
 ! R26   R(20,30)                1.3314         estimate D2E/DX2                !
 ! R27   R(22,23)                1.0986         estimate D2E/DX2                !
 ! R28   R(22,24)                1.0962         estimate D2E/DX2                !
 ! R29   R(22,25)                1.0992         estimate D2E/DX2                !
 ! R30   R(26,27)                1.098          estimate D2E/DX2                !
 ! R31   R(26,28)                1.0981         estimate D2E/DX2                !
 ! R32   R(26,29)                1.0994         estimate D2E/DX2                !
 ! R33   R(30,31)                1.092          estimate D2E/DX2                !
 ! R34   R(30,32)                1.0948         estimate D2E/DX2                !
 ! R35   R(32,33)                2.3844         estimate D2E/DX2                !
 ! R36   R(32,34)                2.5117         estimate D2E/DX2                !
 ! R37   R(33,34)                0.9659         estimate D2E/DX2                !
 ! R38   R(33,35)                0.9649         estimate D2E/DX2                !
 ! R39   R(36,37)                0.9642         estimate D2E/DX2                !
 ! R40   R(36,38)                0.9675         estimate D2E/DX2                !
 ! A1    A(2,1,6)              120.3516         estimate D2E/DX2                !
 ! A2    A(2,1,7)              119.8306         estimate D2E/DX2                !
 ! A3    A(6,1,7)              119.8171         estimate D2E/DX2                !
 ! A4    A(1,2,3)              120.758          estimate D2E/DX2                !
 ! A5    A(1,2,8)              120.5802         estimate D2E/DX2                !
 ! A6    A(3,2,8)              118.6596         estimate D2E/DX2                !
 ! A7    A(2,3,4)              118.9451         estimate D2E/DX2                !
 ! A8    A(2,3,12)             122.9473         estimate D2E/DX2                !
 ! A9    A(4,3,12)             118.1006         estimate D2E/DX2                !
 ! A10   A(3,4,5)              118.956          estimate D2E/DX2                !
 ! A11   A(3,4,11)             119.8286         estimate D2E/DX2                !
 ! A12   A(5,4,11)             121.1637         estimate D2E/DX2                !
 ! A13   A(4,5,6)              120.6788         estimate D2E/DX2                !
 ! A14   A(4,5,9)              119.0825         estimate D2E/DX2                !
 ! A15   A(6,5,9)              120.2386         estimate D2E/DX2                !
 ! A16   A(1,6,5)              120.2992         estimate D2E/DX2                !
 ! A17   A(1,6,10)             119.8402         estimate D2E/DX2                !
 ! A18   A(5,6,10)             119.8601         estimate D2E/DX2                !
 ! A19   A(4,11,13)            119.892          estimate D2E/DX2                !
 ! A20   A(4,11,17)            113.902          estimate D2E/DX2                !
 ! A21   A(13,11,17)           126.181          estimate D2E/DX2                !
 ! A22   A(3,12,15)            120.9654         estimate D2E/DX2                !
 ! A23   A(3,12,18)            119.8178         estimate D2E/DX2                !
 ! A24   A(15,12,18)           119.2163         estimate D2E/DX2                !
 ! A25   A(11,13,14)           121.0212         estimate D2E/DX2                !
 ! A26   A(11,13,15)           120.1861         estimate D2E/DX2                !
 ! A27   A(14,13,15)           118.7603         estimate D2E/DX2                !
 ! A28   A(12,15,13)           121.0207         estimate D2E/DX2                !
 ! A29   A(12,15,16)           119.5126         estimate D2E/DX2                !
 ! A30   A(13,15,16)           119.4654         estimate D2E/DX2                !
 ! A31   A(11,17,19)           125.0053         estimate D2E/DX2                !
 ! A32   A(11,17,38)           104.6609         estimate D2E/DX2                !
 ! A33   A(19,17,38)           100.4646         estimate D2E/DX2                !
 ! A34   A(17,19,20)           111.8351         estimate D2E/DX2                !
 ! A35   A(17,19,22)           110.675          estimate D2E/DX2                !
 ! A36   A(17,19,26)           103.1854         estimate D2E/DX2                !
 ! A37   A(20,19,22)           112.9418         estimate D2E/DX2                !
 ! A38   A(20,19,26)           108.444          estimate D2E/DX2                !
 ! A39   A(22,19,26)           109.2566         estimate D2E/DX2                !
 ! A40   A(19,20,21)           113.9794         estimate D2E/DX2                !
 ! A41   A(19,20,30)           125.7002         estimate D2E/DX2                !
 ! A42   A(21,20,30)           120.2073         estimate D2E/DX2                !
 ! A43   A(19,22,23)           108.925          estimate D2E/DX2                !
 ! A44   A(19,22,24)           113.3043         estimate D2E/DX2                !
 ! A45   A(19,22,25)           108.7385         estimate D2E/DX2                !
 ! A46   A(23,22,24)           108.1094         estimate D2E/DX2                !
 ! A47   A(23,22,25)           108.5579         estimate D2E/DX2                !
 ! A48   A(24,22,25)           109.1071         estimate D2E/DX2                !
 ! A49   A(19,26,27)           109.4591         estimate D2E/DX2                !
 ! A50   A(19,26,28)           109.9048         estimate D2E/DX2                !
 ! A51   A(19,26,29)           110.0676         estimate D2E/DX2                !
 ! A52   A(27,26,28)           108.7655         estimate D2E/DX2                !
 ! A53   A(27,26,29)           109.6267         estimate D2E/DX2                !
 ! A54   A(28,26,29)           108.9953         estimate D2E/DX2                !
 ! A55   A(20,30,31)           120.2967         estimate D2E/DX2                !
 ! A56   A(20,30,32)           122.4415         estimate D2E/DX2                !
 ! A57   A(31,30,32)           117.2497         estimate D2E/DX2                !
 ! A58   A(30,32,33)           160.1488         estimate D2E/DX2                !
 ! A59   A(30,32,34)           141.7384         estimate D2E/DX2                !
 ! A60   A(32,33,35)           104.0972         estimate D2E/DX2                !
 ! A61   A(34,33,35)           102.9654         estimate D2E/DX2                !
 ! A62   A(37,36,38)           103.784          estimate D2E/DX2                !
 ! A63   L(17,38,36,1,-1)      189.9347         estimate D2E/DX2                !
 ! A64   L(17,38,36,1,-2)      181.5186         estimate D2E/DX2                !
 ! D1    D(6,1,2,3)             -0.0267         estimate D2E/DX2                !
 ! D2    D(6,1,2,8)            179.4311         estimate D2E/DX2                !
 ! D3    D(7,1,2,3)           -179.7002         estimate D2E/DX2                !
 ! D4    D(7,1,2,8)             -0.2424         estimate D2E/DX2                !
 ! D5    D(2,1,6,5)              0.3274         estimate D2E/DX2                !
 ! D6    D(2,1,6,10)          -179.4203         estimate D2E/DX2                !
 ! D7    D(7,1,6,5)           -179.999          estimate D2E/DX2                !
 ! D8    D(7,1,6,10)             0.2532         estimate D2E/DX2                !
 ! D9    D(1,2,3,4)             -0.7813         estimate D2E/DX2                !
 ! D10   D(1,2,3,12)           178.2382         estimate D2E/DX2                !
 ! D11   D(8,2,3,4)            179.7506         estimate D2E/DX2                !
 ! D12   D(8,2,3,12)            -1.2298         estimate D2E/DX2                !
 ! D13   D(2,3,4,5)              1.2798         estimate D2E/DX2                !
 ! D14   D(2,3,4,11)           178.6963         estimate D2E/DX2                !
 ! D15   D(12,3,4,5)          -177.7874         estimate D2E/DX2                !
 ! D16   D(12,3,4,11)           -0.371          estimate D2E/DX2                !
 ! D17   D(2,3,12,15)         -178.2655         estimate D2E/DX2                !
 ! D18   D(2,3,12,18)            1.4618         estimate D2E/DX2                !
 ! D19   D(4,3,12,15)            0.7618         estimate D2E/DX2                !
 ! D20   D(4,3,12,18)         -179.5108         estimate D2E/DX2                !
 ! D21   D(3,4,5,6)             -1.0048         estimate D2E/DX2                !
 ! D22   D(3,4,5,9)            178.9204         estimate D2E/DX2                !
 ! D23   D(11,4,5,6)          -178.3855         estimate D2E/DX2                !
 ! D24   D(11,4,5,9)             1.5397         estimate D2E/DX2                !
 ! D25   D(3,4,11,13)           -0.3821         estimate D2E/DX2                !
 ! D26   D(3,4,11,17)         -178.675          estimate D2E/DX2                !
 ! D27   D(5,4,11,13)          176.976          estimate D2E/DX2                !
 ! D28   D(5,4,11,17)           -1.3168         estimate D2E/DX2                !
 ! D29   D(4,5,6,1)              0.2002         estimate D2E/DX2                !
 ! D30   D(4,5,6,10)           179.9479         estimate D2E/DX2                !
 ! D31   D(9,5,6,1)           -179.7241         estimate D2E/DX2                !
 ! D32   D(9,5,6,10)             0.0235         estimate D2E/DX2                !
 ! D33   D(4,11,13,14)        -177.1455         estimate D2E/DX2                !
 ! D34   D(4,11,13,15)           0.7628         estimate D2E/DX2                !
 ! D35   D(17,11,13,14)          0.9208         estimate D2E/DX2                !
 ! D36   D(17,11,13,15)        178.8291         estimate D2E/DX2                !
 ! D37   D(4,11,17,19)        -170.8829         estimate D2E/DX2                !
 ! D38   D(4,11,17,38)         -56.5255         estimate D2E/DX2                !
 ! D39   D(13,11,17,19)         10.9508         estimate D2E/DX2                !
 ! D40   D(13,11,17,38)        125.3081         estimate D2E/DX2                !
 ! D41   D(3,12,15,13)          -0.4012         estimate D2E/DX2                !
 ! D42   D(3,12,15,16)         179.1709         estimate D2E/DX2                !
 ! D43   D(18,12,15,13)        179.8698         estimate D2E/DX2                !
 ! D44   D(18,12,15,16)         -0.5581         estimate D2E/DX2                !
 ! D45   D(11,13,15,12)         -0.3806         estimate D2E/DX2                !
 ! D46   D(11,13,15,16)       -179.9529         estimate D2E/DX2                !
 ! D47   D(14,13,15,12)        177.5746         estimate D2E/DX2                !
 ! D48   D(14,13,15,16)         -1.9977         estimate D2E/DX2                !
 ! D49   D(11,17,19,20)        -67.8655         estimate D2E/DX2                !
 ! D50   D(11,17,19,22)         59.0067         estimate D2E/DX2                !
 ! D51   D(11,17,19,26)        175.7796         estimate D2E/DX2                !
 ! D52   D(38,17,19,20)        175.8022         estimate D2E/DX2                !
 ! D53   D(38,17,19,22)        -57.3255         estimate D2E/DX2                !
 ! D54   D(38,17,19,26)         59.4474         estimate D2E/DX2                !
 ! D55   D(11,17,36,37)          0.9315         estimate D2E/DX2                !
 ! D56   D(19,17,36,37)        130.8281         estimate D2E/DX2                !
 ! D57   D(17,19,20,21)        170.2543         estimate D2E/DX2                !
 ! D58   D(17,19,20,30)        -13.6309         estimate D2E/DX2                !
 ! D59   D(22,19,20,21)         44.6191         estimate D2E/DX2                !
 ! D60   D(22,19,20,30)       -139.2661         estimate D2E/DX2                !
 ! D61   D(26,19,20,21)        -76.625          estimate D2E/DX2                !
 ! D62   D(26,19,20,30)         99.4898         estimate D2E/DX2                !
 ! D63   D(17,19,22,23)        170.5784         estimate D2E/DX2                !
 ! D64   D(17,19,22,24)        -69.0587         estimate D2E/DX2                !
 ! D65   D(17,19,22,25)         52.4407         estimate D2E/DX2                !
 ! D66   D(20,19,22,23)        -63.164          estimate D2E/DX2                !
 ! D67   D(20,19,22,24)         57.1989         estimate D2E/DX2                !
 ! D68   D(20,19,22,25)        178.6983         estimate D2E/DX2                !
 ! D69   D(26,19,22,23)         57.6186         estimate D2E/DX2                !
 ! D70   D(26,19,22,24)        177.9816         estimate D2E/DX2                !
 ! D71   D(26,19,22,25)        -60.5191         estimate D2E/DX2                !
 ! D72   D(17,19,26,27)         56.9736         estimate D2E/DX2                !
 ! D73   D(17,19,26,28)        176.3664         estimate D2E/DX2                !
 ! D74   D(17,19,26,29)        -63.5793         estimate D2E/DX2                !
 ! D75   D(20,19,26,27)        -61.7658         estimate D2E/DX2                !
 ! D76   D(20,19,26,28)         57.627          estimate D2E/DX2                !
 ! D77   D(20,19,26,29)        177.6813         estimate D2E/DX2                !
 ! D78   D(22,19,26,27)        174.7461         estimate D2E/DX2                !
 ! D79   D(22,19,26,28)        -65.8612         estimate D2E/DX2                !
 ! D80   D(22,19,26,29)         54.1932         estimate D2E/DX2                !
 ! D81   D(19,20,30,31)       -176.7168         estimate D2E/DX2                !
 ! D82   D(19,20,30,32)          4.5795         estimate D2E/DX2                !
 ! D83   D(21,20,30,31)         -0.8249         estimate D2E/DX2                !
 ! D84   D(21,20,30,32)       -179.5285         estimate D2E/DX2                !
 ! D85   D(20,30,32,33)        125.1462         estimate D2E/DX2                !
 ! D86   D(20,30,32,34)         96.7169         estimate D2E/DX2                !
 ! D87   D(31,30,32,33)        -53.5948         estimate D2E/DX2                !
 ! D88   D(31,30,32,34)        -82.0241         estimate D2E/DX2                !
 ! D89   D(30,32,33,35)       -152.6155         estimate D2E/DX2                !
 ! D90   D(32,33,34,35)       -103.59           estimate D2E/DX2                !
 --------------------------------------------------------------------------------
 Trust Radius=3.00D-01 FncErr=1.00D-07 GrdErr=1.00D-06
 Number of steps in this run=    204 maximum allowed number of steps=    228.
 GradGradGradGradGradGradGradGradGradGradGradGradGradGradGradGradGradGrad

                          Input orientation:                          
 ---------------------------------------------------------------------
 Center     Atomic      Atomic             Coordinates (Angstroms)
 Number     Number       Type             X           Y           Z
 ---------------------------------------------------------------------
      1          6           0       -2.743662    2.477484    0.605366
      2          6           0       -3.014317    1.213658    0.137878
      3          6           0       -1.962730    0.296990   -0.128104
      4          6           0       -0.614552    0.713224    0.081503
      5          6           0       -0.367555    2.023145    0.576162
      6          6           0       -1.408797    2.885445    0.829945
      7          1           0       -3.563281    3.167634    0.809253
      8          1           0       -4.042049    0.892240   -0.027740
      9          1           0        0.660163    2.336905    0.753773
     10          1           0       -1.204066    3.887068    1.210048
     11          6           0        0.463846   -0.208749   -0.154936
     12          6           0       -2.191987   -1.038291   -0.579518
     13          6           0        0.190429   -1.491828   -0.575055
     14          1           0        0.987048   -2.216720   -0.714907
     15          6           0       -1.147812   -1.900423   -0.790176
     16          1           0       -1.350766   -2.918629   -1.121837
     17          8           0        1.688487    0.301338    0.108049
     18         17           0       -3.819781   -1.589448   -0.862175
     19          6           0        2.941259   -0.340244   -0.218654
     20          6           0        3.163614   -1.590240    0.601963
     21          1           0        4.014296   -2.195427    0.269832
     22          6           0        3.043986   -0.589605   -1.725687
     23          1           0        4.064723   -0.918738   -1.963606
     24          1           0        2.346511   -1.354033   -2.087293
     25          1           0        2.848737    0.354373   -2.253920
     26          6           0        3.984659    0.701232    0.192957
     27          1           0        3.852362    0.952123    1.253680
     28          1           0        4.994815    0.295418    0.049280
     29          1           0        3.873311    1.608595   -0.417810
     30          6           0        2.475850   -1.939849    1.687076
     31          1           0        2.746517   -2.838740    2.244977
     32          1           0        1.615549   -1.366452    2.047139
     33          8           0       -0.601953   -0.861158    2.763317
     34          1           0       -0.894021   -1.311957    1.960541
     35          1           0       -0.714017    0.071088    2.541065
     36          8           0        2.014928    2.640244   -1.620030
     37          1           0        1.206745    2.747365   -2.134862
     38          1           0        1.808615    1.913417   -1.015649
 ---------------------------------------------------------------------
                    Distance matrix (angstroms):
                    1          2          3          4          5
     1  C    0.000000
     2  C    1.374429   0.000000
     3  C    2.429483   1.420163   0.000000
     4  C    2.814277   2.452037   1.426454   0.000000
     5  C    2.419331   2.802269   2.453607   1.421826   0.000000
     6  C    1.413765   2.418992   2.815102   2.430953   1.375555
     7  H    1.090712   2.137786   3.417748   3.904965   3.402477
     8  H    2.144675   1.089482   2.165170   3.433907   3.891728
     9  H    3.409958   3.891377   3.437809   2.170987   1.089126
    10  H    2.173229   3.402011   3.905750   3.419711   2.139105
    11  C    4.252295   3.769164   2.478863   1.438360   2.491402
    12  C    3.750862   2.502430   1.428044   2.448072   3.746537
    13  C    5.075207   4.254213   2.834736   2.437482   3.740546
    14  H    6.139778   5.339069   3.919728   3.432778   4.634465
    15  C    4.864190   3.747349   2.435376   2.806304   4.227300
    16  H    5.834503   4.629263   3.420849   3.896203   5.317051
    17  O    4.962548   4.790572   3.658849   2.339731   2.722326
    18  Cl   4.455518   3.083226   2.747025   4.057871   5.199760
    19  C    6.398197   6.165275   4.946046   3.720710   4.143138
    20  C    7.172329   6.800298   5.511265   4.455487   5.052363
    21  H    8.223058   7.812853   6.488092   5.470096   6.090222
    22  C    6.952533   6.589967   5.329684   4.283480   4.874791
    23  H    8.030445   7.686101   6.416950   5.361099   5.894929
    24  H    6.916704   6.346881   5.013368   4.212496   5.085811
    25  H    6.630086   6.390185   5.260475   4.192534   4.597684
    26  C    6.971044   7.017926   5.969751   4.600577   4.564654
    27  H    6.801071   6.961659   6.012805   4.624326   4.406111
    28  H    8.059446   8.062085   6.959806   5.624998   5.658415
    29  H    6.751755   6.921285   5.988624   4.603468   4.375474
    30  C    6.922877   6.518171   5.291438   4.378041   5.002440
    31  H    7.816177   7.351803   6.135253   5.347322   6.010018
    32  H    5.988094   5.633640   4.505863   3.627965   4.193548
    33  O    4.515551   4.125202   3.399020   3.109817   3.627367
    34  H    4.429169   3.767823   2.844870   2.776733   3.649189
    35  H    3.695556   3.517407   2.955466   2.543949   2.791309
    36  O    5.255764   5.515314   4.851644   3.677334   3.298529
    37  H    4.815330   5.033385   4.480735   3.516693   3.217540
    38  H    4.865089   5.008089   4.198049   2.918209   2.698447
                    6          7          8          9         10
     6  C    0.000000
     7  H    2.172984   0.000000
     8  H    3.412112   2.471274   0.000000
     9  H    2.141797   4.304726   4.980825   0.000000
    10  H    1.090707   2.498823   4.307582   2.467092   0.000000
    11  C    3.748442   5.342974   4.640199   2.710101   4.628264
    12  C    4.242131   4.636695   2.730227   4.615666   5.332701
    13  C    4.867450   6.141436   4.888477   4.079906   5.836414
    14  H    5.844547   7.212477   5.952281   4.795766   6.764810
    15  C    5.059391   5.837625   4.093517   4.858755   6.123652
    16  H    6.123732   6.757731   4.791949   5.931474   7.195604
    17  O    4.097793   6.023986   5.762521   2.370220   4.736953
    18  Cl   5.357311   5.048692   2.627634   6.172312   6.413135
    19  C    5.516123   7.461290   7.093804   3.649129   6.090573
    20  C    6.402396   8.242054   7.647275   4.659698   7.031877
    21  H    7.452444   9.299090   8.632898   5.659191   8.069204
    22  C    6.199557   8.012412   7.435777   4.516060   6.834112
    23  H    7.227389   9.087003   8.529183   5.438234   7.805638
    24  H    6.370698   7.985054   7.078220   4.953630   7.137800
    25  H    5.834650   7.642738   7.261412   4.215033   6.395641
    26  C    5.853709   7.964569   8.032013   3.747294   6.173078
    27  H    5.621128   7.752275   7.997959   3.515347   5.846646
    28  H    6.951541   9.059150   9.056878   4.842849   7.257648
    29  H    5.575653   7.696700   7.957276   3.496765   5.798372
    30  C    6.253688   7.957893   7.310563   4.739029   6.908133
    31  H    7.213546   8.829008   8.072799   5.776146   7.868588
    32  H    5.357878   6.993610   6.435466   4.037377   6.020832
    33  O    4.292547   5.368333   4.764312   3.982312   5.031981
    34  H    4.377377   5.340145   4.326873   4.145597   5.262056
    35  H    3.366193   4.550393   4.283555   3.196359   4.071051
    36  O    4.217155   6.107043   6.502144   2.749972   4.463836
    37  H    3.956034   5.621173   5.952419   2.968407   4.277775
    38  H    3.834422   5.810387   6.020717   2.151543   4.233825
                   11         12         13         14         15
    11  C    0.000000
    12  C    2.814580   0.000000
    13  C    1.377515   2.425206   0.000000
    14  H    2.149245   3.393124   1.086107   0.000000
    15  C    2.421308   1.370383   1.415668   2.159476   0.000000
    16  H    3.401641   2.130125   2.170257   2.474599   1.089923
    17  O    1.352441   4.162383   2.434390   2.740418   3.701237
    18  Cl   4.555873   1.741661   4.021660   4.849821   2.690968
    19  C    2.481718   5.193044   3.003370   2.754337   4.413762
    20  C    3.125726   5.512078   3.199201   2.619936   4.541218
    21  H    4.090601   6.370111   3.978799   3.183456   5.278068
    22  C    3.044574   5.378702   3.206361   2.810725   4.490501
    23  H    4.091661   6.409088   4.155317   3.565963   5.432418
    24  H    2.930888   4.792812   2.637146   2.115611   3.767141
    25  H    3.226538   5.491087   3.646045   3.527742   4.816540
    26  C    3.653111   6.463251   4.449217   4.280693   5.837587
    27  H    3.848878   6.622425   4.767276   4.703927   6.108691
    28  H    4.563504   7.336504   5.163929   4.791348   6.577102
    29  H    3.872505   6.619667   4.816738   4.801231   6.137063
    30  C    3.230770   5.266779   3.246707   2.839491   4.389676
    31  H    4.229305   5.967262   4.037368   3.499079   5.025773
    32  H    2.741501   4.637278   2.987070   2.957510   3.996454
    33  O    3.174550   3.705959   3.488602   4.057156   3.742372
    34  H    2.745198   2.865573   2.763627   3.393382   2.824384
    35  H    2.955350   3.626728   3.601518   4.327706   3.895151
    36  O    3.559370   5.684401   4.636247   5.046373   5.595466
    37  H    3.634641   5.319931   4.629973   5.167851   5.380897
    38  H    2.655714   4.990752   3.795832   4.221783   4.830805
                   16         17         18         19         20
    16  H    0.000000
    17  O    4.595418   0.000000
    18  Cl   2.816058   5.904018   0.000000
    19  C    5.087759   1.444922   6.905526   0.000000
    20  C    5.011560   2.449085   7.135230   1.511735   0.000000
    21  H    5.589602   3.416050   7.938603   2.198120   1.095547
    22  C    5.010273   2.448213   6.989752   1.530974   2.536442
    23  H    5.834009   3.380361   7.989268   2.154457   2.800903
    24  H    4.129155   2.827150   6.291223   2.207556   2.820558
    25  H    5.443343   2.632089   7.084104   2.152524   3.469400
    26  C    6.580185   2.332280   8.201817   1.530614   2.468247
    27  H    6.906399   2.533446   8.354532   2.160576   2.713433
    28  H    7.208884   3.306856   9.059833   2.166321   2.685975
    29  H    6.948553   2.599789   8.343177   2.169414   3.431640
    30  C    4.846751   2.852400   6.801208   2.531235   1.331434
    31  H    5.303730   3.942839   7.370983   3.514240   2.105283
    32  H    4.609847   2.558694   6.169007   2.818586   2.129582
    33  O    4.459633   3.694315   4.901940   4.660242   4.402557
    34  H    3.505862   3.564238   4.074899   4.516912   4.288074
    35  H    4.770818   3.427041   4.897468   4.598509   4.642860
    36  O    6.517451   2.926312   7.246273   3.421294   4.914644
    37  H    6.298458   3.353472   6.759707   4.026627   5.489478
    38  H    5.774221   1.968737   6.631173   2.645198   4.090025
                   21         22         23         24         25
    21  H    0.000000
    22  C    2.739026   0.000000
    23  H    2.573077   1.098562   0.000000
    24  H    3.007572   1.096166   1.776804   0.000000
    25  H    3.772179   1.099203   1.784297   1.788476   0.000000
    26  C    2.897830   2.496462   2.698421   3.479538   2.719897
    27  H    3.301704   3.450656   3.727754   4.329901   3.697002
    28  H    2.685958   2.781997   2.528034   3.781421   3.148628
    29  H    3.868244   2.688941   2.968760   3.727661   2.448290
    30  C    2.107301   3.713878   4.110312   3.821750   4.575363
    31  H    2.433580   4.573103   4.810015   4.597056   5.517834
    32  H    3.098388   4.108301   4.720697   4.198570   4.793861
    33  O    5.413640   5.789453   6.642664   5.697788   6.209464
    34  H    5.265984   5.442239   6.335826   5.185343   5.877633
    35  H    5.714240   5.724009   6.641398   5.728831   5.980414
    36  O    5.563521   3.391467   4.121414   4.035162   2.514411
    37  H    6.172203   3.831220   4.651632   4.257088   2.904604
    38  H    4.837364   2.880176   3.742960   3.480515   2.246283
                   26         27         28         29         30
    26  C    0.000000
    27  H    1.097990   0.000000
    28  H    1.098063   1.785228   0.000000
    29  H    1.099428   1.795905   1.788960   0.000000
    30  C    3.388835   3.232046   3.744860   4.356018   0.000000
    31  H    4.274948   4.071389   4.438342   5.304610   1.092025
    32  H    3.650478   3.317936   4.262944   4.474859   1.094782
    33  O    5.484963   5.040626   6.326727   6.020568   3.434347
    34  H    5.565860   5.306021   6.396480   6.075659   3.438759
    35  H    5.290392   4.825495   6.232983   5.671195   3.866318
    36  O    3.305530   3.805802   4.143010   2.441971   5.668038
    37  H    4.161996   4.658798   5.013182   3.369813   6.179629
    38  H    2.768626   3.201694   3.728789   2.171013   4.753692
                   31         32         33         34         35
    31  H    0.000000
    32  H    1.867046   0.000000
    33  O    3.923233   2.384439   0.000000
    34  H    3.957965   2.511655   0.965905   0.000000
    35  H    4.531011   2.781611   0.964903   1.510703   0.000000
    36  O    6.744833   5.446214   6.190445   6.074732   5.600216
    37  H    7.263502   5.880454   6.347045   6.137071   5.719797
    38  H    5.839036   4.491713   5.271593   5.154123   4.733716
                   36         37         38
    36  O    0.000000
    37  H    0.964203   0.000000
    38  H    0.967532   1.519985   0.000000
 Stoichiometry    C15H19ClO3
 Framework group  C1[X(C15H19ClO3)]
 Deg. of freedom   108
 Full point group                 C1      NOp   1
 Largest Abelian subgroup         C1      NOp   1
 Largest concise Abelian subgroup C1      NOp   1
                         Standard orientation:                         
 ---------------------------------------------------------------------
 Center     Atomic      Atomic             Coordinates (Angstroms)
 Number     Number       Type             X           Y           Z
 ---------------------------------------------------------------------
      1          6           0       -2.743662    2.477484    0.605366
      2          6           0       -3.014317    1.213658    0.137878
      3          6           0       -1.962730    0.296990   -0.128104
      4          6           0       -0.614552    0.713224    0.081503
      5          6           0       -0.367555    2.023145    0.576162
      6          6           0       -1.408797    2.885445    0.829945
      7          1           0       -3.563281    3.167634    0.809253
      8          1           0       -4.042049    0.892240   -0.027740
      9          1           0        0.660163    2.336905    0.753773
     10          1           0       -1.204066    3.887068    1.210048
     11          6           0        0.463846   -0.208749   -0.154936
     12          6           0       -2.191987   -1.038291   -0.579518
     13          6           0        0.190429   -1.491828   -0.575055
     14          1           0        0.987048   -2.216720   -0.714907
     15          6           0       -1.147812   -1.900423   -0.790176
     16          1           0       -1.350766   -2.918629   -1.121837
     17          8           0        1.688487    0.301338    0.108049
     18         17           0       -3.819781   -1.589448   -0.862175
     19          6           0        2.941259   -0.340244   -0.218654
     20          6           0        3.163614   -1.590240    0.601963
     21          1           0        4.014296   -2.195427    0.269832
     22          6           0        3.043986   -0.589605   -1.725687
     23          1           0        4.064723   -0.918738   -1.963606
     24          1           0        2.346511   -1.354033   -2.087293
     25          1           0        2.848737    0.354373   -2.253920
     26          6           0        3.984659    0.701232    0.192957
     27          1           0        3.852362    0.952123    1.253680
     28          1           0        4.994815    0.295418    0.049280
     29          1           0        3.873311    1.608595   -0.417810
     30          6           0        2.475850   -1.939849    1.687076
     31          1           0        2.746517   -2.838740    2.244977
     32          1           0        1.615549   -1.366452    2.047139
     33          8           0       -0.601953   -0.861158    2.763317
     34          1           0       -0.894021   -1.311957    1.960541
     35          1           0       -0.714017    0.071088    2.541065
     36          8           0        2.014928    2.640244   -1.620030
     37          1           0        1.206745    2.747365   -2.134862
     38          1           0        1.808615    1.913417   -1.015649
 ---------------------------------------------------------------------
 Rotational constants (GHZ):      0.4798891      0.2439560      0.2072704
 Standard basis: def2SVP (5D, 7F)
 There are   384 symmetry adapted cartesian basis functions of A   symmetry.
 There are   365 symmetry adapted basis functions of A   symmetry.
   365 basis functions,   620 primitive gaussians,   384 cartesian basis functions
    75 alpha electrons       75 beta electrons
       nuclear repulsion energy      1631.7807244772 Hartrees.
 NAtoms=   38 NActive=   38 NUniq=   38 SFac= 1.00D+00 NAtFMM=   60 NAOKFM=F Big=F
 Integral buffers will be    131072 words long.
 Raffenetti 2 integral format.
 Two-electron integral symmetry is turned on.
 Nuclear repulsion after empirical dispersion term =     1631.7777692257 Hartrees.
 ------------------------------------------------------------------------------
 Polarizable Continuum Model (PCM)
 =================================
 Model                : C-PCM.
 Atomic radii         : UFF (Universal Force Field).
 Polarization charges : Total charges.
 Charge compensation  : None.
 Solution method      : On-the-fly selection.
 Cavity type          : Scaled VdW (van der Waals Surface) (Alpha=1.100).
 Cavity algorithm     : GePol (No added spheres)
                        Default sphere list used, NSphG=   38.
                        Lebedev-Laikov grids with approx.  5.0 points / Ang**2.
                        Smoothing algorithm: Karplus/York (Gamma=1.0000).
                        Polarization charges: spherical gaussians, with
                                              point-specific exponents (IZeta= 3).
                        Self-potential: point-specific (ISelfS= 7).
                        Self-field    : sphere-specific E.n sum rule (ISelfD= 2).
 1st derivatives      : Analytical E(r).r(x)/FMM algorithm (CHGder, D1EAlg=3).
                        Cavity 1st derivative terms included.
 Solvent              : Toluene, Eps=   2.374100 Eps(inf)=   2.238315
 ------------------------------------------------------------------------------
 One-electron integrals computed using PRISM.
   1 Symmetry operations used in ECPInt.
 ECPInt:  NShTT=   15051 NPrTT=   54599 LenC2=   14141 LenP2D=   36444.
 LDataN:  DoStor=T MaxTD1= 4 Len=   56
 NBasis=   365 RedAO= T EigKep=  1.90D-04  NBF=   365
 NBsUse=   365 1.00D-06 EigRej= -1.00D+00 NBFU=   365
 ExpMin= 1.22D-01 ExpMax= 1.04D+04 ExpMxC= 1.57D+03 IAcc=1 IRadAn=         1 AccDes= 0.00D+00
 Harris functional with IExCor= 1009 and IRadAn=       1 diagonalized for initial guess.
 HarFok:  IExCor= 1009 AccDes= 0.00D+00 IRadAn=         1 IDoV= 1 UseB2=F ITyADJ=14
 ICtDFT=  3500011 ScaDFX=  1.000000  1.000000  1.000000  1.000000
 FoFCou: FMM=F IPFlag=           0 FMFlag=      100000 FMFlg1=           0
         NFxFlg=           0 DoJE=T BraDBF=F KetDBF=T FulRan=T
         wScrn=  0.000000 ICntrl=     500 IOpCl=  0 I1Cent=   200000004 NGrid=           0
         NMat0=    1 NMatS0=      1 NMatT0=    0 NMatD0=    1 NMtDS0=    0 NMtDT0=    0
 Petite list used in FoFCou.
 Requested convergence on RMS density matrix=1.00D-08 within 128 cycles.
 Requested convergence on MAX density matrix=1.00D-06.
 Requested convergence on             energy=1.00D-06.
 No special actions if energy rises.
 Inv3:  Mode=1 IEnd=    20988075.
 Iteration    1 A*A^-1 deviation from unit magnitude is 5.11D-15 for   2632.
 Iteration    1 A*A^-1 deviation from orthogonality  is 2.42D-15 for   2628   2268.
 Iteration    1 A^-1*A deviation from unit magnitude is 5.11D-15 for   2632.
 Iteration    1 A^-1*A deviation from orthogonality  is 2.01D-15 for   2641   2532.
 Error on total polarization charges =  0.00623
 SCF Done:  E(RM062X) =  -1267.80214706     A.U. after   14 cycles
            NFock= 14  Conv=0.49D-08     -V/T= 2.0071

 **********************************************************************

            Population analysis using the SCF density.

 **********************************************************************

 Orbital symmetries:
       Occupied  (A) (A) (A) (A) (A) (A) (A) (A) (A) (A) (A) (A)
                 (A) (A) (A) (A) (A) (A) (A) (A) (A) (A) (A) (A)
                 (A) (A) (A) (A) (A) (A) (A) (A) (A) (A) (A) (A)
                 (A) (A) (A) (A) (A) (A) (A) (A) (A) (A) (A) (A)
                 (A) (A) (A) (A) (A) (A) (A) (A) (A) (A) (A) (A)
                 (A) (A) (A) (A) (A) (A) (A) (A) (A) (A) (A) (A)
                 (A) (A) (A)
       Virtual   (A) (A) (A) (A) (A) (A) (A) (A) (A) (A) (A) (A)
                 (A) (A) (A) (A) (A) (A) (A) (A) (A) (A) (A) (A)
                 (A) (A) (A) (A) (A) (A) (A) (A) (A) (A) (A) (A)
                 (A) (A) (A) (A) (A) (A) (A) (A) (A) (A) (A) (A)
                 (A) (A) (A) (A) (A) (A) (A) (A) (A) (A) (A) (A)
                 (A) (A) (A) (A) (A) (A) (A) (A) (A) (A) (A) (A)
                 (A) (A) (A) (A) (A) (A) (A) (A) (A) (A) (A) (A)
                 (A) (A) (A) (A) (A) (A) (A) (A) (A) (A) (A) (A)
                 (A) (A) (A) (A) (A) (A) (A) (A) (A) (A) (A) (A)
                 (A) (A) (A) (A) (A) (A) (A) (A) (A) (A) (A) (A)
                 (A) (A) (A) (A) (A) (A) (A) (A) (A) (A) (A) (A)
                 (A) (A) (A) (A) (A) (A) (A) (A) (A) (A) (A) (A)
                 (A) (A) (A) (A) (A) (A) (A) (A) (A) (A) (A) (A)
                 (A) (A) (A) (A) (A) (A) (A) (A) (A) (A) (A) (A)
                 (A) (A) (A) (A) (A) (A) (A) (A) (A) (A) (A) (A)
                 (A) (A) (A) (A) (A) (A) (A) (A) (A) (A) (A) (A)
                 (A) (A) (A) (A) (A) (A) (A) (A) (A) (A) (A) (A)
                 (A) (A) (A) (A) (A) (A) (A) (A) (A) (A) (A) (A)
                 (A) (A) (A) (A) (A) (A) (A) (A) (A) (A) (A) (A)
                 (A) (A) (A) (A) (A) (A) (A) (A) (A) (A) (A) (A)
                 (A) (A) (A) (A) (A) (A) (A) (A) (A) (A) (A) (A)
                 (A) (A) (A) (A) (A) (A) (A) (A) (A) (A) (A) (A)
                 (A) (A) (A) (A) (A) (A) (A) (A) (A) (A) (A) (A)
                 (A) (A) (A) (A) (A) (A) (A) (A) (A) (A) (A) (A)
                 (A) (A)
 The electronic state is 1-A.
 Alpha  occ. eigenvalues -- -102.64670 -19.68390 -19.62081 -19.61721 -10.64134
 Alpha  occ. eigenvalues --  -10.63333 -10.62224 -10.59094 -10.58697 -10.58217
 Alpha  occ. eigenvalues --  -10.57466 -10.57385 -10.57313 -10.57268 -10.57256
 Alpha  occ. eigenvalues --  -10.56237 -10.55393 -10.55124 -10.55110  -9.81667
 Alpha  occ. eigenvalues --   -7.54371  -7.53689  -7.53688  -1.19798  -1.09965
 Alpha  occ. eigenvalues --   -1.09644  -1.00796  -0.96281  -0.93503  -0.91200
 Alpha  occ. eigenvalues --   -0.86002  -0.84976  -0.83900  -0.80986  -0.77984
 Alpha  occ. eigenvalues --   -0.73160  -0.71956  -0.70260  -0.68089  -0.64275
 Alpha  occ. eigenvalues --   -0.61425  -0.59731  -0.59383  -0.58848  -0.57489
 Alpha  occ. eigenvalues --   -0.56481  -0.55202  -0.54771  -0.52124  -0.51498
 Alpha  occ. eigenvalues --   -0.51123  -0.50561  -0.49772  -0.49208  -0.47627
 Alpha  occ. eigenvalues --   -0.46969  -0.46271  -0.45832  -0.45492  -0.45149
 Alpha  occ. eigenvalues --   -0.44508  -0.43815  -0.43248  -0.42020  -0.41676
 Alpha  occ. eigenvalues --   -0.41187  -0.39506  -0.38147  -0.38007  -0.37745
 Alpha  occ. eigenvalues --   -0.37307  -0.33700  -0.32619  -0.31703  -0.26829
 Alpha virt. eigenvalues --   -0.02953  -0.00613   0.04099   0.04944   0.08288
 Alpha virt. eigenvalues --    0.08632   0.10013   0.10992   0.11220   0.11895
 Alpha virt. eigenvalues --    0.12368   0.13906   0.14752   0.15589   0.16150
 Alpha virt. eigenvalues --    0.17068   0.17952   0.18746   0.18844   0.19239
 Alpha virt. eigenvalues --    0.19950   0.20663   0.21573   0.21827   0.22904
 Alpha virt. eigenvalues --    0.23137   0.23999   0.24889   0.26426   0.27317
 Alpha virt. eigenvalues --    0.29259   0.30394   0.30899   0.31579   0.33209
 Alpha virt. eigenvalues --    0.34019   0.35222   0.35478   0.37696   0.39319
 Alpha virt. eigenvalues --    0.39658   0.40758   0.42750   0.43427   0.44570
 Alpha virt. eigenvalues --    0.45465   0.46275   0.47525   0.48715   0.49037
 Alpha virt. eigenvalues --    0.49958   0.50474   0.51540   0.51963   0.52872
 Alpha virt. eigenvalues --    0.53688   0.54381   0.56079   0.57319   0.57783
 Alpha virt. eigenvalues --    0.58600   0.59414   0.59501   0.61107   0.61365
 Alpha virt. eigenvalues --    0.62234   0.63118   0.63166   0.64090   0.64172
 Alpha virt. eigenvalues --    0.65495   0.67215   0.67811   0.68210   0.68506
 Alpha virt. eigenvalues --    0.69429   0.70058   0.70713   0.70969   0.71635
 Alpha virt. eigenvalues --    0.71868   0.72441   0.72663   0.73251   0.73794
 Alpha virt. eigenvalues --    0.75018   0.75182   0.75526   0.76115   0.76177
 Alpha virt. eigenvalues --    0.76919   0.77512   0.78246   0.78571   0.79023
 Alpha virt. eigenvalues --    0.79295   0.80135   0.81490   0.82099   0.82716
 Alpha virt. eigenvalues --    0.83951   0.84769   0.85145   0.85316   0.86058
 Alpha virt. eigenvalues --    0.87440   0.88473   0.89710   0.90522   0.91695
 Alpha virt. eigenvalues --    0.93958   0.94898   0.98357   0.99420   1.01284
 Alpha virt. eigenvalues --    1.02140   1.04825   1.06633   1.08355   1.09209
 Alpha virt. eigenvalues --    1.10051   1.10763   1.12782   1.13508   1.15301
 Alpha virt. eigenvalues --    1.15719   1.16664   1.17412   1.18693   1.18709
 Alpha virt. eigenvalues --    1.21448   1.22172   1.23794   1.26661   1.27252
 Alpha virt. eigenvalues --    1.28758   1.29089   1.30017   1.30111   1.32149
 Alpha virt. eigenvalues --    1.33298   1.33922   1.34584   1.35596   1.36327
 Alpha virt. eigenvalues --    1.38779   1.39828   1.40975   1.42020   1.42363
 Alpha virt. eigenvalues --    1.44686   1.45296   1.47244   1.47834   1.51784
 Alpha virt. eigenvalues --    1.52651   1.53903   1.55120   1.56372   1.58217
 Alpha virt. eigenvalues --    1.59825   1.60510   1.61805   1.62776   1.64917
 Alpha virt. eigenvalues --    1.66528   1.68300   1.70369   1.71660   1.72009
 Alpha virt. eigenvalues --    1.73087   1.74235   1.75589   1.76169   1.77250
 Alpha virt. eigenvalues --    1.77543   1.77737   1.78606   1.79556   1.79914
 Alpha virt. eigenvalues --    1.80413   1.81122   1.82419   1.83357   1.84177
 Alpha virt. eigenvalues --    1.84764   1.85105   1.86601   1.87932   1.89086
 Alpha virt. eigenvalues --    1.89131   1.90131   1.90370   1.90740   1.92064
 Alpha virt. eigenvalues --    1.93107   1.93596   1.94677   1.96449   1.97349
 Alpha virt. eigenvalues --    1.97940   1.98910   2.01046   2.02179   2.02646
 Alpha virt. eigenvalues --    2.04682   2.05088   2.07581   2.09596   2.10490
 Alpha virt. eigenvalues --    2.12099   2.12983   2.14151   2.14785   2.16670
 Alpha virt. eigenvalues --    2.18823   2.19220   2.21120   2.22023   2.24162
 Alpha virt. eigenvalues --    2.25242   2.26228   2.26476   2.27124   2.29194
 Alpha virt. eigenvalues --    2.30348   2.30711   2.32168   2.33027   2.34916
 Alpha virt. eigenvalues --    2.36343   2.38006   2.38362   2.39948   2.41337
 Alpha virt. eigenvalues --    2.41907   2.43327   2.44852   2.47102   2.47566
 Alpha virt. eigenvalues --    2.49926   2.50226   2.52504   2.55884   2.58887
 Alpha virt. eigenvalues --    2.60264   2.60659   2.61979   2.63877   2.65615
 Alpha virt. eigenvalues --    2.66195   2.68079   2.70037   2.75572   2.75966
 Alpha virt. eigenvalues --    2.78110   2.79790   2.81554   2.83099   2.85450
 Alpha virt. eigenvalues --    2.88231   2.89384   2.91832   2.93366   2.93659
 Alpha virt. eigenvalues --    2.94824   2.95437   2.99045   3.01377   3.02355
 Alpha virt. eigenvalues --    3.03121   3.03519   3.05049   3.07054   3.07861
 Alpha virt. eigenvalues --    3.08309   3.10313   3.13932   3.20877   3.25873
 Alpha virt. eigenvalues --    3.27180   3.33238   3.36526   3.54041   3.58637
 Alpha virt. eigenvalues --    3.60911   3.62004   3.69315   3.89697   3.91530
          Condensed to atoms (all electrons):
               1          2          3          4          5          6
     1  C    5.110305   0.308372   0.103448  -0.161670   0.109833   0.194846
     2  C    0.308372   5.181865   0.259887   0.035126  -0.153659   0.103838
     3  C    0.103448   0.259887   5.523499   0.123293   0.023407  -0.151448
     4  C   -0.161670   0.035126   0.123293   5.810624   0.197260   0.102467
     5  C    0.109833  -0.153659   0.023407   0.197260   5.302222   0.262010
     6  C    0.194846   0.103838  -0.151448   0.102467   0.262010   5.142781
     7  H    0.453573  -0.065541   0.014725  -0.000995   0.013702  -0.073092
     8  H   -0.063548   0.452749  -0.065568   0.016838  -0.002004   0.013306
     9  H    0.014531  -0.002806   0.017187  -0.069758   0.465270  -0.071291
    10  H   -0.073961   0.013667  -0.001204   0.015510  -0.068671   0.457247
    11  C   -0.003383   0.024997   0.012377   0.186888  -0.145774   0.022699
    12  C    0.016857  -0.121296   0.224647   0.011929   0.026589  -0.003054
    13  C    0.000137  -0.003087  -0.142301   0.043935   0.025072  -0.000890
    14  H    0.000001   0.000020  -0.001925   0.015315  -0.000271  -0.000003
    15  C   -0.000607   0.015319   0.084052  -0.127491  -0.004352   0.000326
    16  H    0.000005  -0.000360   0.016921  -0.001764   0.000025   0.000002
    17  O   -0.000019  -0.000039   0.003823  -0.118793   0.007165   0.001459
    18  Cl   0.000083  -0.004202  -0.073630   0.003455  -0.000154   0.000031
    19  C   -0.000001   0.000010   0.000245   0.006244  -0.001279   0.000034
    20  C    0.000000   0.000001  -0.000078   0.000083  -0.000103   0.000002
    21  H    0.000000   0.000000  -0.000001   0.000047   0.000001   0.000000
    22  C    0.000000  -0.000002  -0.000095  -0.001666   0.000396  -0.000005
    23  H    0.000000   0.000000   0.000000   0.000052  -0.000005   0.000000
    24  H    0.000000   0.000000   0.000002   0.000163  -0.000040  -0.000001
    25  H   -0.000001   0.000004  -0.000010  -0.000507  -0.000289   0.000025
    26  C    0.000000   0.000000   0.000007   0.000534  -0.000292  -0.000028
    27  H    0.000000   0.000000  -0.000001  -0.000212   0.000031   0.000007
    28  H    0.000000   0.000000  -0.000001  -0.000011   0.000012   0.000000
    29  H    0.000000   0.000000   0.000015   0.000301  -0.000555   0.000011
    30  C    0.000000  -0.000002   0.000286  -0.000438  -0.000033   0.000001
    31  H    0.000000   0.000000   0.000003  -0.000020  -0.000002   0.000000
    32  H   -0.000001   0.000003  -0.001513  -0.000699   0.001056  -0.000010
    33  O    0.000117  -0.000508   0.001989  -0.000482  -0.000971  -0.000257
    34  H   -0.000056  -0.000620   0.006224   0.001691  -0.001625   0.000086
    35  H    0.000530  -0.001074   0.005816  -0.004416   0.003922   0.000580
    36  O    0.000020  -0.000009  -0.000058  -0.000597   0.000472  -0.001228
    37  H    0.000005  -0.000009  -0.000233  -0.000081   0.003783  -0.000006
    38  H   -0.000014  -0.000048   0.000263  -0.005693   0.008314  -0.000343
               7          8          9         10         11         12
     1  C    0.453573  -0.063548   0.014531  -0.073961  -0.003383   0.016857
     2  C   -0.065541   0.452749  -0.002806   0.013667   0.024997  -0.121296
     3  C    0.014725  -0.065568   0.017187  -0.001204   0.012377   0.224647
     4  C   -0.000995   0.016838  -0.069758   0.015510   0.186888   0.011929
     5  C    0.013702  -0.002004   0.465270  -0.068671  -0.145774   0.026589
     6  C   -0.073092   0.013306  -0.071291   0.457247   0.022699  -0.003054
     7  H    0.641389  -0.011436  -0.000199  -0.010768   0.000044  -0.000431
     8  H   -0.011436   0.638831   0.000014  -0.000205  -0.000196  -0.028292
     9  H   -0.000199   0.000014   0.637756  -0.011874  -0.034324   0.000025
    10  H   -0.010768  -0.000205  -0.011874   0.641232  -0.000399   0.000042
    11  C    0.000044  -0.000196  -0.034324  -0.000399   5.287936  -0.190845
    12  C   -0.000431  -0.028292   0.000025   0.000042  -0.190845   5.427177
    13  C    0.000001  -0.000075   0.000686   0.000003   0.190921   0.124839
    14  H    0.000000   0.000002   0.000010   0.000000  -0.086917   0.016669
    15  C    0.000002   0.000517  -0.000116   0.000001   0.159615   0.299762
    16  H    0.000000  -0.000011   0.000000   0.000000   0.015830  -0.078322
    17  O    0.000000   0.000001   0.008362  -0.000012   0.363868  -0.000152
    18  Cl  -0.000023   0.022146   0.000001   0.000000   0.000765   0.241568
    19  C    0.000000   0.000000  -0.000896   0.000000  -0.059617  -0.000035
    20  C    0.000000   0.000000  -0.000261   0.000000  -0.002675  -0.000014
    21  H    0.000000   0.000000   0.000000   0.000000   0.000764   0.000001
    22  C    0.000000   0.000000   0.000392   0.000000  -0.004348  -0.000017
    23  H    0.000000   0.000000  -0.000008   0.000000   0.000418   0.000000
    24  H    0.000000   0.000000  -0.000011   0.000000   0.000798  -0.000027
    25  H    0.000000   0.000000  -0.000429   0.000000   0.003182  -0.000018
    26  C    0.000000   0.000000   0.000089   0.000000   0.006138   0.000002
    27  H    0.000000   0.000000   0.000543  -0.000001   0.000051   0.000000
    28  H    0.000000   0.000000   0.000008   0.000000  -0.000116   0.000000
    29  H    0.000000   0.000000   0.000611   0.000000  -0.001530  -0.000001
    30  C    0.000000   0.000000   0.000067   0.000000  -0.001542  -0.000114
    31  H    0.000000   0.000000   0.000001   0.000000  -0.000457  -0.000002
    32  H    0.000000   0.000000   0.000112  -0.000001   0.003936   0.000633
    33  O    0.000000  -0.000009  -0.000045  -0.000002   0.003352  -0.001572
    34  H   -0.000001   0.000011  -0.000047   0.000001   0.000717  -0.001367
    35  H   -0.000007  -0.000024   0.000106   0.000022   0.000968  -0.001159
    36  O    0.000000   0.000000   0.008534  -0.000015   0.000475   0.000001
    37  H    0.000000   0.000000  -0.001458   0.000009   0.000951   0.000007
    38  H    0.000000   0.000000   0.001318   0.000026  -0.003311   0.000036
              13         14         15         16         17         18
     1  C    0.000137   0.000001  -0.000607   0.000005  -0.000019   0.000083
     2  C   -0.003087   0.000020   0.015319  -0.000360  -0.000039  -0.004202
     3  C   -0.142301  -0.001925   0.084052   0.016921   0.003823  -0.073630
     4  C    0.043935   0.015315  -0.127491  -0.001764  -0.118793   0.003455
     5  C    0.025072  -0.000271  -0.004352   0.000025   0.007165  -0.000154
     6  C   -0.000890  -0.000003   0.000326   0.000002   0.001459   0.000031
     7  H    0.000001   0.000000   0.000002   0.000000   0.000000  -0.000023
     8  H   -0.000075   0.000002   0.000517  -0.000011   0.000001   0.022146
     9  H    0.000686   0.000010  -0.000116   0.000000   0.008362   0.000001
    10  H    0.000003   0.000000   0.000001   0.000000  -0.000012   0.000000
    11  C    0.190921  -0.086917   0.159615   0.015830   0.363868   0.000765
    12  C    0.124839   0.016669   0.299762  -0.078322  -0.000152   0.241568
    13  C    5.406973   0.468572   0.160610  -0.059590  -0.082962   0.003597
    14  H    0.468572   0.631375  -0.065699  -0.013441  -0.006612  -0.000125
    15  C    0.160610  -0.065699   5.103074   0.451485   0.004860  -0.063534
    16  H   -0.059590  -0.013441   0.451485   0.636063  -0.000058   0.001155
    17  O   -0.082962  -0.006612   0.004860  -0.000058   8.125085   0.000000
    18  Cl   0.003597  -0.000125  -0.063534   0.001155   0.000000  16.966474
    19  C   -0.000525   0.003568   0.000492  -0.000025   0.199346   0.000000
    20  C   -0.004260   0.004168  -0.000427   0.000011  -0.056602   0.000000
    21  H   -0.000535   0.000360  -0.000026  -0.000002   0.003414   0.000000
    22  C   -0.003112  -0.006126   0.000074   0.000012  -0.046036   0.000000
    23  H   -0.000290   0.000152  -0.000001  -0.000001   0.004168   0.000000
    24  H    0.001450   0.003687   0.000451   0.000017  -0.002867   0.000000
    25  H   -0.000376  -0.000091  -0.000009   0.000002  -0.006140   0.000000
    26  C    0.000322   0.000502   0.000001   0.000000  -0.050639   0.000000
    27  H    0.000012  -0.000007  -0.000001   0.000000   0.000906   0.000000
    28  H    0.000039   0.000021  -0.000001   0.000000   0.004255   0.000000
    29  H   -0.000087  -0.000042   0.000003   0.000000  -0.003420   0.000000
    30  C   -0.006463   0.002911   0.000380   0.000018   0.001821   0.000000
    31  H    0.000045   0.000099   0.000046  -0.000001   0.000258   0.000000
    32  H    0.000826  -0.000944  -0.001909  -0.000021   0.005462   0.000001
    33  O    0.001064  -0.000018  -0.001161  -0.000003  -0.000546  -0.000003
    34  H    0.001760   0.000002   0.004360   0.000102  -0.000251  -0.000106
    35  H   -0.002047  -0.000015   0.000858   0.000000   0.000567  -0.000003
    36  O   -0.000098  -0.000002   0.000002   0.000000  -0.010190   0.000000
    37  H    0.000086   0.000002  -0.000011   0.000000  -0.000274   0.000000
    38  H   -0.000491  -0.000058  -0.000060   0.000001   0.035783   0.000000
              19         20         21         22         23         24
     1  C   -0.000001   0.000000   0.000000   0.000000   0.000000   0.000000
     2  C    0.000010   0.000001   0.000000  -0.000002   0.000000   0.000000
     3  C    0.000245  -0.000078  -0.000001  -0.000095   0.000000   0.000002
     4  C    0.006244   0.000083   0.000047  -0.001666   0.000052   0.000163
     5  C   -0.001279  -0.000103   0.000001   0.000396  -0.000005  -0.000040
     6  C    0.000034   0.000002   0.000000  -0.000005   0.000000  -0.000001
     7  H    0.000000   0.000000   0.000000   0.000000   0.000000   0.000000
     8  H    0.000000   0.000000   0.000000   0.000000   0.000000   0.000000
     9  H   -0.000896  -0.000261   0.000000   0.000392  -0.000008  -0.000011
    10  H    0.000000   0.000000   0.000000   0.000000   0.000000   0.000000
    11  C   -0.059617  -0.002675   0.000764  -0.004348   0.000418   0.000798
    12  C   -0.000035  -0.000014   0.000001  -0.000017   0.000000  -0.000027
    13  C   -0.000525  -0.004260  -0.000535  -0.003112  -0.000290   0.001450
    14  H    0.003568   0.004168   0.000360  -0.006126   0.000152   0.003687
    15  C    0.000492  -0.000427  -0.000026   0.000074  -0.000001   0.000451
    16  H   -0.000025   0.000011  -0.000002   0.000012  -0.000001   0.000017
    17  O    0.199346  -0.056602   0.003414  -0.046036   0.004168  -0.002867
    18  Cl   0.000000   0.000000   0.000000   0.000000   0.000000   0.000000
    19  C    5.083323   0.277170  -0.057598   0.394765  -0.017158  -0.020700
    20  C    0.277170   4.973619   0.411959  -0.081895  -0.004544  -0.006553
    21  H   -0.057598   0.411959   0.636798  -0.001689   0.002734  -0.000437
    22  C    0.394765  -0.081895  -0.001689   4.699265   0.384449   0.395193
    23  H   -0.017158  -0.004544   0.002734   0.384449   0.605096  -0.018498
    24  H   -0.020700  -0.006553  -0.000437   0.395193  -0.018498   0.605024
    25  H   -0.003981   0.008249   0.000109   0.348670  -0.012391  -0.017564
    26  C    0.407743  -0.069613  -0.001247  -0.069232  -0.003126   0.007224
    27  H   -0.016587  -0.004754  -0.000149   0.009315   0.000018  -0.000444
    28  H   -0.016612  -0.004272   0.002074  -0.003450   0.002542  -0.000043
    29  H   -0.015305   0.007554  -0.000107  -0.008406  -0.001103   0.000299
    30  C   -0.041278   0.646435  -0.031437   0.007149  -0.000126   0.000460
    31  H    0.010191  -0.016217  -0.014543  -0.000312   0.000000  -0.000037
    32  H   -0.028807  -0.003167   0.007572   0.001029  -0.000030  -0.000009
    33  O   -0.000244   0.000739  -0.000002   0.000002   0.000000   0.000000
    34  H    0.000078  -0.000170  -0.000002  -0.000004   0.000000   0.000004
    35  H    0.000056  -0.000167   0.000001   0.000003   0.000000   0.000000
    36  O    0.003658  -0.000015   0.000002  -0.013819   0.000128   0.000140
    37  H   -0.000225  -0.000005   0.000000   0.000496  -0.000013  -0.000001
    38  H   -0.009374   0.001745  -0.000051   0.000120   0.000153  -0.000472
              25         26         27         28         29         30
     1  C   -0.000001   0.000000   0.000000   0.000000   0.000000   0.000000
     2  C    0.000004   0.000000   0.000000   0.000000   0.000000  -0.000002
     3  C   -0.000010   0.000007  -0.000001  -0.000001   0.000015   0.000286
     4  C   -0.000507   0.000534  -0.000212  -0.000011   0.000301  -0.000438
     5  C   -0.000289  -0.000292   0.000031   0.000012  -0.000555  -0.000033
     6  C    0.000025  -0.000028   0.000007   0.000000   0.000011   0.000001
     7  H    0.000000   0.000000   0.000000   0.000000   0.000000   0.000000
     8  H    0.000000   0.000000   0.000000   0.000000   0.000000   0.000000
     9  H   -0.000429   0.000089   0.000543   0.000008   0.000611   0.000067
    10  H    0.000000   0.000000  -0.000001   0.000000   0.000000   0.000000
    11  C    0.003182   0.006138   0.000051  -0.000116  -0.001530  -0.001542
    12  C   -0.000018   0.000002   0.000000   0.000000  -0.000001  -0.000114
    13  C   -0.000376   0.000322   0.000012   0.000039  -0.000087  -0.006463
    14  H   -0.000091   0.000502  -0.000007   0.000021  -0.000042   0.002911
    15  C   -0.000009   0.000001  -0.000001  -0.000001   0.000003   0.000380
    16  H    0.000002   0.000000   0.000000   0.000000   0.000000   0.000018
    17  O   -0.006140  -0.050639   0.000906   0.004255  -0.003420   0.001821
    18  Cl   0.000000   0.000000   0.000000   0.000000   0.000000   0.000000
    19  C   -0.003981   0.407743  -0.016587  -0.016612  -0.015305  -0.041278
    20  C    0.008249  -0.069613  -0.004754  -0.004272   0.007554   0.646435
    21  H    0.000109  -0.001247  -0.000149   0.002074  -0.000107  -0.031437
    22  C    0.348670  -0.069232   0.009315  -0.003450  -0.008406   0.007149
    23  H   -0.012391  -0.003126   0.000018   0.002542  -0.001103  -0.000126
    24  H   -0.017564   0.007224  -0.000444  -0.000043   0.000299   0.000460
    25  H    0.618884  -0.011913   0.000217  -0.000659   0.004626  -0.000324
    26  C   -0.011913   4.640000   0.377572   0.387275   0.379272  -0.013027
    27  H    0.000217   0.377572   0.611135  -0.016446  -0.018687   0.005068
    28  H   -0.000659   0.387275  -0.016446   0.612655  -0.016342  -0.000104
    29  H    0.004626   0.379272  -0.018687  -0.016342   0.599042   0.000102
    30  C   -0.000324  -0.013027   0.005068  -0.000104   0.000102   4.806086
    31  H    0.000009  -0.000051  -0.000180  -0.000013   0.000013   0.386568
    32  H   -0.000004  -0.000511   0.000769   0.000076  -0.000021   0.331630
    33  O    0.000000   0.000007  -0.000007   0.000000   0.000000  -0.020614
    34  H    0.000000   0.000001  -0.000002   0.000000   0.000000   0.003298
    35  H    0.000000  -0.000009   0.000013   0.000000   0.000000   0.001263
    36  O    0.034177  -0.009047  -0.000015   0.000082   0.023197   0.000000
    37  H    0.000232   0.000703   0.000004  -0.000015  -0.001853  -0.000001
    38  H   -0.002129   0.002544  -0.000751   0.000130  -0.004882  -0.000039
              31         32         33         34         35         36
     1  C    0.000000  -0.000001   0.000117  -0.000056   0.000530   0.000020
     2  C    0.000000   0.000003  -0.000508  -0.000620  -0.001074  -0.000009
     3  C    0.000003  -0.001513   0.001989   0.006224   0.005816  -0.000058
     4  C   -0.000020  -0.000699  -0.000482   0.001691  -0.004416  -0.000597
     5  C   -0.000002   0.001056  -0.000971  -0.001625   0.003922   0.000472
     6  C    0.000000  -0.000010  -0.000257   0.000086   0.000580  -0.001228
     7  H    0.000000   0.000000   0.000000  -0.000001  -0.000007   0.000000
     8  H    0.000000   0.000000  -0.000009   0.000011  -0.000024   0.000000
     9  H    0.000001   0.000112  -0.000045  -0.000047   0.000106   0.008534
    10  H    0.000000  -0.000001  -0.000002   0.000001   0.000022  -0.000015
    11  C   -0.000457   0.003936   0.003352   0.000717   0.000968   0.000475
    12  C   -0.000002   0.000633  -0.001572  -0.001367  -0.001159   0.000001
    13  C    0.000045   0.000826   0.001064   0.001760  -0.002047  -0.000098
    14  H    0.000099  -0.000944  -0.000018   0.000002  -0.000015  -0.000002
    15  C    0.000046  -0.001909  -0.001161   0.004360   0.000858   0.000002
    16  H   -0.000001  -0.000021  -0.000003   0.000102   0.000000   0.000000
    17  O    0.000258   0.005462  -0.000546  -0.000251   0.000567  -0.010190
    18  Cl   0.000000   0.000001  -0.000003  -0.000106  -0.000003   0.000000
    19  C    0.010191  -0.028807  -0.000244   0.000078   0.000056   0.003658
    20  C   -0.016217  -0.003167   0.000739  -0.000170  -0.000167  -0.000015
    21  H   -0.014543   0.007572  -0.000002  -0.000002   0.000001   0.000002
    22  C   -0.000312   0.001029   0.000002  -0.000004   0.000003  -0.013819
    23  H    0.000000  -0.000030   0.000000   0.000000   0.000000   0.000128
    24  H   -0.000037  -0.000009   0.000000   0.000004   0.000000   0.000140
    25  H    0.000009  -0.000004   0.000000   0.000000   0.000000   0.034177
    26  C   -0.000051  -0.000511   0.000007   0.000001  -0.000009  -0.009047
    27  H   -0.000180   0.000769  -0.000007  -0.000002   0.000013  -0.000015
    28  H   -0.000013   0.000076   0.000000   0.000000   0.000000   0.000082
    29  H    0.000013  -0.000021   0.000000   0.000000   0.000000   0.023197
    30  C    0.386568   0.331630  -0.020614   0.003298   0.001263   0.000000
    31  H    0.613805  -0.039120  -0.000043   0.000014  -0.000001   0.000000
    32  H   -0.039120   0.620098   0.060813  -0.006514  -0.002986   0.000003
    33  O   -0.000043   0.060813   7.585231   0.342340   0.348906   0.000000
    34  H    0.000014  -0.006514   0.342340   0.499832  -0.036731   0.000000
    35  H   -0.000001  -0.002986   0.348906  -0.036731   0.491836   0.000000
    36  O    0.000000   0.000003   0.000000   0.000000   0.000000   7.652714
    37  H    0.000000   0.000000   0.000000   0.000000   0.000000   0.332695
    38  H    0.000001  -0.000109  -0.000003   0.000010  -0.000003   0.319700
              37         38
     1  C    0.000005  -0.000014
     2  C   -0.000009  -0.000048
     3  C   -0.000233   0.000263
     4  C   -0.000081  -0.005693
     5  C    0.003783   0.008314
     6  C   -0.000006  -0.000343
     7  H    0.000000   0.000000
     8  H    0.000000   0.000000
     9  H   -0.001458   0.001318
    10  H    0.000009   0.000026
    11  C    0.000951  -0.003311
    12  C    0.000007   0.000036
    13  C    0.000086  -0.000491
    14  H    0.000002  -0.000058
    15  C   -0.000011  -0.000060
    16  H    0.000000   0.000001
    17  O   -0.000274   0.035783
    18  Cl   0.000000   0.000000
    19  C   -0.000225  -0.009374
    20  C   -0.000005   0.001745
    21  H    0.000000  -0.000051
    22  C    0.000496   0.000120
    23  H   -0.000013   0.000153
    24  H   -0.000001  -0.000472
    25  H    0.000232  -0.002129
    26  C    0.000703   0.002544
    27  H    0.000004  -0.000751
    28  H   -0.000015   0.000130
    29  H   -0.001853  -0.004882
    30  C   -0.000001  -0.000039
    31  H    0.000000   0.000001
    32  H    0.000000  -0.000109
    33  O    0.000000  -0.000003
    34  H    0.000000   0.000010
    35  H    0.000000  -0.000003
    36  O    0.332695   0.319700
    37  H    0.503768  -0.022135
    38  H   -0.022135   0.496905
 Mulliken charges:
               1
     1  C   -0.009402
     2  C   -0.042596
     3  C    0.015949
     4  C   -0.076461
     5  C   -0.070464
     6  C   -0.000102
     7  H    0.039057
     8  H    0.026954
     9  H    0.037902
    10  H    0.039353
    11  C    0.247742
    12  C    0.035932
    13  C   -0.123761
    14  H    0.034860
    15  C   -0.020883
    16  H    0.031951
    17  O   -0.384990
    18  Cl  -0.097494
    19  C   -0.096676
    20  C   -0.075944
    21  H    0.041989
    22  C   -0.001116
    23  H    0.057383
    24  H    0.052791
    25  H    0.038450
    26  C    0.018800
    27  H    0.052583
    28  H    0.048915
    29  H    0.057295
    30  C   -0.078001
    31  H    0.059945
    32  H    0.052358
    33  O   -0.318069
    34  H    0.186964
    35  H    0.193198
    36  O   -0.340907
    37  H    0.183580
    38  H    0.182916
 Sum of Mulliken charges =   0.00000
 Mulliken charges with hydrogens summed into heavy atoms:
               1
     1  C    0.029655
     2  C   -0.015642
     3  C    0.015949
     4  C   -0.076461
     5  C   -0.032563
     6  C    0.039250
    11  C    0.247742
    12  C    0.035932
    13  C   -0.088901
    15  C    0.011068
    17  O   -0.384990
    18  Cl  -0.097494
    19  C   -0.096676
    20  C   -0.033955
    22  C    0.147509
    26  C    0.177592
    30  C    0.034303
    33  O    0.062093
    36  O    0.025589
 Electronic spatial extent (au):  <R**2>=           5696.0511
 Charge=              0.0000 electrons
 Dipole moment (field-independent basis, Debye):
    X=              0.3188    Y=             -0.2220    Z=             -1.7281  Tot=              1.7712
 Quadrupole moment (field-independent basis, Debye-Ang):
   XX=           -116.4840   YY=           -115.3021   ZZ=           -130.2877
   XY=            -14.4903   XZ=             -0.5254   YZ=              8.4167
 Traceless Quadrupole moment (field-independent basis, Debye-Ang):
   XX=              4.2073   YY=              5.3892   ZZ=             -9.5965
   XY=            -14.4903   XZ=             -0.5254   YZ=              8.4167
 Octapole moment (field-independent basis, Debye-Ang**2):
  XXX=             17.8686  YYY=             -6.0743  ZZZ=            -33.7616  XYY=            -25.6404
  XXY=             -9.1889  XXZ=              8.1754  XZZ=              4.3011  YZZ=             14.2664
  YYZ=             11.5439  XYZ=              5.3507
 Hexadecapole moment (field-independent basis, Debye-Ang**3):
 XXXX=          -4336.1467 YYYY=          -1883.6309 ZZZZ=          -1086.8097 XXXY=           -105.6377
 XXXZ=            -37.6175 YYYX=            -62.6318 YYYZ=             34.1049 ZZZX=             13.1561
 ZZZY=              1.0620 XXYY=          -1086.2446 XXZZ=           -967.6256 YYZZ=           -475.4985
 XXYZ=             44.7119 YYXZ=             21.3069 ZZXY=             -6.7407
 N-N= 1.631777769226D+03 E-N=-6.234674843990D+03  KE= 1.258872220156D+03
   1 Symmetry operations used in ECPInt.
 ECPInt:  NShTT=   15051 NPrTT=   54599 LenC2=   14141 LenP2D=   36444.
 LDataN:  DoStor=T MaxTD1= 5 Len=  102
 D1PCM: C-PCM CHGder 1st derivatives, ID1Alg=3 FixD1E=F DoIter=F DoCFld=F I1PDM=0.
 Calling FoFJK, ICntrl=      2127 FMM=F ISym2X=0 I1Cent= 0 IOpClX= 0 NMat=1 NMatS=1 NMatT=0.
 ***** Axes restored to original set *****
 -------------------------------------------------------------------
 Center     Atomic                   Forces (Hartrees/Bohr)
 Number     Number              X              Y              Z
 -------------------------------------------------------------------
      1        6           0.000011240    0.000026620   -0.000007438
      2        6           0.000005533    0.000010807   -0.000018966
      3        6          -0.000013986    0.000004050   -0.000012290
      4        6           0.000001033    0.000010248    0.000008273
      5        6           0.000005282    0.000028811    0.000001060
      6        6           0.000005691    0.000023318    0.000010113
      7        1           0.000010399   -0.000005460   -0.000004225
      8        1           0.000007353    0.000003548   -0.000003786
      9        1           0.000001785    0.000003937    0.000004583
     10        1           0.000020985   -0.000015005   -0.000004825
     11        6          -0.000006000    0.000002078    0.000002776
     12        6          -0.000001697    0.000003200   -0.000023270
     13        6          -0.000006726   -0.000020997   -0.000018035
     14        1          -0.000011174    0.000004683   -0.000007894
     15        6           0.000003408   -0.000014262   -0.000027098
     16        1           0.000017266    0.000018694    0.000001451
     17        8          -0.000006029    0.000012864   -0.000000085
     18       17          -0.000002693    0.000001966   -0.000020110
     19        6           0.000013850   -0.000002903   -0.000001408
     20        6           0.000001542   -0.000016985    0.000000726
     21        1          -0.000001401   -0.000017579    0.000008766
     22        6           0.000000321   -0.000005357   -0.000002235
     23        1           0.000007006   -0.000007198   -0.000005836
     24        1          -0.000012680   -0.000005480   -0.000004347
     25        1          -0.000006601    0.000002490   -0.000005361
     26        6           0.000004171   -0.000000165    0.000014169
     27        1          -0.000002955   -0.000004357    0.000022794
     28        1          -0.000004194   -0.000004962    0.000012385
     29        1           0.000006215    0.000000736    0.000011653
     30        6          -0.000009037   -0.000021063    0.000017300
     31        1          -0.000008924   -0.000006618   -0.000000174
     32        1          -0.000007584    0.000000621   -0.000008232
     33        8          -0.000013644   -0.000000603    0.000028556
     34        1           0.000013622   -0.000005757    0.000010173
     35        1          -0.000001419   -0.000002955    0.000006865
     36        8          -0.000003844   -0.000006913    0.000006902
     37        1          -0.000002864    0.000005208   -0.000004990
     38        1          -0.000013246    0.000000742    0.000012060
 -------------------------------------------------------------------
 Cartesian Forces:  Max     0.000028811 RMS     0.000010962

 GradGradGradGradGradGradGradGradGradGradGradGradGradGradGradGradGradGrad
 Berny optimization.
 FormGI is forming the generalized inverse of G from B-inverse, IUseBI=4.
 Internal  Forces:  Max     0.000200484 RMS     0.000037259
 Search for a local minimum.
 Step number   1 out of a maximum of  204
 All quantities printed in internal units (Hartrees-Bohrs-Radians)
 Mixed Optimization -- En-DIIS/RFO-DIIS
 Second derivative matrix not updated -- first step.
 ITU=  0
     Eigenvalues ---    0.00230   0.00230   0.00356   0.00361   0.00433
     Eigenvalues ---    0.00611   0.01098   0.01408   0.01448   0.01458
     Eigenvalues ---    0.01636   0.01654   0.01712   0.01731   0.01771
     Eigenvalues ---    0.01952   0.02008   0.02029   0.02033   0.02115
     Eigenvalues ---    0.02120   0.02154   0.02156   0.02174   0.02206
     Eigenvalues ---    0.02275   0.02292   0.02321   0.02411   0.02996
     Eigenvalues ---    0.03306   0.04537   0.04781   0.05378   0.05583
     Eigenvalues ---    0.05703   0.05773   0.05882   0.06926   0.08657
     Eigenvalues ---    0.12343   0.12931   0.15420   0.15880   0.15978
     Eigenvalues ---    0.15990   0.15998   0.15999   0.16000   0.16000
     Eigenvalues ---    0.16000   0.16000   0.16000   0.16000   0.16000
     Eigenvalues ---    0.16000   0.16000   0.16000   0.16000   0.16000
     Eigenvalues ---    0.18035   0.20140   0.22000   0.22006   0.22489
     Eigenvalues ---    0.22557   0.24479   0.24483   0.24973   0.24987
     Eigenvalues ---    0.25000   0.29334   0.29367   0.31177   0.31309
     Eigenvalues ---    0.33745   0.33770   0.33842   0.33897   0.33905
     Eigenvalues ---    0.34110   0.34179   0.34266   0.34580   0.34731
     Eigenvalues ---    0.34731   0.34822   0.34873   0.34914   0.35266
[...]
 0001261,0.00007858,0.00000015,0.00001278,-0.00000265,0.00000356,-0.000
 01044,-0.00000320,0.00003064,0.00000048,0.00000112,-0.00004720,-0.0000
 7908,0.00008448,-0.00013335,-0.00000845,-0.00002045,0.00000005,0.00000
 240,-0.00001542,0.00000484,0.00004505,0.00005571,0.00000955,0.00007011
 ,0.00052627,0.00016121,0.00020598,-0.00017921,-0.00013322,-0.00154498,
 -0.00022788,-0.00037673,-0.05116624,-0.07516840,-0.13664209,0.05157793
 ,0.00017178,0.00021306,0.00014510,0.00035851,-0.00054234,-0.00024639,0
 .00070380,0.00034385,0.00028723,-0.00033742,-0.00011562,-0.00073136,0.
 00010490,-0.00088608,-0.00032847,-0.00034559,0.00002492,0.00005786,-0.
 00000891,0.00002922,0.00000611,-0.00004296,0.00003654,0.00003050,-0.00
 000322,0.00001630,0.00003329,-0.00002375,0.00003639,0.00001501,-0.0008
 7483,0.00036886,0.00025245,0.00007385,0.00068117,0.00047239,0.00081218
 ,0.00028940,0.00009777,0.00001838,-0.00001330,-0.00011451,-0.00027103,
 -0.00048231,0.00058868,-0.00003617,-0.00005203,-0.00020677,0.00024648,
 -0.00025980,-0.00013589,-0.00022904,-0.00018253,-0.00008027,-0.0003447
 0,0.00015249,0.00007433,0.00006514,-0.00003891,-0.00007199,0.00004594,
 0.00000574,-0.00000516,0.00006809,-0.00005337,-0.00001899,0.00002084,0
 .00000499,-0.00001506,-0.00001525,0.00002190,0.00001607,-0.00001048,0.
 00000331,0.00001447,0.00005423,-0.00004351,0.00000948,-0.00001285,0.00
 000337,-0.00000552,0.00002351,0.00000864,-0.00000185,-0.00001614,-0.00
 000765,0.00000054,-0.00008295,-0.00008260,0.00002382,0.00016029,-0.000
 06127,-0.00001626,-0.00054130,0.00020432,0.00035747,-0.05514813,-0.145
 22333,-0.16047578,0.07039761,0.16999576,0.00005918,-0.00025098,-0.0000
 8237,-0.00020781,-0.00000315,0.00006409,0.00013577,0.00107798,-0.00035
 196,-0.00021749,0.00093480,-0.00068881,0.00004300,0.00019881,0.0000898
 0,0.00019453,-0.00023465,-0.00013716,0.00001013,-0.00004723,-0.0000152
 4,0.00004830,-0.00000595,0.00001481,-0.00003162,-0.00006630,0.00001537
 ,0.00001612,-0.00004746,-0.00001248,0.00214295,0.00206099,-0.00081684,
 -0.00200786,0.00026096,0.00001215,0.00125201,-0.00039574,-0.00108611,-
 0.00006814,-0.00002373,0.00016549,0.00004453,-0.00104320,-0.00041272,0
 .00003227,0.00001889,0.00014803,-0.00170794,-0.00052070,-0.00015211,0.
 00078191,0.00020516,0.00014891,0.00072533,-0.00031731,-0.00006210,0.00
 000638,-0.00011862,-0.00000973,0.00000886,0.00005144,-0.00004252,-0.00
 012189,0.00010843,0.00003424,-0.00004248,-0.00000555,0.00003103,0.0000
 1647,-0.00004989,-0.00004882,0.00001270,-0.00000442,-0.00002857,-0.000
 08703,0.00008755,0.00001521,0.00000533,-0.00001282,-0.00000324,-0.0000
 4456,-0.00002105,-0.00000623,0.00002234,0.00001266,-0.00000171,-0.0000
 5491,0.00005408,-0.00017623,-0.00004005,0.00002178,-0.00000379,-0.0005
 2653,0.00016315,0.00053751,-0.13538127,-0.21361310,-0.37788312,0.13370
 724,0.20046134,0.37701619,-0.00025284,-0.00004495,0.00008643,-0.000457
 80,0.00010227,0.00012703,0.00026191,-0.00009298,-0.00036790,0.00023209
 ,0.00000889,0.00058417,-0.00007521,-0.00004522,-0.00009743,0.00035941,
 0.00005976,-0.00006590,-0.00002805,0.00000439,-0.00001288,-0.00001113,
 0.00000086,-0.00003067,-0.00011614,-0.00031434,0.00019801,-0.00000183,
 -0.00001758,0.00002031,0.00086716,0.00037313,0.00058971,0.00005747,-0.
 00045557,-0.00018355,0.00001409,0.00008276,0.00004543,-0.00000843,0.00
 000710,0.00003378,-0.00003089,0.00013991,-0.00002346,-0.00002265,-0.00
 000028,-0.00001848,-0.00062212,-0.00016357,-0.00074742,-0.00017714,-0.
 00000157,-0.00000169,-0.00016647,-0.00000009,0.00007460,0.00000192,-0.
 00004853,-0.00003608,0.00005748,0.00002830,-0.00000552,0.00004677,-0.0
 0000299,-0.00000749,0.00000563,-0.00000439,-0.00001320,-0.00000761,-0.
 00000573,-0.00000111,0.00000124,0.00000159,-0.00000750,0.00000568,0.00
 001016,0.00002917,-0.00002829,-0.00000738,-0.00001941,0.00000898,-0.00
 000950,-0.00001706,0.00000474,0.00000607,-0.00000096,-0.00037346,-0.00
 052499,0.00011936,0.00016903,-0.00007287,-0.00007591,-0.00024512,0.001
 15436,0.00018175,-0.01339893,0.06659509,-0.02691736,0.00070384,-0.0149
 7212,0.00126209,0.01321801,0.00029449,-0.00023049,-0.00022306,-0.00040
 525,0.00024980,0.00017588,-0.00030080,-0.00009619,0.00068647,0.0000541
 0,0.00005106,0.00286194,-0.00084448,0.00041358,0.00033459,0.00069410,-
 0.00031147,-0.00076003,-0.00005293,-0.00001131,-0.00001236,0.00002328,
 0.00000822,-0.00004847,-0.00013005,-0.00011716,0.00009552,0.00000028,-
 0.00003196,0.00001453,0.00008829,0.00009459,0.00029819,-0.00010987,-0.
 00008046,-0.00021769,0.00015008,-0.00042499,-0.00005569,-0.00002038,-0
 .00002405,-0.00002056,-0.00004070,-0.00026608,-0.00011564,0.00001551,0
 .00000136,0.00000138,0.00030235,-0.00015959,-0.00007433,0.00004874,-0.
 00002743,0.00000329,-0.00006745,0.00009502,-0.00011902,-0.00009747,0.0
 0017743,-0.00001125,-0.00003989,-0.00001694,0.00007950,0.00001057,-0.0
 0004326,-0.00000105,-0.00000064,0.00000037,-0.00000632,-0.00000088,-0.
 00000071,-0.00001174,-0.00000280,0.00000394,0.00002587,0.00003813,-0.0
 0003106,0.00005575,-0.00000286,0.00001968,-0.00000989,0.00000383,-0.00
 000019,-0.00000742,-0.00002559,-0.00002271,0.00000446,-0.00009066,-0.0
 0015419,0.00002886,-0.00009328,0.00006554,0.00006050,0.00102640,-0.000
 08788,-0.00036545,0.04632041,-0.49632607,0.08670650,0.00503881,-0.0243
 8784,0.01099677,-0.05178526,0.52164222,0.00009904,0.00009247,-0.000049
 75,-0.00006908,0.00003419,-0.00000134,-0.00096903,-0.00046249,-0.00015
 145,0.00015431,0.00082864,-0.00271066,0.00049157,0.00104688,0.00026344
 ,-0.00030278,0.00008361,0.00009058,0.00006683,-0.00006265,0.00003553,0
 .00006336,-0.00003935,0.00002491,-0.00003106,0.00002669,0.00000549,0.0
 0004097,-0.00012664,0.00000343,0.00146713,-0.00060515,-0.00026332,-0.0
 0056925,-0.00039926,-0.00038779,-0.00033897,-0.00015502,-0.00023645,0.
 00002649,0.00005993,0.00001694,0.00015519,0.00014042,-0.00018070,0.000
 00893,0.00002392,0.00005574,-0.00122526,0.00002279,0.00017447,0.000447
 86,0.00022718,0.00010863,0.00072861,-0.00025511,-0.00003222,-0.0000736
 6,-0.00001960,0.00001253,-0.00001714,0.00003706,-0.00000266,-0.0001420
 9,0.00007147,0.00002680,-0.00003664,0.00000453,0.00003636,0.00001958,-
 0.00003367,-0.00004142,0.00001745,-0.00000469,-0.00001983,-0.00007080,
 0.00006374,0.00004654,0.00000977,-0.00000420,-0.00000168,-0.00004221,-
 0.00001670,-0.00000811,0.00001827,-0.00000007,-0.00000369,0.00008394,0
 .00004751,-0.00014428,-0.00005379,0.00004632,0.00002041,0.00013526,-0.
 00023145,-0.00003557,-0.02839569,0.14040063,-0.06547074,0.00299543,-0.
 04051355,0.00377955,0.02528765,-0.10037404,0.06510264,-0.00002773,-0.0
 0020308,-0.00025098,-0.00031772,0.00008862,0.00001512,0.00022417,0.000
 18710,-0.00002926,-0.00000860,0.00050759,0.00015752,0.00016564,0.00023
 083,0.00126730,0.00028363,-0.00071445,0.00017807,-0.00006606,0.0000067
 6,-0.00002887,0.00001526,-0.00000448,0.00002447,-0.00144620,-0.0002643
 2,-0.00016942,0.00000806,-0.00002198,0.00001207,-0.00128288,0.00069937
 ,-0.00062709,0.00029925,0.00001827,0.00002777,0.00041939,0.00023124,0.
 00003707,-0.00004995,-0.00010277,-0.00004013,-0.00018697,-0.00011700,-
 0.00000550,0.00000669,-0.00000271,0.00000015,0.00345234,0.00065682,-0.
 00010031,-0.00006348,-0.00008498,-0.00003070,-0.00147417,-0.00082746,0
 .00094298,0.00060324,-0.00024974,-0.00002911,0.00000009,-0.00010607,0.
 00003509,0.00052365,0.00038928,0.00087717,-0.00004174,0.00017530,-0.00
 014779,-0.00012219,0.00057722,-0.00012766,-0.00054710,-0.00026992,-0.0
 0111400,-0.00141688,-0.00105560,0.00026800,-0.00005372,0.00037640,-0.0
 0035078,-0.00005522,0.00068117,-0.00041886,0.00017657,0.00135090,-0.00
 052896,0.00001685,0.00024932,-0.00008630,0.00001499,-0.00000686,-0.000
 06846,-0.00007128,0.00001663,-0.00000524,0.00013432,-0.00012591,0.0001
 2670,-0.00004276,0.00007886,-0.00006605,-0.00004367,0.00006364,-0.0001
 2558,0.45484365,-0.00025207,-0.00004674,-0.00002236,-0.00000045,0.0002
 5763,0.00008258,0.00020889,-0.00013032,-0.00001877,-0.00022229,-0.0003
 5828,0.00005746,-0.00068612,-0.00001778,-0.00048798,0.00025050,0.00012
 698,0.00005654,-0.00002067,0.00000950,0.00001647,-0.00002774,0.0000076
 3,0.00000262,0.00035101,-0.00057297,0.00042775,-0.00008141,0.00007995,
 0.00007489,0.00602065,0.00289738,0.00009828,0.00004275,0.00022907,0.00
 010512,-0.00093672,-0.00080382,-0.00034869,0.00003281,0.00017063,-0.00
 000707,0.00048941,0.00018042,0.00005183,-0.00005788,-0.00003341,-0.000
 00341,-0.00340547,-0.00618229,0.00483038,-0.00040507,-0.00009019,-0.00
 005768,-0.00196733,0.00103050,-0.00118646,0.00011362,0.00032638,0.0001
 7125,0.00003052,-0.00008382,0.00001623,0.00103480,0.00024803,-0.001908
 43,0.00023315,-0.00096940,0.00044688,0.00012317,-0.00071956,0.00036217
 ,-0.00042779,-0.00177496,0.00137245,0.00036270,0.00043333,-0.00009230,
 0.00006189,-0.00018777,0.00026940,0.00010930,-0.00016066,0.00015287,-0
 .00006995,-0.00079121,0.00011089,0.00000601,-0.00024575,0.00016744,-0.
 00003336,-0.00007685,0.00004924,0.00007116,0.00000297,-0.00011022,-0.0
 0020360,0.00005966,0.00020361,0.00011561,0.00001501,-0.00010256,0.0000
 5814,-0.00008723,-0.00009745,0.05394877,0.33114456,-0.00002927,-0.0000
 6974,0.00019057,0.00030872,0.00003208,0.00006446,0.00010191,0.00004338
 ,-0.00000740,0.00076755,-0.00064031,0.00004240,-0.00091520,-0.00026276
 ,-0.00201934,0.00028069,0.00061241,0.00012229,0.00012389,0.00000269,0.
 00000513,0.00000733,0.00001839,-0.00003785,0.00062050,0.00025109,0.001
 35829,-0.00004858,0.00002545,-0.00009198,-0.00307567,-0.00106762,-0.00
 092866,-0.00026498,-0.00005504,-0.00002844,0.00042686,0.00060240,0.000
 36799,0.00001111,0.00002916,-0.00007918,-0.00004962,0.00002818,0.00008
 578,0.00005348,0.00004200,-0.00000478,0.00120274,0.00595948,-0.0016494
 9,0.00035941,0.00016188,0.00008679,0.00226068,-0.00158929,-0.00124396,
 -0.00021380,0.00033496,0.00050067,-0.00009249,0.00014574,-0.00010956,0
 .00030870,0.00033194,-0.00045592,0.00003793,-0.00029516,0.00031358,0.0
 0007349,-0.00016888,0.00015523,-0.00083800,0.00005342,-0.00003955,-0.0
 0123567,-0.00045258,0.00050239,0.00008362,0.00017224,-0.00001795,-0.00
 017952,0.00052518,-0.00034803,0.00048096,0.00063083,-0.00081376,0.0000
 1846,0.00001162,0.00002870,-0.00006309,-0.00000718,-0.00003226,-0.0000
 1049,-0.00002969,0.00007803,0.00007417,0.00011740,-0.00014193,-0.00004
 810,-0.00008339,0.00008454,-0.00005584,-0.00005617,0.00012707,0.171976
 41,-0.28774379,0.37441463,-0.00007434,0.00005438,-0.00000445,0.0000054
 3,0.00000454,0.00001146,-0.00001469,-0.00007787,-0.00006782,-0.0000366
 2,-0.00008643,-0.00008610,0.00022845,-0.00000766,0.00011285,-0.0001232
 1,0.00014770,-0.00012284,-0.00000066,-0.00000352,0.00001079,-0.0000058
 7,-0.00000227,0.00000038,0.00021927,0.00006823,-0.00024130,0.00000236,
 0.00000507,0.00003478,0.00099157,0.00037601,0.00003492,-0.00008815,0.0
 0002188,0.00001401,-0.00018383,-0.00013526,-0.00006693,0.00000667,0.00
 002454,0.00000165,0.00011875,0.00003743,0.00000739,-0.00000578,-0.0000
 0280,0.00000065,-0.00073565,-0.00120066,0.00062820,-0.00001970,0.00001
 324,-0.00000127,-0.00023834,0.00013585,-0.00024651,0.00005364,0.000066
 43,0.00004195,-0.00000136,-0.00000464,0.00000268,0.00012616,0.00007812
 ,-0.00002841,0.00001913,-0.00008491,0.00003183,0.00000669,-0.00003848,
 0.00001458,-0.00035768,0.00034675,0.00006534,-0.00022063,-0.00040500,0
 .00015479,-0.00002741,0.00010077,-0.00004033,0.00001114,0.00004065,-0.
 00003546,0.00031718,0.00028609,-0.00004672,-0.00000973,-0.00003369,0.0
 0001992,-0.00000899,-0.00000918,-0.00000058,0.00001680,0.00000260,-0.0
 0000297,-0.00003520,0.00002768,-0.00002518,0.00001366,-0.00001619,0.00
 001113,0.00001623,-0.00001757,0.00002468,-0.38918465,0.05174834,-0.245
 70083,0.38528161,0.00013059,0.00004316,0.00006480,0.00003934,-0.000120
 54,-0.00003240,-0.00020590,0.00001283,-0.00004381,-0.00000517,0.000111
 11,-0.00002936,0.00009505,0.00013885,-0.00017017,-0.00010131,0.0000232
 7,-0.00000882,0.00002135,-0.00000054,-0.00000977,0.00000692,-0.0000013
 7,-0.00000545,-0.00010424,0.00000124,0.00031465,0.00002232,-0.00003404
 ,-0.00006705,-0.00003361,-0.00043160,0.00015006,-0.00009180,-0.0000447
 0,-0.00000472,-0.00001526,-0.00001901,-0.00007390,0.00000528,-0.000016
 56,0.00003310,-0.00002743,-0.00004078,-0.00004027,0.00000142,0.0000010
 4,0.00000235,-0.00030121,-0.00060810,0.00027685,0.00009927,0.00003035,
 0.00001459,-0.00002976,0.00038027,0.00007021,-0.00000619,-0.00007805,-
 0.00007466,0.00000561,0.00000530,0.00000568,-0.00011454,-0.00027396,-0
 .00005365,-0.00004018,0.00010864,-0.00009524,0.00002408,-0.00004988,-0
 .00001314,0.00028936,-0.00012842,0.00024845,0.00019837,0.00017859,0.00
 004891,0.00000984,-0.00004301,0.00000936,-0.00000124,-0.00006463,0.000
 06106,0.00037215,-0.00051414,0.00016996,-0.00000828,0.00002410,-0.0000
 2786,0.00000674,0.00001415,-0.00000257,-0.00000458,0.00000381,0.000013
 23,0.00003619,0.00000271,-0.00008311,-0.00002221,-0.00001563,0.0000323
 7,-0.00001072,0.00002402,0.00004104,0.01509910,-0.02992649,0.03487373,
 -0.04613796,0.03547513,0.00005729,-0.00008717,-0.00010068,-0.00020645,
 0.00001525,-0.00003515,0.00006744,0.00010076,0.00003874,-0.00008833,0.
 00028924,0.00024506,-0.00002547,0.00008800,0.00021710,0.00016815,-0.00
 035107,0.00016412,-0.00004802,0.00000563,-0.00000192,-0.00000006,-0.00
 000622,0.00001635,-0.00037154,-0.00008101,-0.00032869,0.00002180,-0.00
 001408,-0.00002593,-0.00005700,0.00043565,-0.00006352,0.00020442,0.000
 00088,0.00000053,0.00014832,-0.00002492,-0.00005551,-0.00000605,-0.000
 01668,-0.00000259,-0.00009842,-0.00003813,-0.00000235,-0.00000603,-0.0
 0001364,0.00000630,0.00048694,0.00010196,-0.00008304,-0.00013597,-0.00
 007574,-0.00003835,-0.00036059,0.00029359,-0.00002046,0.00003433,-0.00
 000810,-0.00002858,0.00001010,-0.00002080,0.00001067,0.00005552,-0.000
 24927,-0.00024068,0.00002586,-0.00001567,-0.00001594,-0.00000499,-0.00
 005588,0.00003995,0.00008496,0.00034719,0.00047556,-0.00003814,-0.0001
 8174,0.00028999,0.00001404,-0.00006898,0.00002834,0.00004598,0.0000141
 9,-0.00001046,-0.00025597,0.00025717,-0.00050846,0.00000494,-0.0000059
 4,0.00000761,0.00001057,-0.00000523,0.00000373,-0.00000891,0.00000299,
 -0.00001511,-0.00000588,-0.00007040,0.00008770,0.00001107,0.00004909,-
 0.00003755,0.00000498,0.00003083,-0.00007303,-0.20958830,0.05331485,-0
 .16089028,0.23812249,-0.05538720,0.17667517,0.00015814,0.00011937,0.00
 021295,0.00027795,-0.00012022,-0.00005348,-0.00033117,-0.00020026,-0.0
 0002217,-0.00033694,-0.00047579,-0.00053883,-0.00097736,-0.00021174,0.
 00042460,-0.00014769,0.00058253,-0.00019023,0.00008107,-0.00000004,0.0
 0001909,0.00000409,-0.00000412,-0.00001936,0.00042675,0.00058708,0.001
 43464,0.00002454,-0.00002135,-0.00002253,0.00056970,-0.00298889,0.0018
 5102,-0.00031314,0.00011283,-0.00000957,-0.00059825,-0.00022743,-0.000
 21882,0.00005471,0.00010398,0.00008103,0.00029376,0.00007129,-0.000021
 96,-0.00000658,0.00000476,0.00000029,-0.00459522,-0.00044780,0.0000548
 9,0.00012758,0.00009500,0.00004611,0.00130705,0.00297183,-0.00158430,-
 0.00081041,0.00032536,0.00003606,0.00000641,0.00010535,-0.00004521,-0.
 00026181,0.00029340,-0.00023044,0.00003545,-0.00021417,0.00013723,0.00
 008482,-0.00044851,-0.00001608,-0.00021150,0.00043234,0.00099999,0.000
 74469,0.00114715,-0.00095290,0.00004354,-0.00026561,0.00023672,0.00014
 592,-0.00073649,0.00047368,-0.00259617,-0.00089301,-0.00000185,0.00000
 145,-0.00028804,0.00011200,-0.00001121,0.00000964,0.00007800,0.0000581
 3,-0.00002017,0.00000306,-0.00011358,0.00011346,-0.00014054,0.00003530
 ,-0.00007137,0.00006703,0.00003608,-0.00004419,0.00012073,-0.06468485,
 -0.10661526,0.07324253,0.00393773,0.03079862,-0.02827308,0.06754106,0.
 00006288,-0.00004881,-0.00015010,-0.00014931,-0.00012415,-0.00003916,-
 0.00012423,0.00004300,-0.00005555,0.00072085,0.00043124,-0.00034537,0.
 00084480,0.00056937,0.00184184,-0.00013589,-0.00055665,-0.00016824,-0.
 00002916,-0.00002617,-0.00002914,0.00004353,-0.00001133,0.00000588,-0.
 00015316,0.00062130,-0.00163692,0.00008086,-0.00010930,0.00003224,-0.0
 1139143,-0.00570573,0.00039963,-0.00001478,-0.00007188,-0.00008263,0.0
 0152077,0.00135849,0.00046433,0.00000228,-0.00013695,-0.00001964,-0.00
 053930,-0.00025665,-0.00003247,0.00010686,0.00005590,0.00001466,0.0038
 5496,0.00305066,-0.00191305,0.00059528,0.00012624,0.00008156,0.0061855
 8,-0.00461830,0.00116706,-0.00067340,0.00001357,0.00018414,-0.00009601
 ,0.00028636,-0.00015035,-0.00069010,-0.00065362,0.00006180,-0.00019888
 ,0.00043978,0.00013412,0.00005219,0.00012145,-0.00007576,0.00093447,0.
 00025982,-0.00127305,0.00043315,0.00046333,0.00017651,-0.00003949,0.00
 005116,-0.00012676,-0.00031273,-0.00020269,-0.00008412,-0.00045075,0.0
 0060029,0.00015236,-0.00001792,0.00018923,-0.00014627,0.00000778,0.000
 08245,-0.00003779,-0.00007213,-0.00003135,0.00017261,0.00018888,-0.000
 06026,-0.00021961,-0.00011671,-0.00000717,0.00013727,-0.00005215,0.000
 09247,0.00010205,-0.07147585,-0.29396011,0.24751596,-0.00532221,-0.004
 16712,0.00143058,0.07642047,0.30189213,-0.00004227,0.00020926,0.000011
 77,-0.00012041,-0.00006877,-0.00003946,-0.00012374,-0.00010502,0.00008
 015,-0.00070248,0.00070268,-0.00016034,0.00156428,0.00069501,0.0000674
 0,-0.00056446,-0.00041689,-0.00018489,-0.00011118,-0.00000842,-0.00000
 172,-0.00002198,-0.00000669,0.00001408,0.00160971,-0.00116575,-0.00252
 024,-0.00001798,0.00003131,0.00006362,0.00559908,0.00157930,0.00135967
 ,0.00016108,-0.00002765,0.00000994,-0.00093166,-0.00085762,-0.00043956
 ,-0.00000688,-0.00002466,0.00008341,0.00010029,-0.00000642,-0.00013280
 ,-0.00008541,-0.00004739,-0.00000775,-0.00132986,-0.00283601,-0.002168
 81,-0.00040408,-0.00015076,-0.00008075,-0.00405164,0.00177707,0.002258
 58,0.00072791,-0.00048615,-0.00055756,0.00010900,-0.00025625,0.0001760
 4,-0.00015479,-0.00041938,0.00107880,-0.00006571,0.00043386,-0.0005066
 7,-0.00009842,0.00026204,-0.00017289,0.00111526,-0.00078561,-0.0011511
 7,0.00016830,-0.00009275,-0.00069301,-0.00022553,0.00016709,-0.0003460
 4,0.00022342,-0.00015521,0.00007812,-0.00046805,-0.00006572,0.00088396
 ,-0.00002436,0.00003498,-0.00003718,0.00005286,-0.00001179,0.00001465,
 0.00001303,0.00004514,-0.00010111,-0.00008414,-0.00008053,0.00013666,0
 .00005401,0.00005820,-0.00009753,0.00006235,0.00002937,-0.00011636,0.0
 3799349,0.22974597,-0.20958823,0.00737125,0.01979273,-0.01572867,-0.04
 729029,-0.24748858,0.22851588\\-0.00000350,-0.00001002,0.00000726,-0.0
 0000110,-0.00000178,0.00000886,0.00000035,-0.00000846,0.00000037,0.000
 00041,-0.00000223,-0.00000147,0.00000042,-0.00000538,-0.00000449,-0.00
 001149,-0.00000422,-0.00000245,-0.00000572,-0.00000534,0.00000163,-0.0
 0000180,-0.00000837,0.00000816,-0.00000132,0.00000019,-0.00000098,-0.0
 0000278,-0.00000082,0.00000022,-0.00000416,0.00001035,-0.00001233,0.00
 000770,-0.00000860,0.00001248,0.00000218,-0.00000433,0.00000786,0.0000
 0311,0.00000194,-0.00000219,-0.00001022,0.00000015,0.00000574,0.000003
 88,-0.00000849,0.00000797,0.00000092,0.00000560,0.00000152,-0.00000086
 ,-0.00000917,0.00001013,0.00001317,0.00000605,-0.00000082,0.00001542,0
 .00000116,-0.00001078,0.00000021,0.00000889,-0.00000388,0.00000299,0.0
 0000308,0.00000207,-0.00000468,0.00000349,-0.00000499,-0.00000533,-0.0
 0000240,0.00000128,-0.00000554,-0.00000185,-0.00000555,-0.00000658,-0.
 00000122,-0.00000543,-0.00000049,0.00000714,-0.00000942,0.00000178,0.0
 0001035,-0.00000902,-0.00000329,0.00000632,-0.00001004,0.00000027,0.00
 000093,0.00000077,0.00000978,0.00000861,0.00000018,0.00001842,0.000013
 93,0.00000209,-0.00000258,0.00000142,0.00000607,0.00001039,-0.00000096
 ,0.00000291,0.00000492,0.00000082,0.00000163,-0.00000364,0.00000265,-0
 .00000607,-0.00001070,-0.00000372,-0.00000383,-0.00001053,-0.00000572,
 0.00000456\\\@


    WHAT WE HAVE LEARNED
 IS LIKE A HANDFUL OF EARTH;
  WHAT WE HAVE YET TO LEARN
   IS LIKE THE WHOLE WORLD.

         -- AVVAYIAR
 Job cpu time:       0 days  2 hours 39 minutes 29.7 seconds.
 File lengths (MBytes):  RWF=    615 Int=      0 D2E=      0 Chk=     21 Scr=      1
 Normal termination of Gaussian 09 at Wed Sep  9 13:06:12 2020.
