 *******************************************************************************
 ** Site#: 37381        For non-commercial use only           Version 21.125L **
 *******************************************************************************
 ** Cite this program as: MOPAC2016, Version: 21.125L, James J. P. Stewart,   **
 ** Stewart Computational Chemistry, web: HTTP://OpenMOPAC.net. Days left: 192**
 *******************************************************************************
 **                                                                           **
 **                                MOPAC2016                                  **
 **                                                                           **
 *******************************************************************************

                              PM6-D3H4 CALCULATION RESULTS

 *******************************************************************************
 *  CALCULATION DONE:                                Mon Oct 25 19:56:59 2021  *
 *  PM6-D3H4   - CORRECT DISPERSION AND HYDROGEN BOND TERMS USING THE D3H4 METHOD
 *  EPS=2.38   - USE ANDREAS KLAMT'S COSMO IMPLICIT SOLVATION MODEL
 *  RSOLV=  3.480
 *  FORCE      - FORCE CALCULATION SPECIFIED
 *  T=         - A TIME OF 172800.0 SECONDS REQUESTED
 *  DUMP=N     - RESTART FILE WRITTEN EVERY 7200.0 SECONDS REQUESTED
 *  AUX        - OUTPUT AUXILIARY INFORMATION
 *  LARGE      - EXPANDED OUTPUT TO BE PRINTED
 *  THERMO     - THERMODYNAMIC QUANTITIES TO BE CALCULATED
 *******************************************************************************
 AUX LARGE FORCE THERMO PM6-D3H4 EPS=2.38 RSOLV=3.48
 Claisen_P_PM6_D3H4_THERMO

   ATOM   CHEMICAL          X               Y               Z
  NUMBER   SYMBOL      (ANGSTROMS)     (ANGSTROMS)     (ANGSTROMS)
 
     1       C          4.31883000  *  -0.32161000  *   0.36897000  *
     2       C          3.35879000  *   0.67884000  *   0.19612000  *
     3       C          2.02011000  *   0.33465000  *  -0.04307000  *
     4       C          1.65452000  *  -1.02905000  *  -0.10410000  *
     5       C          2.63014000  *  -2.02359000  *   0.06626000  *
     6       C          3.95904000  *  -1.67230000  *   0.30376000  *
     7       H          5.35922000  *  -0.04502000  *   0.55574000  *
     8       H          3.66620000  *   1.72460000  *   0.25217000  *
     9       H          2.33148000  *  -3.07590000  *   0.00963000  *
    10       H          4.71428000  *  -2.44784000  *   0.43729000  *
    11       C          0.24768000  *  -1.44132000  *  -0.34836000  *
    12       C          0.96535000  *   1.33320000  *  -0.23270000  *
    13       C         -0.84293000  *  -0.37264000  *  -0.32580000  *
    14       C         -0.33490000  *   1.03367000  *  -0.36346000  *
    15       H         -1.10374000  *   1.80213000  *  -0.49007000  *
    16       O         -0.05033000  *  -2.60400000  *  -0.55478000  *
    17      Cl          1.45270000  *   2.99279000  *  -0.29312000  *
    18       C         -4.08440000  *  -0.04280000  *   0.20930000  *
    19       C         -2.96448000  *   0.24150000  *   0.89477000  *
    20       H         -2.90393000  *   1.15339000  *   1.49153000  *
    21       C         -5.26997000  *   0.88003000  *   0.25639000  *
    22       H         -6.13154000  *   0.35786000  *   0.73672000  *
    23       H         -5.05122000  *   1.80672000  *   0.83462000  *
    24       H         -5.56213000  *   1.17131000  *  -0.78021000  *
    25       C         -4.28048000  *  -1.25376000  *  -0.65023000  *
    26       H         -3.45335000  *  -1.99038000  *  -0.53187000  *
    27       H         -5.23902000  *  -1.75873000  *  -0.38205000  *
    28       H         -4.32599000  *  -0.94563000  *  -1.72255000  *
    29       C         -1.72066000  *  -0.59158000  *   0.93647000  *
    30       H         -1.11665000  *  -0.31939000  *   1.83836000  *
    31       H         -1.98072000  *  -1.67895000  *   1.00870000  *
    32       H         -1.48369000  *  -0.53786000  *  -1.23989000  *
 


          CARTESIAN COORDINATES 

    NO.       ATOM           X           Y           Z

     1         C          4.3188     -0.3216      0.3690
     2         C          3.3588      0.6788      0.1961
     3         C          2.0201      0.3347     -0.0431
     4         C          1.6545     -1.0291     -0.1041
     5         C          2.6301     -2.0236      0.0663
     6         C          3.9590     -1.6723      0.3038
     7         H          5.3592     -0.0450      0.5557
     8         H          3.6662      1.7246      0.2522
     9         H          2.3315     -3.0759      0.0096
    10         H          4.7143     -2.4478      0.4373
    11         C          0.2477     -1.4413     -0.3484
    12         C          0.9653      1.3332     -0.2327
    13         C         -0.8429     -0.3726     -0.3258
    14         C         -0.3349      1.0337     -0.3635
    15         H         -1.1037      1.8021     -0.4901
    16         O         -0.0503     -2.6040     -0.5548
    17        Cl          1.4527      2.9928     -0.2931
    18         C         -4.0844     -0.0428      0.2093
    19         C         -2.9645      0.2415      0.8948
    20         H         -2.9039      1.1534      1.4915
    21         C         -5.2700      0.8800      0.2564
    22         H         -6.1315      0.3579      0.7367
    23         H         -5.0512      1.8067      0.8346
    24         H         -5.5621      1.1713     -0.7802
    25         C         -4.2805     -1.2538     -0.6502
    26         H         -3.4533     -1.9904     -0.5319
    27         H         -5.2390     -1.7587     -0.3821
    28         H         -4.3260     -0.9456     -1.7226
    29         C         -1.7207     -0.5916      0.9365
    30         H         -1.1166     -0.3194      1.8384
    31         H         -1.9807     -1.6790      1.0087
    32         H         -1.4837     -0.5379     -1.2399

 General Reference for PM6:
 "Optimization of Parameters for Semiempirical Methods V: Modification of NDDO Approximations
 and Application to 70 Elements", J. J. P. Stewart, J. Mol. Mod., 13, 1173-1213 (2007)
 URL: https://link.springer.com/article/10.1007/s00894-007-0233-4

           Empirical Formula: C15 H15 O Cl  =    32 atoms



      MOLECULAR POINT GROUP   :   C1  


      RHF CALCULATION, NO. OF DOUBLY OCCUPIED LEVELS = 44



          HEAT OF FORMATION =     -12.044707 KCALS/MOLE


          CARTESIAN COORDINATE DERIVATIVES

   NUMBER  ATOM         X            Y            Z

     1       C      0.015924    -0.031295     0.034235
     2       C      0.031095     0.065356     0.014652
     3       C     -0.008751    -0.066107     0.019720
     4       C     -0.078778    -0.092358    -0.052933
     5       C      0.034731     0.059818     0.050863
     6       C     -0.036879    -0.127154     0.006496
     7       H      0.014160     0.006447    -0.008169
     8       H      0.031634     0.004699     0.011462
     9       H      0.007398    -0.013618    -0.013243
    10       H     -0.059652     0.041419    -0.003309
    11       C     -0.117018    -0.030460    -0.057392
    12       C     -0.029703     0.079161    -0.007789
    13       C      0.031752    -0.051478    -0.108243
    14       C      0.028811    -0.026365    -0.002369
    15       H     -0.027030     0.023176    -0.005803
    16       O     -0.111313     0.073686    -0.018978
    17      Cl      0.103751    -0.101189     0.006249
    18       C     -0.182181     0.128128     0.008820
    19       C     -0.095597    -0.323664     0.042517
    20       H      0.048937    -0.119658     0.069299
    21       C     -0.032085     0.100218     0.121925
    22       H      0.102698     0.192187    -0.041717
    23       H      0.076676    -0.167093     0.078052
    24       H      0.117008    -0.004993    -0.188798
    25       C      0.057469     0.118416    -0.139585
    26       H      0.212206    -0.365592     0.075502
    27       H      0.074227     0.219685     0.368589
    28       H      0.116816     0.180067    -0.395476
    29       C     -0.032270     0.039270     0.026072
    30       H     -0.166942    -0.125080     0.192953
    31       H     -0.105498     0.213599    -0.019368
    32       H     -0.021594     0.100771    -0.064233
 
 DIPOLE           X         Y         Z       TOTAL
 POINT-CHG.     1.135    -0.526     0.697     1.432
 HYBRID         0.143    -0.050    -0.188     0.242
 SUM            1.279    -0.575     0.509     1.492


          GRADIENT NORM =   1.12490


          TIME FOR SCF CALCULATION =    0.06

          TIME FOR DERIVATIVES     =    0.02

          MOLECULAR WEIGHT =  246.74



          ROTATIONAL CONSTANTS IN CM(-1)

          A =    0.02344109   B =    0.00842586   C =    0.00646960



           PRINCIPAL MOMENTS OF INERTIA IN UNITS OF 10**(-40)*GRAM-CM**2

          A =     1194.1756   B =     3322.2461   C =     4326.8157


          ORIENTATION OF MOLECULE IN FORCE CALCULATION

    NO.       ATOM         X         Y         Z

     1          C      -3.2027   -2.7746   -0.3677
     2          C      -1.8054   -2.7746   -0.3677
     3          C      -1.1025   -1.5606   -0.3677
     4          C      -1.8201   -0.3432   -0.3648
     5          C      -3.2236   -0.3580   -0.3700
     6          C      -3.9145   -1.5698   -0.3700
     7          H      -3.7426   -3.7245   -0.3669
     8          H      -1.2748   -3.7284   -0.3656
     9          H      -3.7648    0.5942   -0.3743
    10          H      -5.0052   -1.5775   -0.3724
    11          C      -1.1185    0.9669   -0.3579
    12          C       0.3606   -1.4904   -0.3676
    13          C       0.3932    0.9868   -0.1425
    14          C       1.0557   -0.3483   -0.2676
    15          H       2.1498   -0.3270   -0.2560
    16          O      -1.7207    2.0146   -0.5098
    17         Cl       1.2215   -2.9850   -0.5112
    18          C       2.7903    2.9744    0.9556
    19          C       2.1396    1.9005    1.4334
    20          H       2.6770    1.1464    2.0111
    21          C       4.2597    3.1600    1.2117
    22          H       4.4184    4.0716    1.8358
    23          H       4.7014    2.2864    1.7434
    24          H       4.7972    3.2926    0.2431
    25          C       2.1643    4.0658    0.1428
    26          H       1.0539    3.9822    0.1128
    27          H       2.4281    5.0604    0.5751
    28          H       2.5488    4.0173   -0.9044
    29          C       0.6833    1.6001    1.2544
    30          H       0.3517    0.8712    2.0361
    31          H       0.0745    2.5335    1.3702
    32          H       0.8282    1.6685   -0.9296


    FIRST DERIVATIVES WILL BE USED IN THE CALCULATION OF SECOND DERIVATIVES

          ESTIMATED TIME TO COMPLETE CALCULATION =       16.50 SECONDS

    FOR POINT-GROUP C1   THERE ARE   1 UNIQUE SYMMETRY FUNCTIONS.

 STEP:   1 TIME =     0.07 SECS, INTEGRAL =      0.07 TIME LEFT: 172799.84
 STEP:   2 TIME =     0.07 SECS, INTEGRAL =      0.14 TIME LEFT: 172799.77
 STEP:   3 TIME =     0.07 SECS, INTEGRAL =      0.21 TIME LEFT: 172799.70
 STEP:   4 TIME =     0.07 SECS, INTEGRAL =      0.28 TIME LEFT: 172799.63
 STEP:   5 TIME =     0.07 SECS, INTEGRAL =      0.35 TIME LEFT: 172799.56
 STEP:   6 TIME =     0.07 SECS, INTEGRAL =      0.42 TIME LEFT: 172799.49
 STEP:   7 TIME =     0.07 SECS, INTEGRAL =      0.49 TIME LEFT: 172799.42
 STEP:   8 TIME =     0.08 SECS, INTEGRAL =      0.57 TIME LEFT: 172799.34
 STEP:   9 TIME =     0.07 SECS, INTEGRAL =      0.64 TIME LEFT: 172799.27
 STEP:  10 TIME =     0.08 SECS, INTEGRAL =      0.72 TIME LEFT: 172799.20
 STEP:  11 TIME =     0.08 SECS, INTEGRAL =      0.80 TIME LEFT: 172799.12
 STEP:  12 TIME =     0.07 SECS, INTEGRAL =      0.87 TIME LEFT: 172799.05
 STEP:  13 TIME =     0.08 SECS, INTEGRAL =      0.95 TIME LEFT: 172798.97
 STEP:  14 TIME =     0.08 SECS, INTEGRAL =      1.02 TIME LEFT: 172798.89
 STEP:  15 TIME =     0.07 SECS, INTEGRAL =      1.09 TIME LEFT: 172798.82
 STEP:  16 TIME =     0.08 SECS, INTEGRAL =      1.17 TIME LEFT: 172798.74
 STEP:  17 TIME =     0.07 SECS, INTEGRAL =      1.24 TIME LEFT: 172798.67
 STEP:  18 TIME =     0.07 SECS, INTEGRAL =      1.31 TIME LEFT: 172798.60
 STEP:  19 TIME =     0.06 SECS, INTEGRAL =      1.38 TIME LEFT: 172798.54
 STEP:  20 TIME =     0.07 SECS, INTEGRAL =      1.45 TIME LEFT: 172798.47
 STEP:  21 TIME =     0.07 SECS, INTEGRAL =      1.52 TIME LEFT: 172798.40
 STEP:  22 TIME =     0.07 SECS, INTEGRAL =      1.59 TIME LEFT: 172798.33
 STEP:  23 TIME =     0.07 SECS, INTEGRAL =      1.66 TIME LEFT: 172798.26
 STEP:  24 TIME =     0.07 SECS, INTEGRAL =      1.73 TIME LEFT: 172798.19
 STEP:  25 TIME =     0.06 SECS, INTEGRAL =      1.79 TIME LEFT: 172798.12
 STEP:  26 TIME =     0.07 SECS, INTEGRAL =      1.86 TIME LEFT: 172798.05
 STEP:  27 TIME =     0.07 SECS, INTEGRAL =      1.93 TIME LEFT: 172797.98
 STEP:  28 TIME =     0.08 SECS, INTEGRAL =      2.01 TIME LEFT: 172797.91
 STEP:  29 TIME =     0.06 SECS, INTEGRAL =      2.07 TIME LEFT: 172797.84
 STEP:  30 TIME =     0.07 SECS, INTEGRAL =      2.14 TIME LEFT: 172797.77
 STEP:  31 TIME =     0.08 SECS, INTEGRAL =      2.22 TIME LEFT: 172797.70
 STEP:  32 TIME =     0.08 SECS, INTEGRAL =      2.30 TIME LEFT: 172797.62
 STEP:  33 TIME =     0.07 SECS, INTEGRAL =      2.37 TIME LEFT: 172797.55
 STEP:  34 TIME =     0.08 SECS, INTEGRAL =      2.45 TIME LEFT: 172797.47
 STEP:  35 TIME =     0.08 SECS, INTEGRAL =      2.52 TIME LEFT: 172797.39
 STEP:  36 TIME =     0.08 SECS, INTEGRAL =      2.60 TIME LEFT: 172797.31
 STEP:  37 TIME =     0.08 SECS, INTEGRAL =      2.68 TIME LEFT: 172797.23
 STEP:  38 TIME =     0.07 SECS, INTEGRAL =      2.75 TIME LEFT: 172797.16
 STEP:  39 TIME =     0.07 SECS, INTEGRAL =      2.82 TIME LEFT: 172797.09
 STEP:  40 TIME =     0.07 SECS, INTEGRAL =      2.89 TIME LEFT: 172797.02
 STEP:  41 TIME =     0.08 SECS, INTEGRAL =      2.97 TIME LEFT: 172796.95
 STEP:  42 TIME =     0.07 SECS, INTEGRAL =      3.04 TIME LEFT: 172796.88
 STEP:  43 TIME =     0.07 SECS, INTEGRAL =      3.11 TIME LEFT: 172796.80
 STEP:  44 TIME =     0.07 SECS, INTEGRAL =      3.18 TIME LEFT: 172796.73
 STEP:  45 TIME =     0.06 SECS, INTEGRAL =      3.24 TIME LEFT: 172796.67
 STEP:  46 TIME =     0.07 SECS, INTEGRAL =      3.31 TIME LEFT: 172796.60
 STEP:  47 TIME =     0.07 SECS, INTEGRAL =      3.38 TIME LEFT: 172796.53
 STEP:  48 TIME =     0.07 SECS, INTEGRAL =      3.45 TIME LEFT: 172796.46
 STEP:  49 TIME =     0.07 SECS, INTEGRAL =      3.52 TIME LEFT: 172796.39
 STEP:  50 TIME =     0.07 SECS, INTEGRAL =      3.59 TIME LEFT: 172796.32
 STEP:  51 TIME =     0.07 SECS, INTEGRAL =      3.66 TIME LEFT: 172796.25
 STEP:  52 TIME =     0.06 SECS, INTEGRAL =      3.73 TIME LEFT: 172796.19
 STEP:  53 TIME =     0.07 SECS, INTEGRAL =      3.80 TIME LEFT: 172796.12
 STEP:  54 TIME =     0.07 SECS, INTEGRAL =      3.87 TIME LEFT: 172796.05
 STEP:  55 TIME =     0.07 SECS, INTEGRAL =      3.94 TIME LEFT: 172795.98
 STEP:  56 TIME =     0.07 SECS, INTEGRAL =      4.01 TIME LEFT: 172795.91
 STEP:  57 TIME =     0.07 SECS, INTEGRAL =      4.08 TIME LEFT: 172795.84
 STEP:  58 TIME =     0.07 SECS, INTEGRAL =      4.15 TIME LEFT: 172795.77
 STEP:  59 TIME =     0.07 SECS, INTEGRAL =      4.22 TIME LEFT: 172795.70
 STEP:  60 TIME =     0.07 SECS, INTEGRAL =      4.29 TIME LEFT: 172795.62
 STEP:  61 TIME =     0.07 SECS, INTEGRAL =      4.36 TIME LEFT: 172795.55
 STEP:  62 TIME =     0.07 SECS, INTEGRAL =      4.43 TIME LEFT: 172795.48
 STEP:  63 TIME =     0.07 SECS, INTEGRAL =      4.50 TIME LEFT: 172795.41
 STEP:  64 TIME =     0.06 SECS, INTEGRAL =      4.56 TIME LEFT: 172795.35
 STEP:  65 TIME =     0.06 SECS, INTEGRAL =      4.62 TIME LEFT: 172795.29
 STEP:  66 TIME =     0.06 SECS, INTEGRAL =      4.69 TIME LEFT: 172795.23
 STEP:  67 TIME =     0.06 SECS, INTEGRAL =      4.75 TIME LEFT: 172795.16
 STEP:  68 TIME =     0.07 SECS, INTEGRAL =      4.82 TIME LEFT: 172795.09
 STEP:  69 TIME =     0.06 SECS, INTEGRAL =      4.88 TIME LEFT: 172795.03
 STEP:  70 TIME =     0.06 SECS, INTEGRAL =      4.95 TIME LEFT: 172794.97
 STEP:  71 TIME =     0.06 SECS, INTEGRAL =      5.01 TIME LEFT: 172794.91
 STEP:  72 TIME =     0.06 SECS, INTEGRAL =      5.07 TIME LEFT: 172794.84
 STEP:  73 TIME =     0.07 SECS, INTEGRAL =      5.14 TIME LEFT: 172794.77
 STEP:  74 TIME =     0.07 SECS, INTEGRAL =      5.21 TIME LEFT: 172794.70
 STEP:  75 TIME =     0.07 SECS, INTEGRAL =      5.28 TIME LEFT: 172794.63
 STEP:  76 TIME =     0.08 SECS, INTEGRAL =      5.36 TIME LEFT: 172794.55
 STEP:  77 TIME =     0.06 SECS, INTEGRAL =      5.42 TIME LEFT: 172794.49
 STEP:  78 TIME =     0.07 SECS, INTEGRAL =      5.49 TIME LEFT: 172794.42
 STEP:  79 TIME =     0.07 SECS, INTEGRAL =      5.56 TIME LEFT: 172794.35
 STEP:  80 TIME =     0.07 SECS, INTEGRAL =      5.63 TIME LEFT: 172794.28
 STEP:  81 TIME =     0.07 SECS, INTEGRAL =      5.70 TIME LEFT: 172794.21
 STEP:  82 TIME =     0.06 SECS, INTEGRAL =      5.77 TIME LEFT: 172794.15
 STEP:  83 TIME =     0.07 SECS, INTEGRAL =      5.84 TIME LEFT: 172794.08
 STEP:  84 TIME =     0.06 SECS, INTEGRAL =      5.90 TIME LEFT: 172794.02
 STEP:  85 TIME =     0.08 SECS, INTEGRAL =      5.98 TIME LEFT: 172793.94
 STEP:  86 TIME =     0.07 SECS, INTEGRAL =      6.05 TIME LEFT: 172793.87
 STEP:  87 TIME =     0.07 SECS, INTEGRAL =      6.12 TIME LEFT: 172793.80
 STEP:  88 TIME =     0.06 SECS, INTEGRAL =      6.18 TIME LEFT: 172793.73
 STEP:  89 TIME =     0.07 SECS, INTEGRAL =      6.25 TIME LEFT: 172793.66
 STEP:  90 TIME =     0.06 SECS, INTEGRAL =      6.31 TIME LEFT: 172793.60
 STEP:  91 TIME =     0.07 SECS, INTEGRAL =      6.38 TIME LEFT: 172793.53
 STEP:  92 TIME =     0.06 SECS, INTEGRAL =      6.45 TIME LEFT: 172793.47
 STEP:  93 TIME =     0.06 SECS, INTEGRAL =      6.51 TIME LEFT: 172793.41
 STEP:  94 TIME =     0.06 SECS, INTEGRAL =      6.57 TIME LEFT: 172793.34
 STEP:  95 TIME =     0.07 SECS, INTEGRAL =      6.64 TIME LEFT: 172793.27
 STEP:  96 TIME =     0.07 SECS, INTEGRAL =      6.71 TIME LEFT: 172793.20

(To convert to Hartree/Bohr^2, multiply by (10^(-21) x N x a0^2)/(4.184 x 627.51) =  0.0642)


           FORCE MATRIX IN MILLIDYNES/ANGSTROM


                  C  1       C  2       C  3       C  4       C  5       C  6
 ------------------------------------------------------------------------------
     C    1  14.104761
     C    2   5.505164  14.051170
     C    3   2.389195   5.247566  15.352076
     C    4   1.668339   2.195019   4.964959  14.891312
     C    5   2.485865   1.753086   2.264155   5.206764  14.103572
     C    6   5.440616   2.440649   1.728998   2.309010   5.579402  14.093400
     H    7   3.497822   0.656244   0.102238   0.030919   0.097586   0.649193
     H    8   0.679221   3.472602   0.662387   0.087933   0.008490   0.094303
     H    9   0.100352   0.025185   0.092998   0.671209   3.440503   0.635657
     H   10   0.664902   0.093967   0.006738   0.094159   0.664174   3.500984
     C   11   0.029302   0.135782   0.887203   3.444199   0.946334   0.146444
     C   12   0.156854   0.919490   4.278063   0.861555   0.113373   0.079344
     C   13   0.035107   0.047137   0.044818   0.584219   0.066289   0.036095
     C   14   0.081944   0.124212   1.055451   0.136452   0.056211   0.067290
     H   15   0.012406   0.015319   0.129273   0.015729   0.014087   0.010419
     O   16   0.018538   0.053581   0.136787   1.494156   0.114427   0.041515
    Cl   17   0.020240   0.077517   0.823539   0.056018   0.021231   0.014159
     C   18   0.003849   0.006840   0.007895   0.006940   0.003701   0.003279
     C   19   0.003960   0.006982   0.008089   0.015693   0.004899   0.003934
     H   20   0.001438   0.002276   0.003556   0.004100   0.001755   0.001655
     C   21   0.002817   0.005428   0.005810   0.006288   0.002431   0.002409
     H   22   0.000543   0.001094   0.001182   0.001213   0.000440   0.000488
     H   23   0.000544   0.001130   0.001258   0.001520   0.000502   0.000512
     H   24   0.000556   0.001110   0.001249   0.001200   0.000492   0.000515
     C   25   0.003209   0.005939   0.006816   0.011510   0.003822   0.003164
     H   26   0.000728   0.001653   0.001768   0.007534   0.001639   0.001061
     H   27   0.001614   0.002774   0.002871   0.004511   0.001170   0.001541
     H   28   0.000749   0.001521   0.001587   0.002613   0.000712   0.000706
     C   29   0.011873   0.015691   0.030073   0.056139   0.012848   0.013018
     H   30   0.002052   0.003108   0.005043   0.009021   0.002991   0.002649
     H   31   0.002984   0.003756   0.007848   0.013945   0.004509   0.003752
     H   32   0.005028   0.009020   0.011796   0.048116   0.006422   0.004587


                  H  7       H  8       H  9       H 10       C 11       C 12
 ------------------------------------------------------------------------------
     H    7   4.296797
     H    8   0.035036   4.308597
     H    9   0.011872   0.013270   4.240618
     H   10   0.031584   0.009342   0.032566   4.315477
     C   11   0.035453   0.019717   0.102963   0.018005  16.404154
     C   12   0.013887   0.046868   0.011889   0.019814   0.196150  14.980077
     C   13   0.005134   0.005250   0.011545   0.005249   3.019141   0.864394
     C   14   0.004521   0.012541   0.004854   0.007277   0.659400   8.787706
     H   15   0.001950   0.003904   0.002261   0.003401   0.061727   0.718176
     O   16   0.012605   0.009675   0.061197   0.010774  10.946484   0.062056
    Cl   17   0.006347   0.121659   0.005608   0.007085   0.074648   2.716600
     C   18   0.001412   0.001474   0.001754   0.001714   0.036801   0.011061
     C   19   0.001416   0.001599   0.002045   0.001824   0.062243   0.012935
     H   20   0.000332   0.000583   0.000528   0.000508   0.009249   0.004862
     C   21   0.001312   0.001416   0.001243   0.001483   0.023692   0.008862
     H   22   0.000276   0.000253   0.000290   0.000323   0.004716   0.001563
     H   23   0.000287   0.000342   0.000261   0.000309   0.004936   0.002078
     H   24   0.000274   0.000288   0.000273   0.000316   0.004601   0.001848
     C   25   0.001436   0.001454   0.001600   0.001612   0.042064   0.009264
     H   26   0.000513   0.000487   0.000678   0.000480   0.022871   0.002692
     H   27   0.000491   0.000443   0.001031   0.000642   0.016422   0.003391
     H   28   0.000395   0.000400   0.000425   0.000430   0.007859   0.002419
     C   29   0.001094   0.001626   0.002269   0.001868   0.690765   0.047443
     H   30   0.000568   0.000784   0.000910   0.000670   0.042258   0.007055
     H   31   0.000495   0.000483   0.001261   0.000609   0.094781   0.008633
     H   32   0.001589   0.001800   0.002393   0.001868   0.694799   0.036976


                  C 13       C 14       H 15       O 16      Cl 17       C 18
 ------------------------------------------------------------------------------
     C   13  12.394466
     C   14   3.839465  15.711999
     H   15   0.604019   3.457580   4.267956
     O   16   1.240693   0.088838   0.019079  12.900437
    Cl   17   0.108611   1.120755   0.062358   0.035016   4.434577
     C   18   0.045989   0.011050   0.013251   0.070759   0.011217  16.702871
     C   19   0.692130   0.057405   0.017051   0.035110   0.012758   8.928484
     H   20   0.017550   0.007460   0.021176   0.005895   0.012255   0.763372
     C   21   0.029432   0.006594   0.008589   0.021864   0.007453   3.797475
     H   22   0.006595   0.001439   0.001121   0.003012   0.001158   0.653683
     H   23   0.004591   0.001478   0.003481   0.003318   0.002253   0.629925
     H   24   0.003736   0.001671   0.002317   0.003738   0.001404   0.654121
     C   25   0.039120   0.012326   0.007822   0.152705   0.008093   3.919593
     H   26   0.008695   0.003286   0.001695   0.130586   0.002706   0.601193
     H   27   0.011760   0.002591   0.001821   0.027724   0.002712   0.689221
     H   28   0.009250   0.005057   0.001825   0.021206   0.002114   0.665527
     C   29   2.713324   0.706750   0.011335   0.063504   0.019826   0.791653
     H   30   0.602688   0.030339   0.004716   0.006487   0.004453   0.047014
     H   31   0.603226   0.042907   0.001457   0.034741   0.004555   0.034719
     H   32   3.129151   0.639645   0.031295   0.061048   0.017055   0.022932


                  C 19       H 20       C 21       H 22       H 23       H 24
 ------------------------------------------------------------------------------
     C   19  15.683997
     H   20   3.462858   4.336293
     C   21   0.882323   0.059922  11.392264
     H   22   0.031025   0.008033   3.317246   4.247004
     H   23   0.042423   0.040187   3.344740   0.568551   4.272853
     H   24   0.033360   0.007743   3.323722   0.572918   0.570474   4.258508
     C   25   0.838605   0.131324   0.739488   0.016032   0.046934   0.017882
     H   26   0.033899   0.004359   0.065778   0.004587   0.008914   0.005588
     H   27   0.028726   0.020008   0.019521   0.027602   0.003497   0.013525
     H   28   0.031132   0.019706   0.016624   0.004617   0.001683   0.023264
     C   29   3.920024   0.633848   0.135022   0.017786   0.006128   0.019912
     H   30   0.639228   0.041613   0.012310   0.002214   0.001796   0.001274
     H   31   0.626852   0.038321   0.013825   0.002174   0.001895   0.001931
     H   32   0.021099   0.002928   0.008433   0.001298   0.001432   0.001930


                  C 25       H 26       H 27       H 28       C 29       H 30
 ------------------------------------------------------------------------------
     C   25  11.531710
     H   26   3.472589   4.394670
     H   27   3.308470   0.562820   4.269541
     H   28   3.324344   0.572843   0.569632   4.243847
     C   29   0.074379   0.040066   0.015850   0.007693  11.850623
     H   30   0.008602   0.001893   0.003233   0.001489   3.287112   4.224709
     H   31   0.015439   0.040215   0.012811   0.002832   3.247280   0.566650
     H   32   0.021066   0.019759   0.006421   0.014426   0.590144   0.047765


                  H 31       H 32
 ------------------------------
     H   31   4.188049
     H   32   0.022419   4.105713


          HEAT OF FORMATION =     -12.044707 KCALS/MOLE


          TRIVIAL VIBRATIONS, SHOULD BE ZERO

   5.9564=TX -17.3457=TY  -5.7392=TZ -26.8249=RX -40.1657=RY -15.8798=RZ


      MOLECULAR POINT GROUP   :   C1  


           EIGENVECTORS  


   Root No.       1         2         3         4         5         6         7         8

                 1 A       2 A       3 A       4 A       5 A       6 A       7 A       8 A   

                  -0.0       0.0       0.0       0.0       0.0       0.0       0.0       0.1
  
           1    0.0263   -0.0860    0.0277    0.0001   -0.0021    0.0719   -0.0304    0.0246
           2   -0.0043    0.0642   -0.0414   -0.0026   -0.0575    0.0531   -0.0340    0.0260
           3    0.0744   -0.0788   -0.1838    0.0354   -0.0281    0.0756    0.0590   -0.0992
           4    0.0263   -0.0859    0.0274    0.0001   -0.0024    0.0719   -0.0307    0.0245
           5    0.0031   -0.0055   -0.0055    0.0017   -0.0419    0.0707   -0.0152    0.0424
           6    0.0513   -0.0236   -0.1231    0.0128    0.0607    0.1379    0.1682    0.0016
           7    0.0194   -0.0247   -0.0029   -0.0036   -0.0157    0.0545   -0.0466    0.0134
           8    0.0072   -0.0409    0.0124    0.0039   -0.0339    0.0798   -0.0055    0.0483
           9   -0.0043    0.0151    0.0056    0.0004    0.0707    0.0404    0.0771    0.1220
          10    0.0136    0.0359   -0.0333   -0.0077   -0.0273    0.0379   -0.0599   -0.0036
          11    0.0038   -0.0052   -0.0059    0.0014   -0.0408    0.0708   -0.0134    0.0399
          12   -0.0378   -0.0036    0.0694    0.0071    0.0028   -0.0504    0.0112    0.1029
          13    0.0139    0.0354   -0.0333   -0.0078   -0.0273    0.0391   -0.0605   -0.0033
          14   -0.0041    0.0649   -0.0420   -0.0027   -0.0575    0.0529   -0.0344    0.0247
          15   -0.0100   -0.0595    0.0101    0.0306   -0.0850   -0.1435   -0.1362    0.1151
          16    0.0203   -0.0258   -0.0027   -0.0039   -0.0144    0.0559   -0.0452    0.0101
          17   -0.0080    0.0997   -0.0590   -0.0049   -0.0647    0.0433   -0.0428    0.0172
          18    0.0461   -0.0968   -0.1169    0.0456   -0.1044   -0.0921   -0.1434    0.0045
          19    0.0312   -0.1336    0.0519    0.0031    0.0081    0.0856   -0.0182    0.0376
          20   -0.0070    0.0911   -0.0551   -0.0043   -0.0632    0.0458   -0.0410    0.0189
          21    0.1138   -0.1073   -0.2840    0.0456   -0.0397    0.1542    0.1235   -0.2721
          22    0.0316   -0.1338    0.0509    0.0030    0.0074    0.0873   -0.0178    0.0325
          23    0.0060   -0.0323    0.0075    0.0034   -0.0363    0.0797   -0.0076    0.0471
          24    0.0754   -0.0104   -0.1775    0.0053    0.1188    0.2647    0.3238   -0.0427
          25    0.0080    0.0827   -0.0561   -0.0108   -0.0376    0.0278   -0.0728   -0.0143
          26   -0.0085    0.0915   -0.0531   -0.0045   -0.0630    0.0466   -0.0391    0.0185
          27   -0.0358   -0.0735    0.0669    0.0375   -0.1391   -0.2557   -0.2451    0.1953
          28    0.0204   -0.0262   -0.0025   -0.0039   -0.0141    0.0565   -0.0449    0.0102
          29   -0.0134    0.1551   -0.0876   -0.0084   -0.0774    0.0284   -0.0600    0.0055
          30    0.0664   -0.1401   -0.1646    0.0654   -0.1793   -0.1779   -0.3003   -0.0204
          31    0.0102    0.0998   -0.0723   -0.0116   -0.0448    0.0220   -0.0819   -0.0222
          32    0.0081   -0.0396    0.0141    0.0030   -0.0303    0.0785   -0.0017    0.0503
          33   -0.1192    0.0363    0.2004   -0.0081    0.0180   -0.0261    0.1383   -0.0305
          34    0.0190   -0.0213   -0.0051   -0.0036   -0.0171    0.0539   -0.0475    0.0133
          35    0.0166   -0.1138    0.0469    0.0084   -0.0195    0.0956    0.0110    0.0562
          36   -0.0330    0.0755    0.0770   -0.0155    0.1319    0.0005   -0.0202    0.1689
          37    0.0038    0.0957   -0.0653   -0.0094   -0.0431    0.0068   -0.0549   -0.0130
          38    0.0208   -0.1145    0.0440    0.0086   -0.0044    0.0846    0.0102    0.0763
          39   -0.0728    0.0670    0.1475   -0.0219    0.0034    0.0551   -0.0227   -0.1191
          40    0.0123    0.0325   -0.0358   -0.0059   -0.0319    0.0375   -0.0510    0.0045
          41    0.0241   -0.1486    0.0593    0.0104   -0.0067    0.1069    0.0218    0.0872
          42   -0.0697    0.1003    0.1456   -0.0215    0.0846   -0.0245   -0.1226   -0.1305
          43    0.0121    0.0335   -0.0363   -0.0060   -0.0321    0.0369   -0.0502    0.0051
          44    0.0311   -0.2039    0.0826    0.0150    0.0005    0.1351    0.0395    0.1175
          45   -0.0905    0.1456    0.1976   -0.0284    0.1052   -0.0815   -0.2763   -0.2866
          46    0.0100    0.1529   -0.1120   -0.0150   -0.0650    0.0232   -0.1258   -0.0416
          47   -0.0082   -0.0083    0.0112    0.0016   -0.0399    0.0743    0.0096    0.0305
          48   -0.2293    0.0394    0.3309   -0.0039    0.0277   -0.0583    0.3841   -0.0887
          49    0.0252   -0.0897    0.0389   -0.0007    0.0052    0.0691   -0.0451    0.0422
          50    0.0189   -0.1579    0.0719    0.0110   -0.0197    0.1119    0.0199    0.0237
          51   -0.0199    0.1189    0.0764   -0.0232    0.2616   -0.0654   -0.1006    0.6747
          52   -0.0186   -0.0096    0.0285    0.0110    0.0289   -0.0594    0.0712    0.0012
          53    0.0024    0.0531   -0.0092   -0.0168    0.0338   -0.0877    0.0054   -0.0567
          54    0.0470   -0.0154   -0.0354   -0.0263   -0.0235    0.0103   -0.0129   -0.0216
          55   -0.0339    0.0948   -0.0024   -0.0110    0.0034   -0.0496    0.0977    0.0236
          56   -0.0161   -0.0040    0.0576    0.0061    0.0219   -0.0399   -0.0471   -0.0862
          57   -0.0113   -0.0005    0.0731   -0.0053   -0.0861    0.1308   -0.0950   -0.0596
          58   -0.0480    0.1779   -0.0204   -0.0343    0.0055   -0.0457    0.1264    0.0368
          59   -0.0471    0.0272    0.0956    0.0291   -0.0592    0.0053   -0.0789   -0.1111
          60   -0.0391   -0.0376    0.1387    0.0463   -0.1895    0.1818   -0.1609   -0.1012
          61   -0.0146   -0.0130    0.0388   -0.0097    0.0641   -0.0318    0.0425   -0.0119
          62   -0.0371    0.1649   -0.0375    0.0153   -0.0916   -0.1154    0.0860   -0.0118
          63    0.0560   -0.0773   -0.0778    0.0684   -0.1281   -0.1361    0.0959    0.0156
          64    0.0023   -0.0673    0.0703   -0.1377    0.1779    0.0485   -0.0629   -0.0632
          65   -0.0827    0.1219   -0.0477   -0.2710   -0.1975   -0.1529    0.1192   -0.0007
          66    0.1175   -0.0002   -0.0703    0.5230   -0.0036   -0.1038    0.0778    0.0132
          67   -0.0234    0.0953    0.0392    0.0767    0.0605    0.0159    0.0445   -0.0020
          68   -0.0800    0.1565   -0.0518   -0.1964   -0.2012   -0.1545    0.1344    0.0082
          69   -0.0082   -0.1815   -0.1011   -0.3511   -0.3055   -0.2394    0.1734    0.0401
          70   -0.0217   -0.0748    0.0154    0.0060   -0.0174   -0.1374    0.1215    0.0141
          71    0.0228    0.3066   -0.0347    0.5567    0.0239   -0.0689    0.0819   -0.0031
          72    0.0598   -0.0921   -0.0904    0.1532   -0.1579   -0.1893    0.1404    0.0321
          73   -0.0052   -0.1327    0.0503    0.0487    0.0326   -0.1074    0.0647   -0.0296
          74    0.0298    0.0113   -0.0647   -0.0504    0.1695   -0.1198    0.0007   -0.0647
          75    0.0798    0.0240   -0.1280   -0.1015    0.1569    0.0037   -0.0153   -0.0078
          76   -0.0500   -0.1377    0.0408    0.0566    0.0309   -0.1043    0.0664   -0.0305
          77    0.3135   -0.0085    0.0437   -0.0796    0.1872   -0.1728    0.0134   -0.0941
          78    0.5005    0.1749    0.0185   -0.1959    0.1579   -0.0114    0.0193   -0.0031
          79    0.3958   -0.0943    0.2065   -0.0077    0.0525   -0.1671    0.0956   -0.0595
          80    0.0510    0.0354   -0.0242   -0.0382    0.0961   -0.1146    0.0104   -0.0617
          81   -0.2245   -0.0571   -0.3163   -0.0926    0.3149    0.0296   -0.0574   -0.0012
          82   -0.3882   -0.2705   -0.0757    0.1375    0.0138   -0.0915    0.0364   -0.0340
          83   -0.2775   -0.0292   -0.2692   -0.0597    0.3347   -0.0796   -0.0420   -0.0492
          84   -0.0455   -0.0245   -0.1658   -0.0693    0.1432    0.0091   -0.0258   -0.0095
          85   -0.0325    0.1083   -0.0141   -0.0099   -0.0166   -0.0463    0.0876    0.0212
          86   -0.0006   -0.1052    0.0857    0.0146    0.0921   -0.0618   -0.0392   -0.0717
          87   -0.0542    0.0602    0.1175   -0.0254   -0.0429    0.1327   -0.0318   -0.0554
          88   -0.0594    0.1887   -0.0125   -0.0245   -0.0464   -0.0195    0.1435    0.0503
          89   -0.0081   -0.1314    0.1204    0.0223    0.1703   -0.1655   -0.0658   -0.1756
          90   -0.0732    0.0693    0.1505   -0.0238    0.0170    0.0461   -0.0306   -0.1377
          91   -0.0293    0.0505    0.0096   -0.0013    0.0231   -0.0747    0.1043    0.0204
          92    0.0022   -0.1463    0.1038    0.0220    0.1255   -0.0961   -0.0378   -0.0920
          93   -0.0665    0.0909    0.1001   -0.0346   -0.1174    0.2435    0.0524    0.0788
          94    0.0229    0.1431   -0.1135   -0.0167   -0.0585    0.0326   -0.1561   -0.0571
          95    0.0413   -0.1484    0.0320    0.0052   -0.0492    0.1660    0.0418    0.1401
          96   -0.0434    0.0625    0.1091   -0.0283   -0.0452    0.1397   -0.0471   -0.0779


   Root No.       9        10        11        12        13        14        15        16

                 9 A      10 A      11 A      12 A      13 A      14 A      15 A      16 A   

                   0.1       0.1       0.1       0.2       0.2       0.2       0.2       0.3
  
           1   -0.0149   -0.0388    0.0027   -0.0547    0.0182    0.0160   -0.0096    0.0215
           2   -0.0085   -0.0491    0.0398   -0.0521    0.0018    0.0036   -0.0297   -0.0182
           3   -0.0997    0.0052    0.0032    0.0046    0.0266   -0.1204   -0.0205   -0.0100
           4   -0.0142   -0.0389    0.0051   -0.0539    0.0142    0.0137   -0.0136    0.0130
           5   -0.0202   -0.0300   -0.0200   -0.0425    0.0431    0.0239    0.0225    0.0546
           6    0.1830   -0.0299    0.0044   -0.0238   -0.0379    0.0644    0.0078   -0.0134
           7   -0.0062   -0.0520    0.0565   -0.0542   -0.0186   -0.0049   -0.0507   -0.0449
           8   -0.0249   -0.0212   -0.0486   -0.0391    0.0606    0.0330    0.0439    0.0833
           9    0.1751   -0.0083    0.0003    0.0416   -0.1945   -0.0477   -0.0203   -0.0388
          10    0.0032   -0.0552    0.0860   -0.0475   -0.0389   -0.0135   -0.0631   -0.0570
          11   -0.0198   -0.0227   -0.0327   -0.0351    0.0490    0.0283    0.0374    0.0784
          12    0.1881   -0.0159    0.0020    0.0278   -0.1137   -0.1570   -0.0294   -0.0395
          13    0.0040   -0.0566    0.0877   -0.0501   -0.0430   -0.0153   -0.0688   -0.0636
          14   -0.0073   -0.0454    0.0315   -0.0492    0.0067    0.0069   -0.0201    0.0005
          15    0.2088   -0.0331    0.0097   -0.0297    0.0489   -0.0839   -0.0174   -0.0125
          16   -0.0050   -0.0464    0.0413   -0.0522   -0.0096    0.0021   -0.0351   -0.0116
          17   -0.0030   -0.0544    0.0632   -0.0514   -0.0149   -0.0041   -0.0457   -0.0398
          18   -0.0790    0.0101    0.0012    0.0163   -0.0941    0.0803    0.0105   -0.0106
          19   -0.0241   -0.0293   -0.0403   -0.0567    0.0553    0.0352    0.0295    0.0918
          20   -0.0038   -0.0559    0.0648   -0.0537   -0.0182   -0.0070   -0.0534   -0.0579
          21   -0.3728    0.0268    0.0089   -0.0003    0.2775   -0.4939   -0.0798    0.0107
          22   -0.0211   -0.0322   -0.0393   -0.0626    0.0488    0.0359    0.0182    0.0665
          23   -0.0240   -0.0266   -0.0452   -0.0482    0.0642    0.0376    0.0414    0.0871
          24    0.3937   -0.0829    0.0111   -0.1320    0.0902    0.4387    0.0791    0.0280
          25    0.0094   -0.0813    0.1504   -0.0697   -0.0912   -0.0357   -0.1376   -0.1663
          26   -0.0063   -0.0613    0.0701   -0.0624   -0.0184   -0.0033   -0.0601   -0.0583
          27    0.4214   -0.0907    0.0379   -0.1422    0.4098   -0.1742   -0.0370    0.0348
          28   -0.0052   -0.0475    0.0420   -0.0540   -0.0098    0.0016   -0.0370   -0.0125
          29    0.0079   -0.0708    0.1167   -0.0595   -0.0572   -0.0254   -0.0987   -0.1205
          30   -0.3231    0.0449    0.0015    0.0498   -0.3086    0.5036    0.0794    0.0085
          31    0.0283   -0.0391    0.0739   -0.0198   -0.0337   -0.0178   -0.0225    0.0231
          32   -0.0318   -0.0204   -0.0399   -0.0384    0.0489    0.0307    0.0288    0.0477
          33   -0.0090   -0.0541    0.0981   -0.0159   -0.0733   -0.0547   -0.0307   -0.0130
          34   -0.0050   -0.0526    0.0602   -0.0534   -0.0198   -0.0060   -0.0516   -0.0470
          35   -0.0247   -0.0040   -0.0718   -0.0156    0.0347    0.0135    0.0296    0.0151
          36    0.0163    0.0097   -0.0219    0.0119   -0.1317   -0.0210   -0.0215   -0.0235
          37    0.0243   -0.0463    0.0966   -0.0034   -0.0115   -0.0118    0.0054    0.0445
          38   -0.0264    0.0025   -0.0652   -0.0018    0.0261    0.0080    0.0271   -0.0145
          39    0.0277    0.0520   -0.1040   -0.0028   -0.1512   -0.0666   -0.0673   -0.0139
          40    0.0111   -0.0559    0.0824   -0.0397   -0.0124   -0.0037   -0.0251    0.0121
          41   -0.0306   -0.0006   -0.0715   -0.0100    0.0144    0.0045    0.0100   -0.0265
          42   -0.0157    0.0016   -0.1327   -0.1047   -0.0021    0.0254   -0.0116   -0.0187
          43    0.0121   -0.0567    0.0851   -0.0380   -0.0154   -0.0055   -0.0257    0.0137
          44   -0.0357   -0.0020   -0.0844   -0.0122   -0.0140   -0.0045   -0.0177   -0.1095
          45   -0.1597   -0.0048   -0.2787   -0.3493    0.4073    0.2141    0.0773   -0.0419
          46    0.0639   -0.0209    0.0283   -0.0120   -0.0419   -0.0317   -0.0001    0.1022
          47   -0.0503   -0.0403   -0.0034   -0.0527    0.0668    0.0534    0.0371    0.0998
          48   -0.2692   -0.2487    0.5125   -0.1371    0.0870    0.1561   -0.0528    0.0455
          49   -0.0395   -0.0430    0.0219   -0.0643   -0.0194   -0.0152   -0.0787   -0.1366
          50   -0.0112   -0.0043   -0.1069   -0.0297    0.0151    0.0126    0.0115   -0.0461
          51   -0.3322    0.0589    0.0997    0.0600    0.0829   -0.0539   -0.0115    0.0427
          52   -0.0138   -0.0185   -0.0934    0.0866    0.0267   -0.0041    0.1298   -0.0610
          53    0.0320    0.1085    0.0795   -0.0405   -0.0623   -0.0524    0.0972    0.1933
          54    0.0063   -0.0344    0.0147    0.1439    0.0240    0.0150   -0.0536    0.2932
          55   -0.0233   -0.0278   -0.1114    0.0302   -0.0112   -0.0219    0.0995   -0.0062
          56    0.0474    0.1308    0.1167    0.0087   -0.0413   -0.0446    0.1262    0.0518
          57    0.0299    0.0057    0.0706    0.1842    0.0160    0.0029   -0.0101    0.0522
          58   -0.0298    0.0470   -0.1490   -0.0896   -0.0830   -0.0519    0.0578    0.0726
          59    0.0713    0.2351    0.2394    0.1291    0.0251   -0.0416    0.3042   -0.1083
          60    0.0653    0.0877    0.2682    0.4468    0.1697    0.0356    0.2554   -0.2259
          61   -0.0064    0.0011   -0.0743    0.1000    0.0227   -0.0080    0.1341   -0.0067
          62    0.0022    0.0079   -0.0505    0.1067    0.0326    0.0220   -0.0337    0.0588
          63   -0.0072   -0.0060   -0.0009   -0.0273   -0.0196   -0.0196    0.0492    0.1002
          64    0.0249    0.0683    0.0538    0.1114   -0.0263   -0.0634    0.2672    0.4011
          65   -0.0051   -0.0172   -0.0919    0.1712    0.0756    0.0582   -0.1090    0.0041
          66   -0.0058    0.0103    0.0172   -0.1164   -0.0646   -0.0536    0.1170    0.0641
          67   -0.0187   -0.0693   -0.1691    0.3313    0.1492    0.0902   -0.0526   -0.0240
          68   -0.0120   -0.0348   -0.1262    0.1994    0.0974    0.0763   -0.1402   -0.0382
          69   -0.0203   -0.0173   -0.0398   -0.0887   -0.0330   -0.0255    0.0646   -0.0411
          70   -0.0182    0.0244   -0.0945   -0.0913   -0.0512   -0.0658    0.2900   -0.2814
          71   -0.0063   -0.0231   -0.1082    0.1669    0.0770    0.0599   -0.1079   -0.0326
          72   -0.0153    0.0030   -0.0194   -0.1386   -0.0616   -0.0509    0.1304   -0.0708
          73    0.0144    0.1271   -0.0210    0.0762    0.0509    0.0414   -0.0752   -0.0262
          74    0.0349    0.1634    0.0977   -0.0706   -0.0365   -0.0195   -0.0038    0.0605
          75   -0.0100   -0.0625   -0.0187    0.1048    0.0385    0.0216   -0.0213    0.0952
          76    0.0123    0.1228   -0.0161    0.0802    0.0533    0.0458   -0.0883   -0.0258
          77    0.0524    0.2759    0.1584   -0.0691    0.0049    0.0446   -0.2655   -0.0026
          78   -0.0326   -0.1178   -0.0330    0.1059    0.0508    0.0040    0.1616   -0.0922
          79    0.0199    0.2257    0.0396    0.0744    0.1058    0.1103   -0.2898   -0.1882
          80    0.0338    0.1360    0.0870   -0.0726   -0.0719   -0.0508    0.0561    0.2309
          81   -0.0086   -0.0413   -0.0161    0.1146    0.0938    0.0597   -0.0503   -0.2268
          82    0.0371    0.2027   -0.0072    0.1015    0.0562    0.0718   -0.2781    0.1997
          83    0.0317    0.1617    0.0849   -0.0936   -0.0143   -0.0210    0.1039   -0.3249
          84   -0.0015   -0.0379   -0.0143    0.1204    0.0422    0.0321   -0.0879    0.1878
          85   -0.0143    0.0055   -0.0421    0.0296    0.0015   -0.0207    0.1204    0.0122
          86    0.0151   -0.1084   -0.0355    0.0242   -0.0583   -0.0393    0.0440    0.0012
          87    0.0140    0.0944   -0.0821   -0.0076   -0.1144   -0.0442   -0.0942   -0.0060
          88   -0.0189    0.2819   -0.0574   -0.0958   -0.0064   -0.0292    0.2090    0.0212
          89    0.0388   -0.3325   -0.0796    0.0901   -0.2022   -0.1159   -0.0055   -0.0078
          90    0.0331    0.0168   -0.1276   -0.0044   -0.2444   -0.1139   -0.1054   -0.0120
          91   -0.0299   -0.1689   -0.1651    0.0800   -0.0368   -0.0401    0.0837   -0.0357
          92    0.0122   -0.2641   -0.0994    0.0769   -0.1025   -0.0634    0.0133   -0.0238
          93   -0.0347    0.3392   -0.1593   -0.1142   -0.0197    0.0112   -0.0545   -0.0509
          94    0.0437   -0.0293    0.0667   -0.0388   -0.0227    0.0022   -0.0414    0.0997
          95   -0.0281    0.0674   -0.0688    0.0267   -0.0319   -0.0243   -0.0432   -0.0376
          96    0.0339    0.1193   -0.1129    0.0026   -0.2005   -0.0836   -0.1552   -0.0015


   Root No.      17        18        19        20        21        22        23        24

                17 A      18 A      19 A      20 A      21 A      22 A      23 A      24 A   

                   0.3       0.4       0.5       0.6       0.7       0.7       0.8       0.8
  
           1   -0.0711    0.0248   -0.0128   -0.0747   -0.0969    0.0021    0.0028   -0.0001
           2    0.0093    0.0367   -0.0062   -0.0985    0.0013   -0.0205    0.0005    0.0002
           3   -0.0227    0.1101   -0.0014    0.0579   -0.0046   -0.0833    0.0094   -0.0040
           4   -0.0528    0.0241   -0.0108   -0.0678   -0.0771    0.0014    0.0024   -0.0003
           5   -0.1327    0.0349   -0.0102   -0.0833    0.0217   -0.0168   -0.0010    0.0014
           6   -0.0175    0.1328   -0.0044    0.0625    0.0031   -0.0590    0.0079   -0.0022
           7    0.0658    0.0225   -0.0013   -0.0476   -0.0117   -0.0170   -0.0001   -0.0003
           8   -0.1872    0.0318   -0.0126   -0.0696   -0.0079   -0.0096   -0.0005    0.0011
           9   -0.0854    0.3666   -0.0215    0.0667    0.0133   -0.0036    0.0037    0.0015
          10    0.0986   -0.0005   -0.0008    0.0281   -0.0608    0.0178    0.0004    0.0002
          11   -0.1739    0.0167   -0.0113   -0.0181    0.0044    0.0160   -0.0007    0.0010
          12   -0.0796    0.3683    0.0151    0.0516   -0.0119   -0.1125    0.0043   -0.0037
          13    0.1091    0.0014   -0.0012    0.0235   -0.0766    0.0232    0.0012    0.0001
          14   -0.0268    0.0288   -0.0094   -0.0779   -0.0232   -0.0012    0.0014    0.0000
          15   -0.0198    0.1280    0.0040    0.0523   -0.0114   -0.1005    0.0077   -0.0045
          16    0.0000    0.0087   -0.0092   -0.0098   -0.1043    0.0275    0.0024   -0.0001
          17    0.0550    0.0292   -0.0043   -0.0688   -0.0139   -0.0062    0.0009    0.0002
          18   -0.0182    0.1086    0.0020    0.0565   -0.0080   -0.0956    0.0095   -0.0047
          19   -0.2229    0.0367   -0.0276   -0.1754   -0.2604   -0.0068    0.0081    0.0029
          20    0.0922    0.0332    0.0007   -0.0601    0.0856   -0.0169   -0.0022   -0.0014
          21   -0.0002   -0.0944   -0.0091   -0.0529    0.0068    0.0867   -0.0077    0.0037
          22   -0.1701    0.0390   -0.0224   -0.1620   -0.0045    0.0474    0.0044    0.0020
          23   -0.2041    0.0441   -0.0172   -0.1433    0.0702    0.0065   -0.0002    0.0030
          24    0.1030   -0.3072    0.0252   -0.0580    0.0020    0.0166   -0.0054    0.0002
          25    0.3029    0.0224    0.0016   -0.0633   -0.3123    0.0192    0.0117   -0.0013
          26    0.0839    0.0413   -0.0089   -0.1405   -0.1559   -0.0030    0.0077   -0.0008
          27    0.0638   -0.3029   -0.0243   -0.0476    0.0123    0.1147   -0.0057    0.0043
          28   -0.0002    0.0104   -0.0102   -0.0132   -0.1232    0.0304    0.0029   -0.0001
          29    0.2158    0.0285    0.0036   -0.0557   -0.0053    0.0266    0.0011    0.0030
          30    0.0249   -0.1070    0.0061   -0.0555    0.0054    0.0748   -0.0079    0.0034
          31   -0.0557   -0.0248   -0.0085    0.0897    0.0215   -0.0194   -0.0033   -0.0018
          32   -0.1037    0.0141   -0.0033    0.0155   -0.0165    0.0571   -0.0006    0.0038
          33   -0.0358    0.0911    0.0208   -0.0566   -0.0091   -0.0276   -0.0057   -0.0017
          34    0.0689    0.0246    0.0001   -0.0536    0.0178   -0.0265   -0.0011   -0.0000
          35   -0.0197    0.0146    0.0078    0.0636    0.0227   -0.0392   -0.0023   -0.0029
          36   -0.0537    0.2020   -0.0441    0.0025    0.0436    0.1588   -0.0060    0.0076
          37   -0.0849   -0.0016    0.0024    0.1157    0.0333   -0.0359   -0.0072   -0.0037
          38    0.0564    0.0182    0.0156    0.1439   -0.0373    0.0306   -0.0031    0.0001
          39   -0.0263   -0.1089   -0.0216   -0.1147    0.0027    0.0548   -0.0001   -0.0002
          40   -0.0523    0.0311   -0.0066   -0.0243    0.0208   -0.0745   -0.0045   -0.0040
          41    0.0645    0.0154    0.0122    0.0626    0.0180   -0.0219   -0.0005   -0.0012
          42   -0.0110    0.0937   -0.0360   -0.0498    0.0383    0.1564   -0.0063    0.0052
          43   -0.0574    0.0304   -0.0077   -0.0189    0.0319   -0.0807   -0.0056   -0.0051
          44    0.1988    0.0498    0.0294   -0.1080    0.0977    0.0402   -0.0018    0.0224
          45    0.1267    0.2047    0.0828    0.1205   -0.0496   -0.2436    0.0134   -0.0077
          46   -0.2522   -0.0420   -0.0153   -0.0044    0.1216   -0.0658   -0.0014   -0.0122
          47   -0.2175   -0.0132   -0.0205   -0.0136    0.0442    0.0309    0.0015   -0.0024
          48   -0.0578   -0.0327   -0.0698    0.1377    0.0373   -0.0014    0.0009    0.0006
          49    0.2715    0.0156    0.0296    0.0196    0.6049    0.0609   -0.0062   -0.0027
          50    0.0958    0.0560    0.0197    0.1020    0.3580    0.0331   -0.0052   -0.0028
          51    0.0039   -0.2401    0.0101   -0.0259    0.0010   -0.0435    0.0017   -0.0028
          52    0.0328   -0.0071   -0.1224    0.0153   -0.0114    0.0070    0.0002    0.0059
          53    0.0925    0.0046    0.0026    0.0137   -0.0100    0.0142   -0.0041    0.0004
          54    0.1283    0.0451    0.0259   -0.0122    0.0038    0.0026    0.0041    0.0075
          55    0.0040   -0.0229    0.1479    0.0042    0.0160   -0.0200   -0.0019   -0.0064
          56    0.0496   -0.0110   -0.1421    0.0130   -0.0129    0.0239   -0.0176    0.0041
          57    0.0012   -0.0197    0.0497    0.0101    0.0063    0.0052   -0.0271   -0.0110
          58   -0.0033   -0.0696    0.3024   -0.0139    0.0686   -0.1196   -0.0319    0.0967
          59   -0.0022   -0.0341    0.0903   -0.0330    0.0167   -0.0490   -0.0599    0.0762
          60   -0.0598   -0.0090    0.2274   -0.0424    0.0057   -0.0117   -0.0531   -0.0131
          61    0.0590   -0.0044   -0.1404    0.0232   -0.0200    0.0126   -0.0281   -0.0185
          62    0.0382    0.0085   -0.0050    0.0108   -0.0096    0.0174    0.0806   -0.1243
          63    0.0531    0.0152    0.0155   -0.0140    0.0045   -0.0009    0.1372    0.0805
          64    0.2586    0.0404   -0.0959    0.0421   -0.0500    0.0667    0.4731   -0.3299
          65    0.0159    0.0132   -0.0469    0.0101   -0.0132    0.0178   -0.0165   -0.1578
          66    0.0336   -0.0038    0.0433   -0.0143    0.0136   -0.0103    0.1693    0.1897
          67    0.0689    0.0292   -0.2636   -0.0013   -0.0155   -0.0165   -0.0510    0.4002
          68    0.0036    0.0131   -0.0836   -0.0002   -0.0074    0.0062    0.1075    0.0733
          69   -0.0075   -0.0094   -0.0079   -0.0094    0.0051    0.0020    0.2005    0.0851
          70   -0.0418   -0.0742   -0.2630    0.0947   -0.0643    0.0384   -0.4165   -0.3848
          71    0.0064    0.0071   -0.0846    0.0222   -0.0260    0.0358    0.0911   -0.2804
          72   -0.0128   -0.0266   -0.0513    0.0250   -0.0195    0.0144   -0.0695   -0.1293
          73    0.0018    0.0059   -0.0817    0.0003   -0.0086    0.0036    0.0223    0.1013
          74    0.0123   -0.0053    0.0155    0.0175   -0.0174    0.0146   -0.0755    0.0605
          75    0.0510    0.0253    0.0090   -0.0175    0.0061   -0.0078   -0.1274   -0.0226
          76   -0.0002    0.0055   -0.0852    0.0007   -0.0051   -0.0010    0.0395    0.1053
          77   -0.0981   -0.0083    0.2526    0.0001    0.0076    0.0068   -0.1499   -0.2137
          78    0.0252    0.0043   -0.1646   -0.0005   -0.0158   -0.0123   -0.1700    0.1916
          79   -0.1317   -0.0012    0.0283   -0.0381    0.0319    0.0035    0.2755   -0.0482
          80    0.1044    0.0047   -0.0176    0.0499   -0.0494    0.0195   -0.2587    0.2329
          81   -0.1008    0.0011    0.0429   -0.0642    0.0540   -0.0200    0.1257   -0.3156
          82    0.0578    0.0381    0.0304   -0.0240    0.0025   -0.0297   -0.2884    0.0431
          83   -0.1372   -0.0615   -0.0547    0.0644   -0.0458    0.0359    0.2740    0.3153
          84    0.0791    0.0405    0.0468   -0.0314    0.0113   -0.0205   -0.2701   -0.0580
          85   -0.0036   -0.0045    0.1724   -0.0067    0.0296   -0.0447   -0.0079    0.0049
          86    0.0374   -0.0118   -0.0831    0.0416   -0.0293    0.1037   -0.0100   -0.0073
          87   -0.0267   -0.1120   -0.0181   -0.0271   -0.0093    0.0300   -0.0052    0.0022
          88    0.0614    0.0072    0.0013   -0.2719    0.1695   -0.1688    0.0003   -0.0242
          89   -0.0344   -0.1857   -0.0342   -0.1263    0.0221   -0.0379    0.0181   -0.0045
          90   -0.0624   -0.2583   -0.0641   -0.3151    0.0978   -0.1382    0.0263   -0.0102
          91   -0.0349   -0.0628    0.5998    0.1321   -0.0901    0.1572   -0.0083    0.0578
          92    0.0017   -0.0724    0.1834    0.1193   -0.0914    0.1791   -0.0101    0.0274
          93    0.0685   -0.0108    0.0032    0.1127   -0.2009    0.5259   -0.0005    0.0166
          94   -0.2259   -0.1026   -0.1298    0.4818    0.2230    0.2079    0.0164    0.0234
          95    0.1037   -0.1413    0.0225    0.3467   -0.1978   -0.4938    0.0359   -0.0270
          96   -0.0643   -0.2945   -0.0914    0.2529   -0.0340   -0.2506    0.0462   -0.0083


   Root No.      25        26        27        28        29        30        31        32

                25 A      26 A      27 A      28 A      29 A      30 A      31 A      32 A   

                   0.8       0.8       0.8       0.9       0.9       0.9       0.9       1.0
  
           1   -0.0138   -0.0617   -0.0351    0.0016    0.0018   -0.0674   -0.0080    0.0074
           2   -0.0069   -0.0748    0.0373   -0.0599   -0.0291    0.1056   -0.0187   -0.0589
           3   -0.0147    0.0224   -0.0683    0.0212   -0.0465    0.0152   -0.2401    0.0716
           4   -0.0130   -0.0312   -0.0164    0.0047    0.0032   -0.0714   -0.0098    0.0054
           5    0.0110    0.0197    0.0527   -0.0566   -0.0288    0.1103   -0.0136   -0.0552
           6    0.0112    0.0151   -0.0525    0.0091   -0.0159   -0.0017   -0.0636    0.0336
           7    0.0326   -0.0119    0.0908   -0.0034   -0.0055    0.0008   -0.0297   -0.0312
           8   -0.0019   -0.0178    0.0021   -0.0279   -0.0138    0.0294   -0.0047   -0.0191
           9    0.0474   -0.0020   -0.0109   -0.0147    0.0351   -0.0284    0.2177   -0.0385
          10    0.0262    0.0223   -0.0064    0.0548    0.0238   -0.0704   -0.0008    0.0427
          11   -0.0039    0.0084   -0.0228    0.0221    0.0092   -0.0093    0.0032    0.0326
          12   -0.0578    0.0054    0.0049    0.0043   -0.0213    0.0207   -0.0921   -0.0133
          13    0.0216    0.0614   -0.0142    0.0646    0.0294   -0.0967    0.0019    0.0554
          14   -0.0393   -0.0732   -0.0393   -0.0293   -0.0118    0.0150   -0.0014   -0.0115
          15   -0.0429    0.0180   -0.0448    0.0182   -0.0493    0.0284   -0.2534    0.0479
          16   -0.0170   -0.0088   -0.0720    0.0721    0.0350   -0.1974    0.0026    0.0761
          17   -0.0237   -0.0532   -0.0129   -0.0353   -0.0157    0.0313   -0.0061   -0.0263
          18   -0.0294    0.0237   -0.0688    0.0242   -0.0576    0.0240   -0.3035    0.0783
          19    0.0993    0.3722    0.0314   -0.1098   -0.0432    0.5264    0.0436   -0.0400
          20   -0.0761   -0.3350   -0.0004   -0.0088   -0.0092   -0.2255   -0.0523   -0.0441
          21    0.0189   -0.0181    0.0547   -0.0183    0.0392   -0.0144    0.2009   -0.0552
          22   -0.3009    0.0113   -0.3116   -0.1637   -0.0609   -0.4315    0.0153   -0.1067
          23   -0.1496    0.0451   -0.1049   -0.1638   -0.0713   -0.0663   -0.0011   -0.1318
          24   -0.0331   -0.0068    0.0401   -0.0004   -0.0017    0.0173   -0.0240   -0.0123
          25    0.0162   -0.1696   -0.2706   -0.0707   -0.0213    0.2725    0.0709    0.0274
          26   -0.0495   -0.2194   -0.1953   -0.1234   -0.0473    0.2452    0.0416   -0.0387
          27    0.0535   -0.0167    0.0249   -0.0167    0.0415   -0.0243    0.2132   -0.0331
          28   -0.0185   -0.0153   -0.0868    0.0843    0.0407   -0.2295    0.0020    0.0920
          29   -0.0458    0.7775    0.0801   -0.0049    0.0087   -0.2374    0.0093   -0.0058
          30    0.0166   -0.0195    0.0577   -0.0176    0.0420   -0.0166    0.2171   -0.0570
          31    0.0051   -0.0263    0.0966    0.0867    0.0370   -0.0037    0.0078    0.0332
          32    0.0338    0.0312   -0.1015    0.0325    0.0097   -0.0270   -0.0003    0.0652
          33   -0.0642   -0.0110    0.0763   -0.0027   -0.0011    0.0081   -0.0321   -0.0299
          34    0.0605   -0.0253    0.1444   -0.0119   -0.0131   -0.0074   -0.0479   -0.0537
          35    0.0267   -0.0313    0.0378    0.0790    0.0386    0.0419    0.0228    0.0657
          36    0.1047   -0.0222    0.0313   -0.0409    0.0885   -0.0528    0.4821   -0.0842
          37   -0.0077   -0.0245    0.0853    0.0884    0.0425    0.0191    0.0181    0.0407
          38    0.0355    0.0103   -0.0727    0.1037    0.0518    0.0034    0.0474    0.1035
          39   -0.0341   -0.0092    0.0544   -0.0544   -0.0152   -0.0016   -0.0243   -0.0396
          40    0.0291   -0.0642    0.2351    0.0401    0.0208    0.0201   -0.0082   -0.0436
          41    0.0491   -0.0114    0.0033    0.0581    0.0288    0.0196    0.0260    0.0573
          42    0.0491   -0.0151    0.0259   -0.0348    0.0339   -0.0134    0.1789   -0.0351
          43    0.0109   -0.0723    0.2669    0.0556    0.0307    0.0352   -0.0002   -0.0460
          44    0.6749   -0.0737    0.2042   -0.1722   -0.1374   -0.1907   -0.1913   -0.1233
          45    0.0189    0.0030    0.0158    0.0179   -0.0212   -0.0182   -0.0619   -0.0103
          46   -0.0665   -0.0915    0.3880    0.1706    0.0821    0.0227   -0.0187    0.0478
          47    0.0086   -0.0058    0.0518    0.0833    0.0387   -0.0136   -0.0069    0.0786
          48    0.0527    0.0006   -0.0109    0.0176    0.0091   -0.0020    0.0101    0.0077
          49   -0.3067    0.0491   -0.0088   -0.0762   -0.0368    0.2375   -0.0219   -0.0581
          50   -0.1454    0.0087   -0.0538    0.0323    0.0337    0.1761    0.1017    0.0569
          51   -0.0545    0.0060   -0.0139    0.0140   -0.0320    0.0277   -0.1774    0.0329
          52   -0.0041    0.0009   -0.0028    0.0178    0.0033    0.0015    0.0027   -0.0037
          53   -0.0046   -0.0014    0.0052   -0.0006    0.0238    0.0018   -0.0002    0.0388
          54    0.0001   -0.0015    0.0055    0.0012    0.0020    0.0014   -0.0039   -0.0041
          55    0.0192    0.0024   -0.0151    0.0046   -0.0213   -0.0005    0.0148   -0.0308
          56   -0.0101   -0.0040    0.0097    0.0278    0.0653    0.0064    0.0061    0.1007
          57   -0.0179   -0.0104    0.0478   -0.0340    0.0145    0.0028    0.0050    0.0405
          58    0.0558   -0.0048    0.0210   -0.4398    0.0755   -0.0341    0.0822    0.4763
          59    0.0294    0.0084   -0.0401   -0.2072    0.0825   -0.0158    0.0396    0.3259
          60    0.0044    0.0121   -0.0488    0.0578   -0.0686    0.0034   -0.0133   -0.1581
          61   -0.0143   -0.0003    0.0094   -0.0296    0.0538    0.0012   -0.0232   -0.0299
          62   -0.0094   -0.0011    0.0136   -0.0020   -0.0599   -0.0027    0.0114    0.0096
          63    0.0036    0.0016   -0.0097   -0.0022    0.0329    0.0008   -0.0078   -0.0133
          64   -0.0542   -0.0031    0.0629   -0.1464   -0.0341   -0.0132   -0.0536   -0.1192
          65   -0.0167   -0.0024    0.0252    0.0145   -0.1467   -0.0049    0.0269    0.0189
          66    0.0207    0.0035   -0.0349   -0.0023    0.1772    0.0070   -0.0250   -0.0070
          67   -0.0038    0.0048   -0.0322   -0.1292    0.4910    0.0145   -0.1489   -0.1652
          68   -0.0045    0.0009   -0.0045   -0.0448    0.1369    0.0027   -0.0438   -0.0484
          69    0.0062    0.0012   -0.0103   -0.0042    0.0475   -0.0001   -0.0084   -0.0136
          70   -0.0593   -0.0071    0.0752   -0.1553    0.0496   -0.0045   -0.0710   -0.0972
          71   -0.0340   -0.0048    0.0510   -0.0121   -0.2289   -0.0117    0.0287   -0.0050
          72   -0.0221   -0.0025    0.0293   -0.0697    0.0121   -0.0032   -0.0303   -0.0483
          73   -0.0171   -0.0024    0.0196    0.0173   -0.1070   -0.0033    0.0251    0.0375
          74   -0.0197   -0.0026    0.0181   -0.0019    0.0033    0.0021   -0.0177   -0.0315
          75    0.0098    0.0015   -0.0112    0.0083   -0.0063    0.0007    0.0020    0.0077
          76   -0.0179   -0.0044    0.0281    0.0235   -0.1313   -0.0038    0.0364    0.0586
          77    0.0285    0.0094   -0.0541   -0.0564    0.3652    0.0139   -0.1258   -0.2548
          78   -0.0268   -0.0020    0.0252    0.0563   -0.3516   -0.0121    0.0927    0.1355
          79    0.0106   -0.0069    0.0253    0.0126   -0.1119   -0.0055    0.0579    0.1609
          80   -0.0599   -0.0053    0.0521   -0.0033   -0.1008    0.0007   -0.0373   -0.1532
          81    0.0807    0.0092   -0.0843    0.0112    0.2251    0.0054    0.0220    0.1890
          82    0.0016    0.0042   -0.0090    0.0347   -0.2335   -0.0097    0.0610    0.0856
          83   -0.0887   -0.0152    0.1106   -0.0268   -0.2133   -0.0062   -0.0140   -0.1665
          84    0.0209    0.0051   -0.0293    0.0185   -0.0434   -0.0012    0.0164    0.0373
          85    0.0221    0.0018   -0.0149    0.0256   -0.0151    0.0006    0.0230   -0.0251
          86    0.0143   -0.0016   -0.0312    0.1709    0.0823    0.0167    0.0246    0.1075
          87   -0.0321   -0.0088    0.0523   -0.0706   -0.0093   -0.0018   -0.0350    0.0125
          88    0.2132    0.0465   -0.3199    0.5131    0.0276    0.0320    0.0948   -0.1296
          89    0.0143    0.0074   -0.0525    0.1423    0.0309    0.0150   -0.0905    0.1677
          90    0.0384    0.0155   -0.0785    0.0859   -0.0470    0.0088   -0.1301    0.0134
          91   -0.0500    0.0028    0.0078    0.0371   -0.1117    0.0083   -0.0322   -0.2510
          92   -0.0245    0.0010   -0.0218    0.1545    0.0227    0.0172    0.0055   -0.0189
          93   -0.1461   -0.0296    0.1191    0.1940    0.0688    0.0405   -0.2001    0.1645
          94    0.3410    0.0521   -0.3719   -0.0735   -0.1012    0.0576   -0.0860   -0.0160
          95   -0.1121    0.0062    0.0531    0.1165    0.0820   -0.0432    0.2311   -0.0358
          96    0.0179    0.0314   -0.0881   -0.1765   -0.0815   -0.0204    0.0682   -0.2195


   Root No.      33        34        35        36        37        38        39        40

                33 A      34 A      35 A      36 A      37 A      38 A      39 A      40 A   

                   1.1       1.1       1.2       1.3       1.3       1.5       1.6       1.6
  
           1   -0.0608   -0.1944    0.0477    0.0377   -0.0120   -0.0041    0.0535    0.0006
           2   -0.1695   -0.1392   -0.0142    0.0871   -0.0158    0.0602    0.0207    0.0103
           3    0.0680   -0.0825   -0.3544    0.0335   -0.0955   -0.1120    0.0372   -0.0013
           4   -0.0589   -0.1659    0.0390    0.0351   -0.0109   -0.0077    0.0597    0.0005
           5   -0.0905    0.0755   -0.0603   -0.0023    0.0104    0.0211   -0.2588   -0.0036
           6    0.0651   -0.0941   -0.3533   -0.0261   -0.0413    0.0765    0.0630   -0.0039
           7   -0.1156   -0.0209   -0.0430    0.0350    0.0041    0.0303   -0.1747    0.0012
           8   -0.0444    0.0125   -0.0100   -0.0290    0.0059   -0.0265   -0.1186   -0.0072
           9    0.0211   -0.0413   -0.0754   -0.0683    0.0576    0.1927    0.0162   -0.0017
          10    0.0396   -0.0255    0.0066   -0.0287    0.0109    0.0107   -0.1887   -0.0022
          11    0.0887   -0.0666    0.0373   -0.0285    0.0135   -0.0024   -0.1288   -0.0064
          12   -0.0686    0.1141    0.4772   -0.0032    0.1004    0.1256   -0.0358    0.0005
          13    0.0760   -0.0366    0.0231   -0.0346    0.0134    0.0009   -0.2088   -0.0046
          14   -0.0466   -0.2007    0.0525    0.0593   -0.0182    0.0230    0.1900    0.0059
          15   -0.0092    0.0445    0.1641    0.0480    0.0058   -0.0744   -0.0604    0.0036
          16    0.0835   -0.2255    0.1011   -0.0175   -0.0007   -0.0320   -0.0012   -0.0073
          17   -0.0779   -0.1150    0.0112    0.0508   -0.0118    0.0354    0.0613    0.0065
          18    0.0450   -0.0385   -0.1809    0.0655   -0.0811   -0.1957   -0.0267    0.0029
          19   -0.0602   -0.1763    0.0214    0.0953   -0.0225    0.0675    0.1445    0.0128
          20   -0.2194   -0.2134    0.0051    0.0872   -0.0168    0.0425   -0.0163    0.0078
          21   -0.0457    0.0545    0.2287   -0.0225    0.0599    0.0658   -0.0213    0.0007
          22    0.0142    0.3008   -0.0601    0.0435   -0.0195    0.0236    0.2948    0.0122
          23   -0.0687    0.3813   -0.1377   -0.0051    0.0106    0.0475   -0.2478    0.0013
          24   -0.0460    0.0673    0.2494    0.0219    0.0229   -0.0434   -0.0347    0.0019
          25    0.2974    0.3728   -0.0349   -0.1025    0.0249   -0.0612   -0.1494   -0.0116
          26    0.0589   -0.0110    0.0258    0.0441   -0.0201   -0.0015    0.3500    0.0055
          27    0.0220   -0.0439   -0.1629   -0.0318   -0.0083    0.0411    0.0318   -0.0020
          28    0.1028   -0.2863    0.1275   -0.0218   -0.0012   -0.0443   -0.0077   -0.0104
          29   -0.0085    0.0542    0.0078   -0.0124   -0.0068   -0.0452    0.1166   -0.0028
          30   -0.0335    0.0290    0.1334   -0.0396    0.0509    0.1114    0.0145   -0.0017
          31    0.0013    0.0775   -0.0116   -0.0342    0.0010   -0.0063    0.1164    0.0056
          32    0.1565   -0.1083    0.0583   -0.0542    0.0257    0.0107   -0.3009   -0.0099
          33   -0.0123    0.0694    0.2723    0.0476    0.0028   -0.0546    0.0031   -0.0011
          34   -0.1380    0.0170   -0.0671    0.0531    0.0063    0.0463   -0.1820    0.0027
          35   -0.0832    0.0706    0.0205   -0.1820   -0.0045   -0.2081    0.1320   -0.0206
          36    0.0322   -0.0677   -0.1749   -0.0355    0.0088   -0.0231   -0.0276    0.0036
          37   -0.0659    0.0943    0.0057   -0.0935    0.0048   -0.0177    0.0871    0.0021
          38   -0.0209    0.0163    0.0409   -0.1318    0.0024   -0.0497   -0.0074   -0.0019
          39    0.0340   -0.0172    0.0336    0.1036   -0.0765   -0.1907   -0.0307   -0.0054
          40   -0.2362    0.1177   -0.0988   -0.0583    0.0092   -0.0921   -0.0173   -0.0114
          41   -0.0320    0.0236    0.0208   -0.1232    0.0010   -0.1027    0.0294   -0.0109
          42    0.0170   -0.0319   -0.0629    0.0763   -0.0684   -0.2272   -0.0418    0.0019
          43   -0.2986    0.1424   -0.1255   -0.0854    0.0127   -0.1384   -0.0323   -0.0174
          44    0.1822    0.1406    0.0229    0.0902   -0.0054    0.0744    0.1585    0.0103
          45    0.0080    0.0277    0.0275   -0.0503    0.0467    0.1353    0.0347   -0.0004
          46    0.4554    0.1639    0.0205    0.1744    0.0166    0.0561    0.2581    0.0151
          47    0.4276   -0.0756    0.0195    0.0605    0.0377    0.0611   -0.2241   -0.0037
          48    0.0297    0.0012   -0.1155    0.0038    0.0092    0.0315    0.0596    0.0046
          49    0.0981   -0.1078   -0.0033    0.1413    0.0142    0.1584   -0.1032    0.0121
          50    0.0721   -0.0131    0.0467   -0.1582   -0.0000   -0.1780    0.1980   -0.0193
          51   -0.0072    0.0265    0.0633    0.0045   -0.0111   -0.0335    0.0282   -0.0032
          52   -0.0085    0.0112   -0.0031    0.0455    0.0461   -0.0075    0.0196   -0.0703
          53   -0.0180    0.0321    0.0115    0.0656   -0.1368    0.0650   -0.0001    0.0345
          54    0.0066    0.0061    0.0284   -0.0925   -0.2416    0.0242   -0.0035   -0.0427
          55    0.0088   -0.0106    0.0007   -0.0899    0.0262    0.0057    0.0387    0.0116
          56   -0.0419    0.0632    0.0250    0.1465   -0.1096   -0.0531   -0.0079    0.0050
          57    0.0095    0.0116    0.0659   -0.1661   -0.2053   -0.2342    0.0075    0.0012
          58   -0.0259   -0.0201    0.0026   -0.1383   -0.0151   -0.1010   -0.0074   -0.0472
          59   -0.0586    0.0216   -0.0479    0.2298    0.0854    0.1159   -0.0432   -0.0182
          60    0.0377   -0.0546   -0.0215   -0.1447    0.0750    0.0275    0.0260    0.0079
          61    0.0032    0.0001   -0.0002    0.0159    0.0213   -0.0287    0.0149   -0.0388
          62   -0.0024    0.0053    0.0020    0.0126   -0.0695    0.0964    0.0038    0.2152
          63    0.0025   -0.0033    0.0032   -0.0328   -0.1140    0.1164   -0.0233   -0.2023
          64    0.0488   -0.0715   -0.0279   -0.0579    0.1667   -0.0123   -0.0243    0.0749
          65    0.0043    0.0014    0.0162   -0.0534   -0.2362    0.1804   -0.0218   -0.1635
          66   -0.0180    0.0209   -0.0093    0.0838    0.0595    0.0370    0.0209    0.3481
          67    0.0249   -0.0219   -0.0045   -0.0348   -0.0609    0.0477   -0.0350   -0.0828
          68    0.0048   -0.0103   -0.0166    0.0509    0.1599   -0.0661    0.0095    0.3574
          69   -0.0010   -0.0136   -0.0242    0.0587    0.3362   -0.2320    0.0237   -0.0765
          70    0.0420   -0.0337    0.0126   -0.0888   -0.0990   -0.0195   -0.0062    0.2290
          71    0.0216   -0.0379   -0.0127   -0.0290    0.2085   -0.1801    0.0018   -0.2354
          72    0.0263   -0.0272    0.0093   -0.1051   -0.1608    0.1026   -0.0423   -0.1656
          73   -0.0052    0.0072   -0.0009    0.0597    0.0214    0.0107    0.0158   -0.2715
          74    0.0038    0.0085   -0.0012    0.0426   -0.0620    0.0593    0.0157   -0.0645
          75    0.0012    0.0034    0.0068   -0.0416   -0.1263    0.0316    0.0084    0.0314
          76   -0.0100    0.0184    0.0001    0.0800   -0.0067    0.0233    0.0325   -0.3351
          77    0.0407   -0.0511   -0.0236   -0.0927    0.2746   -0.1057    0.0146   -0.1132
          78   -0.0131   -0.0056   -0.0343    0.1267    0.2949   -0.0506   -0.0166    0.0407
          79   -0.0238    0.0360    0.0343   -0.0425   -0.3227    0.0780   -0.0194    0.2841
          80    0.0460   -0.0322   -0.0041   -0.0571   -0.0408    0.0371    0.0324   -0.1594
          81   -0.0779    0.0784   -0.0082    0.2492    0.0045    0.0708    0.0124   -0.1600
          82   -0.0060   -0.0191   -0.0321    0.0497    0.2691   -0.0537   -0.0266    0.2387
          83    0.0736   -0.0695    0.0296   -0.2689   -0.0900   -0.0754   -0.0198    0.1146
          84   -0.0035   -0.0024   -0.0060   -0.0351   -0.0547    0.0217   -0.0084    0.2418
          85    0.0077    0.0039    0.0161   -0.0753   -0.0024    0.0163    0.0396    0.0016
          86   -0.0677    0.0888    0.0251    0.1118   -0.0667   -0.1185    0.0136    0.0191
          87    0.0256   -0.0223    0.0225   -0.0440   -0.0514   -0.1504   -0.0224   -0.0115
          88   -0.0554    0.0462    0.0024    0.0983   -0.1052   -0.0945   -0.0261    0.0153
          89   -0.0716    0.0372   -0.0763   -0.1916    0.1557    0.2815    0.0712    0.0150
          90    0.0103   -0.0721   -0.0790   -0.2937    0.1210    0.1648   -0.0099   -0.0238
          91    0.0153   -0.0346   -0.0554    0.1149   -0.0402    0.0735   -0.0249   -0.0088
          92   -0.0553    0.0657    0.0021    0.2646   -0.1252   -0.1614   -0.0461    0.0162
          93   -0.1268    0.1036   -0.1199   -0.0036    0.1247    0.2581    0.0720    0.0089
          94   -0.1501    0.0413    0.1070   -0.0755    0.0499    0.0718    0.0601   -0.0006
          95   -0.0038    0.0454   -0.0764    0.0155    0.0451    0.1630    0.0225    0.0157
          96    0.0008   -0.0400   -0.0029    0.3136   -0.0448   -0.0129   -0.0540    0.0032


   Root No.      41        42        43        44        45        46        47        48

                41 A      42 A      43 A      44 A      45 A      46 A      47 A      48 A   

                   1.6       1.7       1.7       1.8       2.0       2.0       2.4       2.5
  
           1   -0.0052    0.0043   -0.0075    0.0210    0.1557   -0.0952    0.0068   -0.0273
           2    0.0272   -0.0819   -0.0518   -0.0684    0.2025   -0.0051   -0.1008    0.0058
           3   -0.0072    0.0606   -0.0432   -0.0599   -0.0357   -0.0399   -0.1467   -0.0720
           4   -0.0073    0.0081   -0.0107    0.0311    0.1771   -0.1145    0.0564   -0.0369
           5    0.0224    0.0090    0.0023   -0.0540   -0.0947    0.0450   -0.1114    0.0340
           6    0.0822    0.3050   -0.2479   -0.1053   -0.0301   -0.0546   -0.0312    0.0240
           7    0.0222   -0.0214   -0.0290   -0.0369    0.0657   -0.0243    0.0028    0.0249
           8   -0.0069    0.0523    0.0281    0.0188   -0.0430   -0.0352   -0.0039   -0.0211
           9    0.0705    0.1498   -0.1206   -0.0078    0.0242    0.0210    0.1302    0.0555
          10    0.0198   -0.0127   -0.0038   -0.0638    0.0125    0.0652   -0.1251    0.0212
          11    0.0001    0.0418    0.0313    0.0025   -0.0691    0.0000    0.0334   -0.0425
          12    0.0348    0.0644   -0.0725    0.0105   -0.0071   -0.0232   -0.0240    0.0071
          13    0.0160    0.0085    0.0028   -0.0515    0.0134    0.0487   -0.1625    0.0263
          14   -0.0041   -0.0264    0.0069    0.0014   -0.2131    0.1026    0.0437    0.0249
          15   -0.0640   -0.2477    0.1922    0.0964    0.0402    0.0449    0.1221    0.0653
          16   -0.0166    0.0616    0.0474    0.0336   -0.2458    0.0575   -0.0403    0.0303
          17    0.0128   -0.0497   -0.0171   -0.0424   -0.0372    0.0770   -0.0645    0.0273
          18   -0.0930   -0.2762    0.2328    0.0660    0.0193    0.0452    0.0287   -0.0200
          19    0.0225   -0.0940   -0.0425   -0.0660    0.1321    0.0363   -0.1045    0.0077
          20    0.0231   -0.0633   -0.0587   -0.0492    0.4024   -0.1159   -0.1354   -0.0211
          21    0.0037   -0.0350    0.0257    0.0324    0.0170    0.0194    0.0620    0.0287
          22   -0.0029   -0.0725   -0.0395    0.0062    0.1561   -0.0245    0.1023   -0.0326
          23    0.0366   -0.0347   -0.0087   -0.1046   -0.2341    0.1703   -0.2252    0.0954
          24   -0.0391   -0.1386    0.1110    0.0461    0.0096    0.0192    0.0088   -0.0078
          25   -0.0164    0.0779    0.0231    0.0495    0.1615   -0.1277   -0.0376   -0.0329
          26   -0.0276    0.0026    0.0193    0.0742   -0.2778    0.0489    0.2546   -0.0042
          27    0.0327    0.1217   -0.0919   -0.0448   -0.0143   -0.0182   -0.0408   -0.0212
          28   -0.0237    0.0885    0.0710    0.0484   -0.4018    0.0958   -0.0869    0.0626
          29   -0.0248    0.0398    0.0080    0.0707    0.0740   -0.0982    0.0788   -0.0249
          30    0.0502    0.1467   -0.1215   -0.0345   -0.0105   -0.0211   -0.0125    0.0075
          31    0.0039   -0.0587   -0.0124   -0.0563   -0.0477    0.1764   -0.2063    0.0560
          32    0.0106    0.0583    0.0348   -0.0064    0.0306   -0.0702    0.1683   -0.1008
          33    0.0025    0.1050   -0.0835   -0.0736   -0.0505   -0.0814   -0.2037   -0.1075
          34    0.0253   -0.0284   -0.0334   -0.0315   -0.0002   -0.0161    0.1082    0.0199
          35   -0.0755    0.1747    0.0636    0.1484    0.0583   -0.1135   -0.0856    0.0053
          36   -0.0665   -0.2977    0.2556    0.0860    0.0426    0.0934    0.0449   -0.0453
          37    0.0024   -0.0343   -0.0010   -0.0654   -0.0300    0.1503   -0.1032   -0.0280
          38    0.0035   -0.0288   -0.0122   -0.0589    0.0955    0.0809   -0.0776    0.0319
          39   -0.0331    0.0965   -0.0277   -0.0478   -0.0401   -0.0978   -0.1058   -0.0218
          40   -0.0444    0.0955    0.0490    0.1325   -0.0959   -0.0904    0.1541   -0.0186
          41   -0.0290    0.0792    0.0193    0.0525    0.1014   -0.0398   -0.0600    0.0308
          42   -0.0864   -0.1660    0.1321    0.0032   -0.0359   -0.0866   -0.1908   -0.0238
          43   -0.0664    0.1427    0.0768    0.2009   -0.1499   -0.1568    0.2851   -0.0373
          44    0.0095   -0.0561   -0.0060   -0.0397   -0.0833    0.0745   -0.0095   -0.0250
          45    0.0411    0.0753   -0.0556   -0.0002    0.0099    0.0405    0.0655    0.0045
          46    0.0009   -0.0778   -0.0811    0.0330    0.1080   -0.0210   -0.1062    0.0888
          47    0.0076    0.0234    0.0096    0.0645    0.1292   -0.1737    0.2865   -0.0647
          48   -0.0039   -0.0632    0.0135    0.0384    0.0240    0.0486    0.0223    0.0598
          49    0.0524   -0.0754   -0.0454   -0.0800   -0.1118    0.0630    0.1274   -0.0108
          50   -0.0819    0.1474    0.1071    0.1562    0.0315   -0.0810   -0.1821   -0.0147
          51    0.0031    0.0900   -0.0486   -0.0024   -0.0053   -0.0355   -0.0321    0.0055
          52    0.0096    0.0042    0.0573   -0.1054   -0.0366   -0.0927   -0.0383   -0.1378
          53   -0.0062    0.0634    0.0572   -0.0081    0.0112    0.0814    0.0102   -0.2403
          54    0.0218   -0.0250   -0.0288   -0.0670    0.0242    0.0714    0.1533   -0.0764
          55   -0.0107   -0.0555    0.0775   -0.1814   -0.0664   -0.1904   -0.0803   -0.0964
          56    0.0093    0.0926   -0.0321   -0.0385    0.0445    0.2361    0.0730   -0.3305
          57    0.0230   -0.0082   -0.1397   -0.3054    0.0874    0.2911    0.2744   -0.1430
          58    0.0184   -0.1439   -0.1432   -0.1086   -0.0070   -0.0768    0.1212    0.2209
          59    0.0316    0.0330   -0.0271    0.3243   -0.0007    0.0279   -0.0793   -0.0204
          60    0.0261   -0.0823    0.0618   -0.1017   -0.0437   -0.2008   -0.0205    0.1619
          61    0.0685    0.0068    0.0482   -0.0906   -0.0211   -0.0459    0.0016   -0.2019
          62   -0.2092    0.0907    0.1314   -0.1314    0.0131   -0.0473    0.0119    0.0783
          63   -0.1960   -0.0624   -0.1013    0.0971   -0.0353   -0.0603   -0.0693   -0.0378
          64   -0.0839   -0.0113   -0.0613    0.1173    0.0148    0.0049   -0.0245    0.1715
          65   -0.3034   -0.0224   -0.0319    0.0058   -0.0326   -0.0999   -0.0573   -0.0350
          66   -0.1394    0.1333    0.1970   -0.1948    0.0172   -0.0461    0.0152    0.0492
          67   -0.0350   -0.0585   -0.1506    0.2260   -0.0068    0.0516   -0.0516   -0.0497
          68    0.0506    0.1118    0.1291   -0.0651    0.0592    0.0693    0.0667    0.2426
          69    0.3714   -0.0472   -0.0423    0.0259   -0.0110    0.0376   -0.0006   -0.1625
          70    0.0643    0.0547    0.0529   -0.0243    0.0508    0.0841    0.0926    0.0710
          71    0.3077   -0.0943   -0.1221    0.1085   -0.0074    0.0447    0.0076   -0.0743
          72   -0.1760   -0.0867   -0.1807    0.2137   -0.0094    0.0147   -0.0613    0.1283
          73   -0.0246    0.0873    0.1417   -0.1419    0.0406    0.0146    0.0713    0.1333
          74    0.1366    0.0776    0.1628    0.0223    0.0164    0.0043   -0.0544    0.0218
          75    0.2413   -0.0374    0.0656    0.0450   -0.0256   -0.1045   -0.0120    0.0841
          76   -0.0064    0.1212    0.2077   -0.1859    0.0600    0.0272    0.0978    0.2416
          77   -0.2070   -0.0725   -0.1301   -0.1262   -0.0138   -0.0184    0.0402   -0.0246
[...]
 TRAVEL (Ang.)       0.0942         C 13 -- C 14         +12.2% ( 50.9%)     46.0%
 REDUCED MASS        4.3119         C 12 -- Cl17         +12.0% ( 50.7%)     16.4%
 EFFECTIVE MASS     12.1442         C 14 -- H 15         +11.2% ( 48.8%)     10.7%
 FORCE CONSTANT      7.8825

 VIBRATION         75   75A           ATOM PAIR      ENERGY CONTRIBUTION    RADIAL
 FREQUENCY          1801.76         C 18 -- C 19         +43.7% ( 97.1%)     99.8%
 TRANSITION DIPOLE   2.7028         C 18 -- C 25         +15.5% ( 57.8%)     40.2%
 TRAVEL (Ang.)       0.0821         C 18 -- C 21         +15.2% ( 57.3%)     26.6%
 REDUCED MASS        5.5554         C 19 -- C 29         +12.5% ( 52.0%)     50.3%
 EFFECTIVE MASS     11.7306         C 19 -- H 20         +11.6% ( 50.1%)      9.4%
 FORCE CONSTANT     10.6258

 VIBRATION         76   76A           ATOM PAIR      ENERGY CONTRIBUTION    RADIAL
 FREQUENCY          2626.01         C 29 -- H 31         +49.7% ( 73.6%)     98.3%
 TRANSITION DIPOLE   0.4434         C 29 -- H 30         +43.3% ( 68.7%)     97.7%
 TRAVEL (Ang.)       0.2382         C 13 -- H 32          +4.4% ( 21.9%)     99.8%
 REDUCED MASS        0.4525         C 13 -- C 29          +1.0% ( 10.2%)      0.1%
 EFFECTIVE MASS      1.4490
 FORCE CONSTANT      1.8387

 VIBRATION         77   77A           ATOM PAIR      ENERGY CONTRIBUTION    RADIAL
 FREQUENCY          2656.55         C 25 -- H 28         +29.9% ( 56.7%)     98.8%
 TRANSITION DIPOLE   0.2238         C 21 -- H 22         +23.4% ( 50.2%)     99.3%
 TRAVEL (Ang.)       0.3391         C 25 -- H 27         +23.2% ( 50.0%)     97.2%
 REDUCED MASS        0.2208         C 21 -- H 24         +11.8% ( 35.6%)     95.3%
 EFFECTIVE MASS      1.4225
 FORCE CONSTANT      0.9180

 VIBRATION         78   78A           ATOM PAIR      ENERGY CONTRIBUTION    RADIAL
 FREQUENCY          2657.78         C 13 -- H 32         +81.6% ( 91.4%)    100.0%
 TRANSITION DIPOLE   0.9399         C 21 -- H 22          +6.5% ( 25.9%)     99.2%
 TRAVEL (Ang.)       0.1953         C 21 -- H 24          +3.6% ( 19.2%)     95.8%
 REDUCED MASS        0.6650         C 29 -- H 31          +2.9% ( 17.3%)     96.9%
 EFFECTIVE MASS      1.3513
 FORCE CONSTANT      2.7678

 VIBRATION         79   79A           ATOM PAIR      ENERGY CONTRIBUTION    RADIAL
 FREQUENCY          2660.41         C 21 -- H 22         +36.6% ( 62.8%)     99.5%
 TRANSITION DIPOLE   1.0009         C 25 -- H 28         +23.8% ( 50.6%)     99.0%
 TRAVEL (Ang.)       0.3230         C 25 -- H 27         +15.5% ( 40.8%)     96.4%
 REDUCED MASS        0.2430         C 21 -- H 23         +14.0% ( 38.8%)     93.1%
 EFFECTIVE MASS      1.4351
 FORCE CONSTANT      1.0133

 VIBRATION         80   80A           ATOM PAIR      ENERGY CONTRIBUTION    RADIAL
 FREQUENCY          2662.03         C 21 -- H 23         +48.5% ( 72.3%)     98.4%
 TRANSITION DIPOLE   0.7527         C 21 -- H 24         +45.4% ( 69.9%)     98.0%
 TRAVEL (Ang.)       0.2365         C 25 -- H 27          +2.5% ( 16.5%)     99.2%
 REDUCED MASS        0.4528         C 25 -- H 28          +1.4% ( 12.3%)     96.4%
 EFFECTIVE MASS      1.4414
 FORCE CONSTANT      1.8903

 VIBRATION         81   81A           ATOM PAIR      ENERGY CONTRIBUTION    RADIAL
 FREQUENCY          2689.67         C 25 -- H 26         +60.9% ( 80.6%)     99.8%
 TRANSITION DIPOLE   0.7630         C 25 -- H 27         +27.0% ( 53.7%)     92.3%
 TRAVEL (Ang.)       0.2319         C 25 -- H 28         +10.5% ( 33.5%)     80.6%
 REDUCED MASS        0.4661         C 18 -- C 25          +0.9% (  9.8%)      0.9%
 EFFECTIVE MASS      1.4488
 FORCE CONSTANT      1.9867

 VIBRATION         82   82A           ATOM PAIR      ENERGY CONTRIBUTION    RADIAL
 FREQUENCY          2718.48         C  5 -- H  9         +91.0% ( 96.5%)    100.0%
 TRANSITION DIPOLE   1.0344         C  6 -- H 10          +5.4% ( 23.4%)     99.8%
 TRAVEL (Ang.)       0.1750         C  2 -- H  8          +1.2% ( 11.3%)    100.0%
 REDUCED MASS        0.8099         C  4 -- C  5          +1.0% ( 10.3%)     18.7%
 EFFECTIVE MASS      1.3954
 FORCE CONSTANT      3.5265

 VIBRATION         83   83A           ATOM PAIR      ENERGY CONTRIBUTION    RADIAL
 FREQUENCY          2728.14         C 14 -- H 15         +95.2% ( 98.7%)     99.9%
 TRANSITION DIPOLE   1.1814         C  2 -- H  8          +1.3% ( 11.5%)    100.0%
 TRAVEL (Ang.)       0.1672         C 13 -- C 14          +1.1% ( 10.7%)     10.0%
 REDUCED MASS        0.8842         C 12 -- C 14          +1.1% ( 10.6%)     38.6%
 EFFECTIVE MASS      1.4068
 FORCE CONSTANT      3.8772

 VIBRATION         84   84A           ATOM PAIR      ENERGY CONTRIBUTION    RADIAL
 FREQUENCY          2732.13         C  1 -- H  7         +52.4% ( 73.2%)    100.0%
 TRANSITION DIPOLE   0.5047         C  2 -- H  8         +38.7% ( 63.0%)    100.0%
 TRAVEL (Ang.)       0.2446         C  6 -- H 10          +3.4% ( 18.5%)     99.6%
 REDUCED MASS        0.4126         C  5 -- H  9          +2.0% ( 14.3%)     99.9%
 EFFECTIVE MASS      1.3813
 FORCE CONSTANT      1.8147

 VIBRATION         85   85A           ATOM PAIR      ENERGY CONTRIBUTION    RADIAL
 FREQUENCY          2741.15         C  2 -- H  8         +42.1% ( 65.5%)    100.0%
 TRANSITION DIPOLE   1.2833         C  6 -- H 10         +40.3% ( 64.2%)    100.0%
 TRAVEL (Ang.)       0.2648         C  1 -- H  7         +14.7% ( 38.7%)     99.8%
 REDUCED MASS        0.3509         C  5 -- H  9          +0.8% (  8.8%)     98.9%
 EFFECTIVE MASS      1.3865
 FORCE CONSTANT      1.5533

 VIBRATION         86   86A           ATOM PAIR      ENERGY CONTRIBUTION    RADIAL
 FREQUENCY          2746.47         C 19 -- H 20         +97.0% ( 99.3%)    100.0%
 TRANSITION DIPOLE   0.8427         C 19 -- C 29          +1.0% ( 10.0%)     11.7%
 TRAVEL (Ang.)       0.1642         C 18 -- C 19          +0.9% (  9.8%)     28.0%
 REDUCED MASS        0.9102         C 29 -- H 30          +0.5% (  7.2%)     94.2%
 EFFECTIVE MASS      1.3823
 FORCE CONSTANT      4.0453

 VIBRATION         87   87A           ATOM PAIR      ENERGY CONTRIBUTION    RADIAL
 FREQUENCY          2753.24         C  6 -- H 10         +48.4% ( 70.2%)    100.0%
 TRANSITION DIPOLE   1.2762         C  1 -- H  7         +30.3% ( 55.5%)    100.0%
 TRAVEL (Ang.)       0.2683         C  2 -- H  8         +14.4% ( 38.3%)    100.0%
 REDUCED MASS        0.3402         C  5 -- H  9          +3.8% ( 19.7%)     99.8%
 EFFECTIVE MASS      1.4520
 FORCE CONSTANT      1.5195

 VIBRATION         88   88A           ATOM PAIR      ENERGY CONTRIBUTION    RADIAL
 FREQUENCY          2760.33         C 29 -- H 30         +53.8% ( 71.3%)     98.2%
 TRANSITION DIPOLE   0.5496         C 29 -- H 31         +44.9% ( 65.1%)     97.5%
 TRAVEL (Ang.)       0.2250         C 13 -- C 29          +0.4% (  6.4%)     20.1%
 REDUCED MASS        0.4823         C 19 -- C 29          +0.4% (  6.3%)     22.7%
 EFFECTIVE MASS      1.2108
 FORCE CONSTANT      2.1654

 VIBRATION         89   89A           ATOM PAIR      ENERGY CONTRIBUTION    RADIAL
 FREQUENCY          2845.90         C 25 -- H 26         +31.5% ( 52.9%)     97.8%
 TRANSITION DIPOLE   0.3885         C 25 -- H 28         +28.1% ( 50.0%)     97.4%
 TRAVEL (Ang.)       0.3108         C 25 -- H 27         +25.2% ( 47.3%)     97.5%
 REDUCED MASS        0.2453         C 21 -- H 23          +5.3% ( 21.8%)     98.0%
 EFFECTIVE MASS      1.1046
 FORCE CONSTANT      1.1704

 VIBRATION         90   90A           ATOM PAIR      ENERGY CONTRIBUTION    RADIAL
 FREQUENCY          2850.26         C 21 -- H 23         +28.7% ( 50.4%)     97.8%
 TRANSITION DIPOLE   0.6189         C 21 -- H 24         +28.5% ( 50.2%)     97.6%
 TRAVEL (Ang.)       0.3118         C 21 -- H 22         +27.3% ( 49.1%)     97.4%
 REDUCED MASS        0.2434         C 25 -- H 28          +5.2% ( 21.4%)     97.2%
 EFFECTIVE MASS      1.1086
 FORCE CONSTANT      1.1649

      SYMMETRY NUMBER FOR POINT-GROUP C1  =  1


          SYSTEM IS A GROUND STATE



 Claisen_P_PM6_D3H4_THERMO


          MOLECULE IS NOT LINEAR

          THERE ARE 90 GENUINE VIBRATIONS IN THIS SYSTEM
          THIS THERMODYNAMICS CALCULATION IS LIMITED TO
          MOLECULES WHICH HAVE NO INTERNAL ROTATIONS




                    CALCULATED THERMODYNAMIC PROPERTIES
                                          *
   TEMP. (K)   PARTITION FUNCTION   H.O.F.    ENTHALPY  HEAT CAPACITY ENTROPY
                                   KCAL/MOL   CAL/MOLE    CAL/K/MOL  CAL/K/MOL


 298.00  VIB.     0.8413D+07                  8631.2032    55.5206    60.6503
         ROT.     0.4674D+07                   888.2813     2.9808    33.4993
         INT.     0.3932D+14                  9519.4845    58.5015    94.1497
         TRA.     0.3747D+28                  1480.4688     4.9680    42.4079
         TOT.                      -12.045   10999.9533    63.4695   136.5576

 200.00  VIB.     0.6345D+05                  4070.9034    37.7505    42.3289
         ROT.     0.2570D+07                   596.1620     2.9808    32.3106
         INT.     0.1630D+12                  4667.0654    40.7313    74.6396
         TRA.     0.2060D+28                   993.6033     4.9680    40.4268
         TOT.                      -17.384    5660.6686    45.6993   115.0664

 210.00  VIB.     0.1057D+06                  4457.1209    39.4962    44.2130
         ROT.     0.2765D+07                   625.9700     2.9808    32.4561
         INT.     0.2922D+12                  5083.0910    42.4770    76.6690
         TRA.     0.2217D+28                  1043.2834     4.9680    40.6692
         TOT.                      -16.918    6126.3744    47.4450   117.3382

 220.00  VIB.     0.1755D+06                  4860.8908    41.2610    46.0910
         ROT.     0.2965D+07                   655.7781     2.9808    32.5947
         INT.     0.5202D+12                  5516.6689    44.2418    78.6857
         TRA.     0.2377D+28                  1092.9636     4.9680    40.9003
         TOT.                      -16.435    6609.6325    49.2098   119.5860

 230.00  VIB.     0.2904D+06                  5282.4035    43.0446    47.9644
         ROT.     0.3169D+07                   685.5862     2.9808    32.7272
         INT.     0.9205D+12                  5967.9897    46.0254    80.6916
         TRA.     0.2541D+28                  1142.6437     4.9680    41.1211
         TOT.                      -15.934    7110.6335    50.9934   121.8127

 240.00  VIB.     0.4794D+06                  5721.8421    44.8459    49.8343
         ROT.     0.3378D+07                   715.3943     2.9808    32.8541
         INT.     0.1620D+13                  6437.2364    47.8267    82.6885
         TRA.     0.2708D+28                  1192.3239     4.9680    41.3325
         TOT.                      -15.415    7629.5603    52.7947   124.0210

 250.00  VIB.     0.7894D+06                  6179.3745    46.6630    51.7018
         ROT.     0.3591D+07                   745.2024     2.9808    32.9758
         INT.     0.2835D+13                  6924.5769    49.6438    84.6776
         TRA.     0.2879D+28                  1242.0041     4.9680    41.5353
         TOT.                      -14.878    8166.5810    54.6119   126.2130

 260.00  VIB.     0.1297D+07                  6655.1477    48.4936    53.5676
         ROT.     0.3809D+07                   775.0105     2.9808    33.0927
         INT.     0.4940D+13                  7430.1582    51.4744    86.6603
         TRA.     0.3054D+28                  1291.6842     4.9680    41.7302
         TOT.                      -14.323    8721.8424    56.4424   128.3905

 270.00  VIB.     0.2126D+07                  7149.2825    50.3349    55.4323
         ROT.     0.4031D+07                   804.8186     2.9808    33.2052
         INT.     0.8571D+13                  7954.1012    53.3157    88.6375
         TRA.     0.3231D+28                  1341.3644     4.9680    41.9177
         TOT.                      -13.749    9295.4656    58.2837   130.5552

 280.00  VIB.     0.3480D+07                  7661.8707    52.1838    57.2962
         ROT.     0.4257D+07                   834.6267     2.9808    33.3136
         INT.     0.1481D+14                  8496.4974    55.1646    90.6098
         TRA.     0.3413D+28                  1391.0445     4.9680    42.0984
         TOT.                      -13.157    9887.5420    60.1326   132.7082

 290.00  VIB.     0.5686D+07                  8192.9724    54.0370    59.1598
         ROT.     0.4487D+07                   864.4348     2.9808    33.4182
         INT.     0.2551D+14                  9057.4072    57.0179    92.5780
         TRA.     0.3597D+28                  1440.7247     4.9680    42.2727
         TOT.                      -12.547   10498.1319    61.9859   134.8507

 300.00  VIB.     0.9277D+07                  8742.6153    55.8915    61.0230
         ROT.     0.4721D+07                   894.2429     2.9808    33.5193
         INT.     0.4380D+14                  9636.8583    58.8723    94.5422
         TRA.     0.3785D+28                  1490.4049     4.9680    42.4411
         TOT.                      -11.917   11127.2631    63.8403   136.9833

 310.00  VIB.     0.1512D+08                  9310.7948    57.7438    62.8858
         ROT.     0.4959D+07                   924.0510     2.9808    33.6170
         INT.     0.7496D+14                 10234.8459    60.7246    96.5028
         TRA.     0.3975D+28                  1540.0850     4.9680    42.6040
         TOT.                      -11.270   11774.9309    65.6926   139.1069

 320.00  VIB.     0.2460D+08                  9897.4743    59.5910    64.7483
         ROT.     0.5201D+07                   953.8591     2.9808    33.7116
         INT.     0.1279D+15                 10851.3335    62.5718    98.4599
         TRA.     0.4169D+28                  1589.7652     4.9680    42.7618
         TOT.                      -10.604   12441.0987    67.5398   141.2217

 330.00  VIB.     0.3999D+08                 10502.5869    61.4299    66.6102
         ROT.     0.5447D+07                   983.6672     2.9808    33.8034
         INT.     0.2178D+15                 11486.2541    64.4108   100.4136
         TRA.     0.4366D+28                  1639.4454     4.9680    42.9146
         TOT.                       -9.919   13125.6995    69.3788   143.3282

 340.00  VIB.     0.6493D+08                 11126.0368    63.2580    68.4712
         ROT.     0.5696D+07                  1013.4753     2.9808    33.8923
         INT.     0.3699D+15                 12139.5121    66.2388   102.3636
         TRA.     0.4566D+28                  1689.1255     4.9680    43.0629
         TOT.                       -9.216   13828.6376    71.2068   145.4265

 350.00  VIB.     0.1053D+09                 11767.7018    65.0726    70.3311
         ROT.     0.5949D+07                  1043.2834     2.9808    33.9788
         INT.     0.6267D+15                 12810.9852    68.0534   104.3099
         TRA.     0.4769D+28                  1738.8057     4.9680    43.2070
         TOT.                       -8.495   14549.7909    73.0214   147.5169

 360.00  VIB.     0.1707D+09                 12427.4354    66.8714    72.1896
         ROT.     0.6206D+07                  1073.0915     2.9808    34.0627
         INT.     0.1060D+16                 13500.5269    69.8522   106.2523
         TRA.     0.4975D+28                  1788.4859     4.9680    43.3469
         TOT.                       -7.756   15289.0128    74.8202   149.5992

 370.00  VIB.     0.2765D+09                 13105.0695    68.6523    74.0461
         ROT.     0.6466D+07                  1102.8996     2.9808    34.1444
         INT.     0.1788D+16                 14207.9691    71.6331   108.1905
         TRA.     0.5184D+28                  1838.1660     4.9680    43.4830
         TOT.                       -6.999   16046.1351    76.6011   151.6735

 380.00  VIB.     0.4475D+09                 13800.4162    70.4136    75.9004
         ROT.     0.6730D+07                  1132.7077     2.9808    34.2239
         INT.     0.3012D+16                 14933.1239    73.3944   110.1242
         TRA.     0.5395D+28                  1887.8462     4.9680    43.6155
         TOT.                       -6.224   16820.9701    78.3624   153.7398

 390.00  VIB.     0.7236D+09                 14513.2711    72.1537    77.7519
         ROT.     0.6998D+07                  1162.5158     2.9808    34.3013
         INT.     0.5063D+16                 15675.7869    75.1345   112.0533
         TRA.     0.5610D+28                  1937.5263     4.9680    43.7446
         TOT.                       -5.431   17613.3133    80.1025   155.7978

 400.00  VIB.     0.1169D+10                 15243.4150    73.8712    79.6004
         ROT.     0.7268D+07                  1192.3239     2.9808    34.3768
         INT.     0.8497D+16                 16435.7389    76.8520   113.9772
         TRA.     0.5827D+28                  1987.2065     4.9680    43.8703
         TOT.                       -4.622   18422.9454    81.8200   157.8475

   *: NOTE: HEATS OF FORMATION ARE RELATIVE TO THE
            ELEMENTS IN THEIR STANDARD STATE AT 298K
              (=  Standard Enthalpy of Formation).

            Hvib:  Zero-point energy is not included.
                   frequencies of less than zero cm-1 are not included.
            Hrot = (3/2)RT
            Htra = (3/2)RT + pV = (5/2)RT

            Heat capacity is Cp, not Cv

          For more information, see: HTTP://OpenMOPAC.net/Manual/thermochemistry.html


           FORCE CONSTANT IN CARTESIAN COORDINATES (Millidynes/A)

    ATOM   CHEMICAL       X               Y               Z
   NUMBER   SYMBOL  FORCE CONSTANT  FORCE CONSTANT  FORCE CONSTANT

      1       C       10.049612        9.630450        2.262887
      2       C       10.064858        9.545808        2.185003
      3       C       10.921159       10.526856        2.355334
      4       C       10.498104       10.317477        2.154906
      5       C        9.818408        9.841287        2.244326
      6       C        9.570341       10.114619        2.190121
      7       H        1.673292        3.371828        0.368500
      8       H        1.735954        3.398927        0.347169
      9       H        1.688377        3.302267        0.372708
     10       H        4.209369        0.846489        0.359210
     11       C        9.185318       12.555534        3.237985
     12       C        9.627812       10.457728        1.744330
     13       C        7.395472        7.656291        6.175057
     14       C        8.923826       12.193670        2.422542
     15       H        4.151179        0.882604        0.371378
     16       O        3.965979        9.819540        0.542234
     17      Cl        1.583209        3.468881        0.175677
     18       C        9.382392       10.776642        5.202891
     19       C        9.272015        9.716823        4.414198
     20       H        1.684757        2.364148        1.445285
     21       C        7.289109        6.278928        6.090467
     22       H        0.772833        2.956275        1.710598
     23       H        1.316016        2.805413        1.409702
     24       H        1.547703        0.644624        3.274962
     25       C        6.892256        6.782224        6.277240
     26       H        4.192329        0.784148        0.645785
     27       H        0.838242        3.487327        1.131777
     28       H        1.044814        0.643472        3.759422
     29       C        7.616951        6.499658        6.325266
     30       H        1.075239        2.114449        2.399447
     31       H        1.742817        3.047434        0.750916
     32       H        1.264668        1.934145        2.247526

 **********************
 *                    *
 * JOB ENDED NORMALLY *
 *                    *
 **********************



 TOTAL JOB TIME:             6.95 SECONDS

 == MOPAC DONE ==
