 *******************************************************************************
 ** Site#: 37381        For non-commercial use only           Version 21.125L **
 *******************************************************************************
 ** Cite this program as: MOPAC2016, Version: 21.125L, James J. P. Stewart,   **
 ** Stewart Computational Chemistry, web: HTTP://OpenMOPAC.net. Days left: 192**
 *******************************************************************************
 **                                                                           **
 **                                MOPAC2016                                  **
 **                                                                           **
 *******************************************************************************

                              PM6-D3H4 CALCULATION RESULTS

 *******************************************************************************
 *  CALCULATION DONE:                                Mon Oct 25 19:45:44 2021  *
 *  PM6-D3H4   - CORRECT DISPERSION AND HYDROGEN BOND TERMS USING THE D3H4 METHOD
 *  OPT        - OPTIMIZE COORDINATES OF ALL ATOMS
 *  EPS=2.38   - USE ANDREAS KLAMT'S COSMO IMPLICIT SOLVATION MODEL
 *  RSOLV=  3.480
 *  T=         - A TIME OF 128.0 HOURS REQUESTED
 *  DUMP=N     - RESTART FILE WRITTEN EVERY 7200.0 SECONDS REQUESTED
 *  RECALC=    - DO   5 CYCLES BETWEEN HESSIAN RECALC
 *  GNORM      - EXIT WHEN GRADIENT NORM DROPS BELOW 0.100
 *  SCFCRT     - DEFAULT SCF CRITERION REPLACED BY   0.100E-05
 *******************************************************************************
 PM6-D3H4 OPT T=128H RECALC=5 GNORM=0.1 SCFCRT=0.000001 EPS=2.38 RSOLV=3.48
 Claisen_SM_PM6_D3H4_OPT

   ATOM   CHEMICAL          X               Y               Z
  NUMBER   SYMBOL      (ANGSTROMS)     (ANGSTROMS)     (ANGSTROMS)
 
     1       C         -2.83121000  *   2.51608000  *   0.16212000  *
     2       C         -3.02160000  *   1.15335000  *   0.06930000  *
     3       C         -1.91596000  *   0.25963000  *   0.04016000  *
     4       C         -0.58911000  *   0.80726000  *   0.11221000  *
     5       C         -0.42918000  *   2.21613000  *   0.20283000  *
     6       C         -1.52413000  *   3.05424000  *   0.22736000  *
     7       H         -3.69063000  *   3.17961000  *   0.18332000  *
     8       H         -4.02562000  *   0.74860000  *   0.01760000  *
     9       H          0.57590000  *   2.61754000  *   0.25257000  *
    10       H         -1.38423000  *   4.12890000  *   0.29577000  *
    11       C          0.54551000  *  -0.07135000  *   0.09182000  *
    12       C         -2.04512000  *  -1.15703000  *  -0.06412000  *
    13       C          0.36076000  *  -1.43770000  *   0.00236000  *
    14       H          1.20617000  *  -2.11097000  *   0.01662000  *
    15       C         -0.94299000  *  -1.97759000  *  -0.08533000  *
    16       H         -1.06887000  *  -3.05220000  *  -0.15879000  *
    17       O          1.75256000  *   0.55644000  *   0.21624000  *
    18      Cl         -3.64737000  *  -1.89784000  *  -0.16714000  *
    19       C          2.99810000  *   0.05568000  *  -0.34947000  *
    20       C          3.61399000  *  -1.03035000  *   0.51153000  *
    21       H          4.46908000  *  -1.52833000  *   0.05506000  *
    22       C          2.80905000  *  -0.40076000  *  -1.80478000  *
    23       H          3.78962000  *  -0.59062000  *  -2.25104000  *
    24       H          2.21689000  *  -1.31268000  *  -1.89054000  *
    25       H          2.31541000  *   0.39076000  *  -2.37613000  *
    26       C          3.91124000  *   1.29259000  *  -0.30983000  *
    27       H          3.97003000  *   1.67685000  *   0.71175000  *
    28       H          4.91927000  *   1.03219000  *  -0.64549000  *
    29       H          3.51204000  *   2.07427000  *  -0.96365000  *
    30       C          3.23398000  *  -1.35503000  *   1.74835000  *
    31       H          3.75483000  *  -2.12119000  *   2.31437000  *
    32       H          2.38482000  *  -0.87204000  *   2.22297000  *
 


          CARTESIAN COORDINATES 

    NO.       ATOM           X           Y           Z

     1         C         -2.8312      2.5161      0.1621
     2         C         -3.0216      1.1534      0.0693
     3         C         -1.9160      0.2596      0.0402
     4         C         -0.5891      0.8073      0.1122
     5         C         -0.4292      2.2161      0.2028
     6         C         -1.5241      3.0542      0.2274
     7         H         -3.6906      3.1796      0.1833
     8         H         -4.0256      0.7486      0.0176
     9         H          0.5759      2.6175      0.2526
    10         H         -1.3842      4.1289      0.2958
    11         C          0.5455     -0.0713      0.0918
    12         C         -2.0451     -1.1570     -0.0641
    13         C          0.3608     -1.4377      0.0024
    14         H          1.2062     -2.1110      0.0166
    15         C         -0.9430     -1.9776     -0.0853
    16         H         -1.0689     -3.0522     -0.1588
    17         O          1.7526      0.5564      0.2162
    18        Cl         -3.6474     -1.8978     -0.1671
    19         C          2.9981      0.0557     -0.3495
    20         C          3.6140     -1.0304      0.5115
    21         H          4.4691     -1.5283      0.0551
    22         C          2.8091     -0.4008     -1.8048
    23         H          3.7896     -0.5906     -2.2510
    24         H          2.2169     -1.3127     -1.8905
    25         H          2.3154      0.3908     -2.3761
    26         C          3.9112      1.2926     -0.3098
    27         H          3.9700      1.6769      0.7118
    28         H          4.9193      1.0322     -0.6455
    29         H          3.5120      2.0743     -0.9637
    30         C          3.2340     -1.3550      1.7484
    31         H          3.7548     -2.1212      2.3144
    32         H          2.3848     -0.8720      2.2230

 General Reference for PM6:
 "Optimization of Parameters for Semiempirical Methods V: Modification of NDDO Approximations
 and Application to 70 Elements", J. J. P. Stewart, J. Mol. Mod., 13, 1173-1213 (2007)
 URL: https://link.springer.com/article/10.1007/s00894-007-0233-4

           Empirical Formula: C15 H15 O Cl  =    32 atoms



      MOLECULAR POINT GROUP   :   C1  


      RHF CALCULATION, NO. OF DOUBLY OCCUPIED LEVELS = 44


          Geometry optimization using EF
  SCF CRITERION =    0.1000E-05

          DIAGONAL MATRIX USED AS START HESSIAN

 CYCLE:     1 TIME:   0.062 TIME LEFT:  5.33D  GRAD.:    64.499 HEAT:-0.6376519
 CYCLE:     2 TIME:   0.062 TIME LEFT:  5.33D  GRAD.:    95.852 HEAT:-0.9532916
 CYCLE:     3 TIME:   0.055 TIME LEFT:  5.33D  GRAD.:    54.633 HEAT: -2.147962
 CYCLE:     4 TIME:   0.039 TIME LEFT:  5.33D  GRAD.:    39.994 HEAT: -2.517771
 CYCLE:     5 TIME:   0.031 TIME LEFT:  5.33D  GRAD.:    40.164 HEAT: -2.676323

          HESSIAN CALCULATED NUMERICALLY

 CYCLE:     6 TIME:   2.391 TIME LEFT:  5.33D  GRAD.:    35.638 HEAT: -2.858637
 CYCLE:     7 TIME:   0.031 TIME LEFT:  5.33D  GRAD.:     5.837 HEAT: -3.379107
 CYCLE:     8 TIME:   0.031 TIME LEFT:  5.33D  GRAD.:     5.311 HEAT: -3.419261
 CYCLE:     9 TIME:   0.031 TIME LEFT:  5.33D  GRAD.:     4.210 HEAT: -3.798419
 CYCLE:    10 TIME:   0.031 TIME LEFT:  5.33D  GRAD.:     2.554 HEAT: -3.982465

          HESSIAN CALCULATED NUMERICALLY

 CYCLE:    11 TIME:   2.492 TIME LEFT:  5.33D  GRAD.:     3.163 HEAT: -4.084830
 CYCLE:    12 TIME:   0.031 TIME LEFT:  5.33D  GRAD.:     4.753 HEAT: -4.094642
 CYCLE:    13 TIME:   0.031 TIME LEFT:  5.33D  GRAD.:     2.820 HEAT: -4.207214
 CYCLE:    14 TIME:   0.062 TIME LEFT:  5.33D  GRAD.:     3.887 HEAT: -4.244754
 CYCLE:    15 TIME:   0.031 TIME LEFT:  5.33D  GRAD.:     4.947 HEAT: -4.285463

          HESSIAN CALCULATED NUMERICALLY

    Hessian  1% complete.  Estimated remaining time required:   0.13 hours
    1 of  96 steps completed
    2 of  96 steps completed
    3 of  96 steps completed
    4 of  96 steps completed
    Hessian  5% complete.  Estimated remaining time required:   0.03 hours
    5 of  96 steps completed
    6 of  96 steps completed
    7 of  96 steps completed
    8 of  96 steps completed
    9 of  96 steps completed
    Hessian 10% complete.  Estimated remaining time required:   0.01 hours
   10 of  96 steps completed
   11 of  96 steps completed
   12 of  96 steps completed
   13 of  96 steps completed
   14 of  96 steps completed
    Hessian 15% complete.  Estimated remaining time required:   0.01 hours
   15 of  96 steps completed
   16 of  96 steps completed
   17 of  96 steps completed
   18 of  96 steps completed
   19 of  96 steps completed
    Hessian 20% complete.  Estimated remaining time required:   0.01 hours
   20 of  96 steps completed
   21 of  96 steps completed
   22 of  96 steps completed
   23 of  96 steps completed
    Hessian 25% complete.  Estimated remaining time required:   0.00 hours
   24 of  96 steps completed
   25 of  96 steps completed
   26 of  96 steps completed
   27 of  96 steps completed
   28 of  96 steps completed
    Hessian 30% complete.  Estimated remaining time required:   0.00 hours
   29 of  96 steps completed
   30 of  96 steps completed
   31 of  96 steps completed
   32 of  96 steps completed
   33 of  96 steps completed
    Hessian 35% complete.  Estimated remaining time required:   0.00 hours
   34 of  96 steps completed
   35 of  96 steps completed
   36 of  96 steps completed
   37 of  96 steps completed
   38 of  96 steps completed
    Hessian 40% complete.  Estimated remaining time required:   0.00 hours
   39 of  96 steps completed
   40 of  96 steps completed
   41 of  96 steps completed
   42 of  96 steps completed
   43 of  96 steps completed
    Hessian 45% complete.  Estimated remaining time required:   0.00 hours
   44 of  96 steps completed
   45 of  96 steps completed
   46 of  96 steps completed
   47 of  96 steps completed
    Hessian 50% complete.  Estimated remaining time required:   0.00 hours
   48 of  96 steps completed
   49 of  96 steps completed
   50 of  96 steps completed
   51 of  96 steps completed
   52 of  96 steps completed
    Hessian 55% complete.  Estimated remaining time required:   0.00 hours
   53 of  96 steps completed
   54 of  96 steps completed
   55 of  96 steps completed
   56 of  96 steps completed
   57 of  96 steps completed
    Hessian 60% complete.  Estimated remaining time required:   0.00 hours
   58 of  96 steps completed
   59 of  96 steps completed
   60 of  96 steps completed
   61 of  96 steps completed
   62 of  96 steps completed
    Hessian 65% complete.  Estimated remaining time required:   0.00 hours
   63 of  96 steps completed
   64 of  96 steps completed
   65 of  96 steps completed
   66 of  96 steps completed
   67 of  96 steps completed
    Hessian 70% complete.  Estimated remaining time required:   0.00 hours
   68 of  96 steps completed
   69 of  96 steps completed
   70 of  96 steps completed
   71 of  96 steps completed
    Hessian 75% complete.  Estimated remaining time required:   0.00 hours
   72 of  96 steps completed
   73 of  96 steps completed
   74 of  96 steps completed
   75 of  96 steps completed
   76 of  96 steps completed
    Hessian 80% complete.  Estimated remaining time required:   0.00 hours
   77 of  96 steps completed
   78 of  96 steps completed
   79 of  96 steps completed
   80 of  96 steps completed
   81 of  96 steps completed
    Hessian 85% complete.  Estimated remaining time required:   0.00 hours
   82 of  96 steps completed
   83 of  96 steps completed
   84 of  96 steps completed
   85 of  96 steps completed
   86 of  96 steps completed
    Hessian 90% complete.  Estimated remaining time required:   0.00 hours
   87 of  96 steps completed
   88 of  96 steps completed
   89 of  96 steps completed
   90 of  96 steps completed
   91 of  96 steps completed
    Hessian 95% complete.  Estimated remaining time required:   0.00 hours
   92 of  96 steps completed
   93 of  96 steps completed
   94 of  96 steps completed
   95 of  96 steps completed
    Hessian100% complete.  Estimated remaining time required:   0.00 hours
   96 of  96 steps completed
 CYCLE:    16 TIME:   2.508 TIME LEFT:  5.33D  GRAD.:     5.637 HEAT: -4.296327
 CYCLE:    17 TIME:   0.086 TIME LEFT:  5.33D  GRAD.:     2.406 HEAT: -4.303972
 CYCLE:    18 TIME:   0.031 TIME LEFT:  5.33D  GRAD.:     1.416 HEAT: -4.334117
 CYCLE:    19 TIME:   0.031 TIME LEFT:  5.33D  GRAD.:     1.671 HEAT: -4.337701
 CYCLE:    20 TIME:   0.031 TIME LEFT:  5.33D  GRAD.:     1.663 HEAT: -4.350610

          HESSIAN CALCULATED NUMERICALLY

    Hessian  1% complete.  Estimated remaining time required:   0.19 hours
    1 of  96 steps completed
    2 of  96 steps completed
    3 of  96 steps completed
    4 of  96 steps completed
    Hessian  5% complete.  Estimated remaining time required:   0.04 hours
    5 of  96 steps completed
    6 of  96 steps completed
    7 of  96 steps completed
    8 of  96 steps completed
    9 of  96 steps completed
    Hessian 10% complete.  Estimated remaining time required:   0.02 hours
   10 of  96 steps completed
   11 of  96 steps completed
   12 of  96 steps completed
   13 of  96 steps completed
   14 of  96 steps completed
    Hessian 15% complete.  Estimated remaining time required:   0.01 hours
   15 of  96 steps completed
   16 of  96 steps completed
   17 of  96 steps completed
   18 of  96 steps completed
   19 of  96 steps completed
    Hessian 20% complete.  Estimated remaining time required:   0.01 hours
   20 of  96 steps completed
   21 of  96 steps completed
   22 of  96 steps completed
   23 of  96 steps completed
    Hessian 25% complete.  Estimated remaining time required:   0.01 hours
   24 of  96 steps completed
   25 of  96 steps completed
   26 of  96 steps completed
   27 of  96 steps completed
   28 of  96 steps completed
    Hessian 30% complete.  Estimated remaining time required:   0.01 hours
   29 of  96 steps completed
   30 of  96 steps completed
   31 of  96 steps completed
   32 of  96 steps completed
   33 of  96 steps completed
    Hessian 35% complete.  Estimated remaining time required:   0.00 hours
   34 of  96 steps completed
   35 of  96 steps completed
   36 of  96 steps completed
   37 of  96 steps completed
   38 of  96 steps completed
    Hessian 40% complete.  Estimated remaining time required:   0.00 hours
   39 of  96 steps completed
   40 of  96 steps completed
   41 of  96 steps completed
   42 of  96 steps completed
   43 of  96 steps completed
    Hessian 45% complete.  Estimated remaining time required:   0.00 hours
   44 of  96 steps completed
   45 of  96 steps completed
   46 of  96 steps completed
   47 of  96 steps completed
    Hessian 50% complete.  Estimated remaining time required:   0.00 hours
   48 of  96 steps completed
   49 of  96 steps completed
   50 of  96 steps completed
   51 of  96 steps completed
   52 of  96 steps completed
    Hessian 55% complete.  Estimated remaining time required:   0.00 hours
   53 of  96 steps completed
   54 of  96 steps completed
   55 of  96 steps completed
   56 of  96 steps completed
   57 of  96 steps completed
    Hessian 60% complete.  Estimated remaining time required:   0.00 hours
   58 of  96 steps completed
   59 of  96 steps completed
   60 of  96 steps completed
   61 of  96 steps completed
   62 of  96 steps completed
    Hessian 65% complete.  Estimated remaining time required:   0.00 hours
   63 of  96 steps completed
   64 of  96 steps completed
   65 of  96 steps completed
   66 of  96 steps completed
   67 of  96 steps completed
    Hessian 70% complete.  Estimated remaining time required:   0.00 hours
   68 of  96 steps completed
   69 of  96 steps completed
   70 of  96 steps completed
   71 of  96 steps completed
    Hessian 75% complete.  Estimated remaining time required:   0.00 hours
   72 of  96 steps completed
   73 of  96 steps completed
   74 of  96 steps completed
   75 of  96 steps completed
   76 of  96 steps completed
    Hessian 80% complete.  Estimated remaining time required:   0.00 hours
   77 of  96 steps completed
   78 of  96 steps completed
   79 of  96 steps completed
   80 of  96 steps completed
   81 of  96 steps completed
    Hessian 85% complete.  Estimated remaining time required:   0.00 hours
   82 of  96 steps completed
   83 of  96 steps completed
   84 of  96 steps completed
   85 of  96 steps completed
   86 of  96 steps completed
    Hessian 90% complete.  Estimated remaining time required:   0.00 hours
   87 of  96 steps completed
   88 of  96 steps completed
   89 of  96 steps completed
   90 of  96 steps completed
   91 of  96 steps completed
    Hessian 95% complete.  Estimated remaining time required:   0.00 hours
   92 of  96 steps completed
   93 of  96 steps completed
   94 of  96 steps completed
   95 of  96 steps completed
    Hessian100% complete.  Estimated remaining time required:   0.00 hours
   96 of  96 steps completed
 CYCLE:    21 TIME:   2.531 TIME LEFT:  5.33D  GRAD.:     1.472 HEAT: -4.364973
 CYCLE:    22 TIME:   0.031 TIME LEFT:  5.33D  GRAD.:     2.158 HEAT: -4.366950
 CYCLE:    23 TIME:   0.031 TIME LEFT:  5.33D  GRAD.:     1.324 HEAT: -4.379692
 CYCLE:    24 TIME:   0.031 TIME LEFT:  5.33D  GRAD.:     0.548 HEAT: -4.379323
 CYCLE:    25 TIME:   0.031 TIME LEFT:  5.33D  GRAD.:     1.691 HEAT: -4.385024

          HESSIAN CALCULATED NUMERICALLY

    Hessian  1% complete.  Estimated remaining time required:   0.26 hours
    1 of  96 steps completed
    2 of  96 steps completed
    3 of  96 steps completed
    4 of  96 steps completed
    Hessian  5% complete.  Estimated remaining time required:   0.05 hours
    5 of  96 steps completed
    6 of  96 steps completed
    7 of  96 steps completed
    8 of  96 steps completed
    9 of  96 steps completed
    Hessian 10% complete.  Estimated remaining time required:   0.02 hours
   10 of  96 steps completed
   11 of  96 steps completed
   12 of  96 steps completed
   13 of  96 steps completed
   14 of  96 steps completed
    Hessian 15% complete.  Estimated remaining time required:   0.02 hours
   15 of  96 steps completed
   16 of  96 steps completed
   17 of  96 steps completed
   18 of  96 steps completed
   19 of  96 steps completed
    Hessian 20% complete.  Estimated remaining time required:   0.01 hours
   20 of  96 steps completed
   21 of  96 steps completed
   22 of  96 steps completed
   23 of  96 steps completed
    Hessian 25% complete.  Estimated remaining time required:   0.01 hours
   24 of  96 steps completed
   25 of  96 steps completed
   26 of  96 steps completed
   27 of  96 steps completed
   28 of  96 steps completed
    Hessian 30% complete.  Estimated remaining time required:   0.01 hours
   29 of  96 steps completed
   30 of  96 steps completed
   31 of  96 steps completed
   32 of  96 steps completed
   33 of  96 steps completed
    Hessian 35% complete.  Estimated remaining time required:   0.01 hours
   34 of  96 steps completed
   35 of  96 steps completed
   36 of  96 steps completed
   37 of  96 steps completed
   38 of  96 steps completed
    Hessian 40% complete.  Estimated remaining time required:   0.00 hours
   39 of  96 steps completed
   40 of  96 steps completed
   41 of  96 steps completed
   42 of  96 steps completed
   43 of  96 steps completed
    Hessian 45% complete.  Estimated remaining time required:   0.00 hours
   44 of  96 steps completed
   45 of  96 steps completed
   46 of  96 steps completed
   47 of  96 steps completed
    Hessian 50% complete.  Estimated remaining time required:   0.00 hours
   48 of  96 steps completed
   49 of  96 steps completed
   50 of  96 steps completed
   51 of  96 steps completed
   52 of  96 steps completed
    Hessian 55% complete.  Estimated remaining time required:   0.00 hours
   53 of  96 steps completed
   54 of  96 steps completed
   55 of  96 steps completed
   56 of  96 steps completed
   57 of  96 steps completed
    Hessian 60% complete.  Estimated remaining time required:   0.00 hours
   58 of  96 steps completed
   59 of  96 steps completed
   60 of  96 steps completed
   61 of  96 steps completed
   62 of  96 steps completed
    Hessian 65% complete.  Estimated remaining time required:   0.00 hours
   63 of  96 steps completed
   64 of  96 steps completed
   65 of  96 steps completed
   66 of  96 steps completed
   67 of  96 steps completed
    Hessian 70% complete.  Estimated remaining time required:   0.00 hours
   68 of  96 steps completed
   69 of  96 steps completed
   70 of  96 steps completed
   71 of  96 steps completed
    Hessian 75% complete.  Estimated remaining time required:   0.00 hours
   72 of  96 steps completed
   73 of  96 steps completed
   74 of  96 steps completed
   75 of  96 steps completed
   76 of  96 steps completed
    Hessian 80% complete.  Estimated remaining time required:   0.00 hours
   77 of  96 steps completed
   78 of  96 steps completed
   79 of  96 steps completed
   80 of  96 steps completed
   81 of  96 steps completed
    Hessian 85% complete.  Estimated remaining time required:   0.00 hours
   82 of  96 steps completed
   83 of  96 steps completed
   84 of  96 steps completed
   85 of  96 steps completed
   86 of  96 steps completed
    Hessian 90% complete.  Estimated remaining time required:   0.00 hours
   87 of  96 steps completed
   88 of  96 steps completed
   89 of  96 steps completed
   90 of  96 steps completed
   91 of  96 steps completed
    Hessian 95% complete.  Estimated remaining time required:   0.00 hours
   92 of  96 steps completed
   93 of  96 steps completed
   94 of  96 steps completed
   95 of  96 steps completed
    Hessian100% complete.  Estimated remaining time required:   0.00 hours
   96 of  96 steps completed
 CYCLE:    26 TIME:   2.531 TIME LEFT:  5.33D  GRAD.:     0.409 HEAT: -4.386656
 CYCLE:    27 TIME:   0.031 TIME LEFT:  5.33D  GRAD.:     0.821 HEAT: -4.384816
 CYCLE:    28 TIME:   0.039 TIME LEFT:  5.33D  GRAD.:     0.931 HEAT: -4.389620
 CYCLE:    29 TIME:   0.031 TIME LEFT:  5.33D  GRAD.:     0.174 HEAT: -4.388079
 CYCLE:    30 TIME:   0.031 TIME LEFT:  5.33D  GRAD.:     0.088 HEAT: -4.387149

     GRADIENT =  0.08842 IS LESS THAN CUTOFF =  0.10000



 -------------------------------------------------------------------------------
 PM6-D3H4 OPT T=128H RECALC=5 GNORM=0.1 SCFCRT=0.000001 EPS=2.38 RSOLV=3.48
 Claisen_SM_PM6_D3H4_OPT



     GEOMETRY OPTIMISED USING EIGENVECTOR FOLLOWING (EF).     
     SCF FIELD WAS ACHIEVED                                   


                              PM6-D3H4 CALCULATION
                                                       MOPAC2016 (Version: 21.125L)
                                                       Mon Oct 25 19:45:57 2021
                                                       No. of days remaining = 192




          FINAL HEAT OF FORMATION =         -4.38715 KCAL/MOL =     -18.35583 KJ/MOL
          VAN DER WAALS AREA      =        491.84 SQUARE ANGSTROMS


          TOTAL ENERGY            =      -2586.07302 EV
          ELECTRONIC ENERGY       =     -11182.33340 EV  POINT GROUP:     C1  
          CORE-CORE REPULSION     =       8596.26037 EV

          DIELECTRIC ENERGY       =         -0.10323 EV
          COSMO AREA              =        491.84 SQUARE ANGSTROMS
          COSMO VOLUME            =        594.64 CUBIC ANGSTROMS

          GRADIENT NORM           =          0.08842 = 0.01563 PER ATOM
          IONIZATION POTENTIAL    =          8.477192 EV
          HOMO LUMO ENERGIES (EV) =         -8.477 -0.499
          NO. OF FILLED LEVELS    =         44
          MOLECULAR WEIGHT        =        246.7359

          MOLECULAR DIMENSIONS (Angstroms)

            Atom       Atom       Distance
            H    21    H     7     9.24768
            H    29   Cl    18     7.25862
            H    25    H    31     4.80832


          SCF CALCULATIONS        =        518
 
          WALL-CLOCK TIME         =         13.445 SECONDS
          COMPUTATION TIME        =         26.447 SECONDS




   ATOM   CHEMICAL          X               Y               Z
  NUMBER   SYMBOL      (ANGSTROMS)     (ANGSTROMS)     (ANGSTROMS)
 
     1       C         -2.82802574  *   2.48193671  *   0.29151258  *
     2       C         -3.01280017  *   1.12308348  *   0.18739601  *
     3       C         -1.89060022  *   0.24930830  *   0.06536360  *
     4       C         -0.58750340  *   0.80973956  *   0.05401324  *
     5       C         -0.42325025  *   2.22178782  *   0.16226022  *
     6       C         -1.52023448  *   3.04106625  *   0.27876173  *
     7       H         -3.68474725  *   3.15172300  *   0.38520688  *
     8       H         -4.01956496  *   0.70314933  *   0.19781917  *
     9       H          0.59475253  *   2.62124381  *   0.14908069  *
    10       H         -1.40592960  *   4.12142704  *   0.36238779  *
    11       C          0.55120003  *  -0.07791856  *  -0.06898970  *
    12       C         -2.00525282  *  -1.17371400  *  -0.04875415  *
    13       C          0.39481195  *  -1.44533260  *  -0.16711560  *
    14       H          1.24422074  *  -2.12020596  *  -0.22825104  *
    15       C         -0.91162672  *  -1.99602915  *  -0.15932235  *
    16       H         -1.02819531  *  -3.07960649  *  -0.23968844  *
    17       O          1.72461962  *   0.61357512  *  -0.03897464  *
    18      Cl         -3.58091801  *  -1.88440764  *  -0.04479869  *
    19       C          3.03385604  *   0.01872773  *  -0.40665842  *
    20       C          3.42488881  *  -1.08923753  *   0.54321056  *
    21       H          4.10243294  *  -1.82865160  *   0.11071348  *
    22       C          2.97080142  *  -0.42612969  *  -1.86497163  *
    23       H          3.99910909  *  -0.51259581  *  -2.28276166  *
    24       H          2.45836432  *  -1.40787965  *  -1.97229559  *
    25       H          2.40353546  *   0.33029788  *  -2.45760551  *
    26       C          3.92367833  *   1.25009875  *  -0.19720009  *
    27       H          3.71677396  *   1.68474078  *   0.80977764  *
    28       H          4.99433653  *   0.95746842  *  -0.25869014  *
    29       H          3.69994865  *   2.02247585  *  -0.96673451  *
    30       C          3.02471364  *  -1.15510889  *   1.81067983  *
    31       H          3.33876637  *  -1.95464328  *   2.48054758  *
    32       H          2.34709313  *  -0.41495666  *   2.24269817  *

                             CARTESIAN COORDINATES

   1    C       -2.828025738     2.481936709     0.291512582
   2    C       -3.012800167     1.123083481     0.187396008
   3    C       -1.890600225     0.249308299     0.065363602
   4    C       -0.587503396     0.809739560     0.054013245
   5    C       -0.423250249     2.221787819     0.162260217
   6    C       -1.520234484     3.041066253     0.278761726
   7    H       -3.684747253     3.151723003     0.385206876
   8    H       -4.019564960     0.703149329     0.197819170
   9    H        0.594752525     2.621243806     0.149080688
  10    H       -1.405929600     4.121427041     0.362387795
  11    C        0.551200026    -0.077918556    -0.068989695
  12    C       -2.005252820    -1.173714001    -0.048754151
  13    C        0.394811948    -1.445332603    -0.167115602
  14    H        1.244220736    -2.120205961    -0.228251040
  15    C       -0.911626723    -1.996029146    -0.159322351
  16    H       -1.028195311    -3.079606492    -0.239688437
  17    O        1.724619621     0.613575120    -0.038974642
  18   Cl       -3.580918010    -1.884407637    -0.044798694
  19    C        3.033856039     0.018727733    -0.406658425
  20    C        3.424888807    -1.089237531     0.543210562
  21    H        4.102432941    -1.828651604     0.110713478
  22    C        2.970801417    -0.426129689    -1.864971630
  23    H        3.999109092    -0.512595806    -2.282761655
  24    H        2.458364323    -1.407879651    -1.972295590
  25    H        2.403535460     0.330297885    -2.457605515
  26    C        3.923678326     1.250098752    -0.197200093
  27    H        3.716773961     1.684740780     0.809777641
  28    H        4.994336535     0.957468420    -0.258690141
  29    H        3.699948653     2.022475849    -0.966734512
  30    C        3.024713638    -1.155108889     1.810679833
  31    H        3.338766367    -1.954643285     2.480547581
  32    H        2.347093127    -0.414956656     2.242698174


           Empirical Formula: C15 H15 O Cl  =    32 atoms



      MOLECULAR POINT GROUP   :   C1  


                  EIGENVALUES  
 -30.65716 -30.35310 -29.18332 -28.77564 -27.13570 -26.41325 -26.00766 -25.88659
 -24.91368 -24.12623 -22.25830 -22.00684 -21.37953 -20.97771 -19.36876 -17.85312
 -17.60547 -17.09286 -16.57042 -16.21274 -15.64519 -15.16917 -14.84797 -14.69459
 -14.60993 -14.40473 -14.12471 -13.78152 -13.65733 -13.36023 -13.13672 -13.11487
 -12.87818 -12.54099 -12.43250 -12.07468 -11.96599 -11.59737 -10.96433 -10.90342
 -10.59817 -10.13147  -9.66164  -8.47719  -0.49923  -0.26027   0.66387   0.76423
   0.98667   1.47798   1.66775   2.70315   3.36697   3.61053   3.63139   3.73701
   3.78066   4.11626   4.30063   4.43245   4.52297   4.67797   4.85663   4.88486
   5.18174   5.33035   5.39128   5.46006   5.48269   5.54734   5.56320   5.58350
   5.75930   5.81161   5.90379   6.06052   6.06560   6.15802   6.16129   6.23237
   6.24476   6.36690   6.50872  88.51348  88.55452  88.56286  88.88647  88.90411


              NET ATOMIC CHARGES AND DIPOLE CONTRIBUTIONS

  ATOM NO.   TYPE          CHARGE      No. of ELECS.   s-Pop       p-Pop       d-Pop       
    1          C          -0.092928        4.0929     1.10895     2.98398
    2          C          -0.205804        4.2058     1.10924     3.09657
    3          C           0.090315        3.9097     1.08298     2.82670
    4          C          -0.136242        4.1362     1.09307     3.04317
    5          C          -0.082286        4.0823     1.10828     2.97401
    6          C          -0.198266        4.1983     1.10761     3.09066
    7          H           0.151910        0.8481     0.84809
    8          H           0.172593        0.8274     0.82741
    9          H           0.166241        0.8338     0.83376
   10          H           0.159153        0.8408     0.84085
   11          C           0.362112        3.6379     1.08568     2.55221
   12          C          -0.102047        4.1020     1.10111     3.00093
   13          C          -0.390763        4.3908     1.10314     3.28763
   14          H           0.188870        0.8111     0.81113
   15          C          -0.041304        4.0413     1.10388     2.93742
   16          H           0.164994        0.8350     0.83501
   17          O          -0.455923        6.4559     1.83948     4.61644
   18         Cl          -0.106718        7.1067     1.98826     5.11136     0.00709
   19          C           0.441403        3.5586     1.09123     2.46736
   20          C          -0.255415        4.2554     1.12799     3.12742
   21          H           0.162396        0.8376     0.83760
   22          C          -0.580351        4.5804     1.10750     3.47285
   23          H           0.178977        0.8210     0.82102
   24          H           0.180860        0.8191     0.81914
   25          H           0.186220        0.8138     0.81378
   26          C          -0.542805        4.5428     1.10498     3.43783
   27          H           0.183925        0.8161     0.81607
   28          H           0.175814        0.8242     0.82419
   29          H           0.177706        0.8223     0.82229
   30          C          -0.269014        4.2690     1.12589     3.14312
   31          H           0.153536        0.8465     0.84646
   32          H           0.162842        0.8372     0.83716
 DIPOLE           X         Y         Z       TOTAL
 POINT-CHG.     4.245     0.779    -0.538     4.349
 HYBRID        -0.077    -0.072     0.003     0.106
 SUM            4.168     0.707    -0.535     4.261


          ATOMIC ORBITAL ELECTRON POPULATIONS

     Atom    s        px        py        pz      x^2-y^2     xz        z^2       yz        xy
    1  C   1.10895   1.02690   1.00342   0.95366
    2  C   1.10924   1.06243   0.99453   1.03960
    3  C   1.08298   0.95329   0.92955   0.94387
    4  C   1.09307   0.96368   0.98523   1.09426
    5  C   1.10828   1.05805   0.96491   0.95104
    6  C   1.10761   0.98098   1.07438   1.03530
    7  H   0.84809
    8  H   0.82741
    9  H   0.83376
   10  H   0.84085
   11  C   1.08568   0.79655   0.90334   0.85232
   12  C   1.10111   0.87438   0.96762   1.15894
   13  C   1.10314   1.06145   1.02776   1.19841
   14  H   0.81113
   15  C   1.10388   0.94350   1.06266   0.93126
   16  H   0.83501
   17  O   1.83948   1.26408   1.53498   1.81738
   18 Cl   1.98826   1.29814   1.84265   1.97057   0.00249   0.00085   0.00126   0.00020   0.00231
   19  C   1.09123   0.70392   0.88432   0.87912
   20  C   1.12799   1.05782   1.05333   1.01627
   21  H   0.83760
   22  C   1.10750   1.19658   1.19451   1.08177
   23  H   0.82102
   24  H   0.81914
   25  H   0.81378
   26  C   1.10498   1.13240   1.10429   1.20114
   27  H   0.81607
   28  H   0.82419
   29  H   0.82229
   30  C   1.12589   1.02849   1.09162   1.02302
   31  H   0.84646
   32  H   0.83716

 **********************
 *                    *
 * JOB ENDED NORMALLY *
 *                    *
 **********************



 TOTAL JOB TIME:            13.45 SECONDS

 == MOPAC DONE ==
