 *******************************************************************************
 ** Site#: 37381        For non-commercial use only           Version 21.125L **
 *******************************************************************************
 ** Cite this program as: MOPAC2016, Version: 21.125L, James J. P. Stewart,   **
 ** Stewart Computational Chemistry, web: HTTP://OpenMOPAC.net. Days left: 192**
 *******************************************************************************
 **                                                                           **
 **                                MOPAC2016                                  **
 **                                                                           **
 *******************************************************************************

                              PM6-D3H4 CALCULATION RESULTS

 *******************************************************************************
 *  CALCULATION DONE:                                Mon Oct 25 19:52:44 2021  *
 *  PM6-D3H4   - CORRECT DISPERSION AND HYDROGEN BOND TERMS USING THE D3H4 METHOD
 *  EPS=2.38   - USE ANDREAS KLAMT'S COSMO IMPLICIT SOLVATION MODEL
 *  RSOLV=  3.480
 *  FORCE      - FORCE CALCULATION SPECIFIED
 *  T=         - A TIME OF 172800.0 SECONDS REQUESTED
 *  DUMP=N     - RESTART FILE WRITTEN EVERY 7200.0 SECONDS REQUESTED
 *  AUX        - OUTPUT AUXILIARY INFORMATION
 *  LARGE      - EXPANDED OUTPUT TO BE PRINTED
 *  THERMO     - THERMODYNAMIC QUANTITIES TO BE CALCULATED
 *******************************************************************************
 AUX LARGE FORCE THERMO PM6-D3H4 EPS=2.38 RSOLV=3.48
 Claisen_SM_PM6_D3H4_THERMO

   ATOM   CHEMICAL          X               Y               Z
  NUMBER   SYMBOL      (ANGSTROMS)     (ANGSTROMS)     (ANGSTROMS)
 
     1       C         -2.82803000  *   2.48194000  *   0.29151000  *
     2       C         -3.01280000  *   1.12308000  *   0.18740000  *
     3       C         -1.89060000  *   0.24931000  *   0.06536000  *
     4       C         -0.58750000  *   0.80974000  *   0.05401000  *
     5       C         -0.42325000  *   2.22179000  *   0.16226000  *
     6       C         -1.52023000  *   3.04107000  *   0.27876000  *
     7       H         -3.68475000  *   3.15172000  *   0.38521000  *
     8       H         -4.01956000  *   0.70315000  *   0.19782000  *
     9       H          0.59475000  *   2.62124000  *   0.14908000  *
    10       H         -1.40593000  *   4.12143000  *   0.36239000  *
    11       C          0.55120000  *  -0.07792000  *  -0.06899000  *
    12       C         -2.00525000  *  -1.17371000  *  -0.04875000  *
    13       C          0.39481000  *  -1.44533000  *  -0.16712000  *
    14       H          1.24422000  *  -2.12021000  *  -0.22825000  *
    15       C         -0.91163000  *  -1.99603000  *  -0.15932000  *
    16       H         -1.02820000  *  -3.07961000  *  -0.23969000  *
    17       O          1.72462000  *   0.61358000  *  -0.03897000  *
    18      Cl         -3.58092000  *  -1.88441000  *  -0.04480000  *
    19       C          3.03386000  *   0.01873000  *  -0.40666000  *
    20       C          3.42489000  *  -1.08924000  *   0.54321000  *
    21       H          4.10243000  *  -1.82865000  *   0.11071000  *
    22       C          2.97080000  *  -0.42613000  *  -1.86497000  *
    23       H          3.99911000  *  -0.51260000  *  -2.28276000  *
    24       H          2.45836000  *  -1.40788000  *  -1.97230000  *
    25       H          2.40354000  *   0.33030000  *  -2.45761000  *
    26       C          3.92368000  *   1.25010000  *  -0.19720000  *
    27       H          3.71677000  *   1.68474000  *   0.80978000  *
    28       H          4.99434000  *   0.95747000  *  -0.25869000  *
    29       H          3.69995000  *   2.02248000  *  -0.96673000  *
    30       C          3.02471000  *  -1.15511000  *   1.81068000  *
    31       H          3.33877000  *  -1.95464000  *   2.48055000  *
    32       H          2.34709000  *  -0.41496000  *   2.24270000  *
 


          CARTESIAN COORDINATES 

    NO.       ATOM           X           Y           Z

     1         C         -2.8280      2.4819      0.2915
     2         C         -3.0128      1.1231      0.1874
     3         C         -1.8906      0.2493      0.0654
     4         C         -0.5875      0.8097      0.0540
     5         C         -0.4233      2.2218      0.1623
     6         C         -1.5202      3.0411      0.2788
     7         H         -3.6848      3.1517      0.3852
     8         H         -4.0196      0.7032      0.1978
     9         H          0.5948      2.6212      0.1491
    10         H         -1.4059      4.1214      0.3624
    11         C          0.5512     -0.0779     -0.0690
    12         C         -2.0053     -1.1737     -0.0488
    13         C          0.3948     -1.4453     -0.1671
    14         H          1.2442     -2.1202     -0.2283
    15         C         -0.9116     -1.9960     -0.1593
    16         H         -1.0282     -3.0796     -0.2397
    17         O          1.7246      0.6136     -0.0390
    18        Cl         -3.5809     -1.8844     -0.0448
    19         C          3.0339      0.0187     -0.4067
    20         C          3.4249     -1.0892      0.5432
    21         H          4.1024     -1.8287      0.1107
    22         C          2.9708     -0.4261     -1.8650
    23         H          3.9991     -0.5126     -2.2828
    24         H          2.4584     -1.4079     -1.9723
    25         H          2.4035      0.3303     -2.4576
    26         C          3.9237      1.2501     -0.1972
    27         H          3.7168      1.6847      0.8098
    28         H          4.9943      0.9575     -0.2587
    29         H          3.7000      2.0225     -0.9667
    30         C          3.0247     -1.1551      1.8107
    31         H          3.3388     -1.9546      2.4806
    32         H          2.3471     -0.4150      2.2427

 General Reference for PM6:
 "Optimization of Parameters for Semiempirical Methods V: Modification of NDDO Approximations
 and Application to 70 Elements", J. J. P. Stewart, J. Mol. Mod., 13, 1173-1213 (2007)
 URL: https://link.springer.com/article/10.1007/s00894-007-0233-4

           Empirical Formula: C15 H15 O Cl  =    32 atoms



      MOLECULAR POINT GROUP   :   C1  


      RHF CALCULATION, NO. OF DOUBLY OCCUPIED LEVELS = 44



          HEAT OF FORMATION =      -4.387192 KCALS/MOLE


          CARTESIAN COORDINATE DERIVATIVES

   NUMBER  ATOM         X            Y            Z

     1       C      0.018520    -0.023543     0.000328
     2       C     -0.012014     0.028037     0.005639
     3       C      0.054590    -0.040602    -0.002923
     4       C     -0.026103     0.036206    -0.001223
     5       C     -0.035974     0.027873     0.008144
     6       C      0.009335    -0.000349     0.005560
     7       H      0.018484    -0.012841    -0.003448
     8       H     -0.011232     0.004665    -0.006699
     9       H     -0.001854     0.001132    -0.000268
    10       H      0.002970    -0.006075     0.000848
    11       C      0.057947    -0.044149     0.001883
    12       C     -0.036174     0.037048     0.009676
    13       C     -0.005434     0.000784     0.007262
    14       H      0.022741    -0.012813    -0.002877
    15       C      0.005190    -0.016914    -0.005137
    16       H      0.014666     0.002142    -0.005157
    17       O     -0.050031     0.038828     0.009471
    18      Cl     -0.014350     0.010161    -0.005746
    19       C      0.013270    -0.031656    -0.010145
    20       C      0.000588     0.047639     0.023670
    21       H      0.006895    -0.024277    -0.004413
    22       C     -0.025717    -0.001586     0.013387
    23       H      0.010654    -0.008574    -0.010253
    24       H     -0.004554     0.003986    -0.001050
    25       H      0.018309    -0.003238    -0.009380
    26       C     -0.023677     0.017237     0.007539
    27       H     -0.016779    -0.023977     0.041677
    28       H      0.023783     0.024775    -0.006569
    29       H     -0.008117    -0.018661    -0.040132
    30       C     -0.029454     0.009204    -0.010044
    31       H      0.016048    -0.001065    -0.004423
    32       H      0.007473    -0.019395    -0.005198
 
 DIPOLE           X         Y         Z       TOTAL
 POINT-CHG.    -1.299     4.130    -0.412     4.349
 HYBRID         0.081    -0.067     0.006     0.106
 SUM           -1.218     4.063    -0.407     4.261


          GRADIENT NORM =   0.20078


          TIME FOR SCF CALCULATION =    0.06

          TIME FOR DERIVATIVES     =    0.02

          MOLECULAR WEIGHT =  246.74



          ROTATIONAL CONSTANTS IN CM(-1)

          A =    0.02326097   B =    0.00953935   C =    0.00747583



           PRINCIPAL MOMENTS OF INERTIA IN UNITS OF 10**(-40)*GRAM-CM**2

          A =     1203.4223   B =     2934.4543   C =     3744.4392


          ORIENTATION OF MOLECULE IN FORCE CALCULATION

    NO.       ATOM         X         Y         Z

     1          C      -2.1350   -3.0355   -0.0440
     2          C      -0.7596   -3.0355   -0.0440
     3          C      -0.0379   -1.8039   -0.0440
     4          C      -0.7658   -0.5864   -0.0438
     5          C      -2.1912   -0.6138   -0.0450
     6          C      -2.8621   -1.8130   -0.0449
     7          H      -2.6887   -3.9760   -0.0437
     8          H      -0.2103   -3.9779   -0.0436
     9          H      -2.7216    0.3425   -0.0460
    10          H      -3.9513   -1.8453   -0.0455
    11          C      -0.0324    0.6634   -0.0429
    12          C       1.3922   -1.7256   -0.0456
    13          C       1.3471    0.6923   -0.0350
    14          H       1.9044    1.6245   -0.0028
    15          C       2.0661   -0.5297   -0.0397
    16          H       3.1585   -0.4993   -0.0357
    17          O      -0.8756    1.7332   -0.0181
    18         Cl       2.3058   -3.1929   -0.0528
    19          C      -0.4359    3.1270   -0.2773
    20          C       0.5344    3.6066    0.7768
    21          H       1.2067    4.3974    0.4370
    22          C       0.1225    3.2024   -1.6954
    23          H       0.1014    4.2545   -2.0588
    24          H       1.1695    2.8290   -1.7442
    25          H      -0.5038    2.5746   -2.3728
    26          C      -1.7879    3.8358   -0.1308
    27          H      -2.2658    3.5192    0.8269
    28          H      -1.6380    4.9372   -0.1206
    29          H      -2.4628    3.5557   -0.9704
    30          C       0.5573    3.1496    2.0265
    31          H       1.2544    3.5281    2.7731
    32          H      -0.1157    2.3587    2.3658


    FIRST DERIVATIVES WILL BE USED IN THE CALCULATION OF SECOND DERIVATIVES

          ESTIMATED TIME TO COMPLETE CALCULATION =       16.50 SECONDS

    FOR POINT-GROUP C1   THERE ARE   1 UNIQUE SYMMETRY FUNCTIONS.

 STEP:   1 TIME =     0.08 SECS, INTEGRAL =      0.08 TIME LEFT: 172799.84
 STEP:   2 TIME =     0.08 SECS, INTEGRAL =      0.16 TIME LEFT: 172799.76
 STEP:   3 TIME =     0.07 SECS, INTEGRAL =      0.23 TIME LEFT: 172799.69
 STEP:   4 TIME =     0.08 SECS, INTEGRAL =      0.30 TIME LEFT: 172799.61
 STEP:   5 TIME =     0.08 SECS, INTEGRAL =      0.38 TIME LEFT: 172799.53
 STEP:   6 TIME =     0.07 SECS, INTEGRAL =      0.45 TIME LEFT: 172799.46
 STEP:   7 TIME =     0.08 SECS, INTEGRAL =      0.53 TIME LEFT: 172799.38
 STEP:   8 TIME =     0.07 SECS, INTEGRAL =      0.60 TIME LEFT: 172799.31
 STEP:   9 TIME =     0.07 SECS, INTEGRAL =      0.67 TIME LEFT: 172799.24
 STEP:  10 TIME =     0.08 SECS, INTEGRAL =      0.75 TIME LEFT: 172799.16
 STEP:  11 TIME =     0.08 SECS, INTEGRAL =      0.83 TIME LEFT: 172799.09
 STEP:  12 TIME =     0.07 SECS, INTEGRAL =      0.90 TIME LEFT: 172799.02
 STEP:  13 TIME =     0.07 SECS, INTEGRAL =      0.97 TIME LEFT: 172798.95
 STEP:  14 TIME =     0.08 SECS, INTEGRAL =      1.05 TIME LEFT: 172798.87
 STEP:  15 TIME =     0.07 SECS, INTEGRAL =      1.12 TIME LEFT: 172798.80
 STEP:  16 TIME =     0.06 SECS, INTEGRAL =      1.18 TIME LEFT: 172798.73
 STEP:  17 TIME =     0.08 SECS, INTEGRAL =      1.26 TIME LEFT: 172798.66
 STEP:  18 TIME =     0.07 SECS, INTEGRAL =      1.33 TIME LEFT: 172798.59
 STEP:  19 TIME =     0.06 SECS, INTEGRAL =      1.39 TIME LEFT: 172798.52
 STEP:  20 TIME =     0.06 SECS, INTEGRAL =      1.45 TIME LEFT: 172798.46
 STEP:  21 TIME =     0.07 SECS, INTEGRAL =      1.52 TIME LEFT: 172798.39
 STEP:  22 TIME =     0.06 SECS, INTEGRAL =      1.59 TIME LEFT: 172798.33
 STEP:  23 TIME =     0.07 SECS, INTEGRAL =      1.66 TIME LEFT: 172798.26
 STEP:  24 TIME =     0.07 SECS, INTEGRAL =      1.73 TIME LEFT: 172798.19
 STEP:  25 TIME =     0.07 SECS, INTEGRAL =      1.80 TIME LEFT: 172798.12
 STEP:  26 TIME =     0.06 SECS, INTEGRAL =      1.86 TIME LEFT: 172798.05
 STEP:  27 TIME =     0.06 SECS, INTEGRAL =      1.92 TIME LEFT: 172797.99
 STEP:  28 TIME =     0.07 SECS, INTEGRAL =      1.99 TIME LEFT: 172797.92
 STEP:  29 TIME =     0.07 SECS, INTEGRAL =      2.06 TIME LEFT: 172797.85
 STEP:  30 TIME =     0.06 SECS, INTEGRAL =      2.12 TIME LEFT: 172797.79
 STEP:  31 TIME =     0.08 SECS, INTEGRAL =      2.20 TIME LEFT: 172797.71
 STEP:  32 TIME =     0.08 SECS, INTEGRAL =      2.28 TIME LEFT: 172797.63
 STEP:  33 TIME =     0.08 SECS, INTEGRAL =      2.36 TIME LEFT: 172797.55
 STEP:  34 TIME =     0.08 SECS, INTEGRAL =      2.44 TIME LEFT: 172797.48
 STEP:  35 TIME =     0.08 SECS, INTEGRAL =      2.52 TIME LEFT: 172797.40
 STEP:  36 TIME =     0.08 SECS, INTEGRAL =      2.59 TIME LEFT: 172797.32
 STEP:  37 TIME =     0.08 SECS, INTEGRAL =      2.67 TIME LEFT: 172797.24
 STEP:  38 TIME =     0.08 SECS, INTEGRAL =      2.75 TIME LEFT: 172797.16
 STEP:  39 TIME =     0.08 SECS, INTEGRAL =      2.83 TIME LEFT: 172797.09
 STEP:  40 TIME =     0.07 SECS, INTEGRAL =      2.90 TIME LEFT: 172797.02
 STEP:  41 TIME =     0.07 SECS, INTEGRAL =      2.97 TIME LEFT: 172796.95
 STEP:  42 TIME =     0.07 SECS, INTEGRAL =      3.04 TIME LEFT: 172796.88
 STEP:  43 TIME =     0.07 SECS, INTEGRAL =      3.11 TIME LEFT: 172796.80
 STEP:  44 TIME =     0.08 SECS, INTEGRAL =      3.19 TIME LEFT: 172796.73
 STEP:  45 TIME =     0.07 SECS, INTEGRAL =      3.26 TIME LEFT: 172796.66
 STEP:  46 TIME =     0.07 SECS, INTEGRAL =      3.33 TIME LEFT: 172796.59
 STEP:  47 TIME =     0.07 SECS, INTEGRAL =      3.40 TIME LEFT: 172796.52
 STEP:  48 TIME =     0.06 SECS, INTEGRAL =      3.46 TIME LEFT: 172796.45
 STEP:  49 TIME =     0.08 SECS, INTEGRAL =      3.54 TIME LEFT: 172796.38
 STEP:  50 TIME =     0.08 SECS, INTEGRAL =      3.62 TIME LEFT: 172796.30
 STEP:  51 TIME =     0.07 SECS, INTEGRAL =      3.69 TIME LEFT: 172796.23
 STEP:  52 TIME =     0.07 SECS, INTEGRAL =      3.76 TIME LEFT: 172796.16
 STEP:  53 TIME =     0.06 SECS, INTEGRAL =      3.82 TIME LEFT: 172796.09
 STEP:  54 TIME =     0.07 SECS, INTEGRAL =      3.89 TIME LEFT: 172796.02
 STEP:  55 TIME =     0.07 SECS, INTEGRAL =      3.96 TIME LEFT: 172795.95
 STEP:  56 TIME =     0.08 SECS, INTEGRAL =      4.04 TIME LEFT: 172795.88
 STEP:  57 TIME =     0.07 SECS, INTEGRAL =      4.11 TIME LEFT: 172795.80
 STEP:  58 TIME =     0.07 SECS, INTEGRAL =      4.18 TIME LEFT: 172795.73
 STEP:  59 TIME =     0.07 SECS, INTEGRAL =      4.25 TIME LEFT: 172795.66
 STEP:  60 TIME =     0.07 SECS, INTEGRAL =      4.32 TIME LEFT: 172795.59
 STEP:  61 TIME =     0.07 SECS, INTEGRAL =      4.39 TIME LEFT: 172795.52
 STEP:  62 TIME =     0.07 SECS, INTEGRAL =      4.46 TIME LEFT: 172795.45
 STEP:  63 TIME =     0.06 SECS, INTEGRAL =      4.52 TIME LEFT: 172795.39
 STEP:  64 TIME =     0.07 SECS, INTEGRAL =      4.59 TIME LEFT: 172795.32
 STEP:  65 TIME =     0.06 SECS, INTEGRAL =      4.66 TIME LEFT: 172795.26
 STEP:  66 TIME =     0.07 SECS, INTEGRAL =      4.73 TIME LEFT: 172795.19
 STEP:  67 TIME =     0.07 SECS, INTEGRAL =      4.80 TIME LEFT: 172795.12
 STEP:  68 TIME =     0.06 SECS, INTEGRAL =      4.86 TIME LEFT: 172795.05
 STEP:  69 TIME =     0.06 SECS, INTEGRAL =      4.92 TIME LEFT: 172794.99
 STEP:  70 TIME =     0.07 SECS, INTEGRAL =      4.99 TIME LEFT: 172794.92
 STEP:  71 TIME =     0.06 SECS, INTEGRAL =      5.05 TIME LEFT: 172794.86
 STEP:  72 TIME =     0.07 SECS, INTEGRAL =      5.12 TIME LEFT: 172794.79
 STEP:  73 TIME =     0.06 SECS, INTEGRAL =      5.19 TIME LEFT: 172794.73
 STEP:  74 TIME =     0.06 SECS, INTEGRAL =      5.25 TIME LEFT: 172794.66
 STEP:  75 TIME =     0.06 SECS, INTEGRAL =      5.31 TIME LEFT: 172794.60
 STEP:  76 TIME =     0.07 SECS, INTEGRAL =      5.38 TIME LEFT: 172794.53
 STEP:  77 TIME =     0.07 SECS, INTEGRAL =      5.45 TIME LEFT: 172794.46
 STEP:  78 TIME =     0.07 SECS, INTEGRAL =      5.52 TIME LEFT: 172794.39
 STEP:  79 TIME =     0.06 SECS, INTEGRAL =      5.59 TIME LEFT: 172794.33
 STEP:  80 TIME =     0.07 SECS, INTEGRAL =      5.66 TIME LEFT: 172794.26
 STEP:  81 TIME =     0.06 SECS, INTEGRAL =      5.72 TIME LEFT: 172794.20
 STEP:  82 TIME =     0.07 SECS, INTEGRAL =      5.79 TIME LEFT: 172794.12
 STEP:  83 TIME =     0.06 SECS, INTEGRAL =      5.85 TIME LEFT: 172794.06
 STEP:  84 TIME =     0.07 SECS, INTEGRAL =      5.92 TIME LEFT: 172793.99
 STEP:  85 TIME =     0.06 SECS, INTEGRAL =      5.98 TIME LEFT: 172793.93
 STEP:  86 TIME =     0.07 SECS, INTEGRAL =      6.05 TIME LEFT: 172793.86
 STEP:  87 TIME =     0.07 SECS, INTEGRAL =      6.12 TIME LEFT: 172793.79
 STEP:  88 TIME =     0.07 SECS, INTEGRAL =      6.20 TIME LEFT: 172793.72
 STEP:  89 TIME =     0.07 SECS, INTEGRAL =      6.27 TIME LEFT: 172793.65
 STEP:  90 TIME =     0.07 SECS, INTEGRAL =      6.34 TIME LEFT: 172793.58
 STEP:  91 TIME =     0.07 SECS, INTEGRAL =      6.41 TIME LEFT: 172793.51
 STEP:  92 TIME =     0.07 SECS, INTEGRAL =      6.48 TIME LEFT: 172793.44
 STEP:  93 TIME =     0.07 SECS, INTEGRAL =      6.55 TIME LEFT: 172793.37
 STEP:  94 TIME =     0.07 SECS, INTEGRAL =      6.62 TIME LEFT: 172793.30
 STEP:  95 TIME =     0.07 SECS, INTEGRAL =      6.69 TIME LEFT: 172793.23
 STEP:  96 TIME =     0.07 SECS, INTEGRAL =      6.76 TIME LEFT: 172793.16

(To convert to Hartree/Bohr^2, multiply by (10^(-21) x N x a0^2)/(4.184 x 627.51) =  0.0642)


           FORCE MATRIX IN MILLIDYNES/ANGSTROM


                  C  1       C  2       C  3       C  4       C  5       C  6
 ------------------------------------------------------------------------------
     C    1  14.437743
     C    2   6.559476  14.388837
     C    3   2.031247   4.479459  15.199685
     C    4   1.272244   1.654158   5.136943  15.046458
     C    5   2.173595   1.448289   1.700146   4.560298  14.526417
     C    6   4.788272   2.156708   1.299209   1.998916   6.606771  14.430092
     H    7   3.498639   0.676798   0.119769   0.012918   0.076714   0.641988
     H    8   0.694240   3.484694   0.645002   0.071551   0.009781   0.112355
     H    9   0.116277   0.017945   0.077068   0.664114   3.463677   0.660649
     H   10   0.653040   0.075955   0.005455   0.115159   0.687090   3.504693
     C   11   0.502348   0.512960   1.461932   3.890282   1.383932   0.575991
     C   12   0.568443   1.413087   4.386543   1.385363   0.473744   0.503925
     C   13   0.448944   0.499652   1.104450   1.585424   0.501074   0.465727
     H   14   0.008733   0.015497   0.023172   0.094811   0.009059   0.008498
     C   15   0.470699   0.563543   1.857324   0.992838   0.453904   0.459388
     H   16   0.006505   0.010079   0.106915   0.008861   0.009199   0.004448
     O   17   0.048567   0.034756   0.103303   1.275154   0.079338   0.062911
    Cl   18   0.007779   0.051097   0.859917   0.079044   0.018453   0.012045
     C   19   0.020835   0.015563   0.028110   0.146232   0.041627   0.034601
     C   20   0.002610   0.003600   0.005360   0.010495   0.005434   0.004433
     H   21   0.000806   0.001404   0.002194   0.003100   0.001597   0.001163
     C   22   0.006017   0.007465   0.011303   0.022961   0.018134   0.010064
     H   23   0.000491   0.000970   0.001423   0.002909   0.004414   0.001126
     H   24   0.002336   0.003291   0.005247   0.006203   0.002780   0.002543
     H   25   0.001378   0.001891   0.002786   0.006448   0.008727   0.002660
     C   26   0.004692   0.006361   0.008435   0.043896   0.047371   0.009090
     H   27   0.001358   0.001534   0.001099   0.006266   0.006612   0.002635
     H   28   0.000594   0.000687   0.001405   0.005772   0.009828   0.001210
     H   29   0.001406   0.001505   0.001162   0.005514   0.037553   0.002774
     C   30   0.002129   0.003018   0.004683   0.005694   0.003715   0.002972
     H   31   0.000595   0.001232   0.001748   0.003120   0.001662   0.001172
     H   32   0.001339   0.001946   0.002830   0.005286   0.002108   0.002123


                  H  7       H  8       H  9       H 10       C 11       C 12
 ------------------------------------------------------------------------------
     H    7   4.316305
     H    8   0.037099   4.328157
     H    9   0.010402   0.014166   4.276765
     H   10   0.027282   0.008960   0.036506   4.328589
     C   11   0.016498   0.016552   0.070274   0.016984  15.184372
     C   12   0.014579   0.039219   0.013836   0.020045   1.306114  13.542764
     C   13   0.005418   0.008088   0.020030   0.012352   6.054993   2.012099
     H   14   0.002726   0.002166   0.002974   0.002280   0.700466   0.074596
     C   15   0.006512   0.013740   0.010854   0.014588   2.157808   6.543706
     H   16   0.001911   0.002800   0.001959   0.002826   0.086289   0.685624
     O   17   0.007963   0.009495   0.040524   0.015875   4.488217   0.065669
    Cl   18   0.009311   0.112982   0.005393   0.006452   0.066473   2.759548
     C   19   0.007246   0.008062   0.031989   0.011327   1.213688   0.034523
     C   20   0.001401   0.001393   0.005835   0.001824   0.089290   0.008701
     H   21   0.000485   0.000438   0.000953   0.000547   0.022331   0.003527
     C   22   0.002908   0.002884   0.014427   0.003869   0.157701   0.018412
     H   23   0.000479   0.000449   0.003432   0.000597   0.018366   0.003017
     H   24   0.000811   0.000732   0.001358   0.000865   0.044775   0.007065
     H   25   0.000810   0.000755   0.007023   0.001101   0.047061   0.005251
     C   26   0.002949   0.002888   0.042422   0.003886   0.129949   0.014856
     H   27   0.000673   0.000661   0.006391   0.001012   0.031243   0.003245
     H   28   0.000413   0.000453   0.007318   0.000465   0.024870   0.002006
     H   29   0.000639   0.000655   0.032781   0.001100   0.028698   0.003062
     C   30   0.000929   0.000924   0.001776   0.001085   0.030460   0.006719
     H   31   0.000522   0.000526   0.000898   0.000574   0.018260   0.003529
     H   32   0.000620   0.000580   0.001350   0.000826   0.035328   0.004626


                  C 13       H 14       C 15       H 16       O 17      Cl 18
 ------------------------------------------------------------------------------
     C   13  14.368583
     H   14   3.486324   4.349182
     C   15   4.912398   0.687572  14.683978
     H   16   0.646639   0.031378   3.493764   4.303899
     O   17   1.266229   0.078904   0.246423   0.022631   9.090922
    Cl   18   0.109602   0.015361   1.043794   0.055596   0.046763   4.462640
     C   19   0.182714   0.060357   0.088763   0.012806   2.441714   0.034490
     C   20   0.068270   0.035207   0.012301   0.002524   0.780328   0.006147
     H   21   0.010793   0.014216   0.004021   0.000978   0.057965   0.002049
     C   22   0.091384   0.015815   0.029051   0.005205   0.867179   0.012797
     H   23   0.008572   0.002831   0.004174   0.001003   0.064036   0.001934
     H   24   0.016273   0.042999   0.007023   0.002147   0.042454   0.003626
     H   25   0.017185   0.004102   0.008013   0.001416   0.041220   0.003468
     C   26   0.040993   0.011764   0.018394   0.004248   1.003421   0.012778
     H   27   0.012546   0.002252   0.005139   0.000866   0.017944   0.002715
     H   28   0.006794   0.001665   0.002838   0.000684   0.056483   0.001762
     H   29   0.011621   0.002230   0.004764   0.000824   0.027016   0.002474
     C   30   0.042693   0.011519   0.008117   0.001879   0.059845   0.004253
     H   31   0.011135   0.005152   0.004123   0.001064   0.028156   0.002425
     H   32   0.012590   0.007007   0.006066   0.000923   0.032922   0.002636


                  C 19       C 20       H 21       C 22       H 23       H 24
 ------------------------------------------------------------------------------
     C   19  12.802078
     C   20   3.544943  16.029342
     H   21   0.610010   3.457238   4.280309
     C   22   3.298480   0.662399   0.030124  11.365318
     H   23   0.622516   0.016280   0.017264   3.346415   4.264836
     H   24   0.623372   0.020850   0.016266   3.348596   0.570108   4.266130
     H   25   0.653948   0.043902   0.003087   3.338341   0.564611   0.572791
     C   26   3.154395   0.692581   0.023063   0.702866   0.015833   0.045802
     H   27   0.643528   0.013691   0.003865   0.047016   0.003071   0.008003
     H   28   0.614609   0.024237   0.012803   0.018994   0.022176   0.002397
     H   29   0.639640   0.045933   0.003073   0.016913   0.017915   0.003215
     C   30   0.788578   9.785984   0.733785   0.060897   0.006357   0.008129
     H   31   0.154273   0.722465   0.070813   0.024078   0.004511   0.007629
     H   32   0.087349   0.727111   0.146868   0.014500   0.002625   0.003239


                  H 25       C 26       H 27       H 28       H 29       C 30
 ------------------------------------------------------------------------------
     H   25   4.255848
     C   26   0.015970  11.284182
     H   27   0.002541   3.333537   4.250272
     H   28   0.004206   3.348851   0.564868   4.263222
     H   29   0.021833   3.366839   0.570130   0.566181   4.263033
     C   30   0.007352   0.042223   0.005415   0.006112   0.004297  15.147305
     H   31   0.002556   0.026958   0.003009   0.003505   0.004216   3.539279
     H   32   0.002114   0.019979   0.012511   0.003913   0.002838   3.517259


                  H 31       H 32
 ------------------------------
     H   31   4.313110
     H   32   0.558168   4.293348


          HEAT OF FORMATION =      -4.387192 KCALS/MOLE


          TRIVIAL VIBRATIONS, SHOULD BE ZERO

 -49.7704=TX   8.6563=TY -14.6027=TZ  33.6727=RX  27.7372=RY  -5.6932=RZ


      MOLECULAR POINT GROUP   :   C1  


           EIGENVECTORS  


   Root No.       1         2         3         4         5         6         7         8

                 1 A       2 A       3 A       4 A       5 A       6 A       7 A       8 A   

                   0.0       0.0       0.0       0.0       0.0       0.0       0.0       0.1
  
           1   -0.0041    0.0099   -0.0309   -0.0042   -0.0043    0.0413    0.0437   -0.0050
           2   -0.0049   -0.0072    0.0258    0.0107    0.0172   -0.0513   -0.0712    0.0285
           3   -0.1775   -0.0014   -0.0183    0.0147   -0.0064   -0.1001    0.0939    0.1085
           4   -0.0043    0.0100   -0.0310   -0.0040   -0.0041    0.0405    0.0425   -0.0044
           5   -0.0056   -0.0003    0.0156   -0.0022    0.0128    0.0009   -0.0064    0.0118
           6   -0.1132    0.1185    0.0139    0.0483   -0.0272   -0.1318    0.1214   -0.0540
           7   -0.0038    0.0037   -0.0215    0.0070   -0.0004   -0.0062   -0.0160    0.0101
           8   -0.0057    0.0032    0.0103   -0.0086    0.0106    0.0281    0.0278    0.0031
           9   -0.0103    0.0843    0.0223    0.0310    0.0016    0.0101   -0.0022   -0.1298
          10   -0.0030   -0.0017   -0.0130    0.0163    0.0021   -0.0485   -0.0680    0.0211
          11   -0.0051   -0.0000    0.0151   -0.0040    0.0114    0.0052    0.0006    0.0080
          12    0.0319   -0.0497    0.0077   -0.0094    0.0294    0.0685   -0.0357   -0.1250
          13   -0.0032   -0.0014   -0.0133    0.0158    0.0018   -0.0480   -0.0675    0.0213
          14   -0.0047   -0.0075    0.0260    0.0108    0.0171   -0.0508   -0.0702    0.0270
          15   -0.0351   -0.1697   -0.0251   -0.0372    0.0573    0.1687   -0.1285   -0.1045
          16   -0.0035    0.0044   -0.0222    0.0056   -0.0014   -0.0025   -0.0105    0.0071
          17   -0.0042   -0.0108    0.0312    0.0167    0.0191   -0.0770   -0.1031    0.0354
          18   -0.1394   -0.1513   -0.0403   -0.0300    0.0433    0.0999   -0.0810    0.0640
          19   -0.0042    0.0151   -0.0382   -0.0126   -0.0072    0.0785    0.0908   -0.0174
          20   -0.0047   -0.0101    0.0301    0.0156    0.0189   -0.0729   -0.0990    0.0358
          21   -0.2587    0.0169   -0.0282    0.0227   -0.0262   -0.2300    0.2102    0.2862
          22   -0.0051    0.0141   -0.0382   -0.0126   -0.0068    0.0773    0.0887   -0.0146
          23   -0.0061    0.0021    0.0114   -0.0071    0.0112    0.0218    0.0205    0.0063
          24   -0.1420    0.2363    0.0312    0.0864   -0.0645   -0.2821    0.2578   -0.0865
          25   -0.0029   -0.0070   -0.0067    0.0294    0.0074   -0.0859   -0.1143    0.0348
          26   -0.0043   -0.0105    0.0298    0.0180    0.0201   -0.0724   -0.0973    0.0349
          27   -0.0049   -0.2819   -0.0426   -0.0601    0.0990    0.3122   -0.2431   -0.1998
          28   -0.0035    0.0046   -0.0224    0.0055   -0.0015   -0.0016   -0.0093    0.0069
          29   -0.0038   -0.0159    0.0396    0.0260    0.0222   -0.1213   -0.1595    0.0504
          30   -0.1949   -0.2531   -0.0704   -0.0582    0.0718    0.1970   -0.1744    0.1740
          31   -0.0026   -0.0075   -0.0041    0.0239    0.0036   -0.0850   -0.1111    0.0274
          32   -0.0066    0.0044    0.0093   -0.0083    0.0103    0.0259    0.0229    0.0045
          33    0.1298   -0.0720    0.0180   -0.0276    0.0387    0.0161    0.0318   -0.0250
          34   -0.0039    0.0035   -0.0210    0.0076   -0.0001   -0.0089   -0.0196    0.0110
          35   -0.0064    0.0091    0.0017   -0.0163    0.0093    0.0655    0.0729   -0.0031
          36    0.0436    0.1663    0.0373    0.0461    0.0133    0.0993   -0.0930   -0.0832
          37   -0.0028   -0.0077   -0.0043    0.0236    0.0034   -0.0840   -0.1097    0.0251
          38   -0.0073    0.0101    0.0023   -0.0139    0.0096    0.0578    0.0609   -0.0011
          39    0.1618   -0.0507    0.0076   -0.0411    0.0735    0.0386    0.0399    0.2215
          40   -0.0046   -0.0087   -0.0036    0.0280    0.0030   -0.1024   -0.1354    0.0237
          41   -0.0074    0.0130    0.0025   -0.0158    0.0097    0.0706    0.0743   -0.0068
          42    0.2171   -0.1241   -0.0088   -0.0831    0.1159   -0.0132    0.1310    0.4214
          43   -0.0030   -0.0026   -0.0126    0.0149    0.0014   -0.0444   -0.0605    0.0167
          44   -0.0072    0.0126   -0.0026   -0.0199    0.0083    0.0842    0.0948   -0.0074
          45    0.1222    0.0817    0.0218    0.0020    0.0602    0.1296   -0.0732    0.2012
          46   -0.0031   -0.0028   -0.0125    0.0152    0.0013   -0.0461   -0.0623    0.0163
          47   -0.0085    0.0171   -0.0102   -0.0277    0.0065    0.1209    0.1418   -0.0171
          48    0.1569    0.1227    0.0235    0.0030    0.0856    0.2201   -0.1484    0.4152
          49    0.0038   -0.0182    0.0022    0.0228   -0.0015   -0.0916   -0.1028    0.0099
          50   -0.0004   -0.0042    0.0136   -0.0114    0.0064    0.0276    0.0369   -0.0087
          51    0.2000   -0.1113    0.0462   -0.0255    0.0215   -0.0881    0.0973   -0.1291
          52   -0.0046    0.0107   -0.0311   -0.0018   -0.0024    0.0386    0.0365    0.0016
          53   -0.0067    0.0125   -0.0047   -0.0226    0.0082    0.0948    0.1092   -0.0075
          54    0.0026    0.3732    0.0723    0.1200   -0.0242    0.2138   -0.2833   -0.3838
          55   -0.0180   -0.0205   -0.0137    0.0031   -0.0284   -0.0049   -0.0079   -0.0087
          56   -0.0233    0.0130    0.0123   -0.0044    0.0053    0.0132    0.0037    0.0081
          57    0.0419   -0.0141    0.0177   -0.0171   -0.0168   -0.0551    0.0405   -0.0590
          58    0.0597    0.0448   -0.0423    0.0415   -0.0680    0.0412    0.0133    0.0188
          59    0.0782   -0.0625    0.0726   -0.0241    0.0764   -0.0918   -0.0231   -0.0375
          60   -0.0749   -0.0404    0.0156   -0.0427   -0.0130   -0.0480    0.0367   -0.0647
          61    0.0502    0.0342   -0.2510    0.1256   -0.2637    0.1028    0.0042    0.0660
          62    0.0253   -0.0503    0.2724   -0.1163    0.2660   -0.1353   -0.0132   -0.0789
          63   -0.2142   -0.0337    0.0641   -0.0894    0.0384   -0.0244    0.0415   -0.0654
          64   -0.1124   -0.1058    0.0188   -0.0484    0.0135   -0.0219    0.0143   -0.0368
          65   -0.1575    0.1072   -0.0159    0.0235   -0.0142   -0.0114   -0.1209    0.0658
          66   -0.0025   -0.0429    0.0282   -0.0346    0.0004   -0.0650    0.0409   -0.0666
          67   -0.0900   -0.0366   -0.3381   -0.1443    0.3654   -0.0809    0.0811   -0.1235
          68   -0.1848    0.1446   -0.0823    0.0198    0.0367   -0.0286   -0.1487    0.0678
          69   -0.0821    0.0621   -0.1441   -0.0421    0.1281   -0.1109   -0.0378   -0.0581
          70   -0.1308   -0.1429    0.1545   -0.0204   -0.1076   -0.0049   -0.0059   -0.0113
          71   -0.2074    0.0165    0.3515    0.1056   -0.3532    0.0386   -0.1846    0.1369
          72   -0.0372   -0.1431    0.1305   -0.0644   -0.0194   -0.0696    0.0754   -0.0730
          73   -0.1823   -0.2039    0.2649   -0.0190   -0.1750   -0.0023   -0.0118    0.0002
          74   -0.1833    0.2289   -0.3445   -0.0344    0.2691   -0.0722   -0.1410    0.0290
          75    0.0869   -0.0649    0.1045   -0.0086   -0.0861   -0.0290    0.0825   -0.0675
          76   -0.0057   -0.0055   -0.0334   -0.0034   -0.0554    0.0660    0.0708   -0.0200
          77   -0.0078    0.0149   -0.0178   -0.0279   -0.0328    0.1378    0.1591   -0.0294
          78    0.0747    0.1191   -0.0155    0.0549   -0.0735   -0.0287   -0.0092    0.0146
          79    0.0343    0.1186   -0.0553   -0.1726   -0.1578    0.0319   -0.0253    0.0346
          80    0.0272    0.0739   -0.0535   -0.4596   -0.1903    0.1534    0.1781   -0.0654
          81    0.1068    0.2000   -0.0372   -0.1666   -0.1748   -0.0417   -0.0508    0.0310
          82    0.0036   -0.0084   -0.0627    0.0259   -0.0780    0.1867    0.2185   -0.0530
          83   -0.0085    0.0162   -0.0145   -0.0365   -0.0321    0.1237    0.1422   -0.0261
          84    0.0326    0.0291    0.0163    0.5966    0.1116    0.0190    0.0590    0.0312
          85   -0.0459   -0.1108    0.0018    0.1240    0.0426    0.0373    0.0827   -0.0525
          86   -0.0280   -0.0446   -0.0156    0.3772    0.0865    0.2490    0.2968   -0.0361
          87    0.1144    0.2246   -0.0449   -0.1773   -0.1921   -0.0408   -0.0591    0.0429
          88    0.1409    0.1169    0.1662   -0.0150    0.1184    0.0161    0.0416    0.0024
          89    0.2166   -0.1362   -0.0901    0.0556   -0.0717   -0.1551   -0.0566   -0.0642
          90   -0.0260   -0.0685   -0.0488   -0.0123   -0.0713   -0.0700    0.0241   -0.0739
          91    0.2021    0.1701    0.1463    0.0181    0.0866    0.0625    0.0609    0.0437
          92    0.2882   -0.1898   -0.0374    0.0365   -0.0144   -0.2642   -0.0815   -0.1389
          93   -0.1191   -0.0908   -0.0573   -0.0330   -0.0713   -0.0596    0.0187   -0.0763
          94    0.1527    0.1313    0.3687   -0.0956    0.3132   -0.0510    0.0486   -0.0512
          95    0.2649   -0.1495   -0.2839    0.1450   -0.2603   -0.1146   -0.0663   -0.0251
          96    0.1088   -0.0711   -0.0974    0.0345   -0.1229   -0.1050    0.0171   -0.0865


   Root No.       9        10        11        12        13        14        15        16

                 9 A      10 A      11 A      12 A      13 A      14 A      15 A      16 A   

                   0.1       0.1       0.1       0.2       0.2       0.2       0.2       0.2
  
           1   -0.0069   -0.0043    0.0012    0.0113    0.0043   -0.0013   -0.0127   -0.0246
           2   -0.1448   -0.0102    0.0681   -0.0145   -0.0318   -0.0369    0.0181    0.0712
           3    0.0256   -0.0679    0.0315    0.0097   -0.0032    0.0806   -0.0812    0.0285
           4   -0.0088   -0.0046    0.0020    0.0122    0.0035   -0.0052   -0.0127   -0.0190
           5   -0.0791    0.0030    0.0621   -0.0514   -0.0239    0.0195    0.0339    0.0209
           6   -0.0566    0.1646   -0.0675   -0.0059    0.0023   -0.0552    0.0662   -0.0416
           7   -0.0655   -0.0153    0.0071    0.0409   -0.0043   -0.0513   -0.0217    0.0290
           8   -0.0452    0.0092    0.0583   -0.0674   -0.0194    0.0456    0.0389   -0.0051
           9   -0.0663    0.1600   -0.0515   -0.0053    0.0559    0.0138    0.0378   -0.0627
          10   -0.1006   -0.0236   -0.0040    0.0758    0.0050   -0.0707   -0.0462    0.0101
          11   -0.0591    0.0048    0.0474   -0.0461   -0.0105    0.0393    0.0225   -0.0257
          12   -0.0839    0.1894   -0.0553    0.0066    0.0250    0.1132   -0.0653   -0.0279
          13   -0.1009   -0.0239   -0.0042    0.0782    0.0055   -0.0747   -0.0489    0.0114
          14   -0.1381   -0.0092    0.0622   -0.0132   -0.0263   -0.0261    0.0145    0.0495
          15   -0.0487    0.1711   -0.0743   -0.0050   -0.0186    0.0514   -0.0786    0.0419
          16   -0.0497   -0.0135   -0.0053    0.0466    0.0086   -0.0324   -0.0347   -0.0208
          17   -0.1712   -0.0158    0.0654    0.0056   -0.0305   -0.0560    0.0067    0.0766
          18    0.0418   -0.0785    0.0272   -0.0049    0.0331   -0.0461    0.0736   -0.0548
          19    0.0386    0.0063   -0.0023   -0.0175    0.0096    0.0432    0.0008   -0.0677
          20   -0.1728   -0.0166    0.0714    0.0023   -0.0356   -0.0641    0.0103    0.0984
          21    0.0822   -0.2450    0.1098    0.0373   -0.0693    0.3343   -0.4108    0.2278
          22    0.0326    0.0034    0.0033   -0.0173    0.0046    0.0341    0.0012   -0.0484
          23   -0.0564    0.0078    0.0642   -0.0703   -0.0245    0.0429    0.0438    0.0060
          24   -0.1098    0.3566   -0.1689   -0.0172   -0.0726   -0.2803    0.2567   -0.0908
          25   -0.1582   -0.0368    0.0046    0.1165   -0.0037   -0.1410   -0.0663    0.0715
          26   -0.1725   -0.0166    0.0685    0.0075   -0.0328   -0.0651    0.0053    0.0868
          27   -0.0813    0.3434   -0.1724   -0.0121   -0.1049    0.0711   -0.2429    0.2352
          28   -0.0495   -0.0133   -0.0052    0.0470    0.0087   -0.0325   -0.0358   -0.0219
          29   -0.2295   -0.0274    0.0702    0.0442   -0.0366   -0.1177   -0.0137    0.1245
          30    0.1301   -0.2857    0.0997   -0.0199    0.1027   -0.3201    0.4190   -0.2371
          31   -0.1112   -0.0246   -0.0176    0.0712    0.0142   -0.0306   -0.0351   -0.0298
          32   -0.0447    0.0075    0.0468   -0.0372   -0.0080    0.0208    0.0065   -0.0252
          33   -0.0823    0.1080    0.0032    0.0206    0.0960    0.1229   -0.0384   -0.0499
          34   -0.0675   -0.0160    0.0069    0.0417   -0.0038   -0.0524   -0.0217    0.0307
          35   -0.0267    0.0147    0.0792   -0.0956   -0.0390    0.0302    0.0640    0.0675
          36   -0.0105    0.0191   -0.0048   -0.0007    0.0294    0.0123    0.0242   -0.0412
          37   -0.1108   -0.0246   -0.0185    0.0725    0.0143   -0.0276   -0.0376   -0.0387
          38   -0.0370    0.0114    0.0758   -0.0758   -0.0370    0.0087    0.0474    0.0676
          39   -0.0360    0.1067   -0.0390    0.0022    0.1904    0.0288    0.0050    0.0343
          40   -0.1325   -0.0286   -0.0270    0.1096    0.0228   -0.0402   -0.0837   -0.1080
          41   -0.0254    0.0131    0.0804   -0.0968   -0.0552    0.0201    0.0748    0.1038
          42   -0.0266    0.1015   -0.0242   -0.0487    0.6036   -0.0716    0.0366    0.2100
          43   -0.0860   -0.0195   -0.0045    0.0494    0.0051   -0.0303   -0.0221   -0.0050
          44   -0.0182    0.0164    0.0869   -0.1010   -0.0454    0.0162    0.0671    0.0951
          45    0.0160    0.0368   -0.0560    0.0255   -0.1272    0.0199    0.0097   -0.0439
          46   -0.0885   -0.0199   -0.0052    0.0526    0.0074   -0.0323   -0.0246   -0.0070
          47    0.0010    0.0231    0.1106   -0.1375   -0.0606    0.0048    0.0964    0.1715
          48    0.0882   -0.0569   -0.0876    0.0722   -0.5628    0.0161   -0.0048   -0.1219
          49   -0.0538   -0.0220   -0.0450    0.0203    0.0314    0.0865    0.0105   -0.1039
          50   -0.0008    0.0071    0.0177   -0.0565    0.0137    0.0959    0.0224   -0.0925
          51   -0.1106   -0.0583    0.1242    0.0574    0.0413    0.1796   -0.0206   -0.2192
          52   -0.0393   -0.0102    0.0297    0.0083   -0.0262   -0.0699    0.0045    0.1144
          53   -0.0105    0.0203    0.0936   -0.1177   -0.0558    0.0186    0.0824    0.1219
          54    0.0777   -0.3551    0.2063   -0.0420    0.3008    0.0176   -0.0738    0.1348
          55    0.0170   -0.0152   -0.0671   -0.0583    0.0070    0.1673    0.1229   -0.0108
          56    0.0031    0.0138    0.0148   -0.0414    0.0182    0.0727   -0.0060   -0.1306
          57    0.0034   -0.0263    0.0809    0.0834   -0.0214    0.0466    0.0259   -0.0520
          58    0.0167    0.0260    0.0040   -0.0651    0.0216    0.1686    0.0957   -0.0426
          59    0.0250   -0.0383   -0.0578   -0.0594    0.0483    0.0927   -0.0653   -0.2392
          60   -0.0060   -0.0426    0.0476    0.0927   -0.0486    0.0362    0.0764    0.0240
          61   -0.0081    0.1175    0.1566   -0.0730    0.0202    0.2092    0.1449   -0.0060
          62    0.0232   -0.1336   -0.2219   -0.0606    0.0484    0.0931   -0.0784   -0.2791
          63   -0.0856   -0.0878   -0.0323    0.0695   -0.0471    0.1135    0.1329   -0.0001
          64    0.1141    0.0287    0.0153   -0.1559   -0.0226   -0.0090   -0.0126    0.0027
          65    0.1475    0.1030   -0.0570    0.0683    0.0696    0.0458   -0.0040   -0.0406
          66    0.0439   -0.0082    0.1032    0.0419   -0.0272   -0.0195   -0.0315   -0.0546
          67    0.1111   -0.0041    0.0794   -0.2846   -0.0786   -0.1100   -0.1031   -0.0400
          68    0.1955    0.1328   -0.0734    0.1063    0.0946    0.0508   -0.0098   -0.0233
          69    0.1686    0.0677    0.0640    0.1402    0.0277   -0.0216   -0.0459    0.0044
          70    0.1408    0.0509    0.0073   -0.1538   -0.0068   -0.0222   -0.0294    0.0100
          71    0.2102    0.1621   -0.0958    0.1380    0.1197    0.0670   -0.0004   -0.0138
          72    0.0946    0.0125    0.1895   -0.1149   -0.0481   -0.2617   -0.2437   -0.0947
          73    0.2062    0.0888    0.0429   -0.2361   -0.0083   -0.1659   -0.1493    0.0259
          74    0.2078    0.1286   -0.0755    0.1094    0.0934    0.0501   -0.0136   -0.0196
          75   -0.0854   -0.0805    0.0983    0.0732   -0.0577    0.1125    0.0883   -0.1020
          76    0.0135   -0.0507   -0.1186   -0.0155    0.0076    0.0921    0.0821    0.0271
          77    0.0015   -0.0526   -0.0710    0.0969    0.0223   -0.0493   -0.0684   -0.0676
          78   -0.0088   -0.0612   -0.0704   -0.1251   -0.0156   -0.0409   -0.0377   -0.0141
          79    0.0036   -0.0654   -0.2180   -0.2705    0.0026    0.0526    0.0491    0.0556
          80   -0.0097   -0.0719   -0.0750    0.3010    0.0341   -0.1334   -0.1338   -0.0686
          81   -0.0174   -0.0763   -0.1219   -0.2075   -0.0166   -0.0919   -0.0790   -0.0008
          82    0.0043   -0.1289   -0.2369    0.1787    0.0268   -0.0888   -0.0286    0.0995
          83    0.0022   -0.0455   -0.0606    0.0836    0.0225   -0.0356   -0.0645   -0.0829
          84   -0.0007   -0.0854   -0.1244   -0.2371   -0.0160   -0.0689   -0.0624   -0.0151
          85    0.0310   -0.0062    0.0026    0.1058    0.0042    0.2417    0.1963   -0.0090
          86   -0.0047   -0.1206   -0.1903    0.1623    0.0390   -0.2186   -0.1936   -0.0382
          87   -0.0202   -0.0829   -0.1418   -0.2536   -0.0168   -0.1155   -0.0968    0.0023
          88    0.1240    0.0635    0.0957    0.0259   -0.0070    0.0553    0.0475   -0.0073
          89    0.1562   -0.0382   -0.0772   -0.0177    0.0061    0.0273   -0.0226   -0.0851
          90    0.0368   -0.0439    0.0395    0.1076   -0.0643    0.0183    0.0981    0.0822
          91    0.1842    0.2113    0.3888    0.1085   -0.0160   -0.0793   -0.0890   -0.1187
          92    0.2973   -0.1526   -0.3118    0.0302   -0.0677   -0.0333    0.1327    0.2781
          93   -0.0811   -0.1218   -0.1095    0.0169   -0.0261    0.1702    0.1576    0.0191
          94    0.2001   -0.0255   -0.0680    0.0745   -0.0576    0.0170    0.1603    0.2413
          95    0.1760    0.0703    0.1239    0.0045    0.0106   -0.0262   -0.1136   -0.2025
          96    0.2089    0.0268    0.1770    0.2433   -0.1441   -0.1656    0.1052    0.2800


   Root No.      17        18        19        20        21        22        23        24

                17 A      18 A      19 A      20 A      21 A      22 A      23 A      24 A   

                   0.3       0.4       0.4       0.5       0.7       0.7       0.8       0.8
  
           1    0.0097    0.0078   -0.0680    0.0561   -0.0094   -0.0881    0.0018   -0.0137
           2   -0.0179   -0.0086   -0.0113    0.0873   -0.0422   -0.0207    0.0035   -0.0058
           3   -0.0932    0.0348   -0.0161   -0.0230   -0.0495   -0.0024   -0.0303   -0.0537
           4    0.0070    0.0055   -0.0545    0.0421   -0.0077   -0.0811    0.0010   -0.0118
           5    0.0054    0.0127   -0.0984    0.1654   -0.0523    0.0205    0.0043   -0.0019
           6   -0.0742    0.0323   -0.0166   -0.0300   -0.0682   -0.0026   -0.0152   -0.0489
           7   -0.0152   -0.0145    0.0442   -0.0430    0.0001   -0.0419   -0.0073    0.0125
           8    0.0168    0.0216   -0.1354    0.1858   -0.0459    0.0093    0.0048   -0.0041
           9   -0.3506    0.1074   -0.0460   -0.0577   -0.0964   -0.0029    0.0124   -0.0272
          10   -0.0123   -0.0100    0.0335   -0.0882    0.0312   -0.0412   -0.0054    0.0057
          11    0.0213    0.0236   -0.1324    0.1295   -0.0122    0.0411    0.0055   -0.0054
          12   -0.3574    0.0761   -0.0264   -0.0148    0.0311    0.0020   -0.0307    0.0010
          13   -0.0138   -0.0110    0.0400   -0.1068    0.0392   -0.0681   -0.0062    0.0004
          14   -0.0094   -0.0014   -0.0421    0.0961   -0.0308   -0.0176    0.0094   -0.0193
          15   -0.0591    0.0342   -0.0153   -0.0152   -0.0097   -0.0002   -0.0392   -0.0317
          16    0.0034    0.0030   -0.0346   -0.0236    0.0251   -0.0745    0.0010   -0.0132
          17   -0.0229   -0.0134    0.0128    0.0417   -0.0219   -0.0193    0.0063   -0.0143
          18   -0.1026    0.0253   -0.0122   -0.0171   -0.0330   -0.0015   -0.0377   -0.0496
          19    0.0325    0.0299   -0.1853    0.1974   -0.0510   -0.2523   -0.0089   -0.0234
          20   -0.0318   -0.0214    0.0516    0.0178   -0.0242    0.0661    0.0113   -0.0040
          21    0.0756   -0.0004    0.0014    0.0113    0.0266    0.0007    0.0317    0.0439
          22    0.0237    0.0210   -0.1509    0.1667   -0.0363    0.0549    0.0609   -0.1302
          23    0.0153    0.0222   -0.1602    0.2539   -0.0760    0.1100    0.0405   -0.0710
          24    0.3782   -0.1221    0.0502    0.0529    0.0897    0.0042    0.0004    0.0367
          25   -0.0446   -0.0418    0.1636   -0.2515    0.0803   -0.3572   -0.0173   -0.0335
          26   -0.0276   -0.0193    0.0248    0.0270   -0.0134   -0.1784    0.0052   -0.0427
          27    0.4327   -0.0413    0.0121    0.0018   -0.0241   -0.0016    0.0340    0.0155
          28    0.0038    0.0037   -0.0394   -0.0227    0.0274   -0.0902    0.0005   -0.0144
          29   -0.0484   -0.0358    0.1140   -0.0867    0.0106   -0.0233    0.0167   -0.0592
          30    0.0115   -0.0585    0.0252    0.0315    0.0522    0.0019    0.0284    0.0461
          31    0.0096    0.0164   -0.0593    0.0617   -0.0239    0.0638   -0.0033    0.0368
          32    0.0152    0.0184   -0.0983    0.0190    0.0310    0.0141    0.0021   -0.0155
          33   -0.2311   -0.0321    0.0279    0.0636    0.1888    0.0063   -0.0155    0.0726
          34   -0.0158   -0.0151    0.0489   -0.0436   -0.0050   -0.0380   -0.0117    0.0237
          35   -0.0118   -0.0049    0.0040    0.0888   -0.0350    0.0179   -0.0100    0.0347
          36   -0.2305    0.0780   -0.0345   -0.0487   -0.0999   -0.0037    0.0666    0.0168
          37    0.0123    0.0201   -0.0773    0.0724   -0.0224    0.0839   -0.0006    0.0330
          38   -0.0169   -0.0067    0.0196    0.0249   -0.0066    0.0159   -0.0055    0.0183
          39   -0.0986    0.0328   -0.0088    0.0041    0.0384    0.0048    0.0353    0.0515
          40    0.0231    0.0348   -0.2456    0.1160    0.0074    0.3698    0.0207   -0.0359
          41   -0.0331   -0.0153    0.1184    0.0074   -0.0230   -0.1444   -0.0178    0.0689
          42    0.2216    0.0382   -0.0226   -0.0197   -0.0557    0.0030   -0.0162   -0.0453
          43    0.0011    0.0047   -0.0291    0.0654   -0.0393   -0.0030   -0.0123    0.0499
          44   -0.0245   -0.0181    0.0662    0.0163   -0.0152   -0.0043   -0.0120    0.0276
          45   -0.1125    0.0310   -0.0125   -0.0198   -0.0344   -0.0017    0.0494    0.0323
          46    0.0009    0.0061   -0.0349    0.0715   -0.0435    0.0134   -0.0103    0.0538
          47   -0.0563   -0.0556    0.2223   -0.1000   -0.0155   -0.2239   -0.0949    0.1326
          48    0.1331   -0.0967    0.0384    0.0351    0.0529   -0.0017   -0.0523   -0.0264
          49    0.0521    0.0224   -0.0146    0.0188    0.0354    0.0542   -0.0347    0.0901
          50    0.0441    0.0165   -0.0665   -0.0407    0.0936   -0.0048   -0.0150    0.0118
          51   -0.0064   -0.3168    0.1555    0.2105    0.4766   -0.0014   -0.0978    0.1054
          52   -0.0502   -0.0621    0.2760   -0.2894    0.0806    0.5678    0.0644   -0.0879
          53   -0.0367   -0.0352    0.1469   -0.0618    0.0154    0.3848    0.0358   -0.0332
          54    0.2395   -0.0457    0.0184    0.0296    0.0506    0.0035   -0.0224   -0.0009
          55    0.0371    0.0631    0.0674   -0.0106   -0.0126   -0.0016   -0.0028   -0.0014
          56    0.0754    0.0663   -0.1267   -0.1794    0.0588   -0.0040   -0.0061    0.0178
          57    0.0304   -0.0844    0.0175   -0.0225   -0.0785   -0.0025    0.0101   -0.0082
          58    0.0245   -0.1174    0.0097   -0.0634   -0.0506   -0.0025   -0.0411   -0.0028
          59    0.0747   -0.0064    0.0622   -0.0815    0.0011   -0.0020    0.0080    0.0582
          60    0.0436    0.1120   -0.0096   -0.0153    0.0187    0.0001    0.0060    0.0135
          61    0.0175   -0.2563   -0.2183   -0.2043    0.1428   -0.0017   -0.0605    0.1434
          62    0.1054    0.2080    0.2580   -0.0007   -0.0697    0.0033   -0.0670   -0.0085
          63    0.0924    0.3230   -0.0022   -0.0622    0.2521    0.0177   -0.1966    0.1297
          64   -0.0081    0.0370    0.0248   -0.0051   -0.0019   -0.0187    0.1182    0.0086
          65    0.0131    0.0267   -0.0552   -0.1110   -0.0404    0.0125   -0.0171    0.0988
          66    0.0124   -0.1110    0.0077   -0.0220   -0.0899   -0.0102    0.0990    0.0015
          67   -0.0087    0.0585   -0.0871   -0.1292   -0.0286   -0.0165    0.1328    0.1657
          68   -0.0259   -0.0504    0.0273   -0.0044   -0.0056   -0.0021    0.0604    0.0052
          69   -0.0890   -0.3218    0.2294    0.2868   -0.0377   -0.0544    0.3504   -0.3199
          70   -0.0267    0.0051    0.0481    0.0225    0.0169   -0.0236    0.1478    0.0338
          71   -0.0299   -0.0484    0.0423   -0.0191    0.0107   -0.0036    0.0825    0.1654
          72   -0.0171   -0.2109   -0.1794   -0.1302   -0.1605    0.0640   -0.2895    0.1173
          73   -0.0861   -0.0732    0.0207    0.1106    0.1456   -0.0079   -0.1137   -0.1572
          74   -0.0355   -0.0392    0.0272   -0.0041    0.0609    0.0267   -0.1963    0.1132
          75    0.1198    0.0224   -0.0593   -0.2246   -0.3251   -0.0351    0.5022    0.1536
          76    0.0074    0.0449    0.1011    0.0357   -0.0301   -0.0071   -0.0229   -0.0737
          77    0.0199    0.0149   -0.0852   -0.1109    0.0811   -0.0210    0.0256   -0.1312
          78    0.0042   -0.0258   -0.0020   -0.0225   -0.1078    0.0044   -0.1060   -0.0484
          79   -0.0065    0.1951    0.1152    0.0716    0.2477   -0.0483    0.2336   -0.1657
          80    0.0009   -0.1016   -0.0655   -0.0943   -0.1021   -0.0008   -0.1818   -0.2069
          81   -0.0111    0.0148    0.0078    0.0009   -0.0266   -0.0098   -0.0530   -0.1172
          82   -0.0765   -0.0363    0.2661    0.3173   -0.2864    0.0810   -0.1375    0.4576
          83    0.0303    0.0238   -0.1119   -0.1580    0.1233   -0.0339    0.0454   -0.2172
          84   -0.0092    0.0260   -0.0124   -0.0296   -0.0842   -0.0026   -0.1853   -0.1768
          85    0.0573   -0.0136    0.1151   -0.0430   -0.2358   -0.0197   -0.2748   -0.4123
          86   -0.0357    0.0168   -0.0719   -0.0320    0.2432   -0.0160    0.2766    0.0630
          87   -0.0240    0.0277   -0.0088    0.0231   -0.0001    0.0149    0.0015    0.1433
          88    0.0196   -0.0482    0.0038   -0.0469   -0.0586   -0.0043   -0.0058    0.0046
          89    0.0288   -0.0232    0.0460   -0.0448   -0.0471   -0.0039    0.0123    0.0231
          90    0.0286    0.1123   -0.0181   -0.0023    0.0123   -0.0001    0.0005    0.0028
          91    0.0721    0.2487    0.1265    0.0220    0.0004   -0.0009   -0.0093    0.0179
          92   -0.0807   -0.1520   -0.1835   -0.0482    0.0327    0.0027   -0.0108    0.0159
          93    0.0373   -0.0744   -0.0259   -0.0708   -0.0745   -0.0065    0.0096   -0.0002
          94   -0.0500   -0.1284   -0.2057   -0.0764    0.0631   -0.0003    0.0036    0.0395
          95    0.0784    0.1854    0.2008    0.0166   -0.0833   -0.0010   -0.0219   -0.0141
          96    0.0056    0.4135   -0.0627    0.0964    0.1656    0.0134   -0.0498   -0.0290


   Root No.      25        26        27        28        29        30        31        32

                25 A      26 A      27 A      28 A      29 A      30 A      31 A      32 A   

                   0.8       0.8       0.8       0.9       0.9       0.9       0.9       0.9
  
           1   -0.0074   -0.0550   -0.0664    0.0066    0.0002    0.0280   -0.0514    0.0030
           2   -0.0074   -0.0324   -0.0555    0.0153    0.0107   -0.0634    0.0989   -0.0233
           3   -0.2926    0.0431   -0.0011   -0.0034    0.0303    0.0170    0.0110    0.0113
           4   -0.0056   -0.0416   -0.0411    0.0053    0.0008    0.0331   -0.0608    0.0063
           5   -0.0003    0.0167    0.0419    0.0103    0.0090   -0.0676    0.1030   -0.0140
           6   -0.2098    0.0330   -0.0041    0.0026    0.0812    0.0425    0.0271    0.0177
           7    0.0013    0.0382   -0.0044   -0.0061    0.0057    0.0136   -0.0007   -0.0235
           8   -0.0024   -0.0032   -0.0107    0.0045    0.0033   -0.0188    0.0332   -0.0120
           9   -0.0191    0.0043   -0.0054    0.0107    0.1144    0.0548    0.0335    0.0197
          10    0.0072    0.0423    0.0025   -0.0184   -0.0071    0.0591   -0.0504   -0.0295
          11    0.0012    0.0137   -0.0081   -0.0085   -0.0049    0.0145    0.0073   -0.0262
          12   -0.1195    0.0054    0.0090   -0.0078   -0.1205   -0.0597   -0.0369   -0.0255
          13    0.0080    0.0350    0.0396   -0.0166   -0.0089    0.0722   -0.0838   -0.0127
          14   -0.0104   -0.0735   -0.0738    0.0150    0.0038   -0.0235    0.0222    0.0007
          15   -0.2580    0.0311    0.0058   -0.0114   -0.0689   -0.0349   -0.0207   -0.0099
          16   -0.0006   -0.0243   -0.0454   -0.0128   -0.0104    0.1128   -0.1611    0.0014
          17   -0.0076   -0.0533   -0.0438    0.0132    0.0047   -0.0317    0.0357    0.0002
          18   -0.3117    0.0435    0.0012   -0.0078   -0.0143   -0.0067   -0.0033    0.0032
          19    0.0068    0.0024    0.4295    0.0533    0.0124   -0.2445    0.4361   -0.0966
          20   -0.0178   -0.0803   -0.3602   -0.0083    0.0056    0.0900   -0.1821    0.0356
          21    0.2652   -0.0361    0.0011    0.0048   -0.0067   -0.0047   -0.0024   -0.0065
          22   -0.0367   -0.3894    0.0005    0.0818    0.0052   -0.0016   -0.3970    0.3888
          23   -0.0176   -0.1841    0.0709    0.0566    0.0130   -0.1036   -0.0715    0.2089
          24    0.1074   -0.0194    0.0034   -0.0053   -0.0900   -0.0427   -0.0281   -0.0173
          25   -0.0167   -0.2311   -0.1162    0.0648   -0.0136   -0.2478    0.2365    0.1241
          26   -0.0264   -0.2404   -0.1723    0.0656    0.0027   -0.2197    0.2193    0.0815
          27    0.1888   -0.0202   -0.0064    0.0074    0.0839    0.0406    0.0251    0.0154
          28   -0.0019   -0.0338   -0.0773   -0.0145   -0.0123    0.1264   -0.1782   -0.0015
          29    0.0195    0.0496    0.7551    0.0173    0.0053    0.1346   -0.2870    0.1053
          30    0.2576   -0.0366   -0.0003    0.0056   -0.0104   -0.0034   -0.0034   -0.0066
          31    0.0063    0.0906   -0.0291   -0.0360    0.0030    0.0835    0.0070   -0.1157
          32    0.0100    0.0363   -0.0003   -0.0094   -0.0153   -0.0011   -0.0062    0.0100
          33    0.1505   -0.0366    0.0116   -0.0108   -0.2071   -0.0943   -0.0596   -0.0429
          34    0.0058    0.0778   -0.0076   -0.0093    0.0077    0.0085   -0.0073   -0.0105
          35    0.0029    0.0690   -0.0360   -0.0258   -0.0008    0.0790    0.0278   -0.1382
          36    0.3403   -0.0392   -0.0118    0.0216    0.1942    0.0899    0.0547    0.0338
          37    0.0045    0.0873   -0.0332   -0.0396    0.0027    0.0934    0.0173   -0.1409
          38    0.0098    0.0723   -0.0226   -0.0278   -0.0119    0.0783    0.0056   -0.1112
          39    0.2717   -0.0349    0.0004   -0.0076   -0.0679   -0.0396   -0.0231   -0.0161
          40    0.0794    0.4269   -0.0821   -0.0216   -0.0601   -0.2222    0.0785    0.1904
          41   -0.0157   -0.1046   -0.0024   -0.0488    0.0192    0.2891   -0.0285   -0.3468
          42   -0.2254    0.0349   -0.0017   -0.0145    0.0454    0.0244    0.0178    0.0100
          43    0.0013    0.0930   -0.0347   -0.0306    0.0164    0.0840    0.0135   -0.1320
          44    0.0033    0.0604   -0.0246   -0.0195   -0.0033    0.0595    0.0133   -0.0961
          45    0.2993   -0.0336   -0.0062    0.0080    0.0644    0.0230    0.0142    0.0122
          46    0.0019    0.0948   -0.0385   -0.0367    0.0204    0.1089    0.0240   -0.1767
          47    0.0716    0.5559   -0.0930   -0.0127   -0.0244   -0.2014   -0.1389    0.3930
          48   -0.2832    0.0374    0.0046   -0.0062   -0.0566   -0.0225   -0.0138   -0.0059
          49   -0.0227    0.0308   -0.0170   -0.0356    0.0132    0.0664    0.0249   -0.0748
          50   -0.0069   -0.0140    0.0064   -0.0101   -0.0144   -0.0117    0.0045    0.0323
          51   -0.0504   -0.0417    0.0161   -0.0082   -0.1910   -0.0375   -0.0384   -0.0449
          52   -0.0246   -0.1740    0.0864    0.0313    0.0094   -0.1409    0.1749    0.0297
          53   -0.0127   -0.0775    0.0207    0.0007    0.0002   -0.0195    0.1466   -0.1104
          54   -0.1036    0.0101    0.0053   -0.0092   -0.0807   -0.0376   -0.0222   -0.0147
          55   -0.0006    0.0001    0.0009   -0.0016    0.0118    0.0046    0.0075    0.0136
          56   -0.0037   -0.0051    0.0023   -0.0078    0.0203    0.0044    0.0052    0.0112
          57    0.0010    0.0015   -0.0006    0.0090   -0.0014    0.0192    0.0115    0.0109
          58   -0.0001   -0.0051    0.0026    0.0073    0.0591    0.0507    0.0435    0.0681
          59   -0.0182   -0.0088    0.0048   -0.0194    0.0806    0.0453    0.0311    0.0389
          60   -0.0051   -0.0001   -0.0001    0.0067   -0.0327    0.0642    0.0427    0.0389
          61   -0.0411   -0.0349    0.0147   -0.0799    0.3179   -0.0296   -0.0184    0.0141
          62    0.0034   -0.0061    0.0046   -0.0077    0.1203    0.0058    0.0195    0.0577
          63   -0.0288   -0.0455    0.0198   -0.1311    0.4907   -0.2076   -0.1256   -0.0614
          64   -0.0084   -0.0074    0.0034   -0.1021   -0.0399   -0.0141    0.0026    0.0107
          65   -0.0053   -0.0176    0.0071    0.0416   -0.0692   -0.0179   -0.0151   -0.0129
          66   -0.0119    0.0123   -0.0030    0.0353    0.0184   -0.0172   -0.0156   -0.0197
          67   -0.0158   -0.0684    0.0248   -0.2008   -0.2570   -0.0977   -0.0584   -0.0467
          68   -0.0084    0.0116   -0.0013    0.0056    0.0136   -0.0284   -0.0186   -0.0188
          69   -0.0200    0.1167   -0.0349   -0.0812    0.3338   -0.0298   -0.0120   -0.0296
          70   -0.0134   -0.0201    0.0083   -0.1313   -0.1018   -0.0481   -0.0186   -0.0061
          71   -0.0174   -0.0495    0.0197   -0.0209   -0.2348   -0.1088   -0.0730   -0.0589
          72    0.0123    0.0256   -0.0126    0.5723    0.1104   -0.0153   -0.0665   -0.1085
          73    0.0254    0.0053   -0.0058   -0.1900    0.0979    0.1162    0.0942    0.0958
          74    0.0120   -0.0352    0.0101    0.1688   -0.1119    0.0237    0.0041    0.0102
          75   -0.0629    0.0153    0.0039   -0.0025   -0.0885   -0.1918   -0.1290   -0.1303
          76    0.0161    0.0166   -0.0051    0.0792   -0.0191   -0.0177   -0.0211   -0.0268
          77    0.0167    0.0283   -0.0080    0.0150   -0.0135    0.0069   -0.0068   -0.0156
          78    0.0294   -0.0205    0.0014   -0.0815   -0.0240   -0.0171   -0.0040   -0.0041
          79   -0.0085    0.1149   -0.0343    0.4963   -0.0245   -0.0209   -0.0682   -0.1262
          80    0.0712   -0.0233   -0.0061   -0.3102   -0.0814   -0.0292   -0.0100   -0.0481
          81    0.0353    0.0062   -0.0105   -0.0046   -0.0554   -0.0330   -0.0280   -0.0600
          82   -0.0584   -0.0924    0.0402    0.0410    0.0478   -0.0730   -0.0278    0.0474
          83    0.0279    0.0480   -0.0158    0.0212   -0.0237    0.0182   -0.0067   -0.0326
          84    0.0664   -0.0281    0.0036   -0.2303   -0.1063   -0.0767   -0.0458   -0.0528
          85    0.1206    0.0341   -0.0213    0.1228   -0.1483   -0.1263   -0.1195   -0.1711
          86   -0.0592    0.0569   -0.0164    0.1093    0.0823    0.1198    0.0673    0.0308
          87   -0.0273   -0.0407    0.0184   -0.1525    0.0339    0.0259    0.0401    0.0842
          88   -0.0054   -0.0021    0.0017    0.0147    0.0131    0.1293    0.0974    0.1218
          89   -0.0081   -0.0032    0.0024    0.0025    0.0337    0.0947    0.0690    0.0838
          90   -0.0017    0.0010   -0.0007    0.0138   -0.0530    0.0949    0.0653    0.0644
          91   -0.0059   -0.0059    0.0027   -0.0168    0.0766   -0.0275   -0.0187   -0.0105
          92   -0.0046   -0.0068    0.0032   -0.0377    0.1368   -0.1981   -0.1365   -0.1316
          93   -0.0052    0.0047   -0.0014    0.0658   -0.1634    0.4291    0.3065    0.3305
          94   -0.0107   -0.0046    0.0017   -0.0042   -0.0182    0.1211    0.0836    0.0868
          95    0.0003    0.0001    0.0015    0.0120    0.0444    0.0805    0.0673    0.0967
          96    0.0109    0.0072   -0.0050    0.0123   -0.1624    0.0465    0.0289    0.0044


   Root No.      33        34        35        36        37        38        39        40

                33 A      34 A      35 A      36 A      37 A      38 A      39 A      40 A   

                   1.0       1.1       1.1       1.4       1.5       1.6       1.6       1.6
  
           1   -0.0239   -0.0183   -0.2248    0.0020    0.0242    0.0029    0.0028    0.0009
           2   -0.1885   -0.0517   -0.1576    0.0024    0.0139   -0.0015    0.0014    0.0110
           3   -0.0121    0.1141   -0.0047    0.3855   -0.0231   -0.0225   -0.0002   -0.0113
           4   -0.0303   -0.0192   -0.1955    0.0016    0.0235    0.0030    0.0028    0.0006
           5   -0.1383   -0.0261    0.1183   -0.0038   -0.0572   -0.0282    0.0084    0.0475
           6   -0.0341    0.2394   -0.0153    0.0757    0.0050   -0.0203    0.0098   -0.0288
           7   -0.1577   -0.0410    0.0022   -0.0035   -0.0367   -0.0232    0.0102    0.0414
           8   -0.0327   -0.0051    0.0343   -0.0019   -0.0211   -0.0123    0.0060    0.0201
           9   -0.0445    0.2384   -0.0136   -0.3094    0.0275    0.0043    0.0077   -0.0124
          10    0.0671    0.0092    0.0222   -0.0029   -0.0412   -0.0189    0.0051    0.0312
          11    0.0704    0.0189   -0.0316   -0.0018   -0.0432   -0.0099   -0.0005    0.0100
          12    0.0427   -0.2935    0.0155   -0.3769    0.0316    0.0268   -0.0008   -0.0023
          13    0.1035    0.0157    0.0076   -0.0044   -0.0511   -0.0226    0.0066    0.0374
          14   -0.0413   -0.0164   -0.2451    0.0057    0.0428    0.0244   -0.0125   -0.0416
          15    0.0317   -0.1978    0.0140   -0.0079   -0.0070    0.0210   -0.0082    0.0267
          16    0.1441    0.0193   -0.2335    0.0006   -0.0024    0.0031   -0.0035   -0.0084
          17   -0.0721   -0.0213   -0.1385    0.0028    0.0190    0.0078   -0.0042   -0.0110
          18    0.0094   -0.0318    0.0075    0.3639   -0.0309   -0.0027   -0.0094    0.0193
          19   -0.0806   -0.0243   -0.2398    0.0077    0.0398    0.0152   -0.0072   -0.0185
          20   -0.1974   -0.0622   -0.2231    0.0001    0.0140   -0.0094    0.0089    0.0290
          21    0.0034   -0.0529    0.0012   -0.2401    0.0141    0.0123    0.0003    0.0053
          22    0.0276    0.0268    0.1658    0.0049    0.0701    0.0306   -0.0099   -0.0489
          23   -0.1306   -0.0036    0.3895   -0.0042   -0.0545   -0.0239    0.0038    0.0390
          24    0.0322   -0.1987    0.0114   -0.0176   -0.0038    0.0102   -0.0054    0.0140
          25    0.2897    0.0793    0.3720   -0.0075   -0.0396   -0.0212    0.0145    0.0338
          26    0.0428    0.0140   -0.1030    0.0068    0.0751    0.0401   -0.0159   -0.0704
          27   -0.0295    0.1851   -0.0104    0.0291   -0.0018   -0.0145    0.0055   -0.0101
          28    0.1711    0.0223   -0.3000    0.0009   -0.0044    0.0038   -0.0046   -0.0103
          29    0.0410    0.0135   -0.0336    0.0024    0.0369    0.0098    0.0017   -0.0140
          30   -0.0014   -0.0093   -0.0042   -0.2270    0.0185    0.0027    0.0047   -0.0106
          31    0.0198    0.0048    0.1207    0.0014    0.0187    0.0140   -0.0092   -0.0272
          32    0.1468    0.0268   -0.0472   -0.0056   -0.0871   -0.0268    0.0030    0.0403
          33    0.0529   -0.3239    0.0107    0.0145   -0.0001   -0.0158   -0.0004   -0.0182
          34   -0.2236   -0.0525    0.0422   -0.0040   -0.0517   -0.0246    0.0077    0.0407
          35    0.1413    0.0228    0.1014    0.0006    0.0837    0.0084    0.0156   -0.0049
          36   -0.0708    0.3560   -0.0163   -0.0136   -0.0136   -0.0042   -0.0032    0.0249
          37    0.0236    0.0028    0.1352   -0.0015    0.0223    0.0107   -0.0039   -0.0204
          38    0.2854    0.0487    0.0436   -0.0001    0.0528    0.0020    0.0061    0.0077
          39    0.0395   -0.2505    0.0144    0.3934   -0.0231   -0.0074   -0.0046   -0.0108
          40    0.3672    0.0897   -0.0130    0.0101    0.1068    0.0129    0.0071   -0.0028
          41    0.1436   -0.0044    0.1676    0.0152    0.0226    0.0003    0.0027   -0.0044
          42   -0.0165    0.1513   -0.0050   -0.2230    0.0228    0.0023   -0.0019    0.0093
          43   -0.2393   -0.0542    0.1773   -0.0029    0.0013   -0.0081    0.0119    0.0097
          44    0.1421    0.0228    0.0493   -0.0023    0.0542   -0.0009    0.0140    0.0113
          45   -0.0119    0.0177    0.0016    0.3248   -0.0318   -0.0046   -0.0089    0.0145
          46   -0.2786   -0.0664    0.2259   -0.0018    0.0032   -0.0129    0.0185    0.0169
          47   -0.1817    0.0200    0.0465   -0.0029   -0.0112    0.0238   -0.0213   -0.0491
          48    0.0027   -0.0031   -0.0009   -0.2054    0.0194    0.0019    0.0050   -0.0089
          49   -0.0910    0.0512    0.1159   -0.0077   -0.0823    0.0265   -0.0248   -0.0727
          50    0.0493    0.0511   -0.0544   -0.0082   -0.1690   -0.0320    0.0045    0.0264
          51   -0.1044    0.4025   -0.0184    0.0313   -0.0453   -0.0520   -0.0047   -0.0041
          52   -0.2047   -0.0329   -0.1040   -0.0005   -0.0831   -0.0079   -0.0131    0.0024
          53    0.1852    0.0461    0.0055    0.0024    0.0810    0.0219    0.0047   -0.0325
          54    0.0303   -0.1460    0.0072    0.0208    0.0033    0.0015    0.0002   -0.0059
          55   -0.0021   -0.0156    0.0042   -0.0049   -0.0153   -0.0381    0.1063    0.0070
          56    0.0148   -0.0092   -0.0125   -0.0173   -0.2134   -0.0273   -0.0303   -0.0073
          57   -0.0012    0.0002    0.0014    0.0095    0.0391   -0.0809    0.0122   -0.1024
          58    0.0064   -0.0545   -0.0058   -0.0063    0.1358   -0.1542    0.0640    0.1916
          59    0.0056   -0.0167    0.0037    0.0031   -0.1978    0.1834   -0.1124   -0.0834
          60   -0.0009    0.0055    0.0020    0.0049   -0.0323    0.0029    0.0425   -0.2031
          61    0.0087   -0.0695    0.0051    0.0045   -0.0437    0.1594   -0.1152    0.0673
          62    0.0106   -0.0660   -0.0086   -0.0069    0.0386   -0.0346   -0.0269    0.2069
          63    0.0065   -0.0837   -0.0023    0.0130    0.2265    0.0574   -0.0440    0.0422
          64   -0.0010    0.0018   -0.0014   -0.0015   -0.0456    0.0614    0.2810   -0.1326
          65   -0.0049   -0.0126    0.0017   -0.0310   -0.1847   -0.0829   -0.1271   -0.1574
          66    0.0036   -0.0021    0.0004    0.0035   -0.0044   -0.0173    0.0862   -0.1282
          67   -0.0523    0.1185   -0.0030    0.0169    0.1661   -0.0676   -0.3504    0.1903
          68    0.0138   -0.0312   -0.0010   -0.0398   -0.2316   -0.0739   -0.2253   -0.0537
          69    0.0776   -0.0928   -0.0036   -0.0102   -0.0289    0.0665   -0.0446    0.2364
          70   -0.0227    0.0606   -0.0040    0.0239    0.1373    0.1218    0.3591    0.0145
          71   -0.0615    0.1440   -0.0066    0.0426    0.3039    0.0371   -0.1300    0.2757
          72    0.0080   -0.0499    0.0161   -0.0014    0.0178    0.0673    0.0354    0.1786
          73    0.0274   -0.0575   -0.0006   -0.0279   -0.2099   -0.1546   -0.1404   -0.2548
          74   -0.0385    0.0522   -0.0001    0.0263    0.0863    0.0662    0.3947   -0.1730
          75    0.0047    0.0039    0.0007   -0.0294   -0.1461    0.0263    0.0548   -0.0976
          76    0.0040    0.0001   -0.0032   -0.0040   -0.0142   -0.1150    0.1310    0.0822
          77   -0.0106   -0.0063   -0.0131   -0.0097   -0.1366   -0.1424    0.1250    0.1375
          78    0.0007   -0.0024    0.0026   -0.0010    0.0848   -0.2932   -0.1034   -0.0817
          79   -0.0102    0.0394    0.0074    0.0094   -0.0441    0.2893   -0.0717   -0.0233
          80   -0.0832    0.0219    0.0548    0.0111    0.0952    0.3662    0.0173   -0.0283
          81   -0.0284    0.0305    0.0279    0.0141    0.1720    0.0278   -0.2858   -0.2353
          82    0.1473    0.0275   -0.0737   -0.0137   -0.2322    0.0368   -0.0866    0.0036
          83   -0.0391   -0.0126    0.0010   -0.0107   -0.1388   -0.2046    0.1855    0.1801
          84   -0.0149    0.0470   -0.0016    0.0015   -0.1236    0.4122    0.1280    0.1050
          85   -0.0032    0.0517    0.0023    0.0017    0.0426   -0.2245   -0.1739   -0.0793
          86   -0.0849   -0.0493    0.0657    0.0144    0.2802   -0.1218   -0.1210   -0.1841
          87    0.0280   -0.0259   -0.0279   -0.0141   -0.0988   -0.3162    0.2317    0.1486
          88    0.0074   -0.0718   -0.0065   -0.0028    0.2129   -0.0763    0.0497    0.0846
          89    0.0071   -0.0467   -0.0001    0.0106   -0.0290    0.1762   -0.0833   -0.1131
          90   -0.0010   -0.0050    0.0006    0.0077    0.0266    0.0024    0.0478   -0.2063
          91    0.0017   -0.0198    0.0031    0.0114    0.0790    0.0114    0.0604   -0.2442
          92   -0.0018    0.0105    0.0005    0.0019    0.1185   -0.1437    0.1236   -0.1383
          93    0.0102   -0.1000   -0.0096    0.0007    0.1284    0.0945   -0.0545    0.0569
          94    0.0047   -0.0232   -0.0003    0.0006   -0.0859    0.1671   -0.1244    0.0875
          95    0.0073   -0.0717   -0.0073   -0.0022    0.1567    0.0084   -0.0165    0.1240
          96   -0.0128    0.0777   -0.0011   -0.0172   -0.2228    0.0111   -0.0919    0.2962


   Root No.      41        42        43        44        45        46        47        48

                41 A      42 A      43 A      44 A      45 A      46 A      47 A      48 A   

                   1.7       1.7       1.8       1.8       1.9       2.1       2.5       2.7
  
           1    0.0071   -0.0146    0.0107    0.0201    0.1741   -0.0123    0.0964    0.0022
           2    0.0215   -0.0660   -0.0474   -0.0562    0.1721    0.1479    0.0299    0.0167
           3    0.1822    0.0299    0.0154   -0.0066    0.0020   -0.0051   -0.0394    0.1993
           4    0.0075   -0.0106    0.0227    0.0399    0.2004   -0.0063    0.0795   -0.0122
           5    0.0360   -0.1474   -0.1248   -0.1739   -0.0855   -0.1302    0.0599    0.0481
           6    0.4587    0.0592    0.0000    0.0329   -0.0300    0.0131    0.0418   -0.1862
           7    0.0377   -0.1256   -0.0716   -0.0902    0.1017   -0.0212   -0.0420    0.0067
           8    0.0108   -0.0481   -0.0296   -0.0430   -0.0276   -0.1491    0.0972    0.0015
           9    0.1523    0.0121   -0.0125    0.0224   -0.0137    0.0096    0.0232   -0.0961
          10    0.0230   -0.1000   -0.0935   -0.1300   -0.0403    0.0484   -0.0278    0.0023
          11   -0.0023   -0.0192   -0.0352   -0.0550   -0.1244   -0.0790    0.0772   -0.0385
          12   -0.0373   -0.0015   -0.0209    0.0219   -0.0182    0.0130    0.0282   -0.0249
          13    0.0263   -0.1187   -0.1099   -0.1541   -0.0463   -0.0130    0.0384    0.0283
          14   -0.0354    0.1157    0.0534    0.0644   -0.1994    0.0200   -0.1189   -0.0082
          15   -0.4138   -0.0557   -0.0087   -0.0135    0.0122    0.0013    0.0454   -0.2431
          16   -0.0169    0.0284   -0.0121   -0.0315   -0.2358   -0.1744    0.0112    0.0369
          17   -0.0064    0.0183   -0.0078   -0.0143   -0.0626    0.0853   -0.0734    0.0044
          18   -0.3068   -0.0377    0.0105   -0.0385    0.0302   -0.0176   -0.0397    0.1309
          19   -0.0034    0.0141   -0.0127   -0.0155    0.0810    0.1755    0.0210    0.0178
          20    0.0415   -0.1234   -0.0609   -0.0673    0.3792    0.1219    0.1682    0.0331
          21   -0.0897   -0.0152   -0.0080    0.0043   -0.0012    0.0027    0.0153   -0.0713
          22   -0.0263    0.1333    0.1120    0.1610    0.1397    0.2201   -0.0799   -0.0563
          23    0.0304   -0.1311   -0.1464   -0.2115   -0.2357   -0.0822   -0.0149    0.0908
          24   -0.2198   -0.0273   -0.0002   -0.0145    0.0130   -0.0054   -0.0132    0.0576
          25    0.0212   -0.0722   -0.0177   -0.0228    0.1435   -0.1028    0.1617    0.0159
          26   -0.0612    0.2287    0.1683    0.2233   -0.1940   -0.0127   -0.1990   -0.0479
          27    0.2045    0.0239    0.0069    0.0088   -0.0058    0.0008   -0.0155    0.0787
          28   -0.0232    0.0358   -0.0258   -0.0588   -0.3734   -0.2849    0.0235    0.0844
          29   -0.0075    0.0483    0.0664    0.0935    0.1213   -0.0567    0.0433   -0.0050
          30    0.1539    0.0187   -0.0059    0.0188   -0.0152    0.0076    0.0149   -0.0436
          31   -0.0259    0.0769    0.0109    0.0069   -0.1444    0.2085   -0.0233   -0.0093
          32    0.0255   -0.1137   -0.0854   -0.1071   -0.0258   -0.0961    0.0345   -0.0716
          33    0.2475    0.0430    0.0217   -0.0061    0.0008   -0.0116   -0.0868    0.3515
          34    0.0361   -0.1187   -0.0617   -0.0732    0.0601   -0.0291   -0.1006   -0.0161
          35   -0.0095    0.0596    0.1119    0.1497    0.1602   -0.1865    0.0676    0.0334
          36   -0.3658   -0.0589    0.0156   -0.0512    0.0476   -0.0279   -0.0841    0.2711
          37   -0.0220    0.0698    0.0202    0.0227   -0.1145    0.1956   -0.0548   -0.0230
          38    0.0100   -0.0517   -0.0540   -0.0754    0.0780    0.1580   -0.1039   -0.0022
          39    0.2179    0.0455    0.0010    0.0335   -0.0312    0.0178    0.0628   -0.1689
          40    0.0102   -0.0370   -0.0004    0.0168    0.1726    0.0908   -0.1189   -0.0071
          41    0.0020    0.0088   -0.0596   -0.1049   -0.0875    0.3958   -0.2000   -0.0485
          42   -0.1053   -0.0239    0.0001   -0.0146    0.0126    0.0018   -0.0256    0.0491
          43   -0.0027    0.0446    0.1154    0.1633    0.0311   -0.2009   -0.0356   -0.0201
          44    0.0098   -0.0212    0.0192    0.0245    0.1567   -0.0678   -0.0079    0.0249
          45   -0.1645   -0.0105    0.0092   -0.0126    0.0008    0.0045    0.0643   -0.2384
          46   -0.0031    0.0583    0.1752    0.2509    0.0621   -0.3382   -0.0819   -0.0467
          47   -0.0394    0.1249    0.0344    0.0412   -0.1789    0.1147    0.0086   -0.0111
          48    0.0987    0.0092   -0.0029    0.0077   -0.0021   -0.0025   -0.0230    0.0794
          49   -0.0825    0.2221    0.0654    0.0531   -0.1581    0.2640    0.2822   -0.0187
          50   -0.0041   -0.0306   -0.0237   -0.0499   -0.0101   -0.0883    0.1666   -0.0953
          51   -0.0901    0.0016    0.1088   -0.0881    0.0586   -0.0097   -0.0504   -0.0124
          52    0.0019   -0.0259   -0.0638   -0.0843   -0.1666    0.0781   -0.0714   -0.0439
          53   -0.0371    0.1309    0.1297    0.1652    0.0547   -0.1767    0.1833    0.0616
          54    0.0828    0.0149   -0.0030    0.0125   -0.0103    0.0048    0.0165   -0.0447
          55   -0.0157    0.1040    0.0070   -0.0204   -0.0210    0.0604    0.2365    0.0912
          56    0.0031   -0.0123   -0.0041    0.0286    0.0003   -0.0170    0.0934   -0.1436
          57   -0.0114   -0.0282   -0.0361    0.0184    0.0081   -0.0091   -0.0216   -0.1335
          58   -0.0001    0.1847    0.0975   -0.2114    0.0268   -0.0176    0.1142   -0.0389
          59   -0.0109   -0.0081   -0.2471    0.2317    0.0246    0.0186    0.0353   -0.0859
          60   -0.0100   -0.1554    0.0191    0.0949   -0.0564    0.0474    0.1714   -0.0782
          61    0.0052    0.0765   -0.1842    0.0885    0.0602   -0.0198   -0.0335   -0.0630
          62    0.0015    0.2131   -0.0708   -0.0821    0.0689   -0.0308    0.0435   -0.0781
          63    0.0284   -0.1011    0.0740   -0.0411    0.0040   -0.0336   -0.1827    0.0951
          64   -0.0122    0.1181   -0.0997   -0.0649    0.0522   -0.0479   -0.0422    0.0553
          65    0.0097    0.0692    0.1803   -0.1272    0.0684    0.0001   -0.0509    0.0645
          66   -0.0098    0.0010   -0.0563   -0.0120    0.0425   -0.0466   -0.1560   -0.1688
          67    0.0157   -0.1545    0.0850    0.0800   -0.0529    0.0405    0.0252   -0.0257
          68    0.0197    0.0719    0.2614   -0.1358    0.0516    0.0339    0.0363    0.2227
          69    0.0061   -0.0228   -0.0542    0.0825   -0.0754    0.0273    0.1132   -0.0229
          70   -0.0206    0.0711   -0.2430    0.0246    0.0067   -0.0562   -0.0136    0.0503
          71    0.0054   -0.1666   -0.0598    0.1511   -0.0835    0.0317    0.0450   -0.0703
          72    0.0048    0.0592    0.0452   -0.0075   -0.0468    0.0591    0.1267    0.1080
          73    0.0024    0.0252    0.1236   -0.0968    0.0807   -0.0308   -0.1467   -0.0815
          74   -0.0249    0.0790   -0.1793   -0.0292    0.0626   -0.0728   -0.1587   -0.0860
          75    0.0023    0.1412    0.0774   -0.1498    0.0885   -0.0408   -0.1509    0.0554
          76   -0.0070    0.0193    0.0335    0.0614   -0.0267    0.0848    0.1139    0.1824
          77    0.0096   -0.1225    0.0588    0.1503   -0.0182    0.0267   -0.1430   -0.0694
[...]
 TRANSITION DIPOLE   1.8033         C 12 -- C 15         +10.9% ( 46.2%)     99.8%
 TRAVEL (Ang.)       0.1660         C  5 -- C  6         +10.7% ( 45.7%)     97.3%
 REDUCED MASS        1.4609         C 11 -- C 13          +8.7% ( 41.1%)     98.7%
 EFFECTIVE MASS     11.8467
 FORCE CONSTANT      2.4175

 VIBRATION         75   75A           ATOM PAIR      ENERGY CONTRIBUTION    RADIAL
 FREQUENCY          1788.40         C 20 -- C 30         +46.1% ( 99.8%)     99.6%
 TRANSITION DIPOLE   0.5631         C 19 -- C 20         +15.8% ( 58.4%)     45.5%
 TRAVEL (Ang.)       0.0818         C 20 -- H 21         +14.8% ( 56.5%)      9.4%
 REDUCED MASS        5.6363         C 30 -- H 32         +11.6% ( 49.9%)     14.8%
 EFFECTIVE MASS     11.8932         C 30 -- H 31         +11.4% ( 49.7%)     16.9%
 FORCE CONSTANT     10.6211

 VIBRATION         76   76A           ATOM PAIR      ENERGY CONTRIBUTION    RADIAL
 FREQUENCY          2657.04         C 22 -- H 24         +38.1% ( 64.2%)     98.8%
 TRANSITION DIPOLE   0.5927         C 22 -- H 25         +26.0% ( 53.1%)     96.6%
 TRAVEL (Ang.)       0.3043         C 26 -- H 27         +20.3% ( 46.9%)     99.2%
 REDUCED MASS        0.2741         C 26 -- H 29         +11.0% ( 34.5%)     95.3%
 EFFECTIVE MASS      1.4391
 FORCE CONSTANT      1.1402

 VIBRATION         77   77A           ATOM PAIR      ENERGY CONTRIBUTION    RADIAL
 FREQUENCY          2659.30         C 26 -- H 27         +41.0% ( 66.5%)     99.6%
 TRANSITION DIPOLE   0.8465         C 22 -- H 25         +23.5% ( 50.3%)     99.2%
 TRAVEL (Ang.)       0.3081         C 26 -- H 29         +13.3% ( 37.9%)     91.2%
 REDUCED MASS        0.2672         C 22 -- H 24         +11.6% ( 35.4%)     94.9%
 EFFECTIVE MASS      1.4488
 FORCE CONSTANT      1.1133

 VIBRATION         78   78A           ATOM PAIR      ENERGY CONTRIBUTION    RADIAL
 FREQUENCY          2662.82         C 22 -- H 23         +58.4% ( 79.4%)     99.5%
 TRANSITION DIPOLE   0.7371         C 22 -- H 24         +15.6% ( 41.1%)     88.7%
 TRAVEL (Ang.)       0.2504         C 22 -- H 25         +14.9% ( 40.1%)     88.1%
 REDUCED MASS        0.4040         C 26 -- H 29          +6.4% ( 26.3%)     99.4%
 EFFECTIVE MASS      1.4500
 FORCE CONSTANT      1.6877

 VIBRATION         79   79A           ATOM PAIR      ENERGY CONTRIBUTION    RADIAL
 FREQUENCY          2668.57         C 26 -- H 28         +55.8% ( 77.6%)     99.1%
 TRANSITION DIPOLE   0.9838         C 26 -- H 29         +34.2% ( 60.7%)     96.5%
 TRAVEL (Ang.)       0.2387         C 26 -- H 27          +3.3% ( 18.9%)     50.8%
 REDUCED MASS        0.4434         C 22 -- H 23          +3.1% ( 18.4%)     98.8%
 EFFECTIVE MASS      1.4526
 FORCE CONSTANT      1.8605

 VIBRATION         80   80A           ATOM PAIR      ENERGY CONTRIBUTION    RADIAL
 FREQUENCY          2690.13         C 30 -- H 32         +49.0% ( 72.8%)     98.8%
 TRANSITION DIPOLE   0.5316         C 30 -- H 31         +42.9% ( 68.1%)     98.3%
 TRAVEL (Ang.)       0.2371         C 20 -- H 21          +6.9% ( 27.2%)     99.7%
 REDUCED MASS        0.4458         C 20 -- C 30          +1.1% ( 10.7%)      2.3%
 EFFECTIVE MASS      1.4907
 FORCE CONSTANT      1.9008

 VIBRATION         81   81A           ATOM PAIR      ENERGY CONTRIBUTION    RADIAL
 FREQUENCY          2731.20         C  5 -- H  9         +85.8% ( 93.7%)    100.0%
 TRANSITION DIPOLE   0.8854         C  6 -- H 10          +8.8% ( 30.0%)     99.9%
 TRAVEL (Ang.)       0.1844         C  2 -- H  8          +2.3% ( 15.4%)    100.0%
 REDUCED MASS        0.7261         C  4 -- C  5          +1.0% ( 10.0%)     14.5%
 EFFECTIVE MASS      1.3908
 FORCE CONSTANT      3.1914

 VIBRATION         82   82A           ATOM PAIR      ENERGY CONTRIBUTION    RADIAL
 FREQUENCY          2740.23         C 20 -- H 21         +63.2% ( 80.4%)     99.9%
 TRANSITION DIPOLE   1.0187         C  1 -- H  7         +15.5% ( 39.8%)    100.0%
 TRAVEL (Ang.)       0.2413         C  2 -- H  8          +7.3% ( 27.3%)     99.9%
 REDUCED MASS        0.4227         C 15 -- H 16          +4.1% ( 20.4%)    100.0%
 EFFECTIVE MASS      1.4113
 FORCE CONSTANT      1.8703

 VIBRATION         83   83A           ATOM PAIR      ENERGY CONTRIBUTION    RADIAL
 FREQUENCY          2740.42         C  1 -- H  7         +43.3% ( 66.5%)    100.0%
 TRANSITION DIPOLE   0.2716         C  2 -- H  8         +23.6% ( 49.1%)     99.9%
 TRAVEL (Ang.)       0.2906         C 20 -- H 21         +23.5% ( 49.0%)     99.9%
 REDUCED MASS        0.2914         C  5 -- H  9          +3.5% ( 18.9%)     99.9%
 EFFECTIVE MASS      1.3877
 FORCE CONSTANT      1.2895

 VIBRATION         84   84A           ATOM PAIR      ENERGY CONTRIBUTION    RADIAL
 FREQUENCY          2742.44         C 15 -- H 16         +76.3% ( 88.3%)    100.0%
 TRANSITION DIPOLE   0.8109         C 13 -- H 14         +16.4% ( 40.9%)     99.9%
 TRAVEL (Ang.)       0.2036         C 20 -- H 21          +3.5% ( 18.8%)     99.9%
 REDUCED MASS        0.5930         C  1 -- H  7          +1.5% ( 12.3%)    100.0%
 EFFECTIVE MASS      1.3878
 FORCE CONSTANT      2.6279

 VIBRATION         85   85A           ATOM PAIR      ENERGY CONTRIBUTION    RADIAL
 FREQUENCY          2746.54         C  2 -- H  8         +58.1% ( 77.1%)    100.0%
 TRANSITION DIPOLE   1.1572         C  6 -- H 10         +20.1% ( 45.3%)    100.0%
 TRAVEL (Ang.)       0.2467         C  1 -- H  7         +18.8% ( 43.8%)     99.9%
 REDUCED MASS        0.4034         C  1 -- C  2          +0.9% (  9.8%)     81.6%
 EFFECTIVE MASS      1.3966
 FORCE CONSTANT      1.7927

 VIBRATION         86   86A           ATOM PAIR      ENERGY CONTRIBUTION    RADIAL
 FREQUENCY          2757.30         C 13 -- H 14         +40.6% ( 64.4%)    100.0%
 TRANSITION DIPOLE   1.9056         C  6 -- H 10         +35.9% ( 60.5%)    100.0%
 TRAVEL (Ang.)       0.2855         C  1 -- H  7          +8.4% ( 29.3%)     99.9%
 REDUCED MASS        0.2999         C 15 -- H 16          +7.2% ( 27.1%)     99.7%
 EFFECTIVE MASS      1.4284
 FORCE CONSTANT      1.3435

 VIBRATION         87   87A           ATOM PAIR      ENERGY CONTRIBUTION    RADIAL
 FREQUENCY          2760.60         C 13 -- H 14         +39.4% ( 63.3%)    100.0%
 TRANSITION DIPOLE   0.2676         C  6 -- H 10         +30.0% ( 55.3%)    100.0%
 TRAVEL (Ang.)       0.3052         C 15 -- H 16         +10.2% ( 32.2%)     99.8%
 REDUCED MASS        0.2622         C  1 -- H  7          +9.9% ( 31.7%)    100.0%
 EFFECTIVE MASS      1.4293
 FORCE CONSTANT      1.1775

 VIBRATION         88   88A           ATOM PAIR      ENERGY CONTRIBUTION    RADIAL
 FREQUENCY          2807.45         C 30 -- H 31         +53.4% ( 71.5%)     97.0%
 TRANSITION DIPOLE   0.8506         C 30 -- H 32         +45.2% ( 65.7%)     95.8%
 TRAVEL (Ang.)       0.2229         C 20 -- C 30          +1.0% (  9.9%)     99.9%
 REDUCED MASS        0.4834
 EFFECTIVE MASS      1.2702
 FORCE CONSTANT      2.2449

 VIBRATION         89   89A           ATOM PAIR      ENERGY CONTRIBUTION    RADIAL
 FREQUENCY          2850.00         C 26 -- H 29         +24.5% ( 46.4%)     97.8%
 TRANSITION DIPOLE   0.6317         C 26 -- H 28         +23.6% ( 45.6%)     97.6%
 TRAVEL (Ang.)       0.3501         C 26 -- H 27         +22.9% ( 44.9%)     97.4%
 REDUCED MASS        0.1930         C 22 -- H 24         +10.0% ( 29.6%)     97.9%
 EFFECTIVE MASS      1.0972
 FORCE CONSTANT      0.9238

 VIBRATION         90   90A           ATOM PAIR      ENERGY CONTRIBUTION    RADIAL
 FREQUENCY          2854.63         C 22 -- H 23         +23.9% ( 45.8%)     97.4%
 TRANSITION DIPOLE   0.6022         C 22 -- H 24         +23.9% ( 45.8%)     97.8%
 TRAVEL (Ang.)       0.3503         C 22 -- H 25         +23.1% ( 45.1%)     97.3%
 REDUCED MASS        0.1925         C 26 -- H 29         +10.0% ( 29.7%)     97.4%
 EFFECTIVE MASS      1.1050
 FORCE CONSTANT      0.9240

      SYMMETRY NUMBER FOR POINT-GROUP C1  =  1


          SYSTEM IS A GROUND STATE



 Claisen_SM_PM6_D3H4_THERMO


          MOLECULE IS NOT LINEAR

          THERE ARE 90 GENUINE VIBRATIONS IN THIS SYSTEM
          THIS THERMODYNAMICS CALCULATION IS LIMITED TO
          MOLECULES WHICH HAVE NO INTERNAL ROTATIONS




                    CALCULATED THERMODYNAMIC PROPERTIES
                                          *
   TEMP. (K)   PARTITION FUNCTION   H.O.F.    ENTHALPY  HEAT CAPACITY ENTROPY
                                   KCAL/MOL   CAL/MOLE    CAL/K/MOL  CAL/K/MOL


 298.00  VIB.     0.5695D+06                  8576.5176    56.9085    55.1156
         ROT.     0.4102D+07                   888.2813     2.9808    33.2400
         INT.     0.2336D+13                  9464.7989    59.8893    88.3556
         TRA.     0.3747D+28                  1480.4688     4.9680    42.4079
         TOT.                       -4.387   10945.2678    64.8573   130.7635

 200.00  VIB.     0.4755D+04                  3903.9890    38.5494    36.3454
         ROT.     0.2255D+07                   596.1620     2.9808    32.0513
         INT.     0.1072D+11                  4500.1510    41.5302    68.3968
         TRA.     0.2060D+28                   993.6033     4.9680    40.4268
         TOT.                       -9.839    5493.7542    46.4982   108.8235

 210.00  VIB.     0.7768D+04                  4298.6496    40.3847    38.2706
         ROT.     0.2427D+07                   625.9700     2.9808    32.1968
         INT.     0.1885D+11                  4924.6197    43.3655    70.4674
         TRA.     0.2217D+28                  1043.2834     4.9680    40.6692
         TOT.                       -9.365    5967.9031    48.3336   111.1365

 220.00  VIB.     0.1268D+05                  4711.7238    42.2321    40.1919
         ROT.     0.2602D+07                   655.7781     2.9808    32.3354
         INT.     0.3300D+11                  5367.5019    45.2129    72.5273
         TRA.     0.2377D+28                  1092.9636     4.9680    40.9003
         TOT.                       -8.872    6460.4655    50.1809   113.4276

 230.00  VIB.     0.2069D+05                  5143.3313    44.0913    42.1101
         ROT.     0.2781D+07                   685.5862     2.9808    32.4680
         INT.     0.5755D+11                  5828.9175    47.0721    74.5781
         TRA.     0.2541D+28                  1142.6437     4.9680    41.1211
         TOT.                       -8.361    6971.5613    52.0401   115.6992

 240.00  VIB.     0.3374D+05                  5593.5855    45.9612    44.0261
         ROT.     0.2965D+07                   715.3943     2.9808    32.5948
         INT.     0.1000D+12                  6308.9798    48.9420    76.6209
         TRA.     0.2708D+28                  1192.3239     4.9680    41.3325
         TOT.                       -7.831    7501.3037    53.9100   117.9535

 250.00  VIB.     0.5499D+05                  6062.5859    47.8402    45.9404
         ROT.     0.3152D+07                   745.2024     2.9808    32.7165
         INT.     0.1733D+12                  6807.7884    50.8210    78.6569
         TRA.     0.2879D+28                  1242.0041     4.9680    41.5353
         TOT.                       -7.283    8049.7924    55.7891   120.1923

 260.00  VIB.     0.8957D+05                  6550.4130    49.7261    47.8535
         ROT.     0.3343D+07                   775.0105     2.9808    32.8334
         INT.     0.2994D+12                  7325.4236    52.7070    80.6869
         TRA.     0.3054D+28                  1291.6842     4.9680    41.7302
         TOT.                       -6.715    8617.1078    57.6750   122.4171

 270.00  VIB.     0.1458D+06                  7057.1234    51.6164    49.7656
         ROT.     0.3538D+07                   804.8186     2.9808    32.9459
         INT.     0.5159D+12                  7861.9420    54.5972    82.7115
         TRA.     0.3231D+28                  1341.3644     4.9680    41.9177
         TOT.                       -6.129    9203.3064    59.5653   124.6292

 280.00  VIB.     0.2373D+06                  7582.7470    53.5083    51.6770
         ROT.     0.3736D+07                   834.6267     2.9808    33.0543
         INT.     0.8865D+12                  8417.3738    56.4891    84.7313
         TRA.     0.3413D+28                  1391.0445     4.9680    42.0984
         TOT.                       -5.524    9808.4183    61.4572   126.8296

 290.00  VIB.     0.3860D+06                  8127.2856    55.3989    53.5876
         ROT.     0.3938D+07                   864.4348     2.9808    33.1589
         INT.     0.1520D+13                  8991.7204    58.3797    86.7465
         TRA.     0.3597D+28                  1440.7247     4.9680    42.2727
         TOT.                       -4.900   10432.4452    63.3478   129.0192

 300.00  VIB.     0.6276D+06                  8690.7115    57.2853    55.4975
         ROT.     0.4143D+07                   894.2429     2.9808    33.2600
         INT.     0.2600D+13                  9584.9544    60.2661    88.7575
         TRA.     0.3785D+28                  1490.4049     4.9680    42.4411
         TOT.                       -4.257   11075.3593    65.2341   131.1986

 310.00  VIB.     0.1020D+07                  9272.9680    59.1646    57.4066
         ROT.     0.4352D+07                   924.0510     2.9808    33.3577
         INT.     0.4440D+13                 10197.0190    62.1454    90.7643
         TRA.     0.3975D+28                  1540.0850     4.9680    42.6040
         TOT.                       -3.595   11737.1040    67.1134   133.3683

 320.00  VIB.     0.1657D+07                  9873.9700    61.0340    59.3145
         ROT.     0.4565D+07                   953.8591     2.9808    33.4523
         INT.     0.7566D+13                 10827.8291    64.0148    92.7669
         TRA.     0.4169D+28                  1589.7652     4.9680    42.7618
         TOT.                       -2.915   12417.5943    68.9828   135.5286

 330.00  VIB.     0.2692D+07                 10493.6055    62.8908    61.2211
         ROT.     0.4780D+07                   983.6672     2.9808    33.5441
         INT.     0.1287D+14                 11477.2727    65.8717    94.7652
         TRA.     0.4366D+28                  1639.4454     4.9680    42.9146
         TOT.                       -2.216   13116.7181    70.8397   137.6798

 340.00  VIB.     0.4371D+07                 11131.7372    64.7328    63.1260
         ROT.     0.4999D+07                  1013.4753     2.9808    33.6330
         INT.     0.2185D+14                 12145.2125    67.7136    96.7590
         TRA.     0.4566D+28                  1689.1255     4.9680    43.0629
         TOT.                       -1.498   13834.3380    72.6816   139.8220

 350.00  VIB.     0.7096D+07                 11788.2043    66.5576    65.0288
         ROT.     0.5221D+07                  1043.2834     2.9808    33.7195
         INT.     0.3705D+14                 12831.4877    69.5384    98.7482
         TRA.     0.4769D+28                  1738.8057     4.9680    43.2070
         TOT.                       -0.762   14570.2934    74.5064   141.9552

 360.00  VIB.     0.1151D+08                 12462.8253    68.3633    66.9291
         ROT.     0.5447D+07                  1073.0915     2.9808    33.8034
         INT.     0.6271D+14                 13535.9168    71.3441   100.7326
         TRA.     0.4975D+28                  1788.4859     4.9680    43.3469
         TOT.                       -0.008   15324.4027    76.3121   144.0795

 370.00  VIB.     0.1868D+08                 13155.3996    70.1480    68.8266
         ROT.     0.5675D+07                  1102.8996     2.9808    33.8851
         INT.     0.1060D+15                 14258.2992    73.1288   102.7117
         TRA.     0.5184D+28                  1838.1660     4.9680    43.4830
         TOT.                        0.764   16096.4652    78.0968   146.1947

 380.00  VIB.     0.3029D+08                 13865.7101    71.9103    70.7208
         ROT.     0.5907D+07                  1132.7077     2.9808    33.9646
         INT.     0.1789D+15                 14998.4178    74.8911   104.6854
         TRA.     0.5395D+28                  1887.8462     4.9680    43.6155
         TOT.                        1.554   16886.2640    79.8591   148.3009

 390.00  VIB.     0.4909D+08                 14593.5256    73.6488    72.6112
         ROT.     0.6142D+07                  1162.5158     2.9808    34.0420
         INT.     0.3015D+15                 15756.0414    76.6296   106.6532
         TRA.     0.5610D+28                  1937.5263     4.9680    43.7446
         TOT.                        2.361   17693.5678    81.5976   150.3978

 400.00  VIB.     0.7955D+08                 15338.6026    75.3624    74.4975
         ROT.     0.6379D+07                  1192.3239     2.9808    34.1175
         INT.     0.5075D+15                 16530.9265    78.3432   108.6150
         TRA.     0.5827D+28                  1987.2065     4.9680    43.8703
         TOT.                        3.186   18518.1330    83.3112   152.4853

   *: NOTE: HEATS OF FORMATION ARE RELATIVE TO THE
            ELEMENTS IN THEIR STANDARD STATE AT 298K
              (=  Standard Enthalpy of Formation).

            Hvib:  Zero-point energy is not included.
                   frequencies of less than zero cm-1 are not included.
            Hrot = (3/2)RT
            Htra = (3/2)RT + pV = (5/2)RT

            Heat capacity is Cp, not Cv

          For more information, see: HTTP://OpenMOPAC.net/Manual/thermochemistry.html


           FORCE CONSTANT IN CARTESIAN COORDINATES (Millidynes/A)

    ATOM   CHEMICAL       X               Y               Z
   NUMBER   SYMBOL  FORCE CONSTANT  FORCE CONSTANT  FORCE CONSTANT

      1       C       11.044449        9.020167        2.246948
      2       C       11.109013        8.906191        2.185035
      3       C       10.741554       10.475599        2.344564
      4       C       10.555165       10.469568        2.243365
      5       C        9.501411       10.673516        2.218491
      6       C        9.496829       10.556030        2.172520
      7       H        1.722124        3.330270        0.363975
      8       H        1.794511        3.353701        0.346601
      9       H        1.676812        3.369407        0.362255
     10       H        4.231841        0.850196        0.357252
     11       C       11.793482        9.315171        2.190031
     12       C        9.220590        9.511193        1.659758
     13       C       10.784618        9.282449        2.005765
     14       H        1.743276        3.374124        0.346603
     15       C        9.463631       10.946874        2.121259
     16       H        4.206501        0.881380        0.369996
     17       O        4.607254        7.529176        0.907510
     18      Cl        1.694069        3.393165        0.143310
     19       C        7.962950        5.912471        8.079456
     20       C        5.193467        5.632096       12.969717
     21       H        1.877942        2.359855        1.173598
     22       C        6.484579        6.400030        6.784472
     23       H        0.631315        3.773222        1.075903
     24       H        3.748649        1.010270        0.739461
     25       H        1.745996        1.713813        2.018525
     26       C        6.593449        6.600438        6.306178
     27       H        1.363422        0.891268        3.213248
     28       H        0.758752        4.114726        0.596319
     29       H        2.024513        0.845199        2.660368
     30       C        4.532635        5.220889       12.370582
     31       H        1.957564        0.955303        2.437275
     32       H        1.847962        2.369267        1.126606

 **********************
 *                    *
 * JOB ENDED NORMALLY *
 *                    *
 **********************



 TOTAL JOB TIME:             6.95 SECONDS

 == MOPAC DONE ==
