 *******************************************************************************
 ** Site#: 37381        For non-commercial use only           Version 21.125L **
 *******************************************************************************
 ** Cite this program as: MOPAC2016, Version: 21.125L, James J. P. Stewart,   **
 ** Stewart Computational Chemistry, web: HTTP://OpenMOPAC.net. Days left: 192**
 *******************************************************************************
 **                                                                           **
 **                                MOPAC2016                                  **
 **                                                                           **
 *******************************************************************************

                              PM6-D3H4 CALCULATION RESULTS

 *******************************************************************************
 *  CALCULATION DONE:                                Mon Oct 25 19:52:44 2021  *
 *  PM6-D3H4   - CORRECT DISPERSION AND HYDROGEN BOND TERMS USING THE D3H4 METHOD
 *  EPS=2.38   - USE ANDREAS KLAMT'S COSMO IMPLICIT SOLVATION MODEL
 *  RSOLV=  3.480
 *  FORCE      - FORCE CALCULATION SPECIFIED
 *  T=         - A TIME OF 172800.0 SECONDS REQUESTED
 *  DUMP=N     - RESTART FILE WRITTEN EVERY 7200.0 SECONDS REQUESTED
 *  AUX        - OUTPUT AUXILIARY INFORMATION
 *  LARGE      - EXPANDED OUTPUT TO BE PRINTED
 *  THERMO     - THERMODYNAMIC QUANTITIES TO BE CALCULATED
 *******************************************************************************
 AUX LARGE FORCE THERMO PM6-D3H4 EPS=2.38 RSOLV=3.48
 Claisen_TS_PM6_D3H4_THERMO

   ATOM   CHEMICAL          X               Y               Z
  NUMBER   SYMBOL      (ANGSTROMS)     (ANGSTROMS)     (ANGSTROMS)
 
     1       C         -2.33292000  *   2.72850000  *   0.22418000  *
     2       C         -2.64158000  *   1.37827000  *   0.24680000  *
     3       C         -1.65671000  *   0.41711000  *  -0.08632000  *
     4       C         -0.35799000  *   0.85490000  *  -0.43308000  *
     5       C         -0.06588000  *   2.23824000  *  -0.46202000  *
     6       C         -1.03946000  *   3.16501000  *  -0.13422000  *
     7       H         -3.09324000  *   3.46819000  *   0.48189000  *
     8       H         -3.64821000  *   1.05874000  *   0.51971000  *
     9       H          0.94305000  *   2.54823000  *  -0.74923000  *
    10       H         -0.81768000  *   4.23186000  *  -0.15178000  *
    11       C          0.67999000  *  -0.12521000  *  -0.78638000  *
    12       C         -1.91419000  *  -1.00960000  *  -0.10259000  *
    13       C          0.37900000  *  -1.52154000  *  -0.74081000  *
    14       H          0.96879000  *  -2.19049000  *  -1.37912000  *
    15       C         -0.97801000  *  -1.92876000  *  -0.44760000  *
    16       H         -1.21060000  *  -2.99546000  *  -0.49145000  *
    17       O          1.88223000  *   0.27714000  *  -0.99826000  *
    18      Cl         -3.50531000  *  -1.55095000  *   0.30968000  *
    19       C          3.06429000  *  -0.17798000  *   0.34095000  *
    20       C          2.70969000  *  -1.54448000  *   0.48336000  *
    21       H          3.36115000  *  -2.28096000  *   0.01012000  *
    22       C          4.31493000  *   0.17212000  *  -0.41795000  *
    23       H          4.62310000  *  -0.65175000  *  -1.10191000  *
    24       H          4.11565000  *   1.07728000  *  -1.04703000  *
    25       H          5.14674000  *   0.39499000  *   0.28898000  *
    26       C          2.64147000  *   0.84254000  *   1.36493000  *
    27       H          1.55396000  *   0.77061000  *   1.60049000  *
    28       H          3.22166000  *   0.66768000  *   2.30283000  *
    29       H          2.84118000  *   1.87711000  *   0.99933000  *
    30       C          1.44528000  *  -1.95721000  *   0.89441000  *
    31       H          1.22985000  *  -3.03293000  *   0.93518000  *
    32       H          0.84966000  *  -1.34692000  *   1.58368000  *
 


          CARTESIAN COORDINATES 

    NO.       ATOM           X           Y           Z

     1         C         -2.3329      2.7285      0.2242
     2         C         -2.6416      1.3783      0.2468
     3         C         -1.6567      0.4171     -0.0863
     4         C         -0.3580      0.8549     -0.4331
     5         C         -0.0659      2.2382     -0.4620
     6         C         -1.0395      3.1650     -0.1342
     7         H         -3.0932      3.4682      0.4819
     8         H         -3.6482      1.0587      0.5197
     9         H          0.9431      2.5482     -0.7492
    10         H         -0.8177      4.2319     -0.1518
    11         C          0.6800     -0.1252     -0.7864
    12         C         -1.9142     -1.0096     -0.1026
    13         C          0.3790     -1.5215     -0.7408
    14         H          0.9688     -2.1905     -1.3791
    15         C         -0.9780     -1.9288     -0.4476
    16         H         -1.2106     -2.9955     -0.4914
    17         O          1.8822      0.2771     -0.9983
    18        Cl         -3.5053     -1.5510      0.3097
    19         C          3.0643     -0.1780      0.3410
    20         C          2.7097     -1.5445      0.4834
    21         H          3.3611     -2.2810      0.0101
    22         C          4.3149      0.1721     -0.4180
    23         H          4.6231     -0.6518     -1.1019
    24         H          4.1156      1.0773     -1.0470
    25         H          5.1467      0.3950      0.2890
    26         C          2.6415      0.8425      1.3649
    27         H          1.5540      0.7706      1.6005
    28         H          3.2217      0.6677      2.3028
    29         H          2.8412      1.8771      0.9993
    30         C          1.4453     -1.9572      0.8944
    31         H          1.2298     -3.0329      0.9352
    32         H          0.8497     -1.3469      1.5837

 General Reference for PM6:
 "Optimization of Parameters for Semiempirical Methods V: Modification of NDDO Approximations
 and Application to 70 Elements", J. J. P. Stewart, J. Mol. Mod., 13, 1173-1213 (2007)
 URL: https://link.springer.com/article/10.1007/s00894-007-0233-4

           Empirical Formula: C15 H15 O Cl  =    32 atoms



      MOLECULAR POINT GROUP   :   C1  


      RHF CALCULATION, NO. OF DOUBLY OCCUPIED LEVELS = 44



          HEAT OF FORMATION =      23.387618 KCALS/MOLE


          CARTESIAN COORDINATE DERIVATIVES

   NUMBER  ATOM         X            Y            Z

     1       C      0.025662    -0.000957     0.016046
     2       C     -0.036415     0.050203     0.030131
     3       C      0.051038    -0.029466     0.011917
     4       C     -0.024313     0.029432    -0.006048
     5       C     -0.019448     0.031575    -0.003636
     6       C      0.009541    -0.015494    -0.030324
     7       H      0.003262    -0.000840     0.005760
     8       H     -0.021286     0.004934     0.022216
     9       H     -0.013054     0.002673    -0.020430
    10       H     -0.003458     0.004974    -0.014067
    11       C      0.046717    -0.037112     0.001644
    12       C     -0.030033     0.050727     0.040535
    13       C     -0.005391     0.018016     0.017827
    14       H      0.000147    -0.000709    -0.017704
    15       C      0.022586    -0.046237    -0.024662
    16       H      0.000681     0.026216    -0.020296
    17       O     -0.011843     0.032444     0.004637
    18      Cl      0.001166     0.015724    -0.021893
    19       C      0.018646    -0.003367    -0.008219
    20       C     -0.010227     0.019189     0.014404
    21       H      0.004067    -0.016145     0.002989
    22       C     -0.013326    -0.002499     0.010900
    23       H      0.016157     0.017999     0.062443
    24       H      0.036894    -0.001336    -0.027445
    25       H     -0.053680    -0.035089     0.033395
    26       C     -0.014131    -0.056096     0.010526
    27       H      0.022334    -0.031337     0.000915
    28       H     -0.016128     0.013386     0.014664
    29       H      0.000067    -0.022580    -0.031975
    30       C      0.004601    -0.003765    -0.045624
    31       H      0.004267     0.007816    -0.014189
    32       H      0.004903    -0.022279    -0.014438
 
 DIPOLE           X         Y         Z       TOTAL
 POINT-CHG.    -0.987     1.691     3.048     3.623
 HYBRID        -0.021    -0.253    -0.483     0.546
 SUM           -1.008     1.438     2.565     3.108


          GRADIENT NORM =   0.23453


          TIME FOR SCF CALCULATION =    0.06

          TIME FOR DERIVATIVES     =    0.02

          MOLECULAR WEIGHT =  246.74



          ROTATIONAL CONSTANTS IN CM(-1)

          A =    0.02303575   B =    0.01117816   C =    0.00824592



           PRINCIPAL MOMENTS OF INERTIA IN UNITS OF 10**(-40)*GRAM-CM**2

          A =     1215.1885   B =     2504.2372   C =     3394.7432


          ORIENTATION OF MOLECULE IN FORCE CALCULATION

    NO.       ATOM         X         Y         Z

     1          C      -2.1744   -2.7579   -0.5313
     2          C      -0.7892   -2.7579   -0.5313
     3          C      -0.0772   -1.5341   -0.5313
     4          C      -0.7989   -0.3185   -0.5236
     5          C      -2.2129   -0.3394   -0.5358
     6          C      -2.8939   -1.5437   -0.5362
     7          H      -2.7218   -3.7024   -0.5307
     8          H      -0.2489   -3.7056   -0.5343
     9          H      -2.7445    0.6165   -0.5455
    10          H      -3.9835   -1.5645   -0.5420
    11          C      -0.0807    0.9648   -0.5273
    12          C       1.3706   -1.4586   -0.5508
    13          C       1.3482    0.9756   -0.5009
    14          H       1.8584    1.8525   -0.9175
    15          C       2.0523   -0.2860   -0.5777
    16          H       3.1431   -0.2581   -0.6338
    17          O      -0.7442    2.0600   -0.4153
    18         Cl       2.2595   -2.9432   -0.5721
    19          C      -0.5421    2.8865    1.2199
    20          C       0.8712    2.8134    1.3228
    21          H       1.4362    3.7162    1.0850
    22          C      -1.1744    4.1924    0.8231
    23          H      -0.4512    4.8528    0.2917
    24          H      -2.0225    3.9858    0.1211
    25          H      -1.5654    4.7218    1.7220
    26          C      -1.4259    1.9802    2.0362
    27          H      -1.1096    0.9135    1.9631
    28          H      -1.3694    2.2963    3.1057
    29          H      -2.4848    2.0440    1.6918
    30          C       1.5620    1.6063    1.3851
    31          H       2.6592    1.6284    1.4154
    32          H       1.1111    0.7224    1.8517


    FIRST DERIVATIVES WILL BE USED IN THE CALCULATION OF SECOND DERIVATIVES

          ESTIMATED TIME TO COMPLETE CALCULATION =       16.50 SECONDS

    FOR POINT-GROUP C1   THERE ARE   1 UNIQUE SYMMETRY FUNCTIONS.

 STEP:   1 TIME =     0.08 SECS, INTEGRAL =      0.08 TIME LEFT: 172799.84
 STEP:   2 TIME =     0.07 SECS, INTEGRAL =      0.15 TIME LEFT: 172799.77
 STEP:   3 TIME =     0.08 SECS, INTEGRAL =      0.23 TIME LEFT: 172799.69
 STEP:   4 TIME =     0.08 SECS, INTEGRAL =      0.30 TIME LEFT: 172799.61
 STEP:   5 TIME =     0.08 SECS, INTEGRAL =      0.38 TIME LEFT: 172799.53
 STEP:   6 TIME =     0.07 SECS, INTEGRAL =      0.45 TIME LEFT: 172799.46
 STEP:   7 TIME =     0.07 SECS, INTEGRAL =      0.52 TIME LEFT: 172799.39
 STEP:   8 TIME =     0.08 SECS, INTEGRAL =      0.60 TIME LEFT: 172799.31
 STEP:   9 TIME =     0.07 SECS, INTEGRAL =      0.67 TIME LEFT: 172799.24
 STEP:  10 TIME =     0.08 SECS, INTEGRAL =      0.75 TIME LEFT: 172799.16
 STEP:  11 TIME =     0.09 SECS, INTEGRAL =      0.84 TIME LEFT: 172799.08
 STEP:  12 TIME =     0.07 SECS, INTEGRAL =      0.91 TIME LEFT: 172799.01
 STEP:  13 TIME =     0.08 SECS, INTEGRAL =      0.98 TIME LEFT: 172798.93
 STEP:  14 TIME =     0.07 SECS, INTEGRAL =      1.05 TIME LEFT: 172798.86
 STEP:  15 TIME =     0.07 SECS, INTEGRAL =      1.12 TIME LEFT: 172798.79
 STEP:  16 TIME =     0.06 SECS, INTEGRAL =      1.19 TIME LEFT: 172798.73
 STEP:  17 TIME =     0.07 SECS, INTEGRAL =      1.26 TIME LEFT: 172798.66
 STEP:  18 TIME =     0.07 SECS, INTEGRAL =      1.33 TIME LEFT: 172798.59
 STEP:  19 TIME =     0.07 SECS, INTEGRAL =      1.40 TIME LEFT: 172798.52
 STEP:  20 TIME =     0.06 SECS, INTEGRAL =      1.46 TIME LEFT: 172798.45
 STEP:  21 TIME =     0.07 SECS, INTEGRAL =      1.53 TIME LEFT: 172798.38
 STEP:  22 TIME =     0.06 SECS, INTEGRAL =      1.59 TIME LEFT: 172798.32
 STEP:  23 TIME =     0.07 SECS, INTEGRAL =      1.66 TIME LEFT: 172798.25
 STEP:  24 TIME =     0.07 SECS, INTEGRAL =      1.73 TIME LEFT: 172798.18
 STEP:  25 TIME =     0.06 SECS, INTEGRAL =      1.80 TIME LEFT: 172798.12
 STEP:  26 TIME =     0.07 SECS, INTEGRAL =      1.87 TIME LEFT: 172798.05
 STEP:  27 TIME =     0.07 SECS, INTEGRAL =      1.94 TIME LEFT: 172797.98
 STEP:  28 TIME =     0.07 SECS, INTEGRAL =      2.01 TIME LEFT: 172797.91
 STEP:  29 TIME =     0.07 SECS, INTEGRAL =      2.08 TIME LEFT: 172797.84
 STEP:  30 TIME =     0.06 SECS, INTEGRAL =      2.14 TIME LEFT: 172797.77
 STEP:  31 TIME =     0.08 SECS, INTEGRAL =      2.22 TIME LEFT: 172797.70
 STEP:  32 TIME =     0.08 SECS, INTEGRAL =      2.30 TIME LEFT: 172797.62
 STEP:  33 TIME =     0.07 SECS, INTEGRAL =      2.37 TIME LEFT: 172797.55
 STEP:  34 TIME =     0.08 SECS, INTEGRAL =      2.45 TIME LEFT: 172797.47
 STEP:  35 TIME =     0.08 SECS, INTEGRAL =      2.52 TIME LEFT: 172797.39
 STEP:  36 TIME =     0.08 SECS, INTEGRAL =      2.60 TIME LEFT: 172797.31
 STEP:  37 TIME =     0.08 SECS, INTEGRAL =      2.68 TIME LEFT: 172797.23
 STEP:  38 TIME =     0.08 SECS, INTEGRAL =      2.76 TIME LEFT: 172797.16
 STEP:  39 TIME =     0.08 SECS, INTEGRAL =      2.84 TIME LEFT: 172797.08
 STEP:  40 TIME =     0.07 SECS, INTEGRAL =      2.91 TIME LEFT: 172797.01
 STEP:  41 TIME =     0.07 SECS, INTEGRAL =      2.98 TIME LEFT: 172796.94
 STEP:  42 TIME =     0.08 SECS, INTEGRAL =      3.05 TIME LEFT: 172796.86
 STEP:  43 TIME =     0.07 SECS, INTEGRAL =      3.12 TIME LEFT: 172796.79
 STEP:  44 TIME =     0.07 SECS, INTEGRAL =      3.20 TIME LEFT: 172796.72
 STEP:  45 TIME =     0.07 SECS, INTEGRAL =      3.27 TIME LEFT: 172796.65
 STEP:  46 TIME =     0.07 SECS, INTEGRAL =      3.34 TIME LEFT: 172796.58
 STEP:  47 TIME =     0.06 SECS, INTEGRAL =      3.40 TIME LEFT: 172796.52
 STEP:  48 TIME =     0.06 SECS, INTEGRAL =      3.46 TIME LEFT: 172796.45
 STEP:  49 TIME =     0.07 SECS, INTEGRAL =      3.53 TIME LEFT: 172796.38
 STEP:  50 TIME =     0.08 SECS, INTEGRAL =      3.61 TIME LEFT: 172796.30
 STEP:  51 TIME =     0.07 SECS, INTEGRAL =      3.68 TIME LEFT: 172796.23
 STEP:  52 TIME =     0.07 SECS, INTEGRAL =      3.75 TIME LEFT: 172796.16
 STEP:  53 TIME =     0.07 SECS, INTEGRAL =      3.82 TIME LEFT: 172796.09
 STEP:  54 TIME =     0.07 SECS, INTEGRAL =      3.89 TIME LEFT: 172796.02
 STEP:  55 TIME =     0.07 SECS, INTEGRAL =      3.96 TIME LEFT: 172795.95
 STEP:  56 TIME =     0.08 SECS, INTEGRAL =      4.04 TIME LEFT: 172795.88
 STEP:  57 TIME =     0.07 SECS, INTEGRAL =      4.11 TIME LEFT: 172795.80
 STEP:  58 TIME =     0.07 SECS, INTEGRAL =      4.18 TIME LEFT: 172795.73
 STEP:  59 TIME =     0.07 SECS, INTEGRAL =      4.25 TIME LEFT: 172795.66
 STEP:  60 TIME =     0.07 SECS, INTEGRAL =      4.32 TIME LEFT: 172795.59
 STEP:  61 TIME =     0.07 SECS, INTEGRAL =      4.39 TIME LEFT: 172795.52
 STEP:  62 TIME =     0.07 SECS, INTEGRAL =      4.46 TIME LEFT: 172795.45
 STEP:  63 TIME =     0.06 SECS, INTEGRAL =      4.52 TIME LEFT: 172795.39
 STEP:  64 TIME =     0.07 SECS, INTEGRAL =      4.59 TIME LEFT: 172795.32
 STEP:  65 TIME =     0.07 SECS, INTEGRAL =      4.66 TIME LEFT: 172795.25
 STEP:  66 TIME =     0.07 SECS, INTEGRAL =      4.73 TIME LEFT: 172795.18
 STEP:  67 TIME =     0.07 SECS, INTEGRAL =      4.80 TIME LEFT: 172795.11
 STEP:  68 TIME =     0.07 SECS, INTEGRAL =      4.88 TIME LEFT: 172795.04
 STEP:  69 TIME =     0.06 SECS, INTEGRAL =      4.94 TIME LEFT: 172794.98
 STEP:  70 TIME =     0.07 SECS, INTEGRAL =      5.01 TIME LEFT: 172794.91
 STEP:  71 TIME =     0.06 SECS, INTEGRAL =      5.07 TIME LEFT: 172794.84
 STEP:  72 TIME =     0.06 SECS, INTEGRAL =      5.13 TIME LEFT: 172794.78
 STEP:  73 TIME =     0.07 SECS, INTEGRAL =      5.20 TIME LEFT: 172794.71
 STEP:  74 TIME =     0.06 SECS, INTEGRAL =      5.27 TIME LEFT: 172794.65
 STEP:  75 TIME =     0.07 SECS, INTEGRAL =      5.34 TIME LEFT: 172794.58
 STEP:  76 TIME =     0.07 SECS, INTEGRAL =      5.41 TIME LEFT: 172794.51
 STEP:  77 TIME =     0.08 SECS, INTEGRAL =      5.48 TIME LEFT: 172794.43
 STEP:  78 TIME =     0.07 SECS, INTEGRAL =      5.55 TIME LEFT: 172794.36
 STEP:  79 TIME =     0.07 SECS, INTEGRAL =      5.62 TIME LEFT: 172794.29
 STEP:  80 TIME =     0.09 SECS, INTEGRAL =      5.71 TIME LEFT: 172794.20
 STEP:  81 TIME =     0.06 SECS, INTEGRAL =      5.77 TIME LEFT: 172794.14
 STEP:  82 TIME =     0.07 SECS, INTEGRAL =      5.84 TIME LEFT: 172794.07
 STEP:  83 TIME =     0.07 SECS, INTEGRAL =      5.91 TIME LEFT: 172794.00
 STEP:  84 TIME =     0.06 SECS, INTEGRAL =      5.98 TIME LEFT: 172793.94
 STEP:  85 TIME =     0.07 SECS, INTEGRAL =      6.05 TIME LEFT: 172793.87
 STEP:  86 TIME =     0.07 SECS, INTEGRAL =      6.12 TIME LEFT: 172793.80
 STEP:  87 TIME =     0.07 SECS, INTEGRAL =      6.19 TIME LEFT: 172793.73
 STEP:  88 TIME =     0.07 SECS, INTEGRAL =      6.26 TIME LEFT: 172793.66
 STEP:  89 TIME =     0.08 SECS, INTEGRAL =      6.34 TIME LEFT: 172793.58
 STEP:  90 TIME =     0.08 SECS, INTEGRAL =      6.41 TIME LEFT: 172793.50
 STEP:  91 TIME =     0.07 SECS, INTEGRAL =      6.48 TIME LEFT: 172793.43
 STEP:  92 TIME =     0.07 SECS, INTEGRAL =      6.55 TIME LEFT: 172793.36
 STEP:  93 TIME =     0.06 SECS, INTEGRAL =      6.62 TIME LEFT: 172793.30
 STEP:  94 TIME =     0.07 SECS, INTEGRAL =      6.69 TIME LEFT: 172793.23
 STEP:  95 TIME =     0.07 SECS, INTEGRAL =      6.76 TIME LEFT: 172793.16
 STEP:  96 TIME =     0.07 SECS, INTEGRAL =      6.83 TIME LEFT: 172793.09

(To convert to Hartree/Bohr^2, multiply by (10^(-21) x N x a0^2)/(4.184 x 627.51) =  0.0642)


           FORCE MATRIX IN MILLIDYNES/ANGSTROM


                  C  1       C  2       C  3       C  4       C  5       C  6
 ------------------------------------------------------------------------------
     C    1  14.212648
     C    2   6.015473  14.154618
     C    3   2.259065   4.761673  15.224179
     C    4   1.515015   1.980688   5.129379  14.970850
     C    5   2.399599   1.692254   2.028410   4.836052  14.280541
     C    6   5.047079   2.374331   1.556878   2.197803   6.088632  14.212331
     H    7   3.499264   0.668727   0.111703   0.019337   0.086914   0.648886
     H    8   0.688775   3.487511   0.651530   0.080356   0.008833   0.105079
     H    9   0.108352   0.019341   0.084471   0.672259   3.463685   0.650035
     H   10   0.665970   0.085119   0.006093   0.105605   0.673955   3.499895
     C   11   0.263817   0.243694   0.936849   3.574463   1.106651   0.338571
     C   12   0.386818   1.203794   4.253275   1.022756   0.300020   0.317675
     C   13   0.263793   0.307993   0.545866   0.921863   0.298360   0.261042
     H   14   0.017412   0.022758   0.038670   0.078589   0.015113   0.015613
     C   15   0.308378   0.384659   1.417141   0.537233   0.287981   0.290391
     H   16   0.007953   0.011043   0.116759   0.009933   0.009944   0.005581
     O   17   0.162338   0.163760   0.340274   1.549158   0.236834   0.175809
    Cl   18   0.007256   0.057749   0.844795   0.071272   0.016111   0.011092
     C   19   0.144774   0.157777   0.253597   0.350973   0.176002   0.149701
     C   20   0.154084   0.180135   0.295142   0.291489   0.162691   0.149880
     H   21   0.005765   0.007836   0.009938   0.008586   0.004514   0.003875
     C   22   0.008558   0.014122   0.018678   0.020987   0.008941   0.009271
     H   23   0.001682   0.002704   0.003709   0.003465   0.003521   0.001551
     H   24   0.002273   0.003477   0.004799   0.005849   0.003405   0.003010
     H   25   0.001002   0.002030   0.002801   0.001746   0.000820   0.001084
     C   26   0.019279   0.022331   0.030874   0.055116   0.021376   0.024752
     H   27   0.005749   0.006375   0.008889   0.011877   0.010919   0.008969
     H   28   0.001940   0.002961   0.003955   0.004416   0.002371   0.001925
     H   29   0.003255   0.004444   0.004877   0.007107   0.005381   0.005753
     C   30   0.172144   0.209174   0.346946   0.274054   0.169365   0.161059
     H   31   0.005237   0.006273   0.010346   0.009645   0.005169   0.005167
     H   32   0.011476   0.014531   0.027286   0.021513   0.011593   0.011469


                  H  7       H  8       H  9       H 10       C 11       C 12
 ------------------------------------------------------------------------------
     H    7   4.316056
     H    8   0.036103   4.328166
     H    9   0.010381   0.014084   4.273877
     H   10   0.028500   0.009421   0.034915   4.327991
     C   11   0.022964   0.015223   0.086322   0.011324  14.407901
     C   12   0.012091   0.047795   0.011368   0.020075   0.518009  14.196440
     C   13   0.012146   0.018688   0.017825   0.012266   4.801930   1.422743
     H   14   0.001839   0.002617   0.002152   0.001623   0.683260   0.070378
     C   15   0.005411   0.030273   0.009080   0.013148   1.013286   7.620067
     H   16   0.001622   0.006600   0.001481   0.002978   0.063843   0.705944
     O   17   0.004650   0.011622   0.047969   0.008778   6.047680   0.277632
    Cl   18   0.005831   0.117220   0.004602   0.006760   0.042966   2.710057
     C   19   0.008036   0.010409   0.025704   0.008557   2.267355   0.268081
     C   20   0.010032   0.013655   0.016790   0.009676   1.633197   0.341272
     H   21   0.001884   0.002097   0.001081   0.001512   0.039650   0.014832
     C   22   0.003208   0.004712   0.008688   0.004120   0.078211   0.026675
     H   23   0.000693   0.000999   0.003065   0.000717   0.012278   0.005487
     H   24   0.000759   0.001023   0.003818   0.001134   0.029850   0.006263
     H   25   0.000636   0.000876   0.001152   0.000765   0.012275   0.004318
     C   26   0.003641   0.006166   0.010751   0.005439   0.220536   0.033967
     H   27   0.001469   0.002363   0.009424   0.001913   0.062561   0.009585
     H   28   0.000864   0.001212   0.001317   0.000974   0.025664   0.005918
     H   29   0.001100   0.001526   0.015379   0.001853   0.030257   0.005590
     C   30   0.010754   0.018302   0.012999   0.011269   1.885889   0.435868
     H   31   0.000835   0.001645   0.000722   0.000729   0.084119   0.013766
     H   32   0.000412   0.006471   0.001472   0.000704   0.120966   0.039259


                  C 13       H 14       C 15       H 16       O 17      Cl 18
 ------------------------------------------------------------------------------
     C   13  12.955932
     H   14   3.408777   4.264113
     C   15   4.408093   0.650638  15.111686
     H   16   0.626919   0.026045   3.474783   4.293243
     O   17   2.146547   0.166093   0.240886   0.017712   8.231947
    Cl   18   0.126223   0.016853   1.065629   0.059121   0.025103   4.422285
     C   19   1.367985   0.148043   0.275726   0.010148   2.346633   0.033151
     C   20   1.965361   0.154767   0.437710   0.014800   1.990548   0.043658
     H   21   0.051318   0.020166   0.010880   0.002763   0.055871   0.007027
     C   22   0.096068   0.015681   0.038893   0.003755   0.452281   0.014205
     H   23   0.020947   0.003856   0.006942   0.000985   0.013199   0.003096
     H   24   0.025474   0.004454   0.008901   0.000801   0.024307   0.003256
     H   25   0.014776   0.002256   0.005721   0.000640   0.027885   0.002577
     C   26   0.154587   0.016276   0.042726   0.003707   0.574258   0.014520
     H   27   0.026504   0.003206   0.011442   0.001365   0.030052   0.004936
     H   28   0.024194   0.003143   0.006547   0.000934   0.048467   0.003272
     H   29   0.019230   0.002882   0.007463   0.000971   0.021766   0.003606
     C   30   2.456199   0.459556   0.838125   0.024784   1.626919   0.050789
     H   31   0.345241   0.028519   0.023808   0.012807   0.069134   0.005150
     H   32   0.417453   0.007291   0.062976   0.004732   0.106467   0.011345


                  C 19       C 20       H 21       C 22       H 23       H 24
 ------------------------------------------------------------------------------
     C   19  13.623965
     C   20   5.125797  13.778538
     H   21   0.689880   3.444822   4.307186
     C   22   3.714904   0.851611   0.039127  11.414073
     H   23   0.647492   0.029024   0.042218   3.346859   4.273090
     H   24   0.690686   0.046794   0.004665   3.283543   0.571057   4.219916
     H   25   0.653444   0.029757   0.006149   3.311712   0.558480   0.561359
     C   26   3.632423   0.803397   0.060754   0.727904   0.048322   0.016857
     H   27   0.640249   0.034515   0.005182   0.044918   0.007827   0.002282
     H   28   0.657352   0.043682   0.007750   0.025046   0.002047   0.004529
     H   29   0.664105   0.050052   0.008185   0.024662   0.003268   0.029818
     C   30   2.067293   5.995897   0.751573   0.126684   0.022703   0.031704
     H   31   0.085650   0.659496   0.041162   0.015441   0.002529   0.002445
     H   32   0.147113   0.672598   0.085652   0.015297   0.003197   0.003146


                  H 25       C 26       H 27       H 28       H 29       C 30
 ------------------------------------------------------------------------------
     H   25   4.244308
     C   26   0.019417  11.417103
     H   27   0.002693   3.319111   4.245753
     H   28   0.021658   3.295548   0.566228   4.226220
     H   29   0.018568   3.340918   0.576135   0.560222   4.270800
     C   30   0.015163   0.180879   0.037283   0.035650   0.017632  12.177407
     H   31   0.002327   0.008841   0.003193   0.002188   0.001833   3.462582
     H   32   0.002348   0.020967   0.039581   0.005321   0.002365   3.460668


                  H 31       H 32
 ------------------------------
     H   31   4.257429
     H   32   0.548261   4.256481


          HEAT OF FORMATION =      23.387618 KCALS/MOLE


          TRIVIAL VIBRATIONS, SHOULD BE ZERO

  41.9458=TX -23.7118=TY  -6.1276=TZ  15.0886=RX -42.4302=RY  15.2351=RZ


      MOLECULAR POINT GROUP   :   C1  


           EIGENVECTORS  


   Root No.       1         2         3         4         5         6         7         8

                 1 A       2 A       3 A       4 A       5 A       6 A       7 A       8 A   

                  -4.0       0.0       0.0       0.0       0.0       0.0       0.0       0.1
  
           1   -0.0194   -0.0676   -0.0002    0.0172   -0.0290   -0.0350    0.0242    0.0093
           2    0.0110    0.0840    0.0095    0.0724   -0.0104    0.0871   -0.0296    0.0937
           3   -0.0004    0.0098   -0.0412    0.2157   -0.0745    0.0124   -0.0579   -0.0011
           4    0.0214   -0.0677   -0.0000    0.0172   -0.0288   -0.0341    0.0228    0.0111
           5    0.0096    0.0417    0.0052    0.0624   -0.0130    0.0303   -0.0009    0.0750
           6    0.0001    0.0900   -0.0049    0.1716   -0.0461   -0.1488   -0.1078   -0.0371
           7   -0.0269   -0.0306    0.0035    0.0261   -0.0263    0.0164   -0.0001    0.0256
           8   -0.0176    0.0208    0.0029    0.0572   -0.0145    0.0006    0.0132    0.0649
           9    0.0041    0.0655    0.0113    0.0084    0.0053   -0.0861    0.0115   -0.0220
          10   -0.0255    0.0044    0.0066    0.0338   -0.0234    0.0629   -0.0185    0.0233
          11   -0.0459    0.0408    0.0047    0.0622   -0.0128    0.0251    0.0043    0.0591
          12   -0.0179   -0.0307   -0.0090   -0.0724    0.0248    0.0204    0.0215   -0.0556
          13    0.0177    0.0040    0.0068    0.0339   -0.0230    0.0610   -0.0197    0.0244
          14    0.0014    0.0842    0.0095    0.0714   -0.0103    0.0864   -0.0280    0.0879
          15   -0.0073   -0.1098   -0.0433   -0.0665    0.0024    0.1738    0.1192   -0.0229
          16   -0.0034   -0.0320    0.0033    0.0252   -0.0260    0.0118    0.0031    0.0132
          17   -0.0273    0.1052    0.0115    0.0766   -0.0089    0.1155   -0.0412    0.0964
          18    0.0003   -0.0930   -0.0607    0.0789   -0.0478    0.2097    0.1171    0.0297
          19    0.0011   -0.0969   -0.0031    0.0104   -0.0311   -0.0755    0.0441   -0.0012
          20   -0.0029    0.1012    0.0112    0.0765   -0.0092    0.1104   -0.0414    0.1007
          21    0.0002    0.0251   -0.0554    0.3585   -0.1200   -0.0085   -0.1585    0.0044
          22   -0.0002   -0.0966   -0.0031    0.0107   -0.0312   -0.0730    0.0400    0.0010
          23   -0.0028    0.0253    0.0034    0.0587   -0.0143    0.0082    0.0098    0.0712
          24    0.0017    0.1684    0.0104    0.2734   -0.0681   -0.3175   -0.2663   -0.0894
          25    0.0012    0.0353    0.0102    0.0407   -0.0217    0.1024   -0.0454    0.0476
          26   -0.0024    0.1012    0.0117    0.0740   -0.0102    0.1110   -0.0424    0.1025
          27    0.0005   -0.1836   -0.0567   -0.1731    0.0197    0.2744    0.1987   -0.0292
          28   -0.0034   -0.0321    0.0034    0.0251   -0.0259    0.0101    0.0028    0.0131
          29    0.0002    0.1372    0.0148    0.0842   -0.0061    0.1644   -0.0630    0.1113
          30    0.0010   -0.1583   -0.0897    0.0959   -0.0700    0.3902    0.2427    0.0979
          31   -0.1004    0.0390    0.0090    0.0426   -0.0198    0.1050   -0.0327    0.0119
          32    0.0798    0.0212    0.0026    0.0577   -0.0156   -0.0011    0.0153    0.0574
          33   -0.0327   -0.0497    0.0018   -0.1055    0.0429   -0.0003   -0.0657   -0.0701
          34    0.0367   -0.0281    0.0044    0.0259   -0.0258    0.0201   -0.0008    0.0275
          35    0.0270   -0.0174   -0.0000    0.0457   -0.0166   -0.0409    0.0212    0.0769
          36   -0.0044    0.1271    0.0451   -0.0664    0.0254   -0.0676    0.1297    0.0323
          37    0.1195    0.0383    0.0100    0.0409   -0.0186    0.1040   -0.0323    0.0143
          38    0.1585   -0.0120    0.0023    0.0423   -0.0143   -0.0333    0.0150    0.0771
          39    0.5053   -0.0428    0.0230   -0.0762    0.0083    0.0899   -0.1223   -0.0915
          40   -0.0015    0.0634    0.0142    0.0593   -0.0302    0.1569   -0.0496   -0.0023
          41   -0.0094   -0.0471   -0.0063    0.0635   -0.0263   -0.0594    0.0132    0.1010
          42   -0.0601   -0.0837    0.0080   -0.0063   -0.0321    0.0940   -0.1400   -0.0598
          43    0.0160    0.0040    0.0077    0.0331   -0.0233    0.0624   -0.0122    0.0208
          44   -0.0225   -0.0369   -0.0024    0.0409   -0.0184   -0.0624    0.0256    0.0791
          45    0.0591    0.0553    0.0458   -0.1083    0.0179    0.0860   -0.0055   -0.0950
          46    0.0096    0.0066    0.0091    0.0303   -0.0229    0.0687   -0.0099    0.0183
          47   -0.0020   -0.0725   -0.0058    0.0350   -0.0224   -0.0997    0.0330    0.0888
          48   -0.0014    0.0845    0.0681   -0.1611    0.0214    0.1784    0.0368   -0.1437
          49   -0.0008    0.0601    0.0064    0.0576   -0.0199    0.1221   -0.0170   -0.0147
          50   -0.2002    0.0352    0.0034    0.0653   -0.0154    0.0179    0.0245    0.0235
          51   -0.3252   -0.0645   -0.0091   -0.0982    0.0555   -0.0758   -0.0758    0.0058
          52   -0.0035   -0.0712    0.0005    0.0138   -0.0297   -0.0298    0.0170    0.0352
          53    0.0037   -0.0461   -0.0030    0.0396   -0.0196   -0.0689    0.0249    0.0775
          54   -0.0126    0.3133    0.0886   -0.1186    0.0619   -0.2085    0.6067    0.3803
          55    0.1252    0.0068   -0.0162   -0.0253    0.0275   -0.0377    0.0049   -0.0059
          56    0.1972   -0.0372   -0.0172   -0.0595    0.0014   -0.0279    0.0069   -0.0620
          57    0.3504   -0.0043   -0.0141   -0.0013    0.0188   -0.0587   -0.0245    0.0583
          58   -0.1331    0.0162   -0.0147   -0.0325    0.0323   -0.0386    0.0022   -0.0101
          59    0.0693    0.0605    0.0089   -0.0893    0.0266    0.0308   -0.0253   -0.1037
          60   -0.0185   -0.0754   -0.0050    0.0588   -0.0177   -0.0005   -0.0387    0.0677
          61    0.0017   -0.0545   -0.0326   -0.0109    0.0060   -0.0675    0.0164    0.0270
          62   -0.0207    0.0915    0.0195   -0.0754    0.0364    0.0482   -0.0243   -0.1076
          63   -0.0113   -0.1289   -0.0052    0.1617   -0.0459    0.0002   -0.0100    0.1649
          64   -0.0010   -0.1247   -0.0235    0.0209   -0.0016   -0.1038    0.0676   -0.0349
          65    0.0257   -0.0784   -0.0151   -0.0143   -0.0066   -0.0683    0.0694   -0.1313
          66    0.0362    0.0777    0.0024    0.0771    0.0296   -0.0892    0.0873   -0.1112
          67   -0.0030   -0.1856   -0.1612    0.0315   -0.0295   -0.1450    0.0974   -0.0373
          68    0.0007    0.0496   -0.2395   -0.0340   -0.0098   -0.0591    0.0844   -0.1977
          69    0.0008    0.1553   -0.4686    0.0655   -0.0123   -0.1325    0.1444   -0.1959
          70    0.0225   -0.0787   -0.3774   -0.0266   -0.0326   -0.1097    0.0429    0.0130
          71   -0.0241   -0.1226   -0.0163    0.0653   -0.0202   -0.1343    0.1944   -0.2984
          72    0.0176    0.0331    0.4401    0.1142    0.0721   -0.0642    0.0867   -0.1343
          73   -0.0195   -0.2203    0.4898    0.1004    0.0360   -0.1104    0.1214   -0.1196
          74    0.0323   -0.1949    0.2198   -0.0288    0.0047   -0.0545    0.0079   -0.0134
          75    0.0040    0.1055    0.0881    0.1209    0.0386   -0.1015    0.1511   -0.2273
          76    0.0049    0.1160    0.0014   -0.0943    0.0456   -0.0234   -0.0461    0.0245
          77    0.0007   -0.1530   -0.0250   -0.1168    0.0075   -0.0752   -0.0301   -0.0122
          78   -0.0040   -0.0149   -0.0018   -0.1428    0.0449   -0.0916   -0.1258    0.1459
          79    0.0069    0.1622   -0.0254   -0.0060    0.3570    0.0253   -0.0637    0.0381
          80    0.0092   -0.1326   -0.0296   -0.0949    0.0737   -0.0612   -0.0325   -0.0136
          81   -0.0084   -0.1311   -0.0559   -0.0756    0.4768   -0.0919   -0.1862    0.2407
          82   -0.0142    0.1841    0.0660   -0.3079   -0.3639   -0.0650   -0.1075    0.0779
          83   -0.0131   -0.2456   -0.0629   -0.1022    0.3641   -0.0851   -0.1120    0.0918
          84    0.0108    0.0089    0.0060   -0.1365   -0.0388   -0.0871   -0.1008    0.1185
          85    0.0134    0.0857   -0.0164   -0.0395    0.1304   -0.0181   -0.0254    0.0058
          86    0.0088   -0.1809    0.0089   -0.1945   -0.3817   -0.1163    0.0150   -0.0585
          87   -0.0125    0.0741    0.0606   -0.3292   -0.2931   -0.1135   -0.1878    0.2062
          88   -0.0298    0.0940    0.0029   -0.0425    0.0643    0.0054   -0.0065   -0.0626
          89   -0.2482    0.1067    0.0180   -0.0977    0.0442    0.0525   -0.0258   -0.1462
          90   -0.5040   -0.0699   -0.0000   -0.0048   -0.0297    0.0457   -0.0717   -0.0392
          91   -0.0180    0.0943    0.0027   -0.0439    0.0662    0.0038   -0.0063   -0.0649
          92    0.0002    0.1762    0.0365   -0.1085    0.0788    0.1031   -0.0389   -0.2124
          93   -0.0102   -0.1325    0.0065    0.0409   -0.0818    0.0929   -0.0961    0.0291
          94    0.0058    0.1723    0.0157   -0.0674    0.1189    0.0284   -0.0131   -0.1293
          95    0.0035    0.0947    0.0189   -0.1351    0.0395    0.0562   -0.0423   -0.1790
          96    0.0389   -0.0205    0.0149   -0.0988    0.0116    0.0759   -0.1122   -0.1566


   Root No.       9        10        11        12        13        14        15        16

                 9 A      10 A      11 A      12 A      13 A      14 A      15 A      16 A   

                   0.1       0.1       0.1       0.2       0.2       0.2       0.2       0.3
  
           1   -0.0065   -0.0325    0.0010    0.0196   -0.0048   -0.0004   -0.0094    0.0071
           2    0.0386   -0.0254   -0.0138    0.0442   -0.0556   -0.0107    0.0040   -0.0261
           3   -0.1046    0.0290   -0.0280   -0.0171   -0.0028   -0.1091    0.0281   -0.0463
           4   -0.0057   -0.0325   -0.0014    0.0199   -0.0058   -0.0007   -0.0046    0.0034
           5    0.0183    0.0194    0.0392    0.0514   -0.0438   -0.0085   -0.0476   -0.0255
           6    0.1688   -0.0342    0.0466    0.0256   -0.0036    0.0788   -0.0134   -0.0208
           7    0.0120   -0.0679   -0.0436    0.0116   -0.0160   -0.0030    0.0356    0.0028
           8    0.0080    0.0393    0.0632    0.0523   -0.0373   -0.0070   -0.0693   -0.0199
           9    0.2027   -0.0296    0.0337   -0.0590   -0.0275    0.0641    0.0236   -0.1875
          10    0.0210   -0.0980   -0.0775   -0.0069    0.0041   -0.0006    0.0600    0.0220
          11    0.0102    0.0219    0.0461    0.0408   -0.0207   -0.0042   -0.0573   -0.0086
          12    0.2139   -0.0178    0.0244   -0.0464   -0.0237   -0.0790    0.0403   -0.1784
          13    0.0209   -0.1004   -0.0805   -0.0088    0.0039   -0.0003    0.0650    0.0226
          14    0.0356   -0.0238   -0.0102    0.0411   -0.0458   -0.0082   -0.0037   -0.0205
          15    0.2412   -0.0466    0.0635    0.0358    0.0006   -0.1133    0.0243   -0.0136
          16    0.0056   -0.0662   -0.0379    0.0043    0.0058    0.0003    0.0244    0.0182
          17    0.0466   -0.0463   -0.0366    0.0360   -0.0520   -0.0097    0.0235   -0.0187
          18   -0.0415    0.0075   -0.0005   -0.0209   -0.0096    0.1067   -0.0122   -0.0396
          19   -0.0214   -0.0017    0.0403    0.0297    0.0013    0.0017   -0.0541    0.0055
          20    0.0476   -0.0443   -0.0369    0.0398   -0.0612   -0.0130    0.0296   -0.0252
          21   -0.3937    0.1028   -0.1097   -0.0180    0.0139   -0.5528    0.1062   -0.0115
          22   -0.0183   -0.0044    0.0372    0.0353   -0.0078    0.0008   -0.0470    0.0020
          23    0.0105    0.0360    0.0617    0.0597   -0.0472   -0.0090   -0.0737   -0.0263
          24    0.3407   -0.0811    0.1244    0.1876    0.0274    0.3098   -0.1146    0.2351
          25    0.0380   -0.1472   -0.1359   -0.0109   -0.0183    0.0003    0.1331    0.0172
          26    0.0480   -0.0510   -0.0408    0.0428   -0.0604   -0.0105    0.0351   -0.0226
          27    0.4650   -0.1054    0.1510    0.1846    0.0374   -0.3820    0.0433    0.2052
          28    0.0063   -0.0673   -0.0381    0.0042    0.0055   -0.0021    0.0253    0.0198
          29    0.0655   -0.0874   -0.0851    0.0276   -0.0598   -0.0097    0.0786   -0.0160
          30   -0.2303    0.0372   -0.0249   -0.0437   -0.0191    0.5765   -0.1121    0.0058
          31    0.0250   -0.0923   -0.0741   -0.0218    0.0278    0.0010    0.0208    0.0211
          32    0.0023    0.0198    0.0455    0.0293   -0.0175   -0.0016   -0.0383    0.0200
          33    0.0711    0.0596   -0.0180   -0.0511   -0.0377   -0.0467    0.0110   -0.1898
          34    0.0124   -0.0671   -0.0449    0.0154   -0.0161   -0.0034    0.0370   -0.0045
          35    0.0080    0.0713    0.0751    0.0576   -0.0656   -0.0103   -0.0482   -0.0464
          36    0.0641    0.0053    0.0254   -0.0134   -0.0217    0.0502    0.0127   -0.1447
          37    0.0267   -0.0902   -0.0741   -0.0211    0.0327    0.0013    0.0234    0.0073
          38    0.0137    0.0666    0.0536    0.0598   -0.0480   -0.0062   -0.0163   -0.0533
          39   -0.0021    0.0767    0.0432   -0.0172   -0.0578    0.0073    0.0356   -0.2789
          40   -0.0071   -0.1498   -0.0776   -0.0357    0.0661    0.0260    0.0352    0.0781
          41    0.0088    0.0825    0.0800    0.0049   -0.0948   -0.0090   -0.0361   -0.0447
          42   -0.0600    0.0310    0.0931   -0.1711   -0.1123    0.0327    0.0041   -0.1309
          43    0.0131   -0.0756   -0.0496    0.0164    0.0040   -0.0042    0.0149    0.0036
          44    0.0044    0.0768    0.0771    0.0538   -0.0785   -0.0109   -0.0348   -0.0413
          45   -0.0813    0.0722    0.0642    0.1686   -0.0018    0.0147   -0.0255   -0.0575
          46    0.0013   -0.0738   -0.0493    0.0381    0.0097   -0.0072    0.0092    0.0233
          47    0.0016    0.0986    0.1033    0.0826   -0.1303   -0.0173   -0.0309   -0.0859
          48   -0.3087    0.1506    0.1203    0.6003    0.0673   -0.0392   -0.1622    0.2833
          49    0.0324   -0.0843   -0.0378   -0.0592    0.0650   -0.0071   -0.0450    0.0480
          50    0.0115    0.0187    0.0734    0.0348    0.0080   -0.0061   -0.0680   -0.0084
          51    0.0172    0.0936   -0.0706    0.0141   -0.0424   -0.0369   -0.0381   -0.1221
          52    0.0010   -0.0402   -0.0191    0.0378   -0.0602   -0.0093    0.0486   -0.0247
          53    0.0033    0.0888    0.0930    0.0768   -0.0948   -0.0123   -0.0427   -0.0638
          54   -0.0626   -0.0154   -0.0745   -0.1586   -0.0211   -0.0894    0.0392   -0.0050
          55   -0.0152    0.0299    0.0707   -0.0594    0.0439   -0.0394   -0.1914   -0.0208
          56   -0.0349   -0.0393    0.0638   -0.1624    0.0882   -0.0135   -0.0268    0.1360
          57    0.0020    0.0527   -0.0798   -0.1862   -0.0809   -0.0164   -0.0826    0.3169
          58   -0.0160    0.0282    0.0690   -0.0427    0.0346   -0.0401   -0.1884   -0.0289
          59   -0.0252    0.0104    0.0500   -0.1250    0.0834   -0.0001    0.0221    0.0735
          60    0.0406    0.1499   -0.0463   -0.0949    0.0821    0.0038   -0.0266    0.0765
          61   -0.0355   -0.0121    0.1590   -0.0686    0.0822   -0.0590   -0.2510   -0.0450
          62    0.0103    0.0983   -0.0232   -0.1022    0.2032    0.0223    0.0862    0.0599
          63    0.1310    0.3840   -0.0815   -0.0337    0.6918    0.0456    0.0988   -0.0839
          64   -0.0008    0.1127    0.0144    0.0132   -0.0703    0.0068    0.0082    0.0291
          65   -0.0384   -0.0418    0.0316   -0.0642    0.0576    0.0123    0.0835    0.0669
          66   -0.0472   -0.0955   -0.0570   -0.0349   -0.0015   -0.0054   -0.0557    0.0985
          67    0.0176    0.2138   -0.0217    0.0786   -0.2004    0.0579    0.2467    0.0973
          68   -0.0751   -0.1721    0.0603   -0.0599    0.1864   -0.0149   -0.0585   -0.0622
          69   -0.0684   -0.1344   -0.0754    0.0609   -0.0047    0.0230    0.0538    0.0108
          70    0.0166    0.1760    0.0062   -0.0137   -0.1175    0.0074    0.0174    0.1069
          71   -0.0669   -0.0803    0.0022    0.1317    0.0104    0.0908    0.4339   -0.0968
          72   -0.0626   -0.1639   -0.0421   -0.0475    0.0641   -0.0231   -0.1438    0.0449
          73   -0.0172    0.0792    0.0122    0.0978   -0.0839    0.0336    0.1222   -0.0703
          74    0.0023    0.0958    0.0153   -0.1792   -0.0423    0.0172    0.1427    0.3311
          75   -0.0832   -0.2049   -0.0499    0.0672    0.0615    0.0041   -0.0417   -0.0993
          76   -0.0610    0.0154    0.2041   -0.0442    0.0671   -0.0036   -0.0139   -0.0164
          77   -0.0397   -0.1001   -0.0829   -0.0386    0.0854   -0.0092   -0.0934    0.0177
          78   -0.0491   -0.0324   -0.0905   -0.0049   -0.0553    0.0223    0.0325    0.1355
          79   -0.0853    0.0513    0.3849   -0.1073    0.0882    0.0235    0.1945    0.0814
          80   -0.0458   -0.0893   -0.0330   -0.0629    0.0963   -0.0039   -0.0451    0.0483
          81   -0.0822   -0.1352   -0.1608    0.1475   -0.0274    0.0486    0.0512    0.0000
          82   -0.0951   -0.0250    0.2071    0.1006    0.1495    0.0527    0.1574   -0.2066
          83   -0.0891   -0.2242   -0.1464    0.1515    0.1605    0.0309   -0.0468   -0.2042
          84   -0.0358    0.0006   -0.0782   -0.0660   -0.0788    0.0117    0.0166    0.2209
          85   -0.0495    0.0292    0.1992   -0.0779    0.0558   -0.0230   -0.0860    0.0033
          86    0.0048   -0.0964   -0.2588   -0.0292    0.0733   -0.0528   -0.3408   -0.0189
          87   -0.0818   -0.0714   -0.0783    0.1104   -0.0042    0.0838    0.2556    0.0551
          88    0.0372    0.1337   -0.1041   -0.0033   -0.0194   -0.0131   -0.1328   -0.0428
          89   -0.0072    0.0630   -0.0422   -0.1089    0.0351    0.0179    0.0479    0.1042
          90   -0.0483    0.0022    0.0852   -0.1844   -0.1022    0.0037   -0.0495    0.1002
          91    0.0394    0.1433   -0.1118   -0.0000   -0.0239   -0.0139   -0.1443   -0.0506
          92    0.0613    0.2220   -0.2692   -0.0429   -0.0030    0.0689    0.1652    0.0448
          93   -0.0754   -0.1189    0.2384   -0.1599   -0.0066    0.0138    0.0672   -0.0526
          94    0.1079    0.3156   -0.3263    0.0588   -0.1029    0.0169   -0.1107   -0.1092
          95   -0.0387   -0.0074    0.0448   -0.1431   -0.0293   -0.0018    0.0262    0.0330
          96   -0.0395    0.0319    0.0528   -0.1739   -0.3032   -0.0082   -0.0662   -0.1261


   Root No.      17        18        19        20        21        22        23        24

                17 A      18 A      19 A      20 A      21 A      22 A      23 A      24 A   

                   0.3       0.4       0.5       0.5       0.6       0.6       0.7       0.8
  
           1    0.0256    0.0697   -0.0353   -0.0317    0.0396   -0.0489   -0.0836    0.0011
           2   -0.0265    0.0139   -0.0193   -0.0138    0.0244   -0.0515   -0.0181   -0.0050
           3   -0.0493    0.0887    0.0426    0.0004   -0.0707    0.0806   -0.0478   -0.0251
           4    0.0148    0.0533   -0.0308   -0.0282    0.0338   -0.0448   -0.0719    0.0011
           5    0.0821    0.1158   -0.0380   -0.0061    0.0372   -0.0511    0.0110   -0.0059
           6   -0.0577    0.0929    0.0507    0.0007   -0.0855    0.0920   -0.0414   -0.0281
           7   -0.0770   -0.0444    0.0002   -0.0216   -0.0031   -0.0198   -0.0294   -0.0003
           8    0.1257    0.1576   -0.0455   -0.0065    0.0445   -0.0484   -0.0051   -0.0050
           9   -0.1910    0.2868    0.1022    0.0072   -0.1214    0.1242   -0.0244   -0.0253
          10   -0.0863   -0.0607    0.0033   -0.0192    0.0017    0.0116   -0.0350    0.0043
          11    0.1213    0.1478   -0.0412   -0.0089    0.0333   -0.0184    0.0282    0.0019
          12   -0.2082    0.2585    0.0784   -0.0112   -0.0178    0.0645   -0.0267    0.0141
          13   -0.0984   -0.0696    0.0039   -0.0230   -0.0003    0.0085   -0.0526    0.0063
          14    0.0018    0.0439   -0.0286   -0.0170    0.0345   -0.0463   -0.0190   -0.0010
          15   -0.0457    0.0907    0.0466   -0.0022   -0.0568    0.0697   -0.0440   -0.0074
          16   -0.0202    0.0183   -0.0224   -0.0309    0.0271   -0.0157   -0.0660    0.0072
          17   -0.0587   -0.0171   -0.0110   -0.0164    0.0179   -0.0343   -0.0165   -0.0002
          18   -0.0587    0.0811    0.0401   -0.0014   -0.0631    0.0756   -0.0491   -0.0201
          19    0.1302    0.1903   -0.0777   -0.0419    0.0980   -0.1182   -0.2457   -0.0068
          20   -0.0868   -0.0504    0.0016   -0.0114   -0.0039   -0.0211    0.0672   -0.0008
          21    0.0674   -0.0511   -0.0336    0.0062    0.0501   -0.0659    0.0418    0.0185
          22    0.0940    0.1594   -0.0649   -0.0463    0.0676   -0.0813    0.0430    0.0197
          23    0.1321    0.1824   -0.0590   -0.0157    0.0577   -0.0760    0.0829    0.0034
          24    0.1514   -0.2749   -0.0874   -0.0115    0.1207   -0.1064    0.0324    0.0283
          25   -0.2673   -0.2133    0.0299   -0.0544   -0.0064   -0.0251   -0.3161    0.0082
          26   -0.0911   -0.0386   -0.0165   -0.0357    0.0353   -0.0721   -0.1670   -0.0009
          27    0.2295   -0.2190   -0.0554    0.0144    0.0096   -0.0470    0.0267    0.0010
          28   -0.0214    0.0218   -0.0238   -0.0341    0.0291   -0.0183   -0.0813    0.0075
          29   -0.1763   -0.1378    0.0153   -0.0232   -0.0043   -0.0146    0.0137    0.0197
          30    0.0043   -0.0964   -0.0533   -0.0056    0.0922   -0.0836    0.0439    0.0219
          31    0.0383    0.0491   -0.0234    0.0119    0.0164    0.0111    0.0378   -0.0085
          32    0.0729    0.0898   -0.0150   -0.0153    0.0049    0.0129    0.0196    0.0064
          33   -0.1353    0.0312   -0.0529   -0.0300    0.2786   -0.0825    0.0449    0.0690
          34   -0.0769   -0.0514    0.0001   -0.0174   -0.0058   -0.0243   -0.0162   -0.0022
          35    0.0315    0.0159    0.0082    0.0354   -0.0008    0.0131    0.0008   -0.0161
          36   -0.1170    0.1812    0.0522    0.0157   -0.0727    0.0523    0.0375   -0.0171
          37    0.0626    0.0601   -0.0207    0.0333    0.0405    0.0008    0.0555   -0.0095
          38   -0.0031   -0.0272    0.0128    0.0503    0.0267    0.0347    0.0042   -0.0095
          39    0.0758   -0.0672   -0.0782    0.0076    0.1929   -0.0408    0.0330    0.0301
          40    0.2301    0.1460   -0.0768   -0.0248    0.0946    0.2839    0.3465   -0.0077
          41    0.0114   -0.1493    0.0525    0.0055   -0.0433    0.1973   -0.2604   -0.0273
          42    0.3014   -0.2211   -0.0427   -0.1655    0.0931    0.6433   -0.1775    0.0015
          43    0.0087    0.0362   -0.0215   -0.0008    0.0187   -0.0414   -0.0129   -0.0128
          44   -0.0281   -0.0506    0.0297    0.0285   -0.0259    0.0304   -0.0109   -0.0113
          45   -0.0686    0.0706    0.0040    0.0076    0.0113   -0.0035    0.0389    0.0022
          46    0.0057    0.0376   -0.0209   -0.0030    0.0195   -0.0385   -0.0089   -0.0145
          47   -0.1364   -0.1780    0.0745    0.0165   -0.0969    0.0239   -0.1041   -0.0207
          48   -0.1634    0.0243    0.0619   -0.0533   -0.0307    0.0728   -0.0718   -0.0024
          49    0.1358    0.1785   -0.0228    0.0005   -0.1360    0.0093    0.0517   -0.0081
          50    0.1282    0.1821   -0.0239   -0.0407   -0.0752    0.0128    0.0291    0.0193
          51   -0.1917   -0.0473   -0.1550   -0.0629    0.5668   -0.0767    0.1190    0.0885
          52   -0.2262   -0.2295    0.0834   -0.0158   -0.1726    0.1265    0.5835    0.0397
          53   -0.0649   -0.0868    0.0598    0.0350   -0.1010    0.1047    0.3497    0.0077
          54    0.1667   -0.1845   -0.0622   -0.0097    0.0723   -0.0340   -0.0026    0.0113
          55   -0.0339   -0.0386   -0.0128    0.0731   -0.0047    0.0143   -0.0071   -0.0022
          56   -0.0441    0.0045    0.0773   -0.1056    0.0021   -0.0038   -0.0029   -0.0048
          57   -0.0685    0.0586    0.0278    0.0115   -0.0462    0.0250   -0.0127   -0.0042
          58   -0.0493   -0.0253   -0.0420    0.0688    0.0325    0.0188    0.0072    0.0133
          59   -0.0650   -0.0106   -0.1296    0.1452    0.0215    0.0474   -0.0086    0.0016
          60    0.0024    0.0080    0.0188   -0.0748   -0.0568   -0.0320    0.0035   -0.0153
          61   -0.0622   -0.0444    0.0689   -0.0955    0.0141   -0.0502    0.0206    0.0956
          62   -0.0638   -0.0196   -0.2280    0.2607    0.0004    0.0896   -0.0207   -0.0531
          63   -0.0247   -0.0726   -0.1196   -0.0721   -0.1559   -0.0818    0.0099   -0.0256
          64   -0.0097   -0.0094   -0.0165    0.0737   -0.0292    0.0183   -0.0170   -0.0747
          65   -0.0173    0.0093    0.0643   -0.1256    0.0379   -0.0130    0.0088    0.0407
          66   -0.0224    0.0210    0.0093    0.0259   -0.0413    0.0231   -0.0132    0.1235
          67    0.0117    0.0473   -0.0954    0.1507   -0.0565    0.0324   -0.0185    0.1395
          68   -0.0164   -0.0624    0.1302   -0.1930    0.0597   -0.0290    0.0058   -0.1439
          69    0.0083    0.0016   -0.0127    0.0477   -0.0523    0.0212   -0.0183    0.1996
          70   -0.0259    0.0187   -0.0344    0.1159   -0.0421    0.0383   -0.0299   -0.1455
          71    0.0687   -0.0074    0.0014   -0.1525    0.0953   -0.0645    0.0621    0.0137
          72   -0.0251   -0.0101    0.0385   -0.0004   -0.0458    0.0166   -0.0155    0.2161
          73    0.0254   -0.0379   -0.0701    0.1448   -0.0320    0.0209   -0.0250   -0.3171
          74   -0.0658    0.1012    0.1013   -0.1996    0.0394    0.0090    0.0062    0.4721
          75    0.0217   -0.0503   -0.0247    0.0884   -0.0505    0.0107   -0.0169   -0.2212
          76   -0.0182   -0.0291    0.0005    0.0349   -0.0024    0.0193   -0.0126    0.0433
          77   -0.0036   -0.0185    0.0645   -0.0686    0.0154   -0.0063    0.0084   -0.1018
          78   -0.0152    0.0445   -0.0075    0.0105    0.0411    0.0100    0.0201   -0.0833
          79   -0.0248   -0.0085    0.1321   -0.2154    0.0709   -0.0327    0.0275   -0.2720
          80   -0.0085   -0.0153    0.1101   -0.1520    0.0435   -0.0243    0.0238   -0.2222
          81    0.0859    0.0380   -0.0931    0.1779   -0.0939    0.0449   -0.0187    0.1191
          82    0.1009   -0.0540    0.0059    0.0166   -0.1371    0.0009   -0.0620    0.3557
          83    0.1387   -0.0580    0.0243    0.0130   -0.1823   -0.0127   -0.0450    0.1453
          84   -0.0539    0.0616    0.0075   -0.0091    0.0865    0.0163    0.0361   -0.1863
          85   -0.0517   -0.0391   -0.0114    0.0722    0.0278    0.0350   -0.0182    0.1012
          86   -0.0231   -0.0519    0.0171    0.0985    0.0196    0.0419   -0.0054   -0.0834
          87    0.0996    0.0685    0.0340   -0.0974   -0.0573   -0.0341    0.0334   -0.2474
          88    0.0350   -0.0299    0.0463    0.0777    0.0178   -0.0023    0.0102    0.0064
          89   -0.0262   -0.0069   -0.0701    0.1590   -0.0236    0.0469   -0.0153   -0.0080
          90    0.0495   -0.0347    0.1083   -0.0428   -0.2019   -0.0845   -0.0250   -0.0152
          91    0.0399   -0.0347    0.0471    0.0537    0.0153    0.0038    0.0107    0.0088
          92    0.1695   -0.0436    0.2915    0.1663    0.0102   -0.0274   -0.0384    0.0132
          93    0.1450   -0.0651    0.4602    0.5073    0.1012   -0.2936    0.0350    0.0102
          94    0.1907   -0.0665    0.3021   -0.2237   -0.0367   -0.0922    0.0158    0.0232
          95   -0.0783   -0.0341   -0.4107    0.1934   -0.1042   -0.0497    0.0155   -0.0240
          96    0.0876   -0.1134   -0.3048   -0.2791   -0.3953   -0.3763    0.0493   -0.0309


   Root No.      25        26        27        28        29        30        31        32

                25 A      26 A      27 A      28 A      29 A      30 A      31 A      32 A   

                   0.8       0.8       0.8       0.9       0.9       0.9       0.9       1.0
  
           1   -0.0039   -0.0332    0.0188   -0.0673    0.0006    0.0085   -0.0679   -0.0037
           2   -0.0068   -0.0214    0.0044   -0.0582    0.0062    0.0331    0.0872    0.1554
           3    0.0293   -0.0048   -0.0938    0.0115    0.0489   -0.2381   -0.0046    0.0301
           4   -0.0030   -0.0243    0.0122   -0.0371    0.0017    0.0109   -0.0753   -0.0005
           5   -0.0053    0.0101    0.0051    0.0352    0.0043    0.0156    0.1016    0.1307
           6    0.0262   -0.0012   -0.0173    0.0054    0.0149   -0.1101   -0.0058   -0.0147
           7    0.0019    0.0403   -0.0419    0.0073    0.0126    0.0644   -0.0098    0.0987
           8   -0.0045   -0.0089    0.0043   -0.0145    0.0028   -0.0008    0.0298    0.0418
           9    0.0116    0.0084    0.0998   -0.0066   -0.0414    0.1212   -0.0048   -0.0685
          10    0.0056    0.0363   -0.0269    0.0177    0.0038    0.0044   -0.0549   -0.0806
          11   -0.0015    0.0024   -0.0013   -0.0017    0.0008   -0.0086    0.0086   -0.0528
          12   -0.0054   -0.0076   -0.1220    0.0152    0.0375   -0.0827    0.0049    0.0556
          13    0.0065    0.0343   -0.0098    0.0538    0.0004   -0.0038   -0.0847   -0.1119
          14   -0.0087   -0.0585    0.0282   -0.0764   -0.0011   -0.0036    0.0094    0.0392
          15    0.0172   -0.0092   -0.1376    0.0175    0.0595   -0.2242    0.0008    0.0653
          16    0.0008   -0.0175    0.0007   -0.0288    0.0006   -0.0112   -0.1775   -0.1557
          17   -0.0070   -0.0383    0.0211   -0.0484    0.0003    0.0059    0.0234    0.0645
          18    0.0278   -0.0076   -0.1291    0.0146    0.0629   -0.2771   -0.0032    0.0542
          19   -0.0039    0.0585    0.1977    0.3776   -0.0486   -0.0426    0.4907    0.1448
          20   -0.0085   -0.0838   -0.0936   -0.3296    0.0357    0.0685   -0.2358    0.0983
          21   -0.0248    0.0059    0.0968   -0.0097   -0.0464    0.2070    0.0031   -0.0311
          22   -0.0430   -0.3354    0.2472   -0.0569   -0.0287   -0.1609   -0.4664   -0.0107
          23   -0.0286   -0.1685    0.1409    0.0278   -0.0121   -0.0836   -0.1005    0.1519
          24   -0.0207   -0.0035   -0.0391    0.0017    0.0089    0.0184    0.0066    0.0328
          25    0.0062   -0.0929    0.2573   -0.2103   -0.0578   -0.1625    0.2755   -0.1320
          26   -0.0112   -0.1435    0.1938   -0.2401   -0.0368   -0.0929    0.2283    0.0477
          27   -0.0111    0.0067    0.1429   -0.0194   -0.0535    0.1760   -0.0002   -0.0612
          28    0.0016   -0.0221    0.0016   -0.0482    0.0012   -0.0163   -0.2016   -0.1824
          29   -0.0132    0.0329    0.1182    0.7614   -0.0261   -0.0330   -0.2840   -0.0655
          30   -0.0265    0.0050    0.0870   -0.0139   -0.0449    0.2061    0.0021   -0.0353
          31    0.0050    0.0282   -0.1443    0.0059    0.0179    0.0528    0.0127   -0.0225
          32    0.0070    0.0440    0.0555   -0.0050   -0.0052   -0.0578   -0.0018   -0.1372
          33   -0.0605   -0.0062   -0.1087    0.0064    0.0182    0.0146    0.0085    0.0699
          34    0.0036    0.0763   -0.0666    0.0055    0.0200    0.0921   -0.0197    0.1483
          35    0.0089    0.0286   -0.1069   -0.0124    0.0083    0.0023    0.0492   -0.1043
          36   -0.0123    0.0245    0.2888   -0.0324   -0.1181    0.3952   -0.0040   -0.1358
          37    0.0045    0.0190   -0.1692    0.0062    0.0219    0.0375    0.0302   -0.0377
          38    0.0065    0.0387   -0.0547   -0.0027   -0.0042   -0.0692    0.0264   -0.2285
          39   -0.0394   -0.0058   -0.0092   -0.0048   -0.0079    0.0477    0.0006    0.0510
          40    0.0068    0.4054    0.1984   -0.1018    0.0071   -0.3107    0.0632   -0.1701
          41    0.0238   -0.2197   -0.2799    0.0715   -0.0032    0.1194    0.0037   -0.1723
          42   -0.0048   -0.1045    0.0448    0.0193   -0.0312    0.0380   -0.0262    0.1184
          43    0.0062    0.0451   -0.1981    0.0038    0.0360    0.1398    0.0127    0.1604
          44    0.0096    0.0428   -0.0548   -0.0080    0.0013   -0.0100    0.0281   -0.1065
          45   -0.0192    0.0278    0.1605   -0.0233   -0.0616    0.2070   -0.0050   -0.0358
          46    0.0078    0.0286   -0.2537    0.0109    0.0476    0.1420    0.0257    0.1833
          47    0.0422    0.6912    0.0851   -0.1149    0.0299    0.0529   -0.1853    0.1844
          48    0.0163   -0.0245   -0.1129    0.0189    0.0384   -0.1370   -0.0023   -0.0050
          49    0.0276   -0.0117   -0.2439    0.0115    0.0281    0.2499    0.0545    0.0980
          50    0.0134    0.0171   -0.0093   -0.0036    0.0002    0.0883    0.0269   -0.0559
          51   -0.0987    0.0618   -0.0802   -0.0076    0.0029   -0.0814    0.0117   -0.0146
          52   -0.0322   -0.2223    0.0627    0.0558   -0.0028    0.0088    0.2012    0.1881
          53   -0.0123   -0.1327   -0.0136    0.0136   -0.0099   -0.0490    0.1861   -0.0999
          54   -0.0011   -0.0072   -0.1059    0.0102    0.0419   -0.1364    0.0013    0.0517
          55    0.0063   -0.0014   -0.0019   -0.0005   -0.0155   -0.0006    0.0040   -0.0078
          56    0.0155   -0.0057    0.0043    0.0014    0.0051    0.0002   -0.0057    0.0210
          57    0.0156   -0.0104    0.0016    0.0032   -0.0031    0.0064   -0.0047    0.0101
          58    0.0082    0.0089   -0.0245   -0.0024   -0.0352    0.0144    0.0167   -0.0396
          59    0.0101   -0.0053   -0.0064    0.0001   -0.0339    0.0075   -0.0026    0.0284
          60   -0.0015   -0.0018   -0.0045    0.0027    0.0176    0.0455   -0.0016    0.0087
          61    0.1587    0.0309    0.0193   -0.0138   -0.1158   -0.0631   -0.0402    0.2148
          62   -0.0668   -0.0187   -0.0266    0.0057    0.0012    0.0349    0.0326   -0.1275
          63    0.0554    0.0086    0.0236   -0.0034    0.0087   -0.0567   -0.0051    0.0103
          64   -0.1151   -0.0021    0.0264    0.0010    0.0514   -0.0023   -0.0031    0.0052
          65   -0.0435    0.0052    0.0019    0.0002    0.0864    0.0141    0.0080   -0.0143
          66   -0.0650    0.0080   -0.0003   -0.0040   -0.0542   -0.0020   -0.0025    0.0038
          67    0.0262    0.0089   -0.0301   -0.0088   -0.3300   -0.0471   -0.0258    0.0557
          68   -0.2517   -0.0025    0.0632    0.0085    0.5014    0.0679    0.0312   -0.0525
          69   -0.1193    0.0165   -0.0073   -0.0086   -0.1135   -0.0048   -0.0076    0.0286
          70   -0.2457   -0.0069    0.0682    0.0037    0.1696   -0.0030   -0.0107    0.0298
          71    0.5143   -0.0173   -0.0974    0.0079    0.0029    0.0461    0.0408   -0.1078
          72   -0.0898    0.0200   -0.0223   -0.0094   -0.1689   -0.0097   -0.0034    0.0069
          73   -0.2037   -0.0199    0.0843    0.0079    0.2284   -0.0048   -0.0177    0.0580
          74   -0.1830    0.0369   -0.0180   -0.0101    0.1521    0.0609    0.0353   -0.0660
          75   -0.0179   -0.0188    0.0350    0.0049   -0.0199   -0.0270   -0.0248    0.0580
          76    0.0998   -0.0136    0.0342    0.0010    0.0251   -0.0002   -0.0063    0.0092
          77    0.0026    0.0009   -0.0105    0.0000   -0.0842   -0.0086   -0.0074    0.0100
          78    0.0909   -0.0029    0.0105    0.0022    0.0244    0.0064   -0.0014   -0.0010
          79    0.0433   -0.0041   -0.0113   -0.0031   -0.2503   -0.0132   -0.0204    0.0232
          80   -0.0291    0.0069   -0.0347   -0.0018   -0.2180   -0.0192   -0.0140    0.0162
          81    0.2737   -0.0371    0.1029    0.0076    0.3834    0.0721    0.0118   -0.0043
          82   -0.0300   -0.0192    0.0564    0.0066    0.1421   -0.0227   -0.0233    0.0366
          83   -0.2910    0.0228   -0.0708   -0.0037   -0.2593   -0.0597   -0.0135    0.0074
          84    0.1966   -0.0118    0.0297    0.0037    0.0726    0.0286    0.0009   -0.0004
          85    0.2338   -0.0306    0.0847    0.0035    0.0944   -0.0017   -0.0186    0.0260
          86    0.3205   -0.0368    0.0812    0.0003   -0.0654    0.0098   -0.0233    0.0227
          87   -0.2195    0.0354   -0.1108   -0.0039   -0.1509    0.0201    0.0295   -0.0426
          88   -0.0116    0.0095   -0.0637    0.0002   -0.0274    0.0236    0.0439   -0.1461
          89   -0.0057   -0.0046    0.0024    0.0000   -0.0359    0.0248    0.0047   -0.0079
          90    0.0285   -0.0128    0.0619    0.0026    0.0102    0.0470   -0.0144    0.0276
          91   -0.0095    0.0113   -0.0705   -0.0001   -0.0318    0.0312    0.0521   -0.1771
          92    0.0208   -0.0343    0.1381   -0.0008    0.0048   -0.0908   -0.1015    0.4037
          93   -0.0038    0.0061   -0.0563    0.0013    0.0027   -0.1115    0.0371   -0.1581
          94    0.0414    0.0156   -0.0138   -0.0010    0.0332   -0.0136    0.0407   -0.2019
          95   -0.0167    0.0198   -0.0696   -0.0017   -0.0481   -0.0655    0.0141   -0.0243
          96    0.0522    0.0430   -0.0282   -0.0019    0.0619   -0.1584    0.0025   -0.0749


   Root No.      33        34        35        36        37        38        39        40

                33 A      34 A      35 A      36 A      37 A      38 A      39 A      40 A   

                   1.0       1.0       1.1       1.2       1.2       1.4       1.6       1.6
  
           1    0.0039   -0.0514   -0.1034   -0.1882   -0.0066    0.0390    0.0080    0.0101
           2   -0.0694   -0.0182   -0.1854   -0.1075   -0.0356    0.0633   -0.0080   -0.0065
           3   -0.0393    0.0239   -0.1429   -0.0117    0.0386   -0.4023    0.0211    0.0054
           4    0.0008   -0.0438   -0.0959   -0.1620   -0.0068    0.0345    0.0076    0.0098
           5   -0.0627    0.0262   -0.0469    0.1185   -0.0191   -0.0143   -0.0051   -0.0009
           6   -0.0065   -0.0001   -0.1763    0.0465    0.0208   -0.2962   -0.1991   -0.2471
           7   -0.0413   -0.0058   -0.0945    0.0203   -0.0182    0.0106   -0.0022    0.0056
           8   -0.0186   -0.0054   -0.0169    0.0381   -0.0054   -0.0093    0.0107    0.0128
           9    0.0417   -0.0332   -0.0942    0.0835   -0.0135    0.0905   -0.1938   -0.2116
          10    0.0501   -0.0407    0.0294    0.0075    0.0053   -0.0272   -0.0029   -0.0004
          11    0.0364   -0.0361    0.0578   -0.0585    0.0223   -0.0534   -0.0099   -0.0116
          12   -0.0227    0.0047    0.2180   -0.0473   -0.0310    0.4767   -0.0534   -0.0477
          13    0.0623   -0.0412    0.0528   -0.0157    0.0095   -0.0389   -0.0049   -0.0038
          14   -0.0171   -0.0389   -0.1042   -0.2113   -0.0053    0.0354   -0.0108   -0.0176
          15   -0.0477    0.0300    0.0929   -0.0649   -0.0040    0.2007    0.1725    0.2111
          16    0.0817   -0.0875    0.0099   -0.2331    0.0245   -0.0211   -0.0007   -0.0046
          17   -0.0310   -0.0168   -0.0987   -0.1078   -0.0143    0.0356   -0.0073   -0.0094
          18   -0.0526    0.0356   -0.0528   -0.0502    0.0298   -0.2047    0.2204    0.2538
          19   -0.0423   -0.0199   -0.1411   -0.1885   -0.0231    0.0618   -0.0144   -0.0181
          20   -0.0566   -0.0457   -0.2250   -0.1636   -0.0376    0.0789    0.0030    0.0089
          21    0.0343   -0.0196    0.0888    0.0133   -0.0250    0.2437   -0.0152   -0.0068
          22   -0.1225    0.2287    0.0733    0.1680   -0.0049    0.0410   -0.0038   -0.0075
          23   -0.1478    0.1951    0.0479    0.3655   -0.0247   -0.0183   -0.0138   -0.0120
          24   -0.0094    0.0077    0.1319   -0.0425   -0.0118    0.1697    0.1069    0.1293
          25    0.0358    0.1384    0.3124    0.2765    0.0343   -0.0806    0.0135    0.0166
          26   -0.0429    0.0611    0.0057   -0.0947    0.0046    0.0280   -0.0067   -0.0155
          27    0.0400   -0.0200   -0.0970    0.0529   -0.0027   -0.1502   -0.0888   -0.1119
          28    0.0966   -0.1073    0.0066   -0.2986    0.0298   -0.0279    0.0017   -0.0035
          29   -0.0114    0.0511    0.0166   -0.0057    0.0113    0.0151    0.0177    0.0199
          30    0.0373   -0.0255    0.0512    0.0275   -0.0198    0.1392   -0.1200   -0.1365
          31    0.0418   -0.0476    0.0338    0.1088    0.0001   -0.0184    0.0058   -0.0010
          32    0.0737   -0.0463    0.0832   -0.0839    0.0072   -0.0601   -0.0157   -0.0145
          33   -0.0142   -0.0116    0.1808   -0.0458   -0.0212    0.0580   -0.0134   -0.0265
          34   -0.0689    0.0144   -0.0986    0.0553   -0.0186   -0.0012   -0.0090   -0.0001
          35    0.0878   -0.0995    0.0010    0.1437   -0.0094    0.0362    0.0854    0.0871
          36    0.0921   -0.0561   -0.1456    0.1085   -0.0103   -0.0713    0.1101    0.1467
          37    0.0534   -0.0629    0.0097    0.1450   -0.0063   -0.0044    0.0061   -0.0017
          38    0.1427   -0.1201    0.0280    0.0761   -0.0009    0.0191    0.0295    0.0274
          39   -0.0358    0.0467    0.1208   -0.1108    0.0706   -0.1616    0.0918    0.0729
          40    0.0781   -0.1059   -0.0494    0.1156   -0.0611    0.1575    0.0084    0.0084
          41    0.1515   -0.0988   -0.0197    0.1731    0.0236    0.0497   -0.0571   -0.0514
          42   -0.0658    0.1166   -0.0728   -0.0483    0.0328    0.0703   -0.0617   -0.0531
          43   -0.0464   -0.0257   -0.0945    0.2034   -0.0176    0.0059    0.0454    0.0539
          44    0.0767   -0.0767   -0.0026    0.0794   -0.0132    0.0323    0.0585    0.0607
          45    0.0228    0.0036   -0.0056   -0.0218    0.0177   -0.1437    0.2303    0.2507
          46   -0.0479   -0.0432   -0.1230    0.2642   -0.0267    0.0248    0.0440    0.0546
          47   -0.1831    0.2110    0.1381   -0.0062    0.0225   -0.0351   -0.0491   -0.0576
          48   -0.0091   -0.0019    0.0069    0.0067   -0.0098    0.0870   -0.1305   -0.1411
          49   -0.0088    0.1086    0.4238   -0.0694    0.0888   -0.1971   -0.0828   -0.0968
          50    0.0373    0.0519    0.3600   -0.2196    0.1260   -0.1738   -0.0748   -0.0716
          51    0.0668   -0.1458   -0.0121    0.0839   -0.0452   -0.2224   -0.0971   -0.0743
          52   -0.0920    0.0727    0.0086   -0.1582    0.0156   -0.0484   -0.0681   -0.0706
          53    0.0832   -0.0730    0.0736    0.0165    0.0122    0.0096    0.0669    0.0622
          54   -0.0343    0.0216    0.0660   -0.0429    0.0098    0.0153   -0.0149   -0.0233
          55    0.0139    0.0588   -0.0117   -0.0146   -0.0427   -0.0110    0.0084   -0.0056
          56    0.0251    0.0119    0.0119   -0.0108   -0.1368    0.0096    0.0647   -0.0468
          57   -0.0010    0.0139    0.0194   -0.0090   -0.2958   -0.0156   -0.0251    0.0332
          58    0.0224    0.1261   -0.0253   -0.0275   -0.0100   -0.0178    0.0059    0.0031
          59    0.0675    0.0723    0.0080   -0.0279   -0.0629   -0.0124    0.0533    0.0576
          60    0.0056   -0.0597    0.1231   -0.0175   -0.2258   -0.1105    0.1238    0.0852
          61    0.5931    0.2573   -0.0932   -0.0096    0.0804    0.0485    0.0147    0.0662
          62   -0.2676    0.0508   -0.0133   -0.0393   -0.0564   -0.0019    0.0277    0.0044
          63    0.0169    0.0139   -0.0877    0.0295    0.1032    0.0694   -0.0570   -0.0340
          64    0.0040    0.0013   -0.0070   -0.0040   -0.0306   -0.0009    0.1360   -0.1725
          65    0.0085    0.0148    0.0030   -0.0061   -0.0410   -0.0065    0.0451   -0.1092
          66   -0.0241   -0.0151    0.0132   -0.0119   -0.0907   -0.0166   -0.1874    0.0455
          67   -0.0387   -0.0801    0.0104    0.0019    0.1120    0.0244    0.2545   -0.1833
          68    0.0372    0.0633   -0.0643    0.0349    0.1386    0.0100    0.1660   -0.0842
          69   -0.0548   -0.0805   -0.0437    0.0491    0.3351    0.0361    0.0273    0.1630
          70    0.0240   -0.0514    0.0491   -0.0242   -0.1668   -0.0240   -0.1889   -0.0081
          71    0.0107    0.2221   -0.0405   -0.0162   -0.2299   -0.0220   -0.0883    0.0560
          72   -0.0504   -0.0161   -0.0413    0.0166    0.1156    0.0119    0.2487   -0.2522
          73    0.0463   -0.0940    0.0238    0.0195    0.1092    0.0189   -0.0443    0.1785
          74   -0.0618    0.0373   -0.0687    0.0352    0.2101   -0.0031   -0.2279    0.1920
          75    0.0294   -0.0684    0.0635   -0.0229   -0.2000   -0.0084   -0.1486    0.0366
          76   -0.0293   -0.0214   -0.0093   -0.0027   -0.0046    0.0028   -0.1179    0.1288
          77   -0.0298   -0.0328    0.0040    0.0058   -0.0499    0.0001    0.1588   -0.1581
          78    0.0008   -0.0046   -0.0113    0.0069   -0.0829   -0.0191   -0.0299    0.0167
          79   -0.1926   -0.2179    0.0552    0.0295    0.2484    0.0053   -0.0681    0.0581
          80   -0.0871   -0.1012    0.0252    0.0169    0.0019   -0.0062    0.2051   -0.2173
          81    0.0303    0.0304    0.0073   -0.0068    0.2171    0.0465    0.1408   -0.1167
          82   -0.0733   -0.2155    0.0697    0.0312   -0.2299   -0.0299    0.1490   -0.1622
          83   -0.0138   -0.0263    0.0099   -0.0013   -0.2575   -0.0389   -0.2020    0.1908
          84   -0.0052    0.0076   -0.0169    0.0065   -0.0283   -0.0051    0.0690   -0.0747
          85   -0.0963   -0.1457    0.0130    0.0160   -0.0655   -0.0170   -0.1518    0.1517
          86   -0.2239   -0.2428    0.0480    0.0257    0.2979    0.0177   -0.1726    0.1741
          87    0.1400    0.2901   -0.0576   -0.0435    0.1663    0.0358   -0.0939    0.1182
          88   -0.0658    0.1980   -0.0759   -0.0216    0.0091    0.0203    0.0158   -0.0113
          89    0.0255    0.0980   -0.0291   -0.0206   -0.0470    0.0176    0.0782    0.0648
          90   -0.0243   -0.0371    0.0185   -0.0044   -0.1757   -0.0072    0.1709    0.1647
          91   -0.0791    0.2398   -0.0939   -0.0290    0.0064    0.0250    0.0325   -0.0061
          92    0.3388   -0.2287    0.0851    0.0320    0.0561   -0.0475   -0.0651   -0.0513
          93   -0.0799    0.1041   -0.0891   -0.0135    0.0647    0.0437   -0.1011   -0.0945
          94   -0.1629    0.0648   -0.0645   -0.0159   -0.0337    0.0454    0.0025    0.0120
          95    0.1217    0.1403   -0.0918    0.0192    0.1126    0.0447   -0.0564   -0.0831
          96    0.0188   -0.1549   -0.0554    0.0842    0.0714    0.0403   -0.1025   -0.0810


   Root No.      41        42        43        44        45        46        47        48

                41 A      42 A      43 A      44 A      45 A      46 A      47 A      48 A   

                   1.6       1.7       1.7       1.8       1.8       1.9       2.0       2.4
  
           1    0.0191   -0.0039   -0.0178   -0.0215    0.0085    0.0374   -0.1827    0.0418
           2   -0.0385   -0.0030    0.0139    0.0051    0.0405   -0.1340   -0.1843   -0.0618
           3    0.0251    0.0130   -0.0471   -0.0443    0.0196    0.0035   -0.0251   -0.1066
           4    0.0273   -0.0023   -0.0253   -0.0290    0.0023    0.0403   -0.2105    0.0623
           5   -0.2105   -0.0261    0.1326    0.0063    0.1180    0.0330    0.1190    0.0005
           6    0.0971    0.0881   -0.0531   -0.1458    0.1854    0.0616   -0.0090   -0.0884
           7   -0.1557   -0.0231    0.0833   -0.0114    0.0745   -0.0018   -0.0683    0.0107
           8   -0.0767   -0.0153    0.0501   -0.0127    0.0467    0.1126    0.0333    0.0551
           9    0.0485    0.0534    0.0064   -0.0499    0.0846    0.0212    0.0203    0.0947
          10   -0.1494   -0.0181    0.0953    0.0177    0.0799   -0.0655    0.0307   -0.0866
          11   -0.0786   -0.0059    0.0622    0.0148    0.0275    0.0659    0.0756    0.0326
          12    0.0001    0.0085    0.0289   -0.0318    0.0956    0.0441    0.0135   -0.0863
          13   -0.1684   -0.0188    0.1108    0.0082    0.1043   -0.0302    0.0331   -0.0722
          14    0.1382    0.0253   -0.0741    0.0297   -0.0793   -0.0415    0.2222   -0.0189
          15   -0.0807   -0.0724    0.0536    0.1177   -0.1230   -0.0308    0.0163    0.0873
          16    0.0085    0.0025    0.0134    0.0091    0.0044    0.1020    0.2586    0.0146
          17    0.0261    0.0076   -0.0134    0.0244   -0.0124   -0.0922    0.0658   -0.0725
          18   -0.0743   -0.0784    0.0133    0.1215   -0.1881   -0.0667   -0.0005    0.0990
          19    0.0573    0.0140   -0.0354    0.0248   -0.0093   -0.1589   -0.1095   -0.0791
          20   -0.0792   -0.0165    0.0300   -0.0256    0.0803   -0.0843   -0.4049   -0.0276
          21   -0.0124   -0.0060    0.0247    0.0227   -0.0104   -0.0013    0.0120    0.0448
          22    0.2105    0.0302   -0.1380    0.0042   -0.1166   -0.1231   -0.1727   -0.0203
          23   -0.2052   -0.0195    0.1344    0.0357    0.1145   -0.0566    0.2962   -0.0830
          24   -0.0473   -0.0436    0.0246    0.0647   -0.0792   -0.0240    0.0045    0.0276
          25   -0.0874   -0.0167    0.0539   -0.0323    0.0530    0.1195   -0.1787    0.0464
          26    0.2902    0.0435   -0.1708    0.0160   -0.1788    0.0309    0.2369    0.0702
          27    0.0413    0.0396   -0.0245   -0.0536    0.0568    0.0153   -0.0081   -0.0313
          28    0.0052    0.0015    0.0233    0.0155    0.0101    0.1569    0.4230    0.0227
          29    0.0948    0.0025   -0.0658   -0.0341   -0.0413    0.0899   -0.1167    0.0652
          30    0.0380    0.0404   -0.0061   -0.0616    0.0945    0.0323    0.0033   -0.0402
          31    0.0825    0.0191   -0.0419    0.0348   -0.0408   -0.1779    0.1040   -0.1703
          32   -0.1979   -0.0217    0.1299    0.0011    0.0934    0.0791   -0.0215    0.1044
          33    0.0323    0.0101   -0.0543   -0.0827    0.0831   -0.0055   -0.0034   -0.1383
          34   -0.1590   -0.0197    0.0843   -0.0053    0.0486   -0.0017   -0.0157    0.0529
          35    0.1538   -0.0141   -0.1061   -0.0889   -0.0157    0.2192   -0.0951    0.0137
          36   -0.0665   -0.0665    0.0279    0.1601   -0.2607   -0.1049    0.0072    0.1748
          37    0.0818    0.0126   -0.0459    0.0326   -0.0331   -0.1693    0.0879   -0.1380
          38   -0.0163   -0.0114    0.0123    0.0028    0.0558   -0.1552   -0.0594   -0.1048
          39    0.0202   -0.0010   -0.0262   -0.0748    0.1601    0.0865   -0.0190   -0.1685
          40    0.0565   -0.0086   -0.0383   -0.0193    0.0009   -0.0931   -0.0833   -0.0307
          41   -0.0254    0.0037    0.0367    0.1152   -0.0990   -0.3552    0.0441   -0.1291
          42   -0.0401    0.0042    0.0190    0.0295   -0.0670    0.1151    0.0071    0.1212
          43    0.0516   -0.0123   -0.0534   -0.0619   -0.0599    0.2231    0.0376    0.0842
          44    0.0333   -0.0187   -0.0303   -0.0542    0.0406    0.0813   -0.1034   -0.0196
          45   -0.0500   -0.0600   -0.0116    0.0415   -0.0544    0.0210   -0.0208   -0.2474
          46    0.0742   -0.0139   -0.0746   -0.1009   -0.0782    0.3561    0.0564    0.1866
          47    0.1137    0.0342   -0.0529    0.0628   -0.0869   -0.1072    0.1058   -0.0310
          48    0.0222    0.0326    0.0093   -0.0126    0.0323   -0.0346    0.0065    0.0700
          49    0.1837    0.0938   -0.0637    0.0548   -0.1788   -0.1744   -0.1334    0.0181
          50   -0.1653    0.0121    0.1285    0.0145   -0.0157    0.1569   -0.1992    0.1530
          51   -0.0134   -0.0186    0.0042    0.0271   -0.1393   -0.1293   -0.0127    0.2074
          52   -0.1034    0.0140    0.0736    0.0592   -0.0036   -0.1010    0.1202    0.0290
          53    0.2172    0.0029   -0.1302   -0.0646   -0.0449    0.2146   -0.0478   -0.0158
          54    0.0184    0.0137   -0.0079   -0.0374    0.0582    0.0263   -0.0044   -0.0385
          55    0.0705   -0.0626    0.0739   -0.0352    0.0166   -0.0284    0.0052   -0.0099
          56   -0.0373    0.0634   -0.0107   -0.0880   -0.0079   -0.0298    0.0230    0.0375
          57    0.0305    0.0289   -0.0461    0.0216    0.1011   -0.1053    0.0427    0.2772
          58    0.0347   -0.0361    0.0485   -0.0350   -0.0019   -0.0006   -0.0049   -0.0400
          59   -0.0488    0.1257   -0.0069   -0.2710   -0.0279   -0.0936    0.0329    0.0603
          60    0.1004   -0.0075   -0.0959   -0.0413    0.3244   -0.1982    0.0168    0.2793
          61   -0.1260    0.1535   -0.1006   -0.1702   -0.0565   -0.0293    0.0250    0.0131
          62   -0.0036    0.0569    0.1256   -0.2960   -0.1400   -0.0358    0.0280   -0.0792
          63   -0.0186   -0.0037    0.0207    0.0996   -0.0777    0.0775   -0.0092   -0.0593
          64    0.0858   -0.2545    0.1126   -0.0291   -0.0208   -0.0100    0.0005    0.0388
          65   -0.0549   -0.1080   -0.0076   -0.0645   -0.0933    0.0322   -0.0077   -0.0549
          66   -0.1161   -0.1543   -0.1452    0.0140   -0.1230    0.0736   -0.0147   -0.1183
          67    0.0345    0.0239    0.1354   -0.1119   -0.0125   -0.0218    0.0055    0.0308
          68    0.1774   -0.0778    0.1773    0.0132    0.0924   -0.0626    0.0097    0.1261
          69    0.0507    0.3701    0.0220    0.0534    0.1339   -0.0392    0.0091    0.0254
          70   -0.1393   -0.2602   -0.1448   -0.0169   -0.1759    0.0853   -0.0179   -0.1295
          71    0.0876   -0.1161    0.0076    0.0583    0.0492   -0.0330    0.0092    0.0460
          72    0.1205   -0.2795    0.1653   -0.0573   -0.0393   -0.0079   -0.0015    0.0043
          73   -0.0020    0.3593   -0.0151    0.0359    0.1204   -0.0493    0.0126    0.0947
          74   -0.0586    0.0385   -0.1306    0.0749   -0.0453    0.0616   -0.0152   -0.1464
          75   -0.1975    0.0037   -0.1935   -0.0424   -0.1393    0.0722   -0.0068   -0.1479
          76    0.1238   -0.0320    0.2297   -0.0483   -0.0211    0.0324   -0.0089   -0.0924
          77   -0.0497    0.1511   -0.0099    0.0879   -0.0708    0.0768   -0.0233   -0.1411
[...]
 TRAVEL (Ang.)       0.1328         C  4 -- C  5         +11.8% ( 48.0%)     75.0%
 REDUCED MASS        2.3119         C  2 -- C  3         +11.3% ( 47.0%)     75.5%
 EFFECTIVE MASS     11.8937
 FORCE CONSTANT      3.7257

 VIBRATION         75   75A           ATOM PAIR      ENERGY CONTRIBUTION    RADIAL
 FREQUENCY          1681.86         C 12 -- C 15         +38.5% ( 90.2%)    100.0%
 TRANSITION DIPOLE   1.9620         C  3 -- C 12         +13.1% ( 52.6%)     33.5%
 TRAVEL (Ang.)       0.0970         C 13 -- C 15         +12.3% ( 51.1%)     30.1%
 REDUCED MASS        4.2642         C 12 -- Cl18         +12.3% ( 50.9%)     16.4%
 EFFECTIVE MASS     11.8784         C 15 -- H 16         +11.4% ( 49.1%)     10.6%
 FORCE CONSTANT      7.1066

 VIBRATION         76   76A           ATOM PAIR      ENERGY CONTRIBUTION    RADIAL
 FREQUENCY          2648.32         C 22 -- H 24         +62.2% ( 82.0%)     99.5%
 TRANSITION DIPOLE   0.6855         C 22 -- H 23         +21.7% ( 48.5%)     92.4%
 TRAVEL (Ang.)       0.2365         C 22 -- H 25          +8.7% ( 30.7%)     78.7%
 REDUCED MASS        0.4552         C 26 -- H 29          +4.1% ( 21.0%)     99.3%
 EFFECTIVE MASS      1.4333
 FORCE CONSTANT      1.8808

 VIBRATION         77   77A           ATOM PAIR      ENERGY CONTRIBUTION    RADIAL
 FREQUENCY          2652.43         C 26 -- H 27         +59.5% ( 80.2%)     99.3%
 TRANSITION DIPOLE   0.6967         C 26 -- H 28         +28.1% ( 55.1%)     94.5%
 TRAVEL (Ang.)       0.2377         C 26 -- H 29          +7.3% ( 28.2%)     73.2%
 REDUCED MASS        0.4501         C 22 -- H 25          +2.2% ( 15.6%)     99.2%
 EFFECTIVE MASS      1.4402
 FORCE CONSTANT      1.8656

 VIBRATION         78   78A           ATOM PAIR      ENERGY CONTRIBUTION    RADIAL
 FREQUENCY          2659.94         C 26 -- H 29         +51.9% ( 74.8%)     99.0%
 TRANSITION DIPOLE   0.8900         C 26 -- H 28         +37.1% ( 63.2%)     96.8%
 TRAVEL (Ang.)       0.2454         C 22 -- H 23          +3.7% ( 20.0%)     98.9%
 REDUCED MASS        0.4211         C 26 -- H 27          +3.3% ( 18.8%)     50.0%
 EFFECTIVE MASS      1.4435
 FORCE CONSTANT      1.7555

 VIBRATION         79   79A           ATOM PAIR      ENERGY CONTRIBUTION    RADIAL
 FREQUENCY          2663.20         C 22 -- H 25         +55.7% ( 77.5%)     99.0%
 TRANSITION DIPOLE   0.9258         C 22 -- H 23         +37.4% ( 63.5%)     97.0%
 TRAVEL (Ang.)       0.2336         C 26 -- H 28          +2.5% ( 16.4%)     99.4%
 REDUCED MASS        0.4640         C 22 -- H 24          +1.8% ( 14.0%)     30.2%
 EFFECTIVE MASS      1.4472
 FORCE CONSTANT      1.9391

 VIBRATION         80   80A           ATOM PAIR      ENERGY CONTRIBUTION    RADIAL
 FREQUENCY          2671.11         C 30 -- H 31         +47.0% ( 71.6%)     98.4%
 TRANSITION DIPOLE   0.3746         C 30 -- H 32         +46.9% ( 71.6%)     98.2%
 TRAVEL (Ang.)       0.2315         C 20 -- H 21          +2.9% ( 17.8%)     99.7%
 REDUCED MASS        0.4711         C 20 -- C 30          +1.1% ( 10.8%)      0.8%
 EFFECTIVE MASS      1.5077
 FORCE CONSTANT      1.9806

 VIBRATION         81   81A           ATOM PAIR      ENERGY CONTRIBUTION    RADIAL
 FREQUENCY          2722.70         C 13 -- H 14         +86.9% ( 94.5%)    100.0%
 TRANSITION DIPOLE   0.6783         C 15 -- H 16          +9.5% ( 31.2%)     99.9%
 TRAVEL (Ang.)       0.1816         C 13 -- C 15          +0.9% (  9.4%)      5.0%
 REDUCED MASS        0.7508         C 20 -- H 21          +0.9% (  9.4%)     99.9%
 EFFECTIVE MASS      1.3727
 FORCE CONSTANT      3.2793

 VIBRATION         82   82A           ATOM PAIR      ENERGY CONTRIBUTION    RADIAL
 FREQUENCY          2731.33         C  5 -- H  9         +82.2% ( 91.8%)    100.0%
 TRANSITION DIPOLE   0.7489         C  6 -- H 10         +10.7% ( 33.1%)     99.9%
 TRAVEL (Ang.)       0.1918         C  2 -- H  8          +3.1% ( 17.9%)     99.9%
 REDUCED MASS        0.6714         C  1 -- H  7          +1.7% ( 13.1%)     99.9%
 EFFECTIVE MASS      1.3900
 FORCE CONSTANT      2.9511

 VIBRATION         83   83A           ATOM PAIR      ENERGY CONTRIBUTION    RADIAL
 FREQUENCY          2737.80         C 15 -- H 16         +57.3% ( 76.6%)     99.9%
 TRANSITION DIPOLE   0.7127         C  2 -- H  8         +15.2% ( 39.5%)    100.0%
 TRAVEL (Ang.)       0.2603         C  1 -- H  7         +12.8% ( 36.1%)    100.0%
 REDUCED MASS        0.3635         C 13 -- H 14          +5.5% ( 23.7%)     99.7%
 EFFECTIVE MASS      1.3971
 FORCE CONSTANT      1.6055

 VIBRATION         84   84A           ATOM PAIR      ENERGY CONTRIBUTION    RADIAL
 FREQUENCY          2739.79         C  1 -- H  7         +45.2% ( 68.0%)    100.0%
 TRANSITION DIPOLE   0.8569         C 15 -- H 16         +25.7% ( 51.2%)    100.0%
 TRAVEL (Ang.)       0.2911         C  2 -- H  8         +16.2% ( 40.6%)     99.9%
 REDUCED MASS        0.2904         C  5 -- H  9          +4.4% ( 21.2%)     99.9%
 EFFECTIVE MASS      1.3845
 FORCE CONSTANT      1.2843

 VIBRATION         85   85A           ATOM PAIR      ENERGY CONTRIBUTION    RADIAL
 FREQUENCY          2744.63         C 20 -- H 21         +83.2% ( 92.0%)    100.0%
 TRANSITION DIPOLE   1.8559         C  2 -- H  8          +4.1% ( 20.3%)    100.0%
 TRAVEL (Ang.)       0.1909         C  1 -- H  7          +2.5% ( 16.0%)    100.0%
 REDUCED MASS        0.6741         C 30 -- H 31          +2.4% ( 15.7%)     97.6%
 EFFECTIVE MASS      1.3848
 FORCE CONSTANT      2.9920

 VIBRATION         86   86A           ATOM PAIR      ENERGY CONTRIBUTION    RADIAL
 FREQUENCY          2746.89         C  2 -- H  8         +45.1% ( 67.8%)    100.0%
 TRANSITION DIPOLE   1.3746         C  6 -- H 10         +34.5% ( 59.3%)    100.0%
 TRAVEL (Ang.)       0.2752         C  1 -- H  7          +9.3% ( 30.9%)     99.8%
 REDUCED MASS        0.3241         C 20 -- H 21          +4.9% ( 22.3%)    100.0%
 EFFECTIVE MASS      1.3872
 FORCE CONSTANT      1.4408

 VIBRATION         87   87A           ATOM PAIR      ENERGY CONTRIBUTION    RADIAL
 FREQUENCY          2758.19         C  6 -- H 10         +49.2% ( 70.7%)    100.0%
 TRANSITION DIPOLE   1.1381         C  1 -- H  7         +26.3% ( 51.8%)    100.0%
 TRAVEL (Ang.)       0.2733         C  2 -- H  8         +14.0% ( 37.8%)    100.0%
 REDUCED MASS        0.3273         C  5 -- H  9          +6.1% ( 24.9%)     99.9%
 EFFECTIVE MASS      1.4509
 FORCE CONSTANT      1.4671

 VIBRATION         88   88A           ATOM PAIR      ENERGY CONTRIBUTION    RADIAL
 FREQUENCY          2783.14         C 30 -- H 32         +49.7% ( 68.9%)     97.3%
 TRANSITION DIPOLE   0.7595         C 30 -- H 31         +47.9% ( 67.6%)     96.9%
 TRAVEL (Ang.)       0.2260         C 13 -- C 30          +0.7% (  8.2%)      1.9%
 REDUCED MASS        0.4744         C 20 -- C 30          +0.6% (  7.8%)     86.3%
 EFFECTIVE MASS      1.2335
 FORCE CONSTANT      2.1649

 VIBRATION         89   89A           ATOM PAIR      ENERGY CONTRIBUTION    RADIAL
 FREQUENCY          2845.06         C 22 -- H 23         +27.2% ( 49.0%)     98.1%
 TRANSITION DIPOLE   0.7022         C 22 -- H 25         +23.4% ( 45.4%)     97.4%
 TRAVEL (Ang.)       0.3445         C 22 -- H 24         +22.2% ( 44.2%)     97.1%
 REDUCED MASS        0.1997         C 26 -- H 29          +9.4% ( 28.7%)     98.2%
 EFFECTIVE MASS      1.1004
 FORCE CONSTANT      0.9522

 VIBRATION         90   90A           ATOM PAIR      ENERGY CONTRIBUTION    RADIAL
 FREQUENCY          2850.47         C 26 -- H 29         +26.3% ( 48.1%)     97.8%
 TRANSITION DIPOLE   0.6437         C 26 -- H 27         +24.1% ( 46.0%)     97.8%
 TRAVEL (Ang.)       0.3449         C 26 -- H 28         +22.4% ( 44.4%)     97.0%
 REDUCED MASS        0.1989         C 22 -- H 23          +9.6% ( 29.0%)     97.9%
 EFFECTIVE MASS      1.1085
 FORCE CONSTANT      0.9522

      SYMMETRY NUMBER FOR POINT-GROUP C1  =  1


          SYSTEM IS A GROUND STATE



 Claisen_TS_PM6_D3H4_THERMO


          MOLECULE IS NOT LINEAR

          THERE ARE 90 GENUINE VIBRATIONS IN THIS SYSTEM
          THIS THERMODYNAMICS CALCULATION IS LIMITED TO
          MOLECULES WHICH HAVE NO INTERNAL ROTATIONS




                    CALCULATED THERMODYNAMIC PROPERTIES
                                          *
   TEMP. (K)   PARTITION FUNCTION   H.O.F.    ENTHALPY  HEAT CAPACITY ENTROPY
                                   KCAL/MOL   CAL/MOLE    CAL/K/MOL  CAL/K/MOL


 298.00  VIB.     0.8898D+05                  8105.8470    55.7198    49.8474
         ROT.     0.3626D+07                   888.2813     2.9808    32.9948
         INT.     0.3226D+12                  8994.1283    58.7007    82.8421
         TRA.     0.3747D+28                  1480.4688     4.9680    42.4079
         TOT.                       23.388   10474.5971    63.6687   125.2500

 200.00  VIB.     0.1032D+04                  3569.9967    36.9346    31.6390
         ROT.     0.1994D+07                   596.1620     2.9808    31.8061
         INT.     0.2057D+10                  4166.1587    39.9154    63.4450
         TRA.     0.2060D+28                   993.6033     4.9680    40.4268
         TOT.                       18.073    5159.7619    44.8834   103.8718

 210.00  VIB.     0.1618D+04                  3948.7491    38.8176    33.4865
         ROT.     0.2145D+07                   625.9700     2.9808    31.9515
         INT.     0.3470D+10                  4574.7192    41.7985    65.4380
         TRA.     0.2217D+28                  1043.2834     4.9680    40.6692
         TOT.                       18.531    5618.0026    46.7665   106.1072

 220.00  VIB.     0.2540D+04                  4346.3861    40.7116    35.3360
         ROT.     0.2300D+07                   655.7781     2.9808    32.0902
         INT.     0.5842D+10                  5002.1642    43.6924    67.4262
         TRA.     0.2377D+28                  1092.9636     4.9680    40.9003
         TOT.                       19.008    6095.1278    48.6604   108.3264

 230.00  VIB.     0.3994D+04                  4763.0164    42.6162    37.1877
         ROT.     0.2459D+07                   685.5862     2.9808    32.2227
         INT.     0.9819D+10                  5448.6027    45.5970    69.4104
         TRA.     0.2541D+28                  1142.6437     4.9680    41.1211
         TOT.                       19.504    6591.2464    50.5651   110.5315

 240.00  VIB.     0.6286D+04                  5198.7434    44.5307    39.0418
         ROT.     0.2621D+07                   715.3943     2.9808    32.3495
         INT.     0.1647D+11                  5914.1377    47.5115    71.3914
         TRA.     0.2708D+28                  1192.3239     4.9680    41.3325
         TOT.                       20.019    7106.4616    52.4795   112.7239

 250.00  VIB.     0.9906D+04                  5653.6573    46.4533    40.8986
         ROT.     0.2786D+07                   745.2024     2.9808    32.4712
         INT.     0.2760D+11                  6398.8598    49.4341    73.3698
         TRA.     0.2879D+28                  1242.0041     4.9680    41.5353
         TOT.                       20.554    7640.8638    54.4021   114.9052

 260.00  VIB.     0.1562D+05                  6127.8300    48.3820    42.7581
         ROT.     0.2955D+07                   775.0105     2.9808    32.5881
         INT.     0.4617D+11                  6902.8405    51.3628    75.3462
         TRA.     0.3054D+28                  1291.6842     4.9680    41.7302
         TOT.                       21.108    8194.5248    56.3309   117.0764

 270.00  VIB.     0.2467D+05                  6621.3098    50.3143    44.6203
         ROT.     0.3127D+07                   804.8186     2.9808    32.7006
         INT.     0.7713D+11                  7426.1284    53.2951    77.3209
         TRA.     0.3231D+28                  1341.3644     4.9680    41.9177
         TOT.                       21.681    8767.4928    58.2631   119.2386

 280.00  VIB.     0.3897D+05                  7134.1189    52.2474    46.4850
         ROT.     0.3302D+07                   834.6267     2.9808    32.8090
         INT.     0.1287D+12                  7968.7456    55.2282    79.2941
         TRA.     0.3413D+28                  1391.0445     4.9680    42.0984
         TOT.                       22.273    9359.7901    60.1962   121.3924

 290.00  VIB.     0.6163D+05                  7666.2511    54.1785    48.3522
         ROT.     0.3481D+07                   864.4348     2.9808    32.9136
         INT.     0.2145D+12                  8530.6859    57.1593    81.2658
         TRA.     0.3597D+28                  1440.7247     4.9680    42.2727
         TOT.                       22.884    9971.4107    62.1273   123.5385

 300.00  VIB.     0.9754D+05                  8217.6714    56.1045    50.2214
         ROT.     0.3662D+07                   894.2429     2.9808    33.0147
         INT.     0.3572D+12                  9111.9143    59.0853    83.2361
         TRA.     0.3785D+28                  1490.4049     4.9680    42.4411
         TOT.                       23.515   10602.3192    64.0533   125.6772

 310.00  VIB.     0.1545D+06                  8788.3154    58.0227    52.0923
         ROT.     0.3847D+07                   924.0510     2.9808    33.1124
         INT.     0.5943D+12                  9712.3664    61.0035    85.2048
         TRA.     0.3975D+28                  1540.0850     4.9680    42.6040
         TOT.                       24.165   11252.4514    65.9715   127.8088

 320.00  VIB.     0.2449D+06                  9378.0903    59.9303    53.9646
         ROT.     0.4035D+07                   953.8591     2.9808    33.2071
         INT.     0.9879D+12                 10331.9495    62.9111    87.1717
         TRA.     0.4169D+28                  1589.7652     4.9680    42.7618
         TOT.                       24.835   11921.7147    67.8791   129.9335

 330.00  VIB.     0.3883D+06                  9986.8766    61.8245    55.8378
         ROT.     0.4225D+07                   983.6672     2.9808    33.2988
         INT.     0.1641D+13                 10970.5438    64.8054    89.1366
         TRA.     0.4366D+28                  1639.4454     4.9680    42.9146
         TOT.                       25.523   12609.9891    69.7734   132.0512

 340.00  VIB.     0.6162D+06                 10614.5288    63.7031    57.7114
         ROT.     0.4419D+07                  1013.4753     2.9808    33.3878
         INT.     0.2723D+13                 11628.0041    66.6839    91.0992
         TRA.     0.4566D+28                  1689.1255     4.9680    43.0629
         TOT.                       26.230   13317.1297    71.6519   134.1621

 350.00  VIB.     0.9784D+06                 11260.8785    65.5637    59.5849
         ROT.     0.4615D+07                  1043.2834     2.9808    33.4742
         INT.     0.4516D+13                 12304.1619    68.5445    93.0591
         TRA.     0.4769D+28                  1738.8057     4.9680    43.2070
         TOT.                       26.956   14042.9676    73.5125   136.2660

 360.00  VIB.     0.1554D+07                 11925.7359    67.4043    61.4577
         ROT.     0.4814D+07                  1073.0915     2.9808    33.5582
         INT.     0.7483D+13                 12998.8274    70.3851    95.0159
         TRA.     0.4975D+28                  1788.4859     4.9680    43.3469
         TOT.                       27.700   14787.3132    75.3531   138.3628

 370.00  VIB.     0.2470D+07                 12608.8921    69.2232    63.3294
         ROT.     0.5016D+07                  1102.8996     2.9808    33.6398
         INT.     0.1239D+14                 13711.7917    72.2040    96.9692
         TRA.     0.5184D+28                  1838.1660     4.9680    43.4830
         TOT.                       28.463   15549.9577    77.1720   140.4522

 380.00  VIB.     0.3927D+07                 13310.1218    71.0188    65.1993
         ROT.     0.5221D+07                  1132.7077     2.9808    33.7193
         INT.     0.2050D+14                 14442.8295    73.9996    98.9187
         TRA.     0.5395D+28                  1887.8462     4.9680    43.6155
         TOT.                       29.244   16330.6757    78.9676   142.5342

 390.00  VIB.     0.6246D+07                 14029.1852    72.7897    67.0670
         ROT.     0.5428D+07                  1162.5158     2.9808    33.7967
         INT.     0.3391D+14                 15191.7010    75.7705   100.8638
         TRA.     0.5610D+28                  1937.5263     4.9680    43.7446
         TOT.                       30.042   17129.2273    80.7385   144.6084

 400.00  VIB.     0.9937D+07                 14765.8302    74.5349    68.9320
         ROT.     0.5639D+07                  1192.3239     2.9808    33.8722
         INT.     0.5603D+14                 15958.1541    77.5157   102.8042
         TRA.     0.5827D+28                  1987.2065     4.9680    43.8703
         TOT.                       30.858   17945.3606    82.4838   146.6745

   *: NOTE: HEATS OF FORMATION ARE RELATIVE TO THE
            ELEMENTS IN THEIR STANDARD STATE AT 298K
              (=  Standard Enthalpy of Formation).

            Hvib:  Zero-point energy is not included.
                   frequencies of less than zero cm-1 are not included.
            Hrot = (3/2)RT
            Htra = (3/2)RT + pV = (5/2)RT

            Heat capacity is Cp, not Cv

          For more information, see: HTTP://OpenMOPAC.net/Manual/thermochemistry.html


           FORCE CONSTANT IN CARTESIAN COORDINATES (Millidynes/A)

    ATOM   CHEMICAL       X               Y               Z
   NUMBER   SYMBOL  FORCE CONSTANT  FORCE CONSTANT  FORCE CONSTANT

      1       C       10.523875        9.285636        2.246010
      2       C       10.544169        9.193321        2.189752
      3       C       10.772600       10.487658        2.344679
      4       C       10.503189       10.394859        2.206851
      5       C        9.623191       10.264293        2.236811
      6       C        9.533271       10.277849        2.174923
      7       H        1.707901        3.350923        0.365635
      8       H        1.773130        3.379355        0.351750
      9       H        1.670769        3.351059        0.384397
     10       H        4.226195        0.853256        0.362761
     11       C        9.783672       10.056355        3.103619
     12       C        9.316415       10.047116        1.674328
     13       C        9.442650        8.264958        1.303879
     14       H        1.509776        2.930475        1.041037
     15       C        9.247953       11.553205        2.230805
     16       H        4.171133        0.877154        0.377568
     17       O        3.554585        5.738515        0.903468
     18      Cl        1.622789        3.424000        0.138624
     19       C       10.191856        7.296697        3.142925
     20       C        9.492069        9.380311        2.821892
     21       H        1.791532        3.200689        0.476212
     22       C        6.383191        7.108499        6.247538
     23       H        2.159368        1.948669        1.409202
     24       H        2.659071        0.797824        1.958390
     25       H        1.021222        1.506922        2.893030
     26       C        6.656394        6.688553        6.373573
     27       H        0.978080        3.851069        0.657990
     28       H        0.625446        0.901532        3.868269
     29       H        3.839992        0.708168        0.974656
     30       C        7.688861        8.115652        1.509204
     31       H        4.148563        0.757026        0.555660
     32       H        1.311944        2.981384        1.204432

 **********************
 *                    *
 * JOB ENDED NORMALLY *
 *                    *
 **********************



 TOTAL JOB TIME:             7.07 SECONDS

 == MOPAC DONE ==
