 Entering Gaussian System, Link 0=g09
 Input=b3lyp_pr_claisen_PM6_toluene.com
 Output=b3lyp_pr_claisen_PM6_toluene.log
 Initial command:
 /apps/applications/gaussian/G09.D01/2/default/g09/l1.exe "/local/714067.1.40core-192G.q/Gau-135250.inp" -scrdir="/local/714067.1.40core-192G.q/"
 Entering Link 1 = /apps/applications/gaussian/G09.D01/2/default/g09/l1.exe PID=    135251.
  
 Copyright (c) 1988,1990,1992,1993,1995,1998,2003,2009,2013,
            Gaussian, Inc.  All Rights Reserved.
  
 This is part of the Gaussian(R) 09 program.  It is based on
 the Gaussian(R) 03 system (copyright 2003, Gaussian, Inc.),
 the Gaussian(R) 98 system (copyright 1998, Gaussian, Inc.),
 the Gaussian(R) 94 system (copyright 1995, Gaussian, Inc.),
 the Gaussian 92(TM) system (copyright 1992, Gaussian, Inc.),
 the Gaussian 90(TM) system (copyright 1990, Gaussian, Inc.),
 the Gaussian 88(TM) system (copyright 1988, Gaussian, Inc.),
 the Gaussian 86(TM) system (copyright 1986, Carnegie Mellon
 University), and the Gaussian 82(TM) system (copyright 1983,
 Carnegie Mellon University). Gaussian is a federally registered
 trademark of Gaussian, Inc.
  
 This software contains proprietary and confidential information,
 including trade secrets, belonging to Gaussian, Inc.
  
 This software is provided under written license and may be
 used, copied, transmitted, or stored only in accord with that
 written license.
  
 The following legend is applicable only to US Government
 contracts under FAR:
  
                    RESTRICTED RIGHTS LEGEND
  
 Use, reproduction and disclosure by the US Government is
 subject to restrictions as set forth in subparagraphs (a)
 and (c) of the Commercial Computer Software - Restricted
 Rights clause in FAR 52.227-19.
  
 Gaussian, Inc.
 340 Quinnipiac St., Bldg. 40, Wallingford CT 06492
  
  
 ---------------------------------------------------------------
 Warning -- This program may not be used in any manner that
 competes with the business of Gaussian, Inc. or will provide
 assistance to any competitor of Gaussian, Inc.  The licensee
 of this program is prohibited from giving any competitor of
 Gaussian, Inc. access to this program.  By using this program,
 the user acknowledges that Gaussian, Inc. is engaged in the
 business of creating and licensing software in the field of
 computational chemistry and represents and warrants to the
 licensee that it is not a competitor of Gaussian, Inc. and that
 it will not use this program in any manner prohibited above.
 ---------------------------------------------------------------
  

 Cite this work as:
 Gaussian 09, Revision D.01,
 M. J. Frisch, G. W. Trucks, H. B. Schlegel, G. E. Scuseria, 
 M. A. Robb, J. R. Cheeseman, G. Scalmani, V. Barone, B. Mennucci, 
 G. A. Petersson, H. Nakatsuji, M. Caricato, X. Li, H. P. Hratchian, 
 A. F. Izmaylov, J. Bloino, G. Zheng, J. L. Sonnenberg, M. Hada, 
 M. Ehara, K. Toyota, R. Fukuda, J. Hasegawa, M. Ishida, T. Nakajima, 
 Y. Honda, O. Kitao, H. Nakai, T. Vreven, J. A. Montgomery, Jr., 
 J. E. Peralta, F. Ogliaro, M. Bearpark, J. J. Heyd, E. Brothers, 
 K. N. Kudin, V. N. Staroverov, T. Keith, R. Kobayashi, J. Normand, 
 K. Raghavachari, A. Rendell, J. C. Burant, S. S. Iyengar, J. Tomasi, 
 M. Cossi, N. Rega, J. M. Millam, M. Klene, J. E. Knox, J. B. Cross, 
 V. Bakken, C. Adamo, J. Jaramillo, R. Gomperts, R. E. Stratmann, 
 O. Yazyev, A. J. Austin, R. Cammi, C. Pomelli, J. W. Ochterski, 
 R. L. Martin, K. Morokuma, V. G. Zakrzewski, G. A. Voth, 
 P. Salvador, J. J. Dannenberg, S. Dapprich, A. D. Daniels, 
 O. Farkas, J. B. Foresman, J. V. Ortiz, J. Cioslowski, 
 and D. J. Fox, Gaussian, Inc., Wallingford CT, 2013.
 
 ******************************************
 Gaussian 09:  ES64L-G09RevD.01 24-Apr-2013
                27-Aug-2020 
 ******************************************
 %nprocshared=4
 Will use up to    4 processors via shared memory.
 %chk=b3lyp_pr_claisen_PM6_toluene.chk
 ----------------------------------------------------------------------
 # opt freq b3lyp/6-31+g(d,p) scrf=(cpcm,solvent=toluene) geom=connecti
 vity empiricaldispersion=gd3
 ----------------------------------------------------------------------
 1/14=-1,18=20,19=15,26=3,38=1,57=2/1,3;
 2/9=110,12=2,17=6,18=5,40=1/2;
 3/5=1,6=6,7=111,11=2,16=1,25=1,30=1,70=2101,71=1,72=13,74=-5,124=31/1,2,3;
 4//1;
 5/5=2,38=5,53=13/2;
 6/7=2,8=2,9=2,10=2,28=1/1;
 7//1,2,3,16;
 1/14=-1,18=20,19=15,26=3/3(2);
 2/9=110/2;
 99//99;
 2/9=110/2;
 3/5=1,6=6,7=111,11=2,16=1,25=1,30=1,70=2105,71=1,72=13,74=-5,124=31/1,2,3;
 4/5=5,16=3,69=1/1;
 5/5=2,38=5,53=13/2;
 7//1,2,3,16;
 1/14=-1,18=20,19=15,26=3/3(-5);
 2/9=110/2;
 6/7=2,8=2,9=2,10=2,19=2,28=1/1;
 99/9=1/99;
 -------------------
 Title Card Required
 -------------------
 Symbolic Z-matrix:
 Charge =  0 Multiplicity = 1
 C                     4.19038  -1.08103   0.1535 
 C                     3.50465   0.13347   0.07402 
 C                     2.10626   0.14624  -0.04455 
 C                     1.40273  -1.07861  -0.08164 
 C                     2.10544  -2.29161  -0.00194 
 C                     3.49493  -2.29474   0.1157 
 H                     5.27843  -1.0815    0.24566 
 H                     4.07426   1.06324   0.10687 
 H                     1.54798  -3.2329   -0.03389 
 H                     4.03698  -3.23834   0.17747 
 C                    -0.07815  -1.11976  -0.20307 
 C                     1.32972   1.38561  -0.13042 
 C                    -0.85438   0.19448  -0.19579 
 C                    -0.00902   1.42725  -0.19626 
 H                    -0.56402   2.36828  -0.25078 
 O                    -0.67865  -2.17399  -0.31408 
 Cl                    2.217     2.8699   -0.1477 
 C                    -4.15773   0.02712   0.06444 
 C                    -3.17004   0.75944   0.60665 
 H                    -3.2934    1.82622   0.78182 
 C                    -5.46866   0.65192  -0.30464 
 H                    -6.31303   0.09824   0.12923 
 H                    -5.55964   1.69216   0.03285 
 H                    -5.61286   0.65395  -1.39457 
 C                    -4.05391  -1.43953  -0.20647 
 H                    -3.01361  -1.77559  -0.35516 
 H                    -4.45486  -2.02223   0.63541 
 H                    -4.61297  -1.74025  -1.10121 
 C                    -1.8353    0.21265   1.00742 
 H                    -1.40597   0.80856   1.838 
 H                    -1.94549  -0.81449   1.41932 
 H                    -1.46305   0.20074  -1.14921 
 

 GradGradGradGradGradGradGradGradGradGradGradGradGradGradGradGradGradGrad
 Berny optimization.
 Initialization pass.
                           ----------------------------
                           !    Initial Parameters    !
                           ! (Angstroms and Degrees)  !
 --------------------------                            --------------------------
 ! Name  Definition              Value          Derivative Info.                !
 --------------------------------------------------------------------------------
 ! R1    R(1,2)                  1.397          estimate D2E/DX2                !
 ! R2    R(1,6)                  1.3993         estimate D2E/DX2                !
 ! R3    R(1,7)                  1.0919         estimate D2E/DX2                !
 ! R4    R(2,3)                  1.4035         estimate D2E/DX2                !
 ! R5    R(2,8)                  1.0909         estimate D2E/DX2                !
 ! R6    R(3,4)                  1.413          estimate D2E/DX2                !
 ! R7    R(3,12)                 1.4651         estimate D2E/DX2                !
 ! R8    R(4,5)                  1.4041         estimate D2E/DX2                !
 ! R9    R(4,11)                 1.4864         estimate D2E/DX2                !
 ! R10   R(5,6)                  1.3945         estimate D2E/DX2                !
 ! R11   R(5,9)                  1.0945         estimate D2E/DX2                !
 ! R12   R(6,10)                 1.09           estimate D2E/DX2                !
 ! R13   R(11,13)                1.5264         estimate D2E/DX2                !
 ! R14   R(11,16)                1.2183         estimate D2E/DX2                !
 ! R15   R(12,14)                1.341          estimate D2E/DX2                !
 ! R16   R(12,17)                1.7294         estimate D2E/DX2                !
 ! R17   R(13,14)                1.4948         estimate D2E/DX2                !
 ! R18   R(13,29)                1.5525         estimate D2E/DX2                !
 ! R19   R(13,32)                1.1312         estimate D2E/DX2                !
 ! R20   R(14,15)                1.0939         estimate D2E/DX2                !
 ! R21   R(18,19)                1.3438         estimate D2E/DX2                !
 ! R22   R(18,21)                1.4984         estimate D2E/DX2                !
 ! R23   R(18,25)                1.4951         estimate D2E/DX2                !
 ! R24   R(19,20)                1.0881         estimate D2E/DX2                !
 ! R25   R(19,29)                1.497          estimate D2E/DX2                !
 ! R26   R(21,22)                1.099          estimate D2E/DX2                !
 ! R27   R(21,23)                1.0974         estimate D2E/DX2                !
 ! R28   R(21,24)                1.0994         estimate D2E/DX2                !
 ! R29   R(25,26)                1.1033         estimate D2E/DX2                !
 ! R30   R(25,27)                1.0996         estimate D2E/DX2                !
 ! R31   R(25,28)                1.0971         estimate D2E/DX2                !
 ! R32   R(29,30)                1.1087         estimate D2E/DX2                !
 ! R33   R(29,31)                1.1121         estimate D2E/DX2                !
 ! A1    A(2,1,6)              120.5678         estimate D2E/DX2                !
 ! A2    A(2,1,7)              119.6227         estimate D2E/DX2                !
 ! A3    A(6,1,7)              119.8095         estimate D2E/DX2                !
 ! A4    A(1,2,3)              120.1196         estimate D2E/DX2                !
 ! A5    A(1,2,8)              118.879          estimate D2E/DX2                !
 ! A6    A(3,2,8)              121.0014         estimate D2E/DX2                !
 ! A7    A(2,3,4)              119.3685         estimate D2E/DX2                !
 ! A8    A(2,3,12)             122.736          estimate D2E/DX2                !
 ! A9    A(4,3,12)             117.8954         estimate D2E/DX2                !
 ! A10   A(3,4,5)              119.8799         estimate D2E/DX2                !
 ! A11   A(3,4,11)             121.4787         estimate D2E/DX2                !
 ! A12   A(5,4,11)             118.6413         estimate D2E/DX2                !
 ! A13   A(4,5,6)              120.3588         estimate D2E/DX2                !
 ! A14   A(4,5,9)              119.1061         estimate D2E/DX2                !
 ! A15   A(6,5,9)              120.5351         estimate D2E/DX2                !
 ! A16   A(1,6,5)              119.7053         estimate D2E/DX2                !
 ! A17   A(1,6,10)             120.1449         estimate D2E/DX2                !
 ! A18   A(5,6,10)             120.1498         estimate D2E/DX2                !
 ! A19   A(4,11,13)            118.8438         estimate D2E/DX2                !
 ! A20   A(4,11,16)            121.4969         estimate D2E/DX2                !
 ! A21   A(13,11,16)           119.6583         estimate D2E/DX2                !
 ! A22   A(3,12,14)            123.9372         estimate D2E/DX2                !
 ! A23   A(3,12,17)            117.0463         estimate D2E/DX2                !
 ! A24   A(14,12,17)           119.0165         estimate D2E/DX2                !
 ! A25   A(11,13,14)           114.9923         estimate D2E/DX2                !
 ! A26   A(11,13,29)           109.5781         estimate D2E/DX2                !
 ! A27   A(11,13,32)           105.9251         estimate D2E/DX2                !
 ! A28   A(14,13,29)           110.3605         estimate D2E/DX2                !
 ! A29   A(14,13,32)           107.4267         estimate D2E/DX2                !
 ! A30   A(29,13,32)           108.2513         estimate D2E/DX2                !
 ! A31   A(12,14,13)           122.6133         estimate D2E/DX2                !
 ! A32   A(12,14,15)           122.3893         estimate D2E/DX2                !
 ! A33   A(13,14,15)           114.9971         estimate D2E/DX2                !
 ! A34   A(19,18,21)           121.0108         estimate D2E/DX2                !
 ! A35   A(19,18,25)           123.8257         estimate D2E/DX2                !
 ! A36   A(21,18,25)           115.1619         estimate D2E/DX2                !
 ! A37   A(18,19,20)           121.0584         estimate D2E/DX2                !
 ! A38   A(18,19,29)           124.3528         estimate D2E/DX2                !
 ! A39   A(20,19,29)           114.5876         estimate D2E/DX2                !
 ! A40   A(18,21,22)           111.4003         estimate D2E/DX2                !
 ! A41   A(18,21,23)           113.0819         estimate D2E/DX2                !
 ! A42   A(18,21,24)           111.0829         estimate D2E/DX2                !
 ! A43   A(22,21,23)           107.0051         estimate D2E/DX2                !
 ! A44   A(22,21,24)           106.95           estimate D2E/DX2                !
 ! A45   A(23,21,24)           106.9928         estimate D2E/DX2                !
 ! A46   A(18,25,26)           112.874          estimate D2E/DX2                !
 ! A47   A(18,25,27)           110.8427         estimate D2E/DX2                !
 ! A48   A(18,25,28)           112.4144         estimate D2E/DX2                !
 ! A49   A(26,25,27)           106.5944         estimate D2E/DX2                !
 ! A50   A(26,25,28)           106.6833         estimate D2E/DX2                !
 ! A51   A(27,25,28)           107.0591         estimate D2E/DX2                !
 ! A52   A(13,29,19)           111.1086         estimate D2E/DX2                !
 ! A53   A(13,29,30)           110.0114         estimate D2E/DX2                !
 ! A54   A(13,29,31)           109.8061         estimate D2E/DX2                !
 ! A55   A(19,29,30)           110.4558         estimate D2E/DX2                !
 ! A56   A(19,29,31)           110.3743         estimate D2E/DX2                !
 ! A57   A(30,29,31)           104.9101         estimate D2E/DX2                !
 ! D1    D(6,1,2,3)              0.018          estimate D2E/DX2                !
 ! D2    D(6,1,2,8)            179.9548         estimate D2E/DX2                !
 ! D3    D(7,1,2,3)           -179.9955         estimate D2E/DX2                !
 ! D4    D(7,1,2,8)             -0.0586         estimate D2E/DX2                !
 ! D5    D(2,1,6,5)             -0.0187         estimate D2E/DX2                !
 ! D6    D(2,1,6,10)           179.9538         estimate D2E/DX2                !
 ! D7    D(7,1,6,5)            179.9948         estimate D2E/DX2                !
 ! D8    D(7,1,6,10)            -0.0327         estimate D2E/DX2                !
 ! D9    D(1,2,3,4)              0.0383         estimate D2E/DX2                !
 ! D10   D(1,2,3,12)           179.9199         estimate D2E/DX2                !
 ! D11   D(8,2,3,4)           -179.8972         estimate D2E/DX2                !
 ! D12   D(8,2,3,12)            -0.0156         estimate D2E/DX2                !
 ! D13   D(2,3,4,5)             -0.0937         estimate D2E/DX2                !
 ! D14   D(2,3,4,11)           179.8592         estimate D2E/DX2                !
 ! D15   D(12,3,4,5)          -179.981          estimate D2E/DX2                !
 ! D16   D(12,3,4,11)           -0.0281         estimate D2E/DX2                !
 ! D17   D(2,3,12,14)         -177.5287         estimate D2E/DX2                !
 ! D18   D(2,3,12,17)            2.5305         estimate D2E/DX2                !
 ! D19   D(4,3,12,14)            2.3545         estimate D2E/DX2                !
 ! D20   D(4,3,12,17)         -177.5863         estimate D2E/DX2                !
 ! D21   D(3,4,5,6)              0.0939         estimate D2E/DX2                !
 ! D22   D(3,4,5,9)           -179.8774         estimate D2E/DX2                !
 ! D23   D(11,4,5,6)          -179.8604         estimate D2E/DX2                !
 ! D24   D(11,4,5,9)             0.1683         estimate D2E/DX2                !
 ! D25   D(3,4,11,13)           -4.0076         estimate D2E/DX2                !
 ! D26   D(3,4,11,16)          175.6264         estimate D2E/DX2                !
 ! D27   D(5,4,11,13)          175.9459         estimate D2E/DX2                !
 ! D28   D(5,4,11,16)           -4.4201         estimate D2E/DX2                !
 ! D29   D(4,5,6,1)             -0.0375         estimate D2E/DX2                !
 ! D30   D(4,5,6,10)           179.99           estimate D2E/DX2                !
 ! D31   D(9,5,6,1)            179.9333         estimate D2E/DX2                !
 ! D32   D(9,5,6,10)            -0.0392         estimate D2E/DX2                !
 ! D33   D(4,11,13,14)           5.6505         estimate D2E/DX2                !
 ! D34   D(4,11,13,29)        -119.3239         estimate D2E/DX2                !
 ! D35   D(4,11,13,32)         124.1152         estimate D2E/DX2                !
 ! D36   D(16,11,13,14)       -173.9904         estimate D2E/DX2                !
 ! D37   D(16,11,13,29)         61.0352         estimate D2E/DX2                !
 ! D38   D(16,11,13,32)        -55.5257         estimate D2E/DX2                !
 ! D39   D(3,12,14,13)          -0.3338         estimate D2E/DX2                !
 ! D40   D(3,12,14,15)         179.4416         estimate D2E/DX2                !
 ! D41   D(17,12,14,13)        179.6059         estimate D2E/DX2                !
 ! D42   D(17,12,14,15)         -0.6187         estimate D2E/DX2                !
 ! D43   D(11,13,14,12)         -3.6634         estimate D2E/DX2                !
 ! D44   D(11,13,14,15)        176.5459         estimate D2E/DX2                !
 ! D45   D(29,13,14,12)        120.9015         estimate D2E/DX2                !
 ! D46   D(29,13,14,15)        -58.8892         estimate D2E/DX2                !
 ! D47   D(32,13,14,12)       -121.2837         estimate D2E/DX2                !
 ! D48   D(32,13,14,15)         58.9256         estimate D2E/DX2                !
 ! D49   D(11,13,29,19)       -137.2979         estimate D2E/DX2                !
 ! D50   D(11,13,29,30)        100.067          estimate D2E/DX2                !
 ! D51   D(11,13,29,31)        -14.9075         estimate D2E/DX2                !
 ! D52   D(14,13,29,19)         95.0914         estimate D2E/DX2                !
 ! D53   D(14,13,29,30)        -27.5437         estimate D2E/DX2                !
 ! D54   D(14,13,29,31)       -142.5182         estimate D2E/DX2                !
 ! D55   D(32,13,29,19)        -22.2149         estimate D2E/DX2                !
 ! D56   D(32,13,29,30)       -144.8501         estimate D2E/DX2                !
 ! D57   D(32,13,29,31)        100.1755         estimate D2E/DX2                !
 ! D58   D(21,18,19,20)         -0.6406         estimate D2E/DX2                !
 ! D59   D(21,18,19,29)        179.7729         estimate D2E/DX2                !
 ! D60   D(25,18,19,20)        179.8231         estimate D2E/DX2                !
 ! D61   D(25,18,19,29)          0.2366         estimate D2E/DX2                !
 ! D62   D(19,18,21,22)       -128.064          estimate D2E/DX2                !
 ! D63   D(19,18,21,23)         -7.5026         estimate D2E/DX2                !
 ! D64   D(19,18,21,24)        112.8135         estimate D2E/DX2                !
 ! D65   D(25,18,21,22)         51.5104         estimate D2E/DX2                !
 ! D66   D(25,18,21,23)        172.0718         estimate D2E/DX2                !
 ! D67   D(25,18,21,24)        -67.6121         estimate D2E/DX2                !
 ! D68   D(19,18,25,26)        -25.8127         estimate D2E/DX2                !
 ! D69   D(19,18,25,27)         93.6786         estimate D2E/DX2                !
 ! D70   D(19,18,25,28)       -146.547          estimate D2E/DX2                !
 ! D71   D(21,18,25,26)        154.6264         estimate D2E/DX2                !
 ! D72   D(21,18,25,27)        -85.8823         estimate D2E/DX2                !
 ! D73   D(21,18,25,28)         33.8921         estimate D2E/DX2                !
 ! D74   D(18,19,29,13)         85.688          estimate D2E/DX2                !
 ! D75   D(18,19,29,30)       -151.9339         estimate D2E/DX2                !
 ! D76   D(18,19,29,31)        -36.3727         estimate D2E/DX2                !
 ! D77   D(20,19,29,13)        -93.9224         estimate D2E/DX2                !
 ! D78   D(20,19,29,30)         28.4557         estimate D2E/DX2                !
 ! D79   D(20,19,29,31)        144.0169         estimate D2E/DX2                !
 --------------------------------------------------------------------------------
 Trust Radius=3.00D-01 FncErr=1.00D-07 GrdErr=1.00D-06
 Number of steps in this run=    179 maximum allowed number of steps=    192.
 GradGradGradGradGradGradGradGradGradGradGradGradGradGradGradGradGradGrad

                          Input orientation:                          
 ---------------------------------------------------------------------
 Center     Atomic      Atomic             Coordinates (Angstroms)
 Number     Number       Type             X           Y           Z
 ---------------------------------------------------------------------
      1          6           0        4.190380   -1.081029    0.153498
      2          6           0        3.504651    0.133474    0.074020
      3          6           0        2.106262    0.146244   -0.044550
      4          6           0        1.402729   -1.078612   -0.081635
      5          6           0        2.105441   -2.291607   -0.001936
      6          6           0        3.494929   -2.294740    0.115695
      7          1           0        5.278427   -1.081496    0.245662
      8          1           0        4.074261    1.063244    0.106865
      9          1           0        1.547980   -3.232904   -0.033887
     10          1           0        4.036977   -3.238339    0.177470
     11          6           0       -0.078146   -1.119763   -0.203070
     12          6           0        1.329722    1.385614   -0.130422
     13          6           0       -0.854379    0.194483   -0.195787
     14          6           0       -0.009024    1.427249   -0.196263
     15          1           0       -0.564015    2.368284   -0.250784
     16          8           0       -0.678648   -2.173990   -0.314075
     17         17           0        2.216996    2.869903   -0.147701
     18          6           0       -4.157733    0.027124    0.064443
     19          6           0       -3.170041    0.759438    0.606652
     20          1           0       -3.293404    1.826215    0.781818
     21          6           0       -5.468657    0.651918   -0.304640
     22          1           0       -6.313031    0.098243    0.129228
     23          1           0       -5.559637    1.692160    0.032848
     24          1           0       -5.612859    0.653951   -1.394571
     25          6           0       -4.053910   -1.439531   -0.206467
     26          1           0       -3.013614   -1.775591   -0.355162
     27          1           0       -4.454861   -2.022230    0.635406
     28          1           0       -4.612966   -1.740254   -1.101213
     29          6           0       -1.835304    0.212651    1.007418
     30          1           0       -1.405973    0.808555    1.837997
     31          1           0       -1.945491   -0.814489    1.419320
     32          1           0       -1.463048    0.200736   -1.149212
 ---------------------------------------------------------------------
                    Distance matrix (angstroms):
                    1          2          3          4          5
     1  C    0.000000
     2  C    1.396982   0.000000
     3  C    2.426720   1.403465   0.000000
     4  C    2.797551   2.431349   1.413013   0.000000
     5  C    2.415912   2.800817   2.438224   1.404106   0.000000
     6  C    1.399348   2.428591   2.812913   2.428005   1.394462
     7  H    1.091944   2.156825   3.413825   3.889494   3.404925
     8  H    2.147921   1.090874   2.176427   3.429309   3.891416
     9  H    3.412910   3.895216   3.424972   2.159711   1.094451
    10  H    2.162890   3.415142   3.902865   3.416258   2.158546
    11  C    4.283568   3.805761   2.529731   1.486415   2.486308
    12  C    3.787915   2.517929   1.465069   2.465790   3.760346
    13  C    5.215220   4.367798   2.964894   2.593904   3.870240
    14  C    4.903956   3.754040   2.477585   2.878459   4.282361
    15  H    5.887739   4.653377   3.479996   3.972126   5.376105
    16  O    5.012048   4.793224   3.634811   2.363474   2.804000
    17  Cl   4.426605   3.032369   2.727860   4.032142   5.164773
    18  C    8.421812   7.663128   6.266076   5.671219   6.678942
    19  C    7.600557   6.725105   5.351583   4.976182   6.124538
    20  H    8.053190   7.041300   5.715031   5.589028   6.835075
    21  C    9.823950   8.996245   7.596233   7.089458   8.131601
    22  H   10.569433   9.817900   8.421223   7.807842   8.752100
    23  H   10.137454   9.197419   7.820604   7.494319   8.638578
    24  H   10.075225   9.249683   7.852716   7.344661   8.377822
    25  C    8.259928   7.725598   6.363067   5.469987   6.221372
    26  H    7.255252   6.805623   5.477505   4.479362   5.157108
    27  H    8.709666   8.265352   6.943555   5.976280   6.596691
    28  H    8.916713   8.413545   7.058572   6.137255   6.830036
    29  C    6.221869   5.421496   4.080072   3.652157   4.776984
    30  H    6.142250   5.261328   4.039608   3.890398   5.032533
    31  H    6.270747   5.693199   4.413913   3.678750   4.540033
    32  H    5.941483   5.116528   3.736739   3.314986   4.501348
                    6          7          8          9         10
     6  C    0.000000
     7  H    2.160953   0.000000
     8  H    3.407603   2.463573   0.000000
     9  H    2.166365   4.315430   4.985859   0.000000
    10  H    1.089959   2.489542   4.302324   2.497961   0.000000
    11  C    3.774791   5.375472   4.701496   2.671755   4.644073
    12  C    4.277114   4.671225   2.773576   4.624680   5.367026
    13  C    5.020929   6.279674   5.013765   4.188618   5.987399
    14  C    5.121348   5.869092   4.110669   4.916061   6.186882
    15  H    6.192990   6.803056   4.831630   5.990065   7.265449
    16  O    4.197383   6.082236   5.766023   2.481467   4.859174
    17  Cl   5.326915   5.014045   2.603508   6.140423   6.381903
    18  C    7.997307   9.502789   8.297052   6.572109   8.822091
    19  C    7.347848   8.654245   7.267874   6.213599   8.252728
    20  H    7.969156   9.067444   7.437753   7.049756   8.930254
    21  C    9.444858  10.899879   9.560639   8.024858  10.282199
    22  H   10.095674  11.651920  10.432045   8.539241  10.874639
    23  H    9.893806  11.189374   9.654688   8.647481  10.790076
    24  H    9.691619  11.149989   9.811326   8.260552  10.523335
    25  C    7.603956   9.350140   8.510536   5.884483   8.297323
    26  H    6.546171   8.342703   7.649211   4.799491   7.220399
    27  H    7.971419   9.786408   9.085451   6.160177   8.590689
    28  H    8.217438  10.004384   9.207984   6.428409   8.871347
    29  C    5.957647   7.270506   6.038002   4.939917   6.861620
    30  H    6.051083   7.126642   5.752795   5.344453   6.982865
    31  H    5.786947   7.323507   6.440950   4.490532   6.573216
    32  H    5.692884   7.002662   5.743121   4.701077   6.620997
                   11         12         13         14         15
    11  C    0.000000
    12  C    2.874767   0.000000
    13  C    1.526379   2.488647   0.000000
    14  C    2.547959   1.341011   1.494770   0.000000
    15  H    3.522047   2.136906   2.193797   1.093862   0.000000
    16  O    1.218326   4.091217   2.377927   3.664860   4.544161
    17  Cl   4.603062   1.729355   4.073516   2.653069   2.827768
    18  C    4.246168   5.656468   3.317812   4.386354   4.300605
    19  C    3.707676   4.602526   2.515029   3.329065   3.180401
    20  H    4.470646   4.732822   3.093074   3.450068   2.968109
    21  C    5.675102   6.840074   4.638174   5.515476   5.196569
    22  H    6.361427   7.754767   5.469166   6.450791   6.192631
    23  H    6.165169   6.898108   4.943153   5.561652   5.049142
    24  H    5.932856   7.094564   4.928623   5.782465   5.453257
    25  C    3.988604   6.080355   3.592647   4.957785   5.165345
    26  H    3.011680   5.376643   2.927266   4.394428   4.814886
    27  H    4.546771   6.757314   4.309080   5.688237   5.933012
    28  H    4.664361   6.784470   4.323191   5.661121   5.830722
    29  C    2.515594   3.562009   1.552497   2.501878   2.801072
    30  H    3.106041   3.419312   2.194907   2.544103   2.739462
    31  H    2.492452   4.239006   2.194794   3.374226   3.850684
    32  H    2.134679   3.200224   1.131166   2.127588   2.512707
                   16         17         18         19         20
    16  O    0.000000
    17  Cl   5.818358   0.000000
    18  C    4.134273   6.983092   0.000000
    19  C    3.957244   5.834662   1.343804   0.000000
    20  H    4.903016   5.684875   2.120948   1.088078   0.000000
    21  C    5.561477   8.000834   1.498370   2.475005   2.700202
    22  H    6.091456   8.973302   2.157444   3.247075   3.539761
    23  H    6.236307   7.867382   2.176850   2.628572   2.390552
    24  H    5.788882   8.232360   2.153840   3.159649   3.389800
    25  C    3.455923   7.609135   1.495075   2.505564   3.495736
    26  H    2.369067   6.998781   2.175973   2.715866   3.787349
    27  H    3.896708   8.310228   2.148054   3.064191   4.022555
    28  H    4.035662   8.295246   2.165552   3.353699   4.243436
    29  C    2.963149   4.981609   2.513424   1.497034   2.186445
    30  H    3.749132   4.617148   3.365756   2.151873   2.390302
    31  H    2.541219   5.775517   2.727273   2.153415   3.032589
    32  H    2.636676   4.655126   2.960477   2.511779   3.117894
                   21         22         23         24         25
    21  C    0.000000
    22  H    1.098984   0.000000
    23  H    1.097396   1.765634   0.000000
    24  H    1.099431   1.766640   1.765853   0.000000
    25  C    2.526916   2.753374   3.483098   2.867853   0.000000
    26  H    3.452910   3.825185   4.319500   3.706632   1.103296
    27  H    3.010405   2.864510   3.921772   3.552986   1.099568
    28  H    2.662559   2.790032   3.736810   2.611142   1.097064
    29  C    3.887892   4.564466   4.124244   4.498246   3.020833
    30  H    4.595740   5.244393   4.614352   5.307663   4.030545
    31  H    4.187492   4.644655   4.611686   4.850143   2.734829
    32  H    4.118467   5.016697   4.517040   4.181691   3.208085
                   26         27         28         29         30
    26  H    0.000000
    27  H    1.766139   0.000000
    28  H    1.765154   1.766452   0.000000
    29  C    2.682936   3.463404   3.996945   0.000000
    30  H    3.751302   4.330737   5.041844   1.108733   0.000000
    31  H    2.283285   2.893112   3.784911   1.112125   1.760864
    32  H    2.634509   4.132479   3.700234   2.188554   3.048954
                   31         32
    31  H    0.000000
    32  H    2.803710   0.000000
 Stoichiometry    C15H15ClO
 Framework group  C1[X(C15H15ClO)]
 Deg. of freedom    90
 Full point group                 C1      NOp   1
 Largest Abelian subgroup         C1      NOp   1
 Largest concise Abelian subgroup C1      NOp   1
                         Standard orientation:                         
 ---------------------------------------------------------------------
 Center     Atomic      Atomic             Coordinates (Angstroms)
 Number     Number       Type             X           Y           Z
 ---------------------------------------------------------------------
      1          6           0        4.190380   -1.081029    0.153498
      2          6           0        3.504651    0.133474    0.074020
      3          6           0        2.106262    0.146244   -0.044550
      4          6           0        1.402729   -1.078612   -0.081635
      5          6           0        2.105441   -2.291607   -0.001936
      6          6           0        3.494929   -2.294740    0.115695
      7          1           0        5.278427   -1.081496    0.245662
      8          1           0        4.074261    1.063244    0.106865
      9          1           0        1.547980   -3.232904   -0.033887
     10          1           0        4.036977   -3.238339    0.177470
     11          6           0       -0.078146   -1.119763   -0.203070
     12          6           0        1.329722    1.385614   -0.130422
     13          6           0       -0.854379    0.194483   -0.195787
     14          6           0       -0.009024    1.427249   -0.196263
     15          1           0       -0.564015    2.368284   -0.250784
     16          8           0       -0.678648   -2.173990   -0.314075
     17         17           0        2.216996    2.869903   -0.147701
     18          6           0       -4.157733    0.027124    0.064443
     19          6           0       -3.170041    0.759438    0.606652
     20          1           0       -3.293404    1.826215    0.781818
     21          6           0       -5.468657    0.651918   -0.304640
     22          1           0       -6.313031    0.098243    0.129228
     23          1           0       -5.559637    1.692160    0.032848
     24          1           0       -5.612859    0.653951   -1.394571
     25          6           0       -4.053910   -1.439531   -0.206467
     26          1           0       -3.013614   -1.775591   -0.355162
     27          1           0       -4.454861   -2.022230    0.635406
     28          1           0       -4.612966   -1.740254   -1.101213
     29          6           0       -1.835304    0.212651    1.007418
     30          1           0       -1.405973    0.808555    1.837997
     31          1           0       -1.945491   -0.814489    1.419320
     32          1           0       -1.463048    0.200736   -1.149212
 ---------------------------------------------------------------------
 Rotational constants (GHZ):      0.7223619      0.2480985      0.1893919
 Standard basis: 6-31+G(d,p) (6D, 7F)
 There are   402 symmetry adapted cartesian basis functions of A   symmetry.
 There are   402 symmetry adapted basis functions of A   symmetry.
   402 basis functions,   673 primitive gaussians,   402 cartesian basis functions
    65 alpha electrons       65 beta electrons
       nuclear repulsion energy      1237.6420840739 Hartrees.
 NAtoms=   32 NActive=   32 NUniq=   32 SFac= 1.00D+00 NAtFMM=   60 NAOKFM=F Big=F
 Integral buffers will be    131072 words long.
 Raffenetti 2 integral format.
 Two-electron integral symmetry is turned on.
 Nuclear repulsion after empirical dispersion term =     1237.6103166865 Hartrees.
 ------------------------------------------------------------------------------
 Polarizable Continuum Model (PCM)
 =================================
 Model                : C-PCM.
 Atomic radii         : UFF (Universal Force Field).
 Polarization charges : Total charges.
 Charge compensation  : None.
 Solution method      : On-the-fly selection.
 Cavity type          : Scaled VdW (van der Waals Surface) (Alpha=1.100).
 Cavity algorithm     : GePol (No added spheres)
                        Default sphere list used, NSphG=   32.
                        Lebedev-Laikov grids with approx.  5.0 points / Ang**2.
                        Smoothing algorithm: Karplus/York (Gamma=1.0000).
                        Polarization charges: spherical gaussians, with
                                              point-specific exponents (IZeta= 3).
                        Self-potential: point-specific (ISelfS= 7).
                        Self-field    : sphere-specific E.n sum rule (ISelfD= 2).
 1st derivatives      : Analytical E(r).r(x)/FMM algorithm (CHGder, D1EAlg=3).
                        Cavity 1st derivative terms included.
 Solvent              : Toluene, Eps=   2.374100 Eps(inf)=   2.238315
 ------------------------------------------------------------------------------
 One-electron integrals computed using PRISM.
 NBasis=   402 RedAO= T EigKep=  1.28D-06  NBF=   402
 NBsUse=   399 1.00D-06 EigRej=  8.33D-07 NBFU=   399
 ExpMin= 4.38D-02 ExpMax= 2.52D+04 ExpMxC= 3.78D+03 IAcc=2 IRadAn=         4 AccDes= 0.00D+00
 Harris functional with IExCor=  402 and IRadAn=       4 diagonalized for initial guess.
 HarFok:  IExCor=  402 AccDes= 0.00D+00 IRadAn=         4 IDoV= 1 UseB2=F ITyADJ=14
 ICtDFT=  3500011 ScaDFX=  1.000000  1.000000  1.000000  1.000000
 FoFCou: FMM=F IPFlag=           0 FMFlag=      100000 FMFlg1=           0
         NFxFlg=           0 DoJE=T BraDBF=F KetDBF=T FulRan=T
         wScrn=  0.000000 ICntrl=     500 IOpCl=  0 I1Cent=   200000004 NGrid=           0
         NMat0=    1 NMatS0=      1 NMatT0=    0 NMatD0=    1 NMtDS0=    0 NMtDT0=    0
 Petite list used in FoFCou.
 Requested convergence on RMS density matrix=1.00D-08 within 128 cycles.
 Requested convergence on MAX density matrix=1.00D-06.
 Requested convergence on             energy=1.00D-06.
 No special actions if energy rises.
 Inv3:  Mode=1 IEnd=    17482188.
 Iteration    1 A*A^-1 deviation from unit magnitude is 6.66D-15 for   2412.
 Iteration    1 A*A^-1 deviation from orthogonality  is 2.18D-15 for   2409   1321.
 Iteration    1 A^-1*A deviation from unit magnitude is 6.44D-15 for   2412.
 Iteration    1 A^-1*A deviation from orthogonality  is 2.15D-15 for   2383    967.
 Error on total polarization charges =  0.01290
 SCF Done:  E(RB3LYP) =  -1116.10686507     A.U. after   15 cycles
            NFock= 15  Conv=0.46D-08     -V/T= 2.0070

 **********************************************************************

            Population analysis using the SCF density.

 **********************************************************************

 Orbital symmetries:
       Occupied  (A) (A) (A) (A) (A) (A) (A) (A) (A) (A) (A) (A)
                 (A) (A) (A) (A) (A) (A) (A) (A) (A) (A) (A) (A)
                 (A) (A) (A) (A) (A) (A) (A) (A) (A) (A) (A) (A)
                 (A) (A) (A) (A) (A) (A) (A) (A) (A) (A) (A) (A)
                 (A) (A) (A) (A) (A) (A) (A) (A) (A) (A) (A) (A)
                 (A) (A) (A) (A) (A)
       Virtual   (A) (A) (A) (A) (A) (A) (A) (A) (A) (A) (A) (A)
                 (A) (A) (A) (A) (A) (A) (A) (A) (A) (A) (A) (A)
                 (A) (A) (A) (A) (A) (A) (A) (A) (A) (A) (A) (A)
                 (A) (A) (A) (A) (A) (A) (A) (A) (A) (A) (A) (A)
                 (A) (A) (A) (A) (A) (A) (A) (A) (A) (A) (A) (A)
                 (A) (A) (A) (A) (A) (A) (A) (A) (A) (A) (A) (A)
                 (A) (A) (A) (A) (A) (A) (A) (A) (A) (A) (A) (A)
                 (A) (A) (A) (A) (A) (A) (A) (A) (A) (A) (A) (A)
                 (A) (A) (A) (A) (A) (A) (A) (A) (A) (A) (A) (A)
                 (A) (A) (A) (A) (A) (A) (A) (A) (A) (A) (A) (A)
                 (A) (A) (A) (A) (A) (A) (A) (A) (A) (A) (A) (A)
                 (A) (A) (A) (A) (A) (A) (A) (A) (A) (A) (A) (A)
                 (A) (A) (A) (A) (A) (A) (A) (A) (A) (A) (A) (A)
                 (A) (A) (A) (A) (A) (A) (A) (A) (A) (A) (A) (A)
                 (A) (A) (A) (A) (A) (A) (A) (A) (A) (A) (A) (A)
                 (A) (A) (A) (A) (A) (A) (A) (A) (A) (A) (A) (A)
                 (A) (A) (A) (A) (A) (A) (A) (A) (A) (A) (A) (A)
                 (A) (A) (A) (A) (A) (A) (A) (A) (A) (A) (A) (A)
                 (A) (A) (A) (A) (A) (A) (A) (A) (A) (A) (A) (A)
                 (A) (A) (A) (A) (A) (A) (A) (A) (A) (A) (A) (A)
                 (A) (A) (A) (A) (A) (A) (A) (A) (A) (A) (A) (A)
                 (A) (A) (A) (A) (A) (A) (A) (A) (A) (A) (A) (A)
                 (A) (A) (A) (A) (A) (A) (A) (A) (A) (A) (A) (A)
                 (A) (A) (A) (A) (A) (A) (A) (A) (A) (A) (A) (A)
                 (A) (A) (A) (A) (A) (A) (A) (A) (A) (A) (A) (A)
                 (A) (A) (A) (A) (A) (A) (A) (A) (A) (A) (A) (A)
                 (A) (A) (A) (A) (A) (A) (A) (A) (A) (A) (A) (A)
                 (A) (A) (A) (A) (A) (A) (A) (A) (A) (A)
 The electronic state is 1-A.
 Alpha  occ. eigenvalues -- -101.56264 -19.15499 -10.29057 -10.26496 -10.23510
 Alpha  occ. eigenvalues --  -10.21990 -10.21884 -10.21783 -10.21783 -10.21499
 Alpha  occ. eigenvalues --  -10.21366 -10.21206 -10.20145 -10.19780 -10.18128
 Alpha  occ. eigenvalues --  -10.18123 -10.17559  -9.47825  -7.24213  -7.23265
 Alpha  occ. eigenvalues --   -7.23234  -1.05893  -0.91257  -0.87112  -0.84043
 Alpha  occ. eigenvalues --   -0.81281  -0.77959  -0.77251  -0.74060  -0.70102
 Alpha  occ. eigenvalues --   -0.69145  -0.65189  -0.64148  -0.61853  -0.58806
 Alpha  occ. eigenvalues --   -0.53766  -0.53103  -0.51706  -0.50603  -0.48067
 Alpha  occ. eigenvalues --   -0.46319  -0.45966  -0.45488  -0.44654  -0.44358
 Alpha  occ. eigenvalues --   -0.43813  -0.42736  -0.41906  -0.40548  -0.39931
 Alpha  occ. eigenvalues --   -0.39130  -0.38542  -0.37847  -0.37440  -0.36426
 Alpha  occ. eigenvalues --   -0.35937  -0.35830  -0.34510  -0.33359  -0.32291
 Alpha  occ. eigenvalues --   -0.29706  -0.27443  -0.26680  -0.24453  -0.23541
 Alpha virt. eigenvalues --   -0.08453  -0.05083  -0.00123   0.00304   0.00571
 Alpha virt. eigenvalues --    0.01342   0.01552   0.01952   0.02210   0.02801
 Alpha virt. eigenvalues --    0.02989   0.03366   0.04116   0.04659   0.05100
 Alpha virt. eigenvalues --    0.05558   0.05794   0.06294   0.06856   0.07203
 Alpha virt. eigenvalues --    0.07392   0.07973   0.08601   0.08835   0.09431
 Alpha virt. eigenvalues --    0.09935   0.10220   0.10554   0.11011   0.11730
 Alpha virt. eigenvalues --    0.12037   0.12594   0.13080   0.13433   0.13775
 Alpha virt. eigenvalues --    0.13883   0.14612   0.14947   0.15326   0.15660
 Alpha virt. eigenvalues --    0.16382   0.16815   0.16993   0.17178   0.17394
 Alpha virt. eigenvalues --    0.17980   0.18573   0.18897   0.19228   0.19259
 Alpha virt. eigenvalues --    0.19963   0.20114   0.20550   0.21069   0.21403
 Alpha virt. eigenvalues --    0.21552   0.22070   0.22537   0.22722   0.23035
 Alpha virt. eigenvalues --    0.23992   0.23999   0.24319   0.24578   0.25030
 Alpha virt. eigenvalues --    0.25257   0.25776   0.26025   0.26405   0.26628
 Alpha virt. eigenvalues --    0.27203   0.27352   0.27495   0.27887   0.28438
 Alpha virt. eigenvalues --    0.28981   0.29099   0.29893   0.30619   0.30776
 Alpha virt. eigenvalues --    0.31636   0.32043   0.32076   0.33066   0.33629
 Alpha virt. eigenvalues --    0.34451   0.35098   0.35448   0.36261   0.36559
 Alpha virt. eigenvalues --    0.36972   0.38907   0.39471   0.40872   0.41900
 Alpha virt. eigenvalues --    0.42863   0.43454   0.45925   0.47523   0.49146
 Alpha virt. eigenvalues --    0.50855   0.53224   0.56362   0.58558   0.60870
 Alpha virt. eigenvalues --    0.61900   0.63114   0.65571   0.65978   0.66547
 Alpha virt. eigenvalues --    0.67156   0.67534   0.68258   0.69044   0.69340
 Alpha virt. eigenvalues --    0.69721   0.70251   0.71595   0.72166   0.72283
 Alpha virt. eigenvalues --    0.72533   0.73169   0.73473   0.73642   0.74769
 Alpha virt. eigenvalues --    0.75473   0.75925   0.76148   0.78079   0.78397
 Alpha virt. eigenvalues --    0.79151   0.79513   0.81282   0.81536   0.83962
 Alpha virt. eigenvalues --    0.84228   0.84855   0.85263   0.86258   0.86962
 Alpha virt. eigenvalues --    0.87391   0.88186   0.89564   0.91546   0.92056
 Alpha virt. eigenvalues --    0.93151   0.94229   0.96177   0.96731   0.97067
 Alpha virt. eigenvalues --    0.98343   0.99435   0.99803   1.00463   1.01525
 Alpha virt. eigenvalues --    1.01936   1.05301   1.05540   1.07108   1.08862
 Alpha virt. eigenvalues --    1.09048   1.09810   1.11623   1.11968   1.13230
 Alpha virt. eigenvalues --    1.14626   1.14997   1.16031   1.17689   1.18712
 Alpha virt. eigenvalues --    1.20039   1.21045   1.22860   1.23747   1.24343
 Alpha virt. eigenvalues --    1.25539   1.26951   1.27740   1.30310   1.31891
 Alpha virt. eigenvalues --    1.33691   1.34194   1.34914   1.35446   1.36221
 Alpha virt. eigenvalues --    1.38416   1.38962   1.39530   1.39825   1.43550
 Alpha virt. eigenvalues --    1.45058   1.45186   1.46489   1.47250   1.49335
 Alpha virt. eigenvalues --    1.51308   1.53006   1.54499   1.58275   1.64803
 Alpha virt. eigenvalues --    1.68302   1.70087   1.70955   1.72640   1.73792
 Alpha virt. eigenvalues --    1.74218   1.75567   1.77694   1.80192   1.81561
 Alpha virt. eigenvalues --    1.82983   1.83691   1.85645   1.86384   1.88039
 Alpha virt. eigenvalues --    1.88625   1.88866   1.90236   1.90932   1.92654
 Alpha virt. eigenvalues --    1.95053   1.96298   1.97090   1.99132   1.99952
 Alpha virt. eigenvalues --    2.00406   2.01263   2.02513   2.03296   2.05025
 Alpha virt. eigenvalues --    2.05839   2.06794   2.07397   2.07978   2.11088
 Alpha virt. eigenvalues --    2.11663   2.13506   2.14499   2.15060   2.17806
 Alpha virt. eigenvalues --    2.19214   2.21543   2.22575   2.24039   2.25557
 Alpha virt. eigenvalues --    2.25909   2.27977   2.29391   2.31400   2.34456
 Alpha virt. eigenvalues --    2.35986   2.36354   2.37277   2.37919   2.38779
 Alpha virt. eigenvalues --    2.41321   2.43392   2.44145   2.45593   2.46563
 Alpha virt. eigenvalues --    2.47151   2.48139   2.51733   2.52715   2.54157
 Alpha virt. eigenvalues --    2.54898   2.56081   2.56230   2.58008   2.58297
 Alpha virt. eigenvalues --    2.58903   2.62150   2.63218   2.64562   2.66090
 Alpha virt. eigenvalues --    2.66553   2.68117   2.68962   2.71094   2.71562
 Alpha virt. eigenvalues --    2.73096   2.73335   2.75957   2.78725   2.79917
 Alpha virt. eigenvalues --    2.81801   2.83700   2.84274   2.87502   2.88926
 Alpha virt. eigenvalues --    2.90311   2.92227   2.94492   2.98599   3.03407
 Alpha virt. eigenvalues --    3.04840   3.10323   3.12517   3.13344   3.19867
 Alpha virt. eigenvalues --    3.24304   3.25013   3.26134   3.27801   3.32758
 Alpha virt. eigenvalues --    3.33790   3.36432   3.39566   3.43893   3.46591
 Alpha virt. eigenvalues --    3.47115   3.47620   3.48717   3.51675   3.53002
 Alpha virt. eigenvalues --    3.57084   3.83467   4.23858   4.28698   4.31897
 Alpha virt. eigenvalues --    4.33092   4.33824   4.35955   4.37959   4.40927
 Alpha virt. eigenvalues --    4.47303   4.50240   4.53212   4.55865   4.60343
 Alpha virt. eigenvalues --    4.65559   4.74888   4.80366   4.96014
          Condensed to atoms (all electrons):
               1          2          3          4          5          6
     1  C    6.770349  -1.011755   1.276604  -0.396159  -0.819331   0.828532
     2  C   -1.011755  11.476074  -5.655501   0.280744   1.166932  -0.628632
     3  C    1.276604  -5.655501  14.674990  -1.646973  -0.518385  -0.064170
     4  C   -0.396159   0.280744  -1.646973  11.405912  -1.046424   0.328800
     5  C   -0.819331   1.166932  -0.518385  -1.046424   8.808650  -1.024248
     6  C    0.828532  -0.628632  -0.064170   0.328800  -1.024248   6.669190
     7  H    0.260488   0.027123   0.018118   0.000656  -0.007477   0.019598
     8  H    0.133651   0.226854   0.002580  -0.010980  -0.003933   0.013467
     9  H    0.017160  -0.028366   0.051635  -0.119610   0.386334  -0.125421
    10  H    0.006859   0.044784  -0.008545   0.014923  -0.054183   0.326784
    11  C   -0.243238   0.570408  -1.619143  -1.322627   0.321406  -0.215584
    12  C   -0.133156   0.937329  -1.159712  -1.222509  -0.519628   0.240802
    13  C   -0.187799  -0.085015   0.008766  -1.496354   0.042433  -0.385471
    14  C   -0.021302  -0.957478   0.574617   1.119543  -0.493095  -0.008251
    15  H    0.001759   0.005051   0.026268  -0.023022   0.004207   0.000161
    16  O   -0.016024   0.027552  -0.051783  -0.160364  -0.047415   0.039167
    17  Cl   0.032654   0.015312  -0.144471  -0.065891  -0.030482   0.003985
    18  C   -0.000532  -0.009139   0.008443   0.103788   0.025176   0.001441
    19  C    0.003684   0.031814  -0.004233  -0.083649  -0.065234  -0.014715
    20  H   -0.000004   0.000138   0.000476  -0.001299   0.000472   0.000017
    21  C    0.000187  -0.000502   0.010104  -0.006472  -0.002573  -0.000832
    22  H    0.000000   0.000002   0.000016  -0.000131  -0.000032  -0.000001
    23  H    0.000000   0.000003   0.000037  -0.000128  -0.000008   0.000000
    24  H    0.000000  -0.000003  -0.000002   0.000078   0.000004   0.000001
    25  C   -0.000722   0.005099  -0.002496  -0.140094  -0.009696  -0.003472
    26  H    0.000067   0.000303   0.004784  -0.021015  -0.004262  -0.001011
    27  H   -0.000006  -0.000027  -0.000752   0.004468   0.000345   0.000053
    28  H    0.000000  -0.000009  -0.000091   0.000318   0.000161   0.000022
    29  C   -0.002844   0.021935  -0.006989   0.020517   0.083183   0.012175
    30  H   -0.000071   0.004123  -0.022650  -0.008456  -0.007146   0.000479
    31  H   -0.000197  -0.001794   0.004815   0.039962   0.007714   0.000009
    32  H    0.000010   0.008902  -0.000085  -0.013485  -0.006251  -0.000232
               7          8          9         10         11         12
     1  C    0.260488   0.133651   0.017160   0.006859  -0.243238  -0.133156
     2  C    0.027123   0.226854  -0.028366   0.044784   0.570408   0.937329
     3  C    0.018118   0.002580   0.051635  -0.008545  -1.619143  -1.159712
     4  C    0.000656  -0.010980  -0.119610   0.014923  -1.322627  -1.222509
     5  C   -0.007477  -0.003933   0.386334  -0.054183   0.321406  -0.519628
     6  C    0.019598   0.013467  -0.125421   0.326784  -0.215584   0.240802
     7  H    0.547821  -0.004992  -0.000150  -0.004728  -0.004254   0.000264
     8  H   -0.004992   0.542065   0.000013  -0.000153  -0.002285  -0.052622
     9  H   -0.000150   0.000013   0.531090  -0.004523   0.083602  -0.009155
    10  H   -0.004728  -0.000153  -0.004523   0.548664  -0.016123   0.001851
    11  C   -0.004254  -0.002285   0.083602  -0.016123  10.942022   1.304156
    12  C    0.000264  -0.052622  -0.009155   0.001851   1.304156  10.270664
    13  C   -0.000604  -0.000054   0.046763  -0.001124  -2.054552  -1.931107
    14  C    0.000627   0.008031   0.004887   0.000032  -2.133630  -1.518906
    15  H    0.000000  -0.000004   0.000000   0.000000   0.039914   0.052192
    16  O    0.000009   0.000022   0.001205   0.000185   0.662888  -0.025062
    17  Cl   0.000397  -0.009291   0.000042   0.000078   0.039589  -0.178590
    18  C    0.000001  -0.000009  -0.000366  -0.000001   0.327116  -0.111277
    19  C   -0.000003   0.000096   0.000739  -0.000004  -0.562805   0.049535
    20  H    0.000000   0.000000   0.000000   0.000000   0.019402   0.007966
    21  C    0.000000   0.000000   0.000003   0.000000  -0.041530   0.002975
    22  H    0.000000   0.000000   0.000000   0.000000  -0.002300   0.000043
    23  H    0.000000   0.000000   0.000000   0.000000  -0.002444   0.000116
    24  H    0.000000   0.000000   0.000000   0.000000   0.000100   0.000335
    25  C    0.000000   0.000001   0.000466  -0.000001  -0.314096   0.029350
    26  H    0.000000   0.000000  -0.000004   0.000000  -0.044671   0.004400
    27  H    0.000000   0.000000   0.000000   0.000000   0.020832  -0.001367
    28  H    0.000000   0.000000   0.000000   0.000000  -0.000375   0.000364
    29  C    0.000002  -0.000069  -0.000460  -0.000010   0.533992   0.232282
    30  H    0.000000   0.000000   0.000000   0.000000   0.050793   0.054954
    31  H    0.000000   0.000000   0.000000   0.000000   0.026332  -0.028595
    32  H    0.000000   0.000000  -0.000006   0.000000  -0.038469   0.072146
              13         14         15         16         17         18
     1  C   -0.187799  -0.021302   0.001759  -0.016024   0.032654  -0.000532
     2  C   -0.085015  -0.957478   0.005051   0.027552   0.015312  -0.009139
     3  C    0.008766   0.574617   0.026268  -0.051783  -0.144471   0.008443
     4  C   -1.496354   1.119543  -0.023022  -0.160364  -0.065891   0.103788
     5  C    0.042433  -0.493095   0.004207  -0.047415  -0.030482   0.025176
     6  C   -0.385471  -0.008251   0.000161   0.039167   0.003985   0.001441
     7  H   -0.000604   0.000627   0.000000   0.000009   0.000397   0.000001
     8  H   -0.000054   0.008031  -0.000004   0.000022  -0.009291  -0.000009
     9  H    0.046763   0.004887   0.000000   0.001205   0.000042  -0.000366
    10  H   -0.001124   0.000032   0.000000   0.000185   0.000078  -0.000001
    11  C   -2.054552  -2.133630   0.039914   0.662888   0.039589   0.327116
    12  C   -1.931107  -1.518906   0.052192  -0.025062  -0.178590  -0.111277
    13  C   11.351666   0.775583  -0.041531  -0.223861  -0.047647   0.069659
    14  C    0.775583   8.556342   0.230898  -0.029098  -0.045152  -0.214723
    15  H   -0.041531   0.230898   0.523515  -0.000801  -0.003031   0.005190
    16  O   -0.223861  -0.029098  -0.000801   8.348148  -0.000912   0.013271
    17  Cl  -0.047647  -0.045152  -0.003031  -0.000912  17.133464  -0.004421
    18  C    0.069659  -0.214723   0.005190   0.013271  -0.004421   6.874064
    19  C   -0.020989   0.494324  -0.027037   0.040175  -0.011932  -0.608483
    20  H    0.031656  -0.029967  -0.000335  -0.000035  -0.000074   0.016464
    21  C   -0.007331   0.026878   0.000126   0.004094   0.000070  -0.519575
    22  H    0.006438   0.000416   0.000000  -0.000012  -0.000001  -0.070542
    23  H    0.005950   0.000374   0.000001   0.000008  -0.000003  -0.068197
    24  H   -0.008556   0.003458  -0.000001   0.000011   0.000006  -0.177757
    25  C    0.430485   0.024108   0.000428  -0.048819  -0.000478   0.025238
    26  H    0.047774   0.011592  -0.000002   0.002902   0.000002  -0.121085
    27  H   -0.012214  -0.008007   0.000000   0.000668  -0.000003  -0.018253
    28  H   -0.006627   0.002702   0.000000   0.001012   0.000003  -0.093760
    29  C   -0.589888  -0.540162   0.049900  -0.076353   0.043768   0.076881
    30  H   -0.121322   0.037565  -0.000396  -0.001444   0.000749   0.015840
    31  H   -0.088431  -0.034562  -0.000055   0.006607  -0.000358   0.015999
    32  H    0.257886   0.052573  -0.002983  -0.010071   0.001798  -0.000001
              19         20         21         22         23         24
     1  C    0.003684  -0.000004   0.000187   0.000000   0.000000   0.000000
     2  C    0.031814   0.000138  -0.000502   0.000002   0.000003  -0.000003
     3  C   -0.004233   0.000476   0.010104   0.000016   0.000037  -0.000002
     4  C   -0.083649  -0.001299  -0.006472  -0.000131  -0.000128   0.000078
     5  C   -0.065234   0.000472  -0.002573  -0.000032  -0.000008   0.000004
     6  C   -0.014715   0.000017  -0.000832  -0.000001   0.000000   0.000001
     7  H   -0.000003   0.000000   0.000000   0.000000   0.000000   0.000000
     8  H    0.000096   0.000000   0.000000   0.000000   0.000000   0.000000
     9  H    0.000739   0.000000   0.000003   0.000000   0.000000   0.000000
    10  H   -0.000004   0.000000   0.000000   0.000000   0.000000   0.000000
    11  C   -0.562805   0.019402  -0.041530  -0.002300  -0.002444   0.000100
    12  C    0.049535   0.007966   0.002975   0.000043   0.000116   0.000335
    13  C   -0.020989   0.031656  -0.007331   0.006438   0.005950  -0.008556
    14  C    0.494324  -0.029967   0.026878   0.000416   0.000374   0.003458
    15  H   -0.027037  -0.000335   0.000126   0.000000   0.000001  -0.000001
    16  O    0.040175  -0.000035   0.004094  -0.000012   0.000008   0.000011
    17  Cl  -0.011932  -0.000074   0.000070  -0.000001  -0.000003   0.000006
    18  C   -0.608483   0.016464  -0.519575  -0.070542  -0.068197  -0.177757
    19  C    7.329082   0.258151   0.247575   0.011574  -0.062076   0.078190
    20  H    0.258151   0.585927  -0.030809   0.000158   0.003926   0.000271
    21  C    0.247575  -0.030809   5.995571   0.397857   0.486360   0.493794
    22  H    0.011574   0.000158   0.397857   0.555058  -0.027773  -0.032351
    23  H   -0.062076   0.003926   0.486360  -0.027773   0.549294  -0.027721
    24  H    0.078190   0.000271   0.493794  -0.032351  -0.027721   0.554282
    25  C   -0.310047  -0.000131  -0.277268   0.016663   0.001480  -0.044046
    26  H   -0.037622   0.000047  -0.002531   0.000063  -0.000142   0.000014
    27  H   -0.053308  -0.000141  -0.026578   0.001606  -0.000091  -0.000154
    28  H    0.068455  -0.000116  -0.013780  -0.000920   0.000200   0.002272
    29  C   -0.666215   0.023392  -0.123899  -0.010196  -0.007501  -0.000186
    30  H   -0.007858  -0.006568  -0.004990   0.000006  -0.000008   0.000000
    31  H   -0.123860   0.003930  -0.007450   0.000021   0.000003  -0.000014
    32  H   -0.024826   0.000917  -0.013901   0.000000  -0.000011   0.000053
              25         26         27         28         29         30
     1  C   -0.000722   0.000067  -0.000006   0.000000  -0.002844  -0.000071
     2  C    0.005099   0.000303  -0.000027  -0.000009   0.021935   0.004123
     3  C   -0.002496   0.004784  -0.000752  -0.000091  -0.006989  -0.022650
     4  C   -0.140094  -0.021015   0.004468   0.000318   0.020517  -0.008456
     5  C   -0.009696  -0.004262   0.000345   0.000161   0.083183  -0.007146
     6  C   -0.003472  -0.001011   0.000053   0.000022   0.012175   0.000479
     7  H    0.000000   0.000000   0.000000   0.000000   0.000002   0.000000
     8  H    0.000001   0.000000   0.000000   0.000000  -0.000069   0.000000
     9  H    0.000466  -0.000004   0.000000   0.000000  -0.000460   0.000000
    10  H   -0.000001   0.000000   0.000000   0.000000  -0.000010   0.000000
    11  C   -0.314096  -0.044671   0.020832  -0.000375   0.533992   0.050793
    12  C    0.029350   0.004400  -0.001367   0.000364   0.232282   0.054954
    13  C    0.430485   0.047774  -0.012214  -0.006627  -0.589888  -0.121322
    14  C    0.024108   0.011592  -0.008007   0.002702  -0.540162   0.037565
    15  H    0.000428  -0.000002   0.000000   0.000000   0.049900  -0.000396
    16  O   -0.048819   0.002902   0.000668   0.001012  -0.076353  -0.001444
    17  Cl  -0.000478   0.000002  -0.000003   0.000003   0.043768   0.000749
    18  C    0.025238  -0.121085  -0.018253  -0.093760   0.076881   0.015840
    19  C   -0.310047  -0.037622  -0.053308   0.068455  -0.666215  -0.007858
    20  H   -0.000131   0.000047  -0.000141  -0.000116   0.023392  -0.006568
    21  C   -0.277268  -0.002531  -0.026578  -0.013780  -0.123899  -0.004990
    22  H    0.016663   0.000063   0.001606  -0.000920  -0.010196   0.000006
    23  H    0.001480  -0.000142  -0.000091   0.000200  -0.007501  -0.000008
    24  H   -0.044046   0.000014  -0.000154   0.002272  -0.000186   0.000000
    25  C    6.041377   0.511459   0.449460   0.395868  -0.065104   0.002450
    26  H    0.511459   0.514606  -0.026979  -0.027746   0.007281   0.000036
    27  H    0.449460  -0.026979   0.540285  -0.029163  -0.007714   0.000035
    28  H    0.395868  -0.027746  -0.029163   0.551856  -0.001532  -0.000006
    29  C   -0.065104   0.007281  -0.007714  -0.001532   6.771004   0.321912
    30  H    0.002450   0.000036   0.000035  -0.000006   0.321912   0.564307
    31  H   -0.004214  -0.001672   0.000969  -0.000028   0.502501  -0.029279
    32  H   -0.005542   0.000097   0.000001   0.000071  -0.009084   0.003860
              31         32
     1  C   -0.000197   0.000010
     2  C   -0.001794   0.008902
     3  C    0.004815  -0.000085
     4  C    0.039962  -0.013485
     5  C    0.007714  -0.006251
     6  C    0.000009  -0.000232
     7  H    0.000000   0.000000
     8  H    0.000000   0.000000
     9  H    0.000000  -0.000006
    10  H    0.000000   0.000000
    11  C    0.026332  -0.038469
    12  C   -0.028595   0.072146
    13  C   -0.088431   0.257886
    14  C   -0.034562   0.052573
    15  H   -0.000055  -0.002983
    16  O    0.006607  -0.010071
    17  Cl  -0.000358   0.001798
    18  C    0.015999  -0.000001
    19  C   -0.123860  -0.024826
    20  H    0.003930   0.000917
    21  C   -0.007450  -0.013901
    22  H    0.000021   0.000000
    23  H    0.000003  -0.000011
    24  H   -0.000014   0.000053
    25  C   -0.004214  -0.005542
    26  H   -0.001672   0.000097
    27  H    0.000969   0.000001
    28  H   -0.000028   0.000071
    29  C    0.502501  -0.009084
    30  H   -0.029279   0.003860
    31  H    0.537049   0.001338
    32  H    0.001338   0.531905
 Mulliken charges:
               1
     1  C   -0.498862
     2  C   -0.472259
     3  C    0.243729
     4  C    0.465933
     5  C   -0.187216
     6  C   -0.012641
     7  H    0.147106
     8  H    0.157612
     9  H    0.164121
    10  H    0.145235
    11  C   -0.324424
    12  C   -0.370040
    13  C    0.235417
    14  C    0.109780
    15  H    0.159588
    16  O   -0.455871
    17  Cl   0.270820
    18  C    0.439550
    19  C    0.071500
    20  H    0.116168
    21  C   -0.585573
    22  H    0.154339
    23  H    0.148353
    24  H    0.157924
    25  C   -0.707704
    26  H    0.183314
    27  H    0.166035
    28  H    0.150849
    29  C   -0.592520
    30  H    0.153086
    31  H    0.173261
    32  H    0.193390
 Sum of Mulliken charges =   0.00000
 Mulliken charges with hydrogens summed into heavy atoms:
               1
     1  C   -0.351756
     2  C   -0.314648
     3  C    0.243729
     4  C    0.465933
     5  C   -0.023094
     6  C    0.132594
    11  C   -0.324424
    12  C   -0.370040
    13  C    0.428807
    14  C    0.269368
    16  O   -0.455871
    17  Cl   0.270820
    18  C    0.439550
    19  C    0.187668
    21  C   -0.124957
    25  C   -0.207506
    29  C   -0.266173
 Electronic spatial extent (au):  <R**2>=           5563.4801
 Charge=              0.0000 electrons
 Dipole moment (field-independent basis, Debye):
    X=              0.9442    Y=              0.5506    Z=              0.3379  Tot=              1.1441
 Quadrupole moment (field-independent basis, Debye-Ang):
   XX=            -94.7551   YY=           -112.3283   ZZ=           -111.1351
   XY=             -8.8315   XZ=              2.0385   YZ=             -1.1111
 Traceless Quadrupole moment (field-independent basis, Debye-Ang):
   XX=             11.3177   YY=             -6.2555   ZZ=             -5.0622
   XY=             -8.8315   XZ=              2.0385   YZ=             -1.1111
 Octapole moment (field-independent basis, Debye-Ang**2):
  XXX=             46.6918  YYY=              1.3039  ZZZ=             -3.9193  XYY=             12.3509
  XXY=            -20.4129  XXZ=             -2.1363  XZZ=             -8.2486  YZZ=              2.8389
  YYZ=              5.3897  XYZ=              0.6469
 Hexadecapole moment (field-independent basis, Debye-Ang**3):
 XXXX=          -5267.2708 YYYY=          -1770.8311 ZZZZ=           -239.4833 XXXY=            -18.2031
 XXXZ=             57.7474 YYYX=            -61.0040 YYYZ=             -8.1681 ZZZX=              9.1187
 ZZZY=              2.0418 XXYY=          -1185.5919 XXZZ=          -1037.9847 YYZZ=           -352.5197
 XXYZ=             -7.9822 YYXZ=             -3.2880 ZZXY=             24.5299
 N-N= 1.237610316687D+03 E-N=-5.088739690194D+03  KE= 1.108371087629D+03
 D1PCM: C-PCM CHGder 1st derivatives, ID1Alg=3 FixD1E=F DoIter=F DoCFld=F I1PDM=0.
 Calling FoFJK, ICntrl=      2127 FMM=F ISym2X=0 I1Cent= 0 IOpClX= 0 NMat=1 NMatS=1 NMatT=0.
 ***** Axes restored to original set *****
 -------------------------------------------------------------------
 Center     Atomic                   Forces (Hartrees/Bohr)
 Number     Number              X              Y              Z
 -------------------------------------------------------------------
      1        6           0.002563858    0.000925706    0.000215160
      2        6           0.005866714   -0.001340997    0.000403301
      3        6          -0.001277496    0.002274109    0.000113094
      4        6           0.000088857   -0.007741390    0.001037197
      5        6           0.000244050   -0.004030535   -0.000066658
      6        6           0.000065794   -0.003727798    0.000022168
      7        1          -0.004056227    0.000487095   -0.000327910
      8        1          -0.004428234   -0.004009257   -0.000452003
      9        1           0.002130377    0.006405033    0.000109704
     10        1          -0.001600482    0.002487156   -0.000131061
     11        6           0.010221199    0.013649586   -0.003625654
     12        6          -0.008291970   -0.004666007   -0.000091074
     13        6           0.002615369   -0.003933823   -0.014873052
     14        6          -0.004197314    0.001326532   -0.003591492
     15        1           0.006694258   -0.002348563    0.000496771
     16        8          -0.007124522   -0.014074059   -0.000286164
     17       17           0.007769644    0.018234040    0.000230918
     18        6          -0.001807030    0.010068561    0.001078177
     19        6          -0.002215167    0.000808131    0.005777608
     20        1          -0.005366004    0.000675058   -0.001893401
     21        6          -0.008154260    0.007459752   -0.001625809
     22        1           0.000899553   -0.001192448   -0.000977565
     23        1           0.002104243   -0.001273558    0.000121492
     24        1          -0.000449517   -0.002084709    0.000353707
     25        6           0.011648168   -0.013305119   -0.002198825
     26        1          -0.006207655    0.001965989    0.001636627
     27        1          -0.001592420    0.000369358   -0.000583583
     28        1          -0.001907375    0.002624364    0.001108429
     29        6          -0.003265759   -0.009257114    0.016228083
     30        1          -0.001837999   -0.003048660   -0.007905280
     31        1           0.001590725    0.008887548   -0.007128534
     32        1           0.009276623   -0.002613982    0.016825629
 -------------------------------------------------------------------
 Cartesian Forces:  Max     0.018234040 RMS     0.005817051

 GradGradGradGradGradGradGradGradGradGradGradGradGradGradGradGradGradGrad
 Berny optimization.
 FormGI is forming the generalized inverse of G from B-inverse, IUseBI=4.
 Internal  Forces:  Max     0.019633355 RMS     0.004031180
 Search for a local minimum.
 Step number   1 out of a maximum of  179
 All quantities printed in internal units (Hartrees-Bohrs-Radians)
 Mixed Optimization -- RFO/linear search
 Second derivative matrix not updated -- first step.
 ITU=  0
     Eigenvalues ---    0.00230   0.00609   0.00712   0.00788   0.00805
     Eigenvalues ---    0.00831   0.01370   0.01414   0.01521   0.01675
     Eigenvalues ---    0.01694   0.01783   0.01896   0.02077   0.02081
     Eigenvalues ---    0.02095   0.02113   0.02119   0.02135   0.02206
     Eigenvalues ---    0.02832   0.04145   0.04319   0.05323   0.05376
     Eigenvalues ---    0.06406   0.06957   0.06961   0.07177   0.07196
     Eigenvalues ---    0.09233   0.12746   0.16000   0.16000   0.16000
     Eigenvalues ---    0.16000   0.16000   0.16000   0.16000   0.16000
     Eigenvalues ---    0.16000   0.16000   0.16000   0.16000   0.16779
     Eigenvalues ---    0.19336   0.21837   0.22000   0.22000   0.22581
     Eigenvalues ---    0.24219   0.24499   0.24988   0.24999   0.24999
     Eigenvalues ---    0.25000   0.25000   0.27440   0.29275   0.30458
     Eigenvalues ---    0.31963   0.32376   0.32549   0.32577   0.32690
     Eigenvalues ---    0.32735   0.32900   0.33320   0.33330   0.33730
     Eigenvalues ---    0.33745   0.33795   0.33972   0.34009   0.34303
     Eigenvalues ---    0.34370   0.34589   0.34712   0.34817   0.35036
     Eigenvalues ---    0.35588   0.39518   0.41484   0.44107   0.45280
     Eigenvalues ---    0.45717   0.46245   0.55255   0.56361   0.96129
 RFO step:  Lambda=-1.14865545D-02 EMin= 2.30000000D-03
 Linear search not attempted -- first point.
 Iteration  1 RMS(Cart)=  0.17179624 RMS(Int)=  0.00394932
 Iteration  2 RMS(Cart)=  0.00908945 RMS(Int)=  0.00018423
 Iteration  3 RMS(Cart)=  0.00002988 RMS(Int)=  0.00018389
 Iteration  4 RMS(Cart)=  0.00000001 RMS(Int)=  0.00018389
 Variable       Old X    -DE/DX   Delta X   Delta X   Delta X     New X
                                 (Linear)    (Quad)   (Total)
    R1        2.63991  -0.00120   0.00000  -0.00265  -0.00264   2.63727
    R2        2.64438  -0.00010   0.00000  -0.00061  -0.00062   2.64377
    R3        2.06347  -0.00407   0.00000  -0.01139  -0.01139   2.05209
    R4        2.65216   0.00083   0.00000   0.00212   0.00213   2.65429
    R5        2.06145  -0.00574   0.00000  -0.01602  -0.01602   2.04543
    R6        2.67021   0.00487   0.00000   0.01235   0.01231   2.68252
    R7        2.76858   0.00642   0.00000   0.01823   0.01819   2.78676
    R8        2.65338  -0.00132   0.00000  -0.00277  -0.00278   2.65060
    R9        2.80892  -0.00005   0.00000   0.00000   0.00000   2.80891
   R10        2.63515  -0.00240   0.00000  -0.00534  -0.00534   2.62981
   R11        2.06821  -0.00660   0.00000  -0.01860  -0.01860   2.04961
   R12        2.05972  -0.00296   0.00000  -0.00822  -0.00822   2.05151
   R13        2.88444   0.00233   0.00000   0.00623   0.00628   2.89072
   R14        2.30230   0.01572   0.00000   0.01616   0.01616   2.31846
   R15        2.53414  -0.00098   0.00000  -0.00174  -0.00174   2.53240
   R16        3.26801   0.01963   0.00000   0.05821   0.05821   3.32622
   R17        2.82471   0.00489   0.00000   0.01303   0.01307   2.83777
   R18        2.93379   0.01359   0.00000   0.04753   0.04753   2.98132
   R19        2.13759  -0.01919   0.00000  -0.06071  -0.06071   2.07689
   R20        2.06710  -0.00544   0.00000  -0.01532  -0.01532   2.05178
   R21        2.53942   0.00192   0.00000   0.00334   0.00334   2.54277
   R22        2.83151   0.00664   0.00000   0.01970   0.01970   2.85121
   R23        2.82528   0.00832   0.00000   0.02444   0.02444   2.84972
   R24        2.05617   0.00097   0.00000   0.00267   0.00267   2.05884
   R25        2.82899   0.01312   0.00000   0.03878   0.03878   2.86776
   R26        2.07678  -0.00048   0.00000  -0.00137  -0.00137   2.07541
   R27        2.07378  -0.00134   0.00000  -0.00383  -0.00383   2.06995
   R28        2.07762  -0.00029   0.00000  -0.00084  -0.00084   2.07678
   R29        2.08493  -0.00667   0.00000  -0.01936  -0.01936   2.06557
   R30        2.07788  -0.00006   0.00000  -0.00017  -0.00017   2.07771
   R31        2.07315  -0.00065   0.00000  -0.00186  -0.00186   2.07129
   R32        2.09520  -0.00827   0.00000  -0.02441  -0.02441   2.07079
   R33        2.10161  -0.01101   0.00000  -0.03284  -0.03284   2.06877
    A1        2.10430   0.00074   0.00000   0.00217   0.00216   2.10646
    A2        2.08781  -0.00087   0.00000  -0.00399  -0.00398   2.08383
    A3        2.09107   0.00013   0.00000   0.00182   0.00182   2.09290
    A4        2.09648   0.00216   0.00000   0.00976   0.00976   2.10625
    A5        2.07483   0.00067   0.00000   0.00532   0.00532   2.08015
    A6        2.11187  -0.00283   0.00000  -0.01508  -0.01508   2.09679
    A7        2.08337  -0.00431   0.00000  -0.01623  -0.01619   2.06718
    A8        2.14215   0.00215   0.00000   0.00653   0.00656   2.14870
    A9        2.05766   0.00216   0.00000   0.00970   0.00963   2.06730
   A10        2.09230   0.00109   0.00000   0.00482   0.00482   2.09712
   A11        2.12020  -0.00044   0.00000  -0.00160  -0.00160   2.11860
   A12        2.07068  -0.00065   0.00000  -0.00322  -0.00322   2.06746
   A13        2.10066   0.00147   0.00000   0.00590   0.00589   2.10654
   A14        2.07879  -0.00222   0.00000  -0.01159  -0.01158   2.06721
   A15        2.10373   0.00075   0.00000   0.00569   0.00570   2.10943
   A16        2.08925  -0.00114   0.00000  -0.00642  -0.00644   2.08281
   A17        2.09692   0.00072   0.00000   0.00410   0.00411   2.10103
   A18        2.09701   0.00042   0.00000   0.00232   0.00233   2.09934
   A19        2.07421   0.00034   0.00000  -0.00147  -0.00162   2.07260
   A20        2.12052  -0.00112   0.00000  -0.00277  -0.00310   2.11743
   A21        2.08843   0.00078   0.00000   0.00449   0.00415   2.09258
   A22        2.16311  -0.00516   0.00000  -0.01996  -0.01998   2.14313
   A23        2.04284   0.00692   0.00000   0.02657   0.02656   2.06940
   A24        2.07723  -0.00176   0.00000  -0.00660  -0.00661   2.07062
   A25        2.00699  -0.00129   0.00000  -0.00363  -0.00388   2.00311
   A26        1.91250   0.00380   0.00000   0.03047   0.03042   1.94292
   A27        1.84874  -0.00073   0.00000  -0.00965  -0.00952   1.83922
   A28        1.92615  -0.00065   0.00000   0.00539   0.00504   1.93119
   A29        1.87495   0.00065   0.00000  -0.00443  -0.00446   1.87049
   A30        1.88934  -0.00198   0.00000  -0.02139  -0.02125   1.86809
   A31        2.14001   0.00430   0.00000   0.01454   0.01459   2.15460
   A32        2.13610  -0.00688   0.00000  -0.03488  -0.03496   2.10114
   A33        2.00708   0.00258   0.00000   0.02029   0.02021   2.02729
   A34        2.11204  -0.00081   0.00000  -0.00309  -0.00309   2.10895
   A35        2.16117   0.00117   0.00000   0.00446   0.00445   2.16562
   A36        2.00995  -0.00036   0.00000  -0.00140  -0.00140   2.00855
   A37        2.11287  -0.01044   0.00000  -0.05390  -0.05390   2.05897
   A38        2.17037   0.00929   0.00000   0.04010   0.04010   2.21047
   A39        1.99993   0.00116   0.00000   0.01376   0.01376   2.01369
   A40        1.94430  -0.00101   0.00000  -0.00758  -0.00762   1.93668
   A41        1.97365  -0.00204   0.00000  -0.00898  -0.00898   1.96467
   A42        1.93876  -0.00023   0.00000  -0.00250  -0.00253   1.93623
   A43        1.86759   0.00213   0.00000   0.01462   0.01461   1.88220
   A44        1.86663  -0.00051   0.00000  -0.00856  -0.00862   1.85801
   A45        1.86738   0.00190   0.00000   0.01426   0.01426   1.88164
   A46        1.97002   0.00149   0.00000   0.01381   0.01383   1.98386
   A47        1.93457  -0.00023   0.00000  -0.00336  -0.00356   1.93101
   A48        1.96200  -0.00439   0.00000  -0.02864  -0.02875   1.93325
   A49        1.86042   0.00057   0.00000   0.00918   0.00912   1.86954
   A50        1.86197   0.00238   0.00000   0.01753   0.01763   1.87961
   A51        1.86853   0.00045   0.00000  -0.00707  -0.00740   1.86113
   A52        1.93921   0.01257   0.00000   0.05487   0.05467   1.99388
   A53        1.92006  -0.00550   0.00000  -0.04258  -0.04225   1.87782
   A54        1.91648  -0.00487   0.00000  -0.01418  -0.01549   1.90098
   A55        1.92782  -0.00503   0.00000  -0.03545  -0.03462   1.89320
   A56        1.92639  -0.00132   0.00000   0.01974   0.01930   1.94570
   A57        1.83103   0.00341   0.00000   0.01434   0.01410   1.84512
    D1        0.00031   0.00005   0.00000   0.00123   0.00125   0.00157
    D2        3.14080   0.00010   0.00000   0.00157   0.00159  -3.14079
    D3       -3.14151   0.00003   0.00000   0.00125   0.00126  -3.14026
    D4       -0.00102   0.00008   0.00000   0.00158   0.00159   0.00057
    D5       -0.00033   0.00001   0.00000   0.00088   0.00088   0.00056
    D6        3.14079   0.00002   0.00000   0.00063   0.00062   3.14141
    D7        3.14150   0.00003   0.00000   0.00087   0.00088  -3.14080
    D8       -0.00057   0.00004   0.00000   0.00061   0.00062   0.00004
    D9        0.00067  -0.00008   0.00000  -0.00273  -0.00273  -0.00206
   D10        3.14019   0.00011   0.00000  -0.00152  -0.00149   3.13871
   D11       -3.13980  -0.00014   0.00000  -0.00309  -0.00308   3.14030
   D12       -0.00027   0.00006   0.00000  -0.00187  -0.00184  -0.00211
   D13       -0.00164   0.00005   0.00000   0.00214   0.00212   0.00048
   D14        3.13914  -0.00002   0.00000   0.00386   0.00388  -3.14017
   D15       -3.14126  -0.00014   0.00000   0.00099   0.00094  -3.14032
   D16       -0.00049  -0.00021   0.00000   0.00270   0.00270   0.00221
   D17       -3.09846  -0.00023   0.00000  -0.00064  -0.00056  -3.09902
   D18        0.04417  -0.00018   0.00000  -0.00996  -0.00999   0.03418
   D19        0.04109  -0.00005   0.00000   0.00053   0.00065   0.04174
   D20       -3.09947   0.00000   0.00000  -0.00879  -0.00877  -3.10824
   D21        0.00164   0.00002   0.00000  -0.00003  -0.00002   0.00162
   D22       -3.13945  -0.00005   0.00000  -0.00086  -0.00084  -3.14029
   D23       -3.13916   0.00008   0.00000  -0.00170  -0.00173  -3.14089
   D24        0.00294   0.00001   0.00000  -0.00252  -0.00255   0.00039
   D25       -0.06995  -0.00055   0.00000  -0.01984  -0.01990  -0.08984
   D26        3.06526   0.00054   0.00000   0.02337   0.02319   3.08844
   D27        3.07084  -0.00062   0.00000  -0.01814  -0.01816   3.05268
   D28       -0.07714   0.00048   0.00000   0.02507   0.02492  -0.05222
   D29       -0.00065  -0.00004   0.00000  -0.00147  -0.00149  -0.00214
   D30        3.14142  -0.00005   0.00000  -0.00122  -0.00122   3.14019
   D31        3.14043   0.00002   0.00000  -0.00064  -0.00065   3.13978
   D32       -0.00068   0.00001   0.00000  -0.00039  -0.00039  -0.00107
   D33        0.09862   0.00123   0.00000   0.03121   0.03112   0.12974
   D34       -2.08260  -0.00003   0.00000   0.00183   0.00177  -2.08083
   D35        2.16622   0.00080   0.00000   0.01698   0.01698   2.18320
   D36       -3.03671   0.00016   0.00000  -0.01116  -0.01131  -3.04802
   D37        1.06526  -0.00110   0.00000  -0.04054  -0.04066   1.02461
   D38       -0.96911  -0.00027   0.00000  -0.02539  -0.02545  -0.99455
   D39       -0.00583   0.00097   0.00000   0.01405   0.01399   0.00817
   D40        3.13185   0.00061   0.00000  -0.00261  -0.00243   3.12941
   D41        3.13471   0.00092   0.00000   0.02356   0.02344  -3.12503
   D42       -0.01080   0.00056   0.00000   0.00691   0.00702  -0.00378
   D43       -0.06394  -0.00148   0.00000  -0.02925  -0.02932  -0.09326
   D44        3.08131  -0.00112   0.00000  -0.01362  -0.01342   3.06788
   D45        2.11013   0.00211   0.00000   0.01340   0.01318   2.12331
   D46       -1.02781   0.00246   0.00000   0.02904   0.02908  -0.99873
   D47       -2.11680  -0.00024   0.00000  -0.01191  -0.01212  -2.12892
   D48        1.02845   0.00011   0.00000   0.00373   0.00378   1.03223
   D49       -2.39630  -0.00303   0.00000  -0.13168  -0.13159  -2.52789
   D50        1.74650  -0.00138   0.00000  -0.09452  -0.09403   1.65246
   D51       -0.26018   0.00040   0.00000  -0.07960  -0.07959  -0.33978
   D52        1.65966  -0.00370   0.00000  -0.15356  -0.15379   1.50587
   D53       -0.48073  -0.00205   0.00000  -0.11641  -0.11623  -0.59696
   D54       -2.48741  -0.00027   0.00000  -0.10148  -0.10179  -2.58920
   D55       -0.38772  -0.00296   0.00000  -0.13867  -0.13886  -0.52658
   D56       -2.52811  -0.00131   0.00000  -0.10152  -0.10130  -2.62941
   D57        1.74839   0.00047   0.00000  -0.08660  -0.08686   1.66153
   D58       -0.01118   0.00080   0.00000   0.01816   0.01821   0.00703
   D59        3.13763   0.00094   0.00000   0.02388   0.02382  -3.12174
   D60        3.13850   0.00093   0.00000   0.02303   0.02309  -3.12159
   D61        0.00413   0.00106   0.00000   0.02875   0.02869   0.03282
   D62       -2.23514  -0.00032   0.00000   0.01018   0.01020  -2.22494
   D63       -0.13094   0.00028   0.00000   0.01728   0.01728  -0.11366
   D64        1.96897   0.00114   0.00000   0.02763   0.02760   1.99657
   D65        0.89903  -0.00042   0.00000   0.00573   0.00576   0.90479
   D66        3.00322   0.00017   0.00000   0.01284   0.01285   3.01607
   D67       -1.18005   0.00103   0.00000   0.02319   0.02317  -1.15689
   D68       -0.45052  -0.00003   0.00000   0.00693   0.00686  -0.44366
   D69        1.63500   0.00154   0.00000   0.02564   0.02553   1.66053
   D70       -2.55773  -0.00100   0.00000  -0.00502  -0.00485  -2.56258
   D71        2.69874   0.00009   0.00000   0.01155   0.01150   2.71024
   D72       -1.49893   0.00166   0.00000   0.03027   0.03016  -1.46876
[...]
 0000379,-0.00000200,0.00024754,-0.00025875,0.00006434,-0.00001157,0.00
 007437,-0.00001647,0.00000088,0.00004072,0.00010466,0.00000212,0.00009
 159,-0.00006483,0.00001011,0.00001320,-0.00001493,-0.00009040,0.000157
 78,-0.00005146,-0.00005119,-0.00010209,0.00001437,-0.00846780,-0.00514
 291,-0.00051884,0.00173348,-0.00139495,0.00080645,-0.00012389,-0.00008
 109,-0.00065085,0.00024949,0.00098487,-0.00014735,0.00053254,-0.000185
 42,0.00007250,0.00013747,0.00001523,-0.00031427,0.00005917,0.00007898,
 0.00007606,-0.22200825,-0.07653066,0.09214615,-0.01768623,-0.00930123,
 0.01003763,0.24024142,0.00000392,-0.00001166,0.00000023,-0.00002556,0.
 00001605,0.00000497,0.00002727,-0.00002166,0.00000541,-0.00001061,0.00
 003596,-0.00009410,-0.00001868,-0.00001713,0.00000687,-0.00000246,0.00
 001511,0.00000464,-0.00000361,-0.00000029,-0.00000151,0.00000118,-0.00
 000172,-0.00000039,0.00000350,0.00000112,-0.00000293,-0.00000390,0.000
 00144,-0.00000329,0.00001990,-0.00030384,0.00019739,0.00000770,0.00007
 636,-0.00003109,-0.00038748,0.00039115,-0.00005206,0.00007688,0.000061
 92,0.00006958,0.00005275,0.00003850,-0.00004411,0.00005921,0.00020405,
 0.00002649,-0.00001887,-0.00004527,-0.00000176,-0.02534470,-0.01130887
 ,0.01126877,0.00127068,-0.00339525,-0.00117197,0.00005871,0.00042735,-
 0.00216152,-0.00059013,0.00058380,0.00020984,0.00083527,-0.00046603,-0
 .00031523,0.00014751,0.00048872,-0.00024515,-0.00001006,-0.00006217,-0
 .00001211,-0.07818196,-0.08272385,0.04159302,0.01743615,0.00945258,-0.
 01038931,0.08862924,0.08930982,-0.00000004,-0.00000339,-0.00000068,-0.
 00000157,-0.00000042,0.00000120,0.00000383,-0.00000693,0.00000482,0.00
 001535,0.00000194,-0.00001616,-0.00000471,0.00000415,-0.00000356,0.000
 00214,0.00000385,0.00000373,0.00000099,0.00000013,0.00000003,-0.000000
 64,0.00000032,-0.00000025,-0.00000127,0.00000047,-0.00000055,0.0000006
 4,-0.00000073,-0.00000027,-0.00004401,-0.00002848,0.00005507,-0.000027
 70,-0.00000345,-0.00000228,-0.00009578,0.00005805,-0.00007142,0.000025
 85,0.00000867,-0.00001234,0.00000984,0.00000117,-0.00000987,0.00001937
 ,0.00002556,-0.00000002,0.00000641,0.00000841,-0.00000223,-0.01514081,
 -0.00765322,0.00677989,0.00022073,-0.00181769,-0.00071282,0.00008443,0
 .00022018,-0.00140932,-0.00025550,0.00052124,0.00026838,0.00019449,0.0
 0010211,0.00006233,-0.00015046,0.00018918,-0.00006157,0.00014269,0.000
 06229,-0.00010563,0.09065882,0.04105921,-0.08797548,-0.00342261,-0.001
 93004,0.00080069,-0.09899046,-0.04236189,0.09577561,-0.00000173,0.0000
 0425,-0.00000250,0.00000185,-0.00000150,0.00000815,-0.00000430,0.00000
 858,-0.00001007,-0.00001622,-0.00000758,-0.00003348,0.00000354,-0.0000
 0438,0.00000041,-0.00000475,-0.00000264,0.00000475,0.00000029,-0.00000
 027,-0.00000117,-0.00000085,-0.00000073,-0.00000223,0.00000261,-0.0000
 0093,-0.00000321,-0.00000030,-0.00000034,-0.00000087,0.00005662,0.0000
 5009,0.00002347,0.00001961,-0.00000232,0.00000295,0.00010548,0.0000328
 9,-0.00020756,-0.00002293,0.00003889,0.00009842,0.00000258,-0.00001164
 ,-0.00002542,-0.00007813,-0.00000843,0.00007193,-0.00000217,-0.0000109
 9,-0.00000496,-0.00417331,-0.00113031,-0.01001859,0.00057056,-0.000667
 65,-0.00018091,-0.00057407,-0.00046632,0.00042835,-0.00004096,0.000675
 53,0.00047353,0.00007818,0.00001752,0.00014385,-0.00015340,-0.00008987
 ,0.00007241,0.00029934,0.00011418,0.00013103,-0.05366167,0.01122070,-0
 .05013611,-0.00431038,0.00263851,-0.02350073,0.00553472,-0.00394981,0.
 02686624,0.05609226,0.00000315,-0.00000848,0.00000448,-0.00001698,0.00
 000876,-0.00001290,0.00001640,-0.00002570,0.00000911,0.00001071,0.0000
 1114,-0.00001379,-0.00001020,-0.00000462,-0.00000114,0.00000189,0.0000
 0965,-0.00000051,-0.00000208,0.00000039,0.00000031,0.00000091,-0.00000
 068,0.00000008,-0.00000034,0.00000103,0.00000107,-0.00000167,0.0000009
 3,-0.00000053,0.00003190,-0.00016272,0.00007413,-0.00000487,0.00006008
 ,0.00000601,-0.00014058,-0.00005092,0.00005151,0.00003403,0.00002118,0
 .00002361,-0.00000280,0.00004014,-0.00005310,0.00005639,0.00008941,-0.
 00003768,-0.00001249,-0.00002834,0.00000385,-0.00678766,0.00407198,-0.
 03034750,0.00028221,-0.00351918,-0.00077227,-0.00153144,-0.00092607,0.
 00164261,-0.00034709,0.00069212,-0.00023346,-0.00001248,-0.00007097,0.
 00005389,-0.00021408,0.00029384,0.00036478,0.00039076,-0.00060651,0.00
 032358,0.01008637,-0.05112569,0.03587104,0.00263720,-0.00306607,0.0209
 5951,0.00289888,-0.00224899,0.01167775,-0.00784011,0.05588405,0.000001
 71,-0.00001038,0.00000336,-0.00002872,0.00001578,-0.00000481,0.0000280
 1,-0.00001858,0.00001122,-0.00004198,0.00004629,-0.00005419,-0.0000205
 0,-0.00002594,0.00000209,-0.00000562,0.00001386,0.00000075,-0.00000491
 ,-0.00000058,-0.00000184,0.,-0.00000280,-0.00000179,0.00000679,0.00000
 011,-0.00000271,-0.00000564,0.00000185,-0.00000287,0.00004309,-0.00021
 532,0.00008716,0.00002321,0.00008617,-0.00001168,-0.00025978,0.0001223
 2,-0.00012616,-0.00001395,0.00006862,0.00006054,0.00001856,0.00003439,
 -0.00006070,-0.00003440,0.00011871,0.00003379,-0.00003404,-0.00007312,
 0.00000597,-0.00526221,-0.00009136,-0.01284575,0.00173038,-0.00173377,
 -0.00011607,-0.00070237,-0.00044302,0.00049995,-0.00030433,0.00047557,
 0.00034935,0.00001532,0.00008529,-0.00005739,-0.00006687,-0.00010660,0
 .00044464,0.00052188,-0.00062287,0.00031898,-0.04972873,0.03814943,-0.
 28686746,0.00001324,0.00039408,-0.00061807,-0.00243174,0.00254283,-0.0
 1379243,0.05602275,-0.03885641,0.31287083,-0.00006063,0.00038669,-0.00
 008648,0.00059949,-0.00019828,0.00027742,-0.00108995,0.00114553,-0.000
 15967,-0.00096684,0.00131381,-0.00215087,-0.00006337,-0.00026670,-0.00
 011780,-0.00020597,-0.00010408,0.00014518,0.00003705,-0.00000039,-0.00
 002052,0.00001849,0.00001789,0.00004415,0.00001748,-0.00000934,-0.0000
 3380,-0.00000442,-0.00003602,-0.00003098,-0.02105507,0.01432862,0.0174
 1930,0.00363104,-0.00078549,0.00130822,-0.06964288,0.00459332,0.023963
 09,-0.01503726,-0.01187334,0.01206997,0.00047358,0.00079093,-0.0005947
 9,-0.00226945,-0.00663178,0.00101372,-0.00005287,0.00010831,-0.0005443
 2,-0.02694768,0.01721944,-0.00660472,-0.14831186,0.06195707,-0.0142499
 0,0.00438087,-0.00321750,-0.00261565,0.00155139,-0.00102757,-0.0042312
 2,0.00028344,-0.00007228,0.00002347,0.00022154,-0.00000457,0.00017435,
 -0.00112401,0.00047090,0.00000608,0.00033886,0.00006535,0.00294235,-0.
 00169374,-0.00018342,-0.00092556,-0.00009720,0.00002771,-0.00014075,0.
 00008411,0.00087757,0.00050804,0.46689523,0.00038410,-0.00092715,0.000
 21432,-0.00103323,0.00035682,-0.00053472,0.00188730,-0.00183707,0.0014
 0913,0.00291125,-0.00124511,0.00247718,-0.00077374,0.00096708,-0.00013
 688,0.00082751,0.00077025,-0.00017249,-0.00003144,0.00001370,0.0000384
 4,0.00009184,0.00000699,0.00000801,-0.00016688,0.00005625,-0.00000058,
 0.00008903,0.00003049,0.00001268,0.00829978,0.00033857,-0.01931520,-0.
 00060772,-0.00112143,0.00066448,-0.00221007,-0.06929727,0.00547301,-0.
 02084956,0.00097636,0.02284582,0.00077094,-0.00001475,-0.00068004,0.00
 202308,-0.00261579,0.00166575,-0.00101818,-0.00248451,-0.00164585,0.00
 189302,0.00893382,0.00427115,0.06057575,-0.14350838,-0.00099928,0.0225
 4853,-0.01429201,0.00355278,-0.00114153,0.00103800,-0.00430950,0.00033
 732,0.00021371,0.00040318,-0.00026801,0.00038131,0.00013478,-0.0008208
 6,0.00067817,-0.00024219,-0.00177592,-0.00033916,0.00063586,-0.0012067
 7,-0.00011740,-0.00093880,0.00032640,-0.00082761,-0.00016481,-0.000349
 68,0.00012640,-0.00007531,0.04020315,0.57379636,0.00008491,-0.00074448
 ,0.00013670,-0.00128937,0.00032291,-0.00018754,0.00177100,-0.00107947,
 0.00064094,-0.00076454,0.00094080,-0.00290045,-0.00081503,-0.00037735,
 0.00011654,0.00015559,0.00046114,0.00014342,-0.00005663,-0.00002100,-0
 .00001272,-0.00006008,-0.00004218,-0.00000637,0.00013814,0.00001012,-0
 .00001295,-0.00011419,0.00002468,-0.00007184,0.00586656,-0.01483072,0.
 00345881,-0.00441002,0.00026211,-0.00119809,0.01710084,0.00015744,-0.1
 0144048,0.00927736,0.00950070,-0.00575409,-0.00016276,-0.00029929,0.00
 073939,0.00208894,0.00701706,-0.00029634,-0.00025849,-0.00082972,0.000
 02700,-0.00953301,0.00976224,0.00150312,-0.02276380,0.00594230,-0.0746
 4557,0.00690019,-0.00584474,0.00292644,-0.00564160,-0.00442042,0.00876
 391,-0.00194910,0.00147672,-0.00057004,0.00019036,0.00018265,-0.000026
 79,0.00175939,-0.00096010,0.00026568,0.00106806,0.00145773,-0.00544683
 ,-0.00109616,0.00037876,-0.00004203,0.00003754,0.00084933,0.00046147,-
 0.00069234,-0.00047039,-0.00008691,0.09510177,0.01408427,0.46142210,0.
 00000528,0.00003637,-0.00000450,0.00007093,-0.00002914,0.00002189,-0.0
 0016406,0.00001782,-0.00002413,0.00018498,-0.00004435,0.00017718,0.000
 00704,0.00002296,-0.00006518,-0.00000231,-0.00000095,-0.00000640,0.000
 00417,0.00000043,0.00000051,0.00000310,0.00000358,-0.00000168,-0.00000
 066,-0.00000470,-0.00000361,0.00000656,-0.00000219,0.00000647,0.001165
 98,-0.00023840,0.00114904,0.00003879,-0.00003108,-0.00039636,0.0083968
 0,0.00480439,0.01750798,0.00149675,0.00085950,0.00020999,-0.00007096,-
 0.00004633,0.00002757,0.00009106,0.00015511,-0.00041348,0.00002111,0.0
 0011912,0.00004326,-0.00138023,0.00397945,-0.00030656,-0.01572520,-0.0
 0710400,-0.01997636,0.00077371,0.00009703,0.00067408,-0.00107438,-0.00
 084397,0.00052052,-0.00039863,0.00033479,-0.00007355,0.00005768,0.0000
 7633,0.00002834,-0.00002310,0.00004924,-0.00006639,0.00024113,0.000485
 27,-0.00032178,0.00006397,0.00018855,0.00021824,-0.00005765,-0.0000815
 7,0.00000826,-0.00023070,0.00001294,-0.00008494,-0.12521867,-0.0367395
 6,-0.11605158,0.13937444,-0.00002838,0.00004917,-0.00001337,0.00007690
 ,-0.00004041,0.00001619,-0.00019566,0.00017721,-0.00006223,0.00005047,
 -0.00003004,0.00010434,0.00008740,-0.00001201,0.00004918,-0.00001944,-
 0.00007821,0.00001113,0.00000568,-0.00000144,0.00000072,-0.00001115,0.
 00000053,0.00000004,-0.00000104,-0.00001256,-0.00000717,0.00000496,-0.
 00000462,-0.00000680,-0.00012610,0.00009833,-0.00099130,0.00003164,0.0
 0005614,-0.00014777,-0.00031770,-0.00044302,0.00102533,0.00070688,0.00
 008975,0.00130585,0.00003681,0.00000279,0.00001865,0.00045396,-0.00039
 642,0.00015087,0.00012012,0.00016280,-0.00006217,0.00196641,-0.0029733
 0,0.00007725,0.01410671,0.00473881,0.01859549,-0.00024859,0.00086260,0
 .00032303,0.00087866,0.00078672,-0.00065509,0.00039033,-0.00029934,0.0
 0000508,-0.00002826,-0.00003160,-0.00001398,-0.00005984,0.00000058,0.0
 0003512,-0.00006460,-0.00058840,-0.00046135,-0.00009419,0.00045126,0.0
 0027501,-0.00000704,0.00016060,0.00000424,-0.00024421,0.00023092,0.000
 03226,-0.03742429,-0.06762987,-0.05310235,0.03566077,0.06938167,-0.000
 01047,0.00008222,-0.00002040,0.00012720,-0.00000342,0.00003676,-0.0000
 4267,0.00009484,0.00000727,0.00012634,-0.00027828,-0.00023724,0.000171
 62,0.00000985,0.00008242,-0.00003946,-0.00007124,0.00002002,0.00000180
 ,0.00000307,-0.00000289,0.00000659,0.00000267,-0.00000601,-0.00002702,
 0.00000166,-0.00001810,0.00001262,-0.00000135,-0.00000630,-0.00141383,
 0.00173365,-0.00128587,0.00061819,0.00031085,0.00034176,-0.00819122,-0
 .00682580,-0.02324564,-0.00162990,-0.00138497,0.00045862,0.00001181,0.
 00009948,-0.00011047,0.00019908,-0.00127959,0.00045833,0.00007655,0.00
 005364,-0.00011684,0.00002547,0.00102727,0.00038142,-0.00059464,-0.001
 86274,-0.00032150,0.00006919,0.00029743,0.00073230,-0.00006829,-0.0002
 1896,-0.00002521,-0.00007871,0.00005028,-0.00001870,-0.00000523,0.0000
 0551,0.00000059,-0.00005377,0.00003804,-0.00002186,0.00027337,0.000103
 79,0.00013162,0.00003446,0.00002354,-0.00007477,-0.00005047,0.00002263
 ,0.00000937,0.00004808,-0.00007006,-0.00001126,-0.11692268,-0.05068476
 ,-0.21086256,0.12135014,0.05783933,0.23259232,0.00015969,-0.00033393,0
 .00008047,-0.00041672,0.00017390,-0.00011746,0.00087939,-0.00070440,0.
 00040648,0.00088789,0.00016035,0.00015659,-0.00038187,0.00018459,-0.00
 004235,0.00023668,0.00035936,-0.00002618,-0.00001604,0.00000493,0.0000
 0070,0.00003082,0.00000131,0.00000336,-0.00005372,0.00003658,-0.000011
 61,0.00000499,0.00000855,-0.00000787,-0.00277195,-0.00418069,0.0007553
 7,-0.00024277,0.00011539,0.00016121,-0.00946028,-0.01617369,0.00525811
 ,-0.00207412,0.00160776,0.00307369,0.00004766,-0.00006605,-0.00009365,
 0.00140313,0.00158915,-0.00090309,-0.00032182,-0.00071411,-0.00028722,
 0.00080236,0.00063022,0.00041851,0.00816890,0.02480306,-0.00267107,-0.
 00280268,0.00286827,-0.00068931,-0.00042464,-0.00049009,0.00073529,-0.
 00032987,0.00002132,-0.00002100,0.00009849,-0.00008363,-0.00002660,0.0
 0011908,0.00004869,0.00003395,-0.00130959,0.00031307,-0.00064391,-0.00
 098413,-0.00033730,-0.00151088,-0.00023381,0.00006372,-0.00001908,0.00
 047555,-0.00036271,0.00005786,-0.07196800,-0.07905176,0.00539042,-0.00
 562040,-0.01577142,0.00256023,0.08514402,-0.00001579,0.00015920,-0.000
 03156,0.00015842,-0.00003329,0.00003532,-0.00019754,0.00015835,-0.0001
 3792,-0.00046704,-0.00005341,-0.00004341,0.00014955,-0.00009023,0.0000
 0543,-0.00014163,-0.00006602,0.00001155,-0.00000313,0.00000251,-0.0000
 0781,0.00000598,-0.00000581,-0.00001318,0.00000895,0.00000728,-0.00000
 534,-0.00000902,0.00000159,0.00001316,0.00129387,-0.00073655,-0.000205
 17,0.00064818,-0.00004635,0.00034677,-0.00136465,-0.00065958,-0.000396
 19,-0.00024794,0.00039155,0.00046319,0.00004930,-0.00003628,-0.0001820
 7,0.00119646,0.00043997,-0.00083589,-0.00001429,0.00000768,0.00001726,
 -0.00138877,-0.00011302,-0.00180725,-0.00269450,-0.01817879,0.00009838
 ,0.00218422,-0.00129470,0.00158248,0.00037999,0.00019710,-0.00028143,0
 .00014736,-0.00006619,0.00004453,-0.00004431,0.00012416,0.00006658,-0.
 00003397,0.00000217,0.00008745,-0.00018506,-0.00007224,0.00013148,-0.0
 0050842,0.00096808,0.00002660,-0.00032688,0.00025090,-0.00000634,-0.00
 003378,0.00030397,0.00008783,-0.08165888,-0.28338079,0.03069774,-0.001
 82014,-0.00544318,0.00081496,0.08502836,0.30679577,-0.00012148,0.00026
 363,-0.00006599,0.00035911,-0.00014480,0.00009225,-0.00064945,0.000560
 06,-0.00037872,-0.00075691,-0.00006751,-0.00000491,0.00026666,-0.00015
 595,0.00003680,-0.00017205,-0.00027510,0.00000782,0.00001489,-0.000002
 46,-0.00000113,-0.00002500,0.00000205,-0.00000536,0.00004016,-0.000023
 42,0.00001948,-0.00000778,-0.00000695,0.00001204,0.00149077,0.00272463
 ,0.00034874,0.00050944,0.00042168,0.00015175,0.01352880,0.02387226,-0.
 00794772,0.00320453,-0.00224303,-0.00344859,-0.00021240,-0.00004824,0.
 00009090,-0.00171958,-0.00095482,0.00003860,0.00040145,0.00079232,0.00
 032138,-0.00055186,0.00024349,0.00006741,0.00273923,0.00104249,-0.0000
 8070,0.00010433,-0.00027088,0.00052963,-0.00007415,-0.00021333,0.00010
 388,-0.00006662,0.00000614,0.00000979,0.00001789,-0.00003997,-0.000009
 33,0.00002967,0.00002806,0.00001635,-0.00104927,0.00064176,-0.00008734
 ,-0.00115477,-0.00049194,-0.00088841,0.00006657,-0.00003692,-0.0000261
 4,0.00040297,-0.00024886,0.00005241,0.00360330,0.02940530,-0.04950110,
 -0.00791868,-0.02456071,0.00439308,-0.01140584,-0.03081350,0.05504957,
 -0.00001863,0.00005141,-0.00000184,0.00009612,-0.00008652,-0.00015856,
 0.00002960,0.00049707,-0.00037991,-0.00184790,0.00326745,0.00153939,-0
 .00062953,-0.00055168,-0.00012903,-0.00012393,0.00015517,-0.00026502,-
 0.00001559,0.00000147,0.00002017,-0.00000655,-0.00002351,-0.00003992,0
 .00001086,0.00003625,0.00004780,-0.00011950,0.00000414,0.00006761,-0.0
 1656703,-0.00386726,-0.01850900,0.00249083,-0.00101283,0.00052200,-0.1
 2520194,-0.03455956,-0.12458852,-0.01043684,-0.00713882,-0.00803295,0.
 00045413,-0.00003679,0.00051442,0.00188117,-0.00190744,0.00247059,-0.0
 0063913,-0.00054175,0.00046261,0.00010088,0.00001750,-0.00005942,0.001
 41645,0.00061544,0.00083305,0.00008849,-0.00013579,-0.00006354,-0.0000
 0802,0.00000784,-0.00000871,0.00004752,-0.00003314,0.00000387,0.000015
 19,-0.00005036,-0.00001480,0.00004575,-0.00003168,0.00002898,-0.000284
 20,0.00011124,-0.00015521,-0.00032170,-0.00051293,0.00017515,0.0001329
 5,-0.00009191,0.00003533,-0.00005145,-0.00005372,0.00003986,0.00727731
 ,0.00487593,0.01872757,-0.00203654,0.00006419,0.00341565,0.00095373,-0
 .00009491,-0.00089390,0.14326749,0.00021573,-0.00036048,0.00009685,-0.
 00045868,0.00025458,0.00007385,0.00099006,-0.00105333,-0.00017178,0.00
 238177,-0.00224220,-0.00118479,0.00011250,0.00057716,-0.00020021,0.000
 34949,0.00037230,0.00023954,-0.00001210,0.00000567,-0.00004279,0.00007
 623,0.00000572,0.00002392,-0.00006526,0.00003628,-0.00010341,0.0000889
 3,0.00001507,-0.00000949,0.01228396,0.00537584,0.01898089,0.00059122,-
 0.00223906,0.00026986,-0.03654918,-0.06445479,-0.05014167,-0.02034622,
 -0.00912807,-0.02202205,0.00032389,0.00064112,0.00062747,0.00047263,-0
 .00010697,-0.00175951,-0.00138827,-0.00143309,0.00155573,0.00011146,0.
 00018057,0.00019459,-0.00030691,-0.00052368,-0.00078697,0.00000496,0.0
 0003748,-0.00003846,-0.00003795,-0.00009135,0.00001114,-0.00004159,0.0
 0002192,0.00000700,0.00000783,0.00000083,0.00000064,0.00001433,0.00001
 388,-0.00002437,-0.00000749,0.00021614,-0.00001017,-0.00021286,-0.0000
 9446,0.00013540,0.00003207,-0.00008110,0.00002844,0.00002238,-0.000001
 04,0.00000066,-0.00001236,0.00095404,-0.00050645,0.00008271,0.00073456
 ,0.00006647,0.00025120,0.00046612,0.00059453,0.04102549,0.07190034,-0.
 00002827,0.00002155,-0.00001337,0.00002781,-0.00001484,-0.00002670,-0.
 00008801,0.00024977,0.00015512,0.00027137,0.00045824,-0.00050222,-0.00
 000073,-0.00018336,0.00015433,-0.00003733,-0.00002013,0.00002557,-0.00
 000160,-0.00000325,0.00000654,-0.00000985,-0.00000662,-0.00002643,0.00
 001528,0.00000838,-0.00000714,-0.00001610,-0.00000824,-0.00001786,-0.0
 0145035,-0.00317331,-0.00238759,0.00053800,0.00027785,-0.00024083,-0.1
 2165938,-0.04883459,-0.19394316,0.00451925,0.00200735,0.00640728,-0.00
 039891,-0.00044649,0.00040653,0.00098572,0.00103827,0.00124612,0.00031
 436,0.00033445,-0.00058810,0.00042402,-0.00018960,0.00053393,-0.001998
 68,0.00068469,0.00076975,-0.00014954,0.00006782,0.00018210,0.00011812,
 0.00008254,-0.00014725,0.00000454,0.00000820,0.00000762,-0.00002169,0.
 00005697,0.00001233,-0.00004889,0.00005494,-0.00003964,0.00025489,-0.0
 0030561,0.00040500,0.00021565,0.00050949,-0.00007028,-0.00018271,0.000
 12333,-0.00001959,0.00002086,0.00005128,-0.00007897,-0.00917071,-0.007
 39574,-0.02754280,0.00377171,0.00021517,-0.00326025,-0.00061511,0.0002
 3635,0.00110357,0.12439627,0.05409513,0.21749639\\-0.00000035,0.000002
 13,0.00000299,-0.00000062,0.00000218,0.00000512,-0.00000085,0.00000389
 ,0.00000243,-0.00000129,-0.00000087,-0.00000126,0.00000159,0.00000138,
 -0.00000170,0.00000017,0.00000137,0.00000035,-0.00000009,0.00000230,0.
 00000494,-0.00000044,0.00000284,0.00000727,0.00000085,0.00000044,-0.00
 000410,0.00000094,0.00000118,-0.00000126,0.00000415,0.00000557,0.00000
 062,0.00000093,-0.00000149,0.00000565,0.00000321,0.00000222,-0.0000040
 1,-0.00000328,0.00000200,0.00000294,0.00000012,0.00000202,0.00000318,0
 .00000006,-0.00000181,-0.00000584,-0.00000055,0.00000338,0.00000828,0.
 00000083,-0.00000169,0.00000171,0.00000251,-0.00000224,-0.00000325,-0.
 00000183,-0.00000334,0.00000164,-0.00000136,-0.00000429,0.00000077,-0.
 00000118,-0.00000396,-0.00000354,-0.00000227,-0.00000336,0.00000293,0.
 00000128,0.00000067,-0.00000091,-0.00000446,-0.00000187,-0.00000461,0.
 00000168,-0.00000118,-0.00000629,0.00000191,-0.00000180,-0.00000601,0.
 00000306,0.00000145,-0.00000474,-0.00000287,-0.00000143,0.00000202,-0.
 00000128,-0.00000451,0.00000031,-0.00000024,-0.00000276,-0.00000440,-0
 .00000034,0.00000157,-0.00000124\\\@


 GOD GAVE US TWO ENDS... ONE TO SIT ON...    
 AND THE OTHER TO THINK WITH...              
 YOUR SUCCESS DEPENDS UPON WHICH END YOU     
 USE THE MOST...                             
                                             
 IT'S A CASE OF HEADS YOU WIN TAILS YOU LOSE.
          SOURCE UNKNOWN(IT'S JUST AS WELL.) 
 Job cpu time:       0 days  3 hours  1 minutes 16.7 seconds.
 File lengths (MBytes):  RWF=    561 Int=      0 D2E=      0 Chk=     21 Scr=      1
 Normal termination of Gaussian 09 at Thu Aug 27 19:15:49 2020.
