 Entering Gaussian System, Link 0=g09
 Input=b3lyp_TS_claisen_PM6_toluene.com
 Output=b3lyp_TS_claisen_PM6_toluene.log
 Initial command:
 /apps/applications/gaussian/G09.D01/2/default/g09/l1.exe "/local/714074.1.40core-192G.q/Gau-387590.inp" -scrdir="/local/714074.1.40core-192G.q/"
 Entering Link 1 = /apps/applications/gaussian/G09.D01/2/default/g09/l1.exe PID=    387591.
  
 Copyright (c) 1988,1990,1992,1993,1995,1998,2003,2009,2013,
            Gaussian, Inc.  All Rights Reserved.
  
 This is part of the Gaussian(R) 09 program.  It is based on
 the Gaussian(R) 03 system (copyright 2003, Gaussian, Inc.),
 the Gaussian(R) 98 system (copyright 1998, Gaussian, Inc.),
 the Gaussian(R) 94 system (copyright 1995, Gaussian, Inc.),
 the Gaussian 92(TM) system (copyright 1992, Gaussian, Inc.),
 the Gaussian 90(TM) system (copyright 1990, Gaussian, Inc.),
 the Gaussian 88(TM) system (copyright 1988, Gaussian, Inc.),
 the Gaussian 86(TM) system (copyright 1986, Carnegie Mellon
 University), and the Gaussian 82(TM) system (copyright 1983,
 Carnegie Mellon University). Gaussian is a federally registered
 trademark of Gaussian, Inc.
  
 This software contains proprietary and confidential information,
 including trade secrets, belonging to Gaussian, Inc.
  
 This software is provided under written license and may be
 used, copied, transmitted, or stored only in accord with that
 written license.
  
 The following legend is applicable only to US Government
 contracts under FAR:
  
                    RESTRICTED RIGHTS LEGEND
  
 Use, reproduction and disclosure by the US Government is
 subject to restrictions as set forth in subparagraphs (a)
 and (c) of the Commercial Computer Software - Restricted
 Rights clause in FAR 52.227-19.
  
 Gaussian, Inc.
 340 Quinnipiac St., Bldg. 40, Wallingford CT 06492
  
  
 ---------------------------------------------------------------
 Warning -- This program may not be used in any manner that
 competes with the business of Gaussian, Inc. or will provide
 assistance to any competitor of Gaussian, Inc.  The licensee
 of this program is prohibited from giving any competitor of
 Gaussian, Inc. access to this program.  By using this program,
 the user acknowledges that Gaussian, Inc. is engaged in the
 business of creating and licensing software in the field of
 computational chemistry and represents and warrants to the
 licensee that it is not a competitor of Gaussian, Inc. and that
 it will not use this program in any manner prohibited above.
 ---------------------------------------------------------------
  

 Cite this work as:
 Gaussian 09, Revision D.01,
 M. J. Frisch, G. W. Trucks, H. B. Schlegel, G. E. Scuseria, 
 M. A. Robb, J. R. Cheeseman, G. Scalmani, V. Barone, B. Mennucci, 
 G. A. Petersson, H. Nakatsuji, M. Caricato, X. Li, H. P. Hratchian, 
 A. F. Izmaylov, J. Bloino, G. Zheng, J. L. Sonnenberg, M. Hada, 
 M. Ehara, K. Toyota, R. Fukuda, J. Hasegawa, M. Ishida, T. Nakajima, 
 Y. Honda, O. Kitao, H. Nakai, T. Vreven, J. A. Montgomery, Jr., 
 J. E. Peralta, F. Ogliaro, M. Bearpark, J. J. Heyd, E. Brothers, 
 K. N. Kudin, V. N. Staroverov, T. Keith, R. Kobayashi, J. Normand, 
 K. Raghavachari, A. Rendell, J. C. Burant, S. S. Iyengar, J. Tomasi, 
 M. Cossi, N. Rega, J. M. Millam, M. Klene, J. E. Knox, J. B. Cross, 
 V. Bakken, C. Adamo, J. Jaramillo, R. Gomperts, R. E. Stratmann, 
 O. Yazyev, A. J. Austin, R. Cammi, C. Pomelli, J. W. Ochterski, 
 R. L. Martin, K. Morokuma, V. G. Zakrzewski, G. A. Voth, 
 P. Salvador, J. J. Dannenberg, S. Dapprich, A. D. Daniels, 
 O. Farkas, J. B. Foresman, J. V. Ortiz, J. Cioslowski, 
 and D. J. Fox, Gaussian, Inc., Wallingford CT, 2013.
 
 ******************************************
 Gaussian 09:  ES64L-G09RevD.01 24-Apr-2013
                27-Aug-2020 
 ******************************************
 %nprocshared=4
 Will use up to    4 processors via shared memory.
 %chk=b3lyp_TS_claisen_PM6_toluene.chk
 ----------------------------------------------------------------------
 # opt=(calcfc,ts,noeigentest) b3lyp/6-31+g(d,p) scrf=(cpcm,solvent=tol
 uene) geom=connectivity empiricaldispersion=gd3
 ----------------------------------------------------------------------
 1/5=1,10=4,11=1,14=-1,18=20,26=3,38=1,57=2/1,3;
 2/9=110,12=2,17=6,18=5,40=1/2;
 3/5=1,6=6,7=111,11=2,16=1,25=1,30=1,70=2101,71=2,72=13,74=-5,124=31,140=1/1,2,3;
 4//1;
 5/5=2,38=5,53=13/2;
 8/6=4,10=90,11=11/1;
 11/6=1,8=1,9=11,15=111,16=1/1,2,10;
 10/6=1,13=1/2;
 6/7=2,8=2,9=2,10=2,28=1/1;
 7/10=1,18=20,25=1/1,2,3,16;
 1/5=1,10=4,11=1,14=-1,18=20,26=3/3(2);
 2/9=110/2;
 99//99;
 2/9=110/2;
 3/5=1,6=6,7=111,11=2,16=1,25=1,30=1,70=2105,71=1,72=13,74=-5,124=31/1,2,3;
 4/5=5,16=3,69=1/1;
 5/5=2,38=5,53=13/2;
 7//1,2,3,16;
 1/5=1,11=1,14=-1,18=20,26=3/3(-5);
 2/9=110/2;
 6/7=2,8=2,9=2,10=2,19=2,28=1/1;
 99/9=1/99;
 -------------------
 Title Card Required
 -------------------
 Symbolic Z-matrix:
 Charge =  0 Multiplicity = 1
 C                    -2.42518   2.64131   0.27567 
 C                    -2.69247   1.28224   0.25446 
 C                    -1.67535   0.36164  -0.09655 
 C                    -0.38781   0.84885  -0.41968 
 C                    -0.13803   2.2407   -0.40152 
 C                    -1.14211   3.12717  -0.05461 
 H                    -3.2098    3.3491    0.54679 
 H                    -3.69168   0.92698   0.50716 
 H                     0.86255   2.59254  -0.66628 
 H                    -0.95281   4.19959  -0.03583 
 C                     0.68186  -0.08808  -0.79569 
 C                    -1.88905  -1.07155  -0.15125 
 C                     0.42306  -1.49328  -0.79103 
 H                     1.0346   -2.13133  -1.43893 
 C                    -0.92174  -1.95036  -0.51592 
 H                    -1.11645  -3.02232  -0.59013 
 O                     1.87311   0.35607  -0.99011 
 Cl                   -3.45957  -1.67433   0.249 
 C                     3.05286  -0.0945    0.34672 
 C                     2.75102  -1.47802   0.4399 
 H                     3.43024  -2.17467  -0.05166 
 C                     4.29994   0.32845  -0.37378 
 H                     4.6709   -0.43544  -1.06981 
 H                     4.1114    1.23008  -0.98016 
 H                     5.11457   0.56807   0.3224 
 C                     2.57073   0.86925   1.39501 
 H                     1.54324   0.66743   1.72827 
 H                     3.21246   0.81977   2.28695 
 H                     2.58456   1.90924   1.03955 
 C                     1.50015  -1.93949   0.83615 
 H                     1.30239  -3.01022   0.86236 
 H                     0.88444  -1.37961   1.53994 
 
 Add virtual bond connecting atoms C19        and O17        Dist= 3.48D+00.

 GradGradGradGradGradGradGradGradGradGradGradGradGradGradGradGradGradGrad
 Berny optimization.
 Initialization pass.
                           ----------------------------
                           !    Initial Parameters    !
                           ! (Angstroms and Degrees)  !
 --------------------------                            --------------------------
 ! Name  Definition              Value          Derivative Info.                !
 --------------------------------------------------------------------------------
 ! R1    R(1,2)                  1.3853         calculate D2E/DX2 analytically  !
 ! R2    R(1,6)                  1.4112         calculate D2E/DX2 analytically  !
 ! R3    R(1,7)                  1.0909         calculate D2E/DX2 analytically  !
 ! R4    R(2,3)                  1.4161         calculate D2E/DX2 analytically  !
 ! R5    R(2,8)                  1.0902         calculate D2E/DX2 analytically  !
 ! R6    R(3,4)                  1.4141         calculate D2E/DX2 analytically  !
 ! R7    R(3,12)                 1.4501         calculate D2E/DX2 analytically  !
 ! R8    R(4,5)                  1.4142         calculate D2E/DX2 analytically  !
 ! R9    R(4,11)                 1.4709         calculate D2E/DX2 analytically  !
 ! R10   R(5,6)                  1.3836         calculate D2E/DX2 analytically  !
 ! R11   R(5,9)                  1.0932         calculate D2E/DX2 analytically  !
 ! R12   R(6,10)                 1.0892         calculate D2E/DX2 analytically  !
 ! R13   R(11,13)                1.4288         calculate D2E/DX2 analytically  !
 ! R14   R(11,17)                1.2861         calculate D2E/DX2 analytically  !
 ! R15   R(12,15)                1.3568         calculate D2E/DX2 analytically  !
 ! R16   R(12,18)                1.7292         calculate D2E/DX2 analytically  !
 ! R17   R(13,14)                1.0958         calculate D2E/DX2 analytically  !
 ! R18   R(13,15)                1.4468         calculate D2E/DX2 analytically  !
 ! R19   R(15,16)                1.092          calculate D2E/DX2 analytically  !
 ! R20   R(17,19)                1.839          calculate D2E/DX2 analytically  !
 ! R21   R(19,20)                1.4191         calculate D2E/DX2 analytically  !
 ! R22   R(19,22)                1.5011         calculate D2E/DX2 analytically  !
 ! R23   R(19,26)                1.5034         calculate D2E/DX2 analytically  !
 ! R24   R(20,21)                1.0901         calculate D2E/DX2 analytically  !
 ! R25   R(20,30)                1.3909         calculate D2E/DX2 analytically  !
 ! R26   R(22,23)                1.098          calculate D2E/DX2 analytically  !
 ! R27   R(22,24)                1.1028         calculate D2E/DX2 analytically  !
 ! R28   R(22,25)                1.0981         calculate D2E/DX2 analytically  !
 ! R29   R(26,27)                1.0989         calculate D2E/DX2 analytically  !
 ! R30   R(26,28)                1.0999         calculate D2E/DX2 analytically  !
 ! R31   R(26,29)                1.0991         calculate D2E/DX2 analytically  !
 ! R32   R(30,31)                1.0892         calculate D2E/DX2 analytically  !
 ! R33   R(30,32)                1.0899         calculate D2E/DX2 analytically  !
 ! A1    A(2,1,6)              120.6393         calculate D2E/DX2 analytically  !
 ! A2    A(2,1,7)              120.1035         calculate D2E/DX2 analytically  !
 ! A3    A(6,1,7)              119.257          calculate D2E/DX2 analytically  !
 ! A4    A(1,2,3)              120.2001         calculate D2E/DX2 analytically  !
 ! A5    A(1,2,8)              119.539          calculate D2E/DX2 analytically  !
 ! A6    A(3,2,8)              120.2607         calculate D2E/DX2 analytically  !
 ! A7    A(2,3,4)              119.121          calculate D2E/DX2 analytically  !
 ! A8    A(2,3,12)             123.0961         calculate D2E/DX2 analytically  !
 ! A9    A(4,3,12)             117.7816         calculate D2E/DX2 analytically  !
 ! A10   A(3,4,5)              119.801          calculate D2E/DX2 analytically  !
 ! A11   A(3,4,11)             120.0741         calculate D2E/DX2 analytically  !
 ! A12   A(5,4,11)             120.1167         calculate D2E/DX2 analytically  !
 ! A13   A(4,5,6)              120.372          calculate D2E/DX2 analytically  !
 ! A14   A(4,5,9)              118.3798         calculate D2E/DX2 analytically  !
 ! A15   A(6,5,9)              121.2482         calculate D2E/DX2 analytically  !
 ! A16   A(1,6,5)              119.8627         calculate D2E/DX2 analytically  !
 ! A17   A(1,6,10)             119.5373         calculate D2E/DX2 analytically  !
 ! A18   A(5,6,10)             120.5998         calculate D2E/DX2 analytically  !
 ! A19   A(4,11,13)            119.5972         calculate D2E/DX2 analytically  !
 ! A20   A(4,11,17)            119.4891         calculate D2E/DX2 analytically  !
 ! A21   A(13,11,17)           120.5227         calculate D2E/DX2 analytically  !
 ! A22   A(3,12,15)            123.041          calculate D2E/DX2 analytically  !
 ! A23   A(3,12,18)            118.0117         calculate D2E/DX2 analytically  !
 ! A24   A(15,12,18)           118.9422         calculate D2E/DX2 analytically  !
 ! A25   A(11,13,14)           118.009          calculate D2E/DX2 analytically  !
 ! A26   A(11,13,15)           118.6653         calculate D2E/DX2 analytically  !
 ! A27   A(14,13,15)           116.5644         calculate D2E/DX2 analytically  !
 ! A28   A(12,15,13)           120.6073         calculate D2E/DX2 analytically  !
 ! A29   A(12,15,16)           121.7998         calculate D2E/DX2 analytically  !
 ! A30   A(13,15,16)           117.5772         calculate D2E/DX2 analytically  !
 ! A31   A(11,17,19)           113.5589         calculate D2E/DX2 analytically  !
 ! A32   A(17,19,20)            98.6353         calculate D2E/DX2 analytically  !
 ! A33   A(17,19,22)            96.6043         calculate D2E/DX2 analytically  !
 ! A34   A(17,19,26)            98.2843         calculate D2E/DX2 analytically  !
 ! A35   A(20,19,22)           118.876          calculate D2E/DX2 analytically  !
 ! A36   A(20,19,26)           120.7288         calculate D2E/DX2 analytically  !
 ! A37   A(22,19,26)           114.866          calculate D2E/DX2 analytically  !
 ! A38   A(19,20,21)           117.4456         calculate D2E/DX2 analytically  !
 ! A39   A(19,20,30)           122.2376         calculate D2E/DX2 analytically  !
 ! A40   A(21,20,30)           118.4759         calculate D2E/DX2 analytically  !
 ! A41   A(19,22,23)           112.8878         calculate D2E/DX2 analytically  !
 ! A42   A(19,22,24)           110.6253         calculate D2E/DX2 analytically  !
 ! A43   A(19,22,25)           111.9327         calculate D2E/DX2 analytically  !
 ! A44   A(23,22,24)           106.1411         calculate D2E/DX2 analytically  !
 ! A45   A(23,22,25)           107.6431         calculate D2E/DX2 analytically  !
 ! A46   A(24,22,25)           107.2796         calculate D2E/DX2 analytically  !
 ! A47   A(19,26,27)           113.1785         calculate D2E/DX2 analytically  !
 ! A48   A(19,26,28)           110.4566         calculate D2E/DX2 analytically  !
 ! A49   A(19,26,29)           112.1491         calculate D2E/DX2 analytically  !
 ! A50   A(27,26,28)           106.938          calculate D2E/DX2 analytically  !
 ! A51   A(27,26,29)           106.4759         calculate D2E/DX2 analytically  !
 ! A52   A(28,26,29)           107.3059         calculate D2E/DX2 analytically  !
 ! A53   A(20,30,31)           119.7556         calculate D2E/DX2 analytically  !
 ! A54   A(20,30,32)           121.4376         calculate D2E/DX2 analytically  !
 ! A55   A(31,30,32)           112.762          calculate D2E/DX2 analytically  !
 ! D1    D(6,1,2,3)              0.1905         calculate D2E/DX2 analytically  !
 ! D2    D(6,1,2,8)           -179.6427         calculate D2E/DX2 analytically  !
 ! D3    D(7,1,2,3)           -179.9699         calculate D2E/DX2 analytically  !
 ! D4    D(7,1,2,8)              0.1969         calculate D2E/DX2 analytically  !
 ! D5    D(2,1,6,5)             -0.1004         calculate D2E/DX2 analytically  !
 ! D6    D(2,1,6,10)           179.7616         calculate D2E/DX2 analytically  !
 ! D7    D(7,1,6,5)           -179.9414         calculate D2E/DX2 analytically  !
 ! D8    D(7,1,6,10)            -0.0794         calculate D2E/DX2 analytically  !
 ! D9    D(1,2,3,4)              0.1828         calculate D2E/DX2 analytically  !
 ! D10   D(1,2,3,12)          -179.4028         calculate D2E/DX2 analytically  !
 ! D11   D(8,2,3,4)           -179.9852         calculate D2E/DX2 analytically  !
 ! D12   D(8,2,3,12)             0.4292         calculate D2E/DX2 analytically  !
 ! D13   D(2,3,4,5)             -0.6417         calculate D2E/DX2 analytically  !
 ! D14   D(2,3,4,11)          -179.6041         calculate D2E/DX2 analytically  !
 ! D15   D(12,3,4,5)           178.9659         calculate D2E/DX2 analytically  !
 ! D16   D(12,3,4,11)            0.0035         calculate D2E/DX2 analytically  !
 ! D17   D(2,3,12,15)          178.5178         calculate D2E/DX2 analytically  !
 ! D18   D(2,3,12,18)           -0.6535         calculate D2E/DX2 analytically  !
 ! D19   D(4,3,12,15)           -1.073          calculate D2E/DX2 analytically  !
 ! D20   D(4,3,12,18)          179.7557         calculate D2E/DX2 analytically  !
 ! D21   D(3,4,5,6)              0.7391         calculate D2E/DX2 analytically  !
 ! D22   D(3,4,5,9)           -179.3126         calculate D2E/DX2 analytically  !
 ! D23   D(11,4,5,6)           179.7011         calculate D2E/DX2 analytically  !
 ! D24   D(11,4,5,9)            -0.3506         calculate D2E/DX2 analytically  !
 ! D25   D(3,4,11,13)           -1.9702         calculate D2E/DX2 analytically  !
 ! D26   D(3,4,11,17)         -174.8317         calculate D2E/DX2 analytically  !
 ! D27   D(5,4,11,13)          179.0706         calculate D2E/DX2 analytically  !
 ! D28   D(5,4,11,17)            6.2091         calculate D2E/DX2 analytically  !
 ! D29   D(4,5,6,1)             -0.3663         calculate D2E/DX2 analytically  !
 ! D30   D(4,5,6,10)           179.7732         calculate D2E/DX2 analytically  !
 ! D31   D(9,5,6,1)            179.6869         calculate D2E/DX2 analytically  !
 ! D32   D(9,5,6,10)            -0.1736         calculate D2E/DX2 analytically  !
 ! D33   D(4,11,13,14)         155.0329         calculate D2E/DX2 analytically  !
 ! D34   D(4,11,13,15)           4.7968         calculate D2E/DX2 analytically  !
 ! D35   D(17,11,13,14)        -32.1808         calculate D2E/DX2 analytically  !
 ! D36   D(17,11,13,15)        177.5831         calculate D2E/DX2 analytically  !
 ! D37   D(4,11,17,19)         107.5069         calculate D2E/DX2 analytically  !
 ! D38   D(13,11,17,19)        -65.2872         calculate D2E/DX2 analytically  !
 ! D39   D(3,12,15,13)           4.0582         calculate D2E/DX2 analytically  !
 ! D40   D(3,12,15,16)        -177.4181         calculate D2E/DX2 analytically  !
 ! D41   D(18,12,15,13)       -176.7779         calculate D2E/DX2 analytically  !
 ! D42   D(18,12,15,16)          1.7459         calculate D2E/DX2 analytically  !
 ! D43   D(11,13,15,12)         -5.8808         calculate D2E/DX2 analytically  !
 ! D44   D(11,13,15,16)        175.5346         calculate D2E/DX2 analytically  !
 ! D45   D(14,13,15,12)       -156.5395         calculate D2E/DX2 analytically  !
 ! D46   D(14,13,15,16)         24.876          calculate D2E/DX2 analytically  !
 ! D47   D(11,17,19,20)         48.2374         calculate D2E/DX2 analytically  !
 ! D48   D(11,17,19,22)        168.8545         calculate D2E/DX2 analytically  !
 ! D49   D(11,17,19,26)        -74.746          calculate D2E/DX2 analytically  !
 ! D50   D(17,19,20,21)        100.4603         calculate D2E/DX2 analytically  !
 ! D51   D(17,19,20,30)        -63.8435         calculate D2E/DX2 analytically  !
 ! D52   D(22,19,20,21)         -2.049          calculate D2E/DX2 analytically  !
 ! D53   D(22,19,20,30)       -166.3528         calculate D2E/DX2 analytically  !
 ! D54   D(26,19,20,21)       -154.4805         calculate D2E/DX2 analytically  !
 ! D55   D(26,19,20,30)         41.2156         calculate D2E/DX2 analytically  !
 ! D56   D(17,19,22,23)        -82.5698         calculate D2E/DX2 analytically  !
 ! D57   D(17,19,22,24)         36.2021         calculate D2E/DX2 analytically  !
 ! D58   D(17,19,22,25)        155.7858         calculate D2E/DX2 analytically  !
 ! D59   D(20,19,22,23)         21.1079         calculate D2E/DX2 analytically  !
 ! D60   D(20,19,22,24)        139.8797         calculate D2E/DX2 analytically  !
 ! D61   D(20,19,22,25)       -100.5366         calculate D2E/DX2 analytically  !
 ! D62   D(26,19,22,23)        175.1011         calculate D2E/DX2 analytically  !
 ! D63   D(26,19,22,24)        -66.1271         calculate D2E/DX2 analytically  !
 ! D64   D(26,19,22,25)         53.4566         calculate D2E/DX2 analytically  !
 ! D65   D(17,19,26,27)         64.5374         calculate D2E/DX2 analytically  !
 ! D66   D(17,19,26,28)       -175.5974         calculate D2E/DX2 analytically  !
 ! D67   D(17,19,26,29)        -55.9519         calculate D2E/DX2 analytically  !
 ! D68   D(20,19,26,27)        -40.7145         calculate D2E/DX2 analytically  !
 ! D69   D(20,19,26,28)         79.1507         calculate D2E/DX2 analytically  !
 ! D70   D(20,19,26,29)       -161.2038         calculate D2E/DX2 analytically  !
 ! D71   D(22,19,26,27)        165.8161         calculate D2E/DX2 analytically  !
 ! D72   D(22,19,26,28)        -74.3187         calculate D2E/DX2 analytically  !
 ! D73   D(22,19,26,29)         45.3268         calculate D2E/DX2 analytically  !
 ! D74   D(19,20,30,31)        178.0053         calculate D2E/DX2 analytically  !
 ! D75   D(19,20,30,32)        -31.3252         calculate D2E/DX2 analytically  !
 ! D76   D(21,20,30,31)         13.856          calculate D2E/DX2 analytically  !
 ! D77   D(21,20,30,32)        164.5255         calculate D2E/DX2 analytically  !
 --------------------------------------------------------------------------------
 Trust Radius=3.00D-01 FncErr=1.00D-07 GrdErr=1.00D-06
 Number of steps in this run=    175 maximum allowed number of steps=    192.
 Search for a saddle point of order  1.
 GradGradGradGradGradGradGradGradGradGradGradGradGradGradGradGradGradGrad

                          Input orientation:                          
 ---------------------------------------------------------------------
 Center     Atomic      Atomic             Coordinates (Angstroms)
 Number     Number       Type             X           Y           Z
 ---------------------------------------------------------------------
      1          6           0       -2.425184    2.641312    0.275667
      2          6           0       -2.692473    1.282238    0.254460
      3          6           0       -1.675353    0.361635   -0.096551
      4          6           0       -0.387807    0.848848   -0.419680
      5          6           0       -0.138026    2.240702   -0.401517
      6          6           0       -1.142110    3.127166   -0.054608
      7          1           0       -3.209798    3.349101    0.546788
      8          1           0       -3.691684    0.926975    0.507155
      9          1           0        0.862545    2.592542   -0.666282
     10          1           0       -0.952810    4.199593   -0.035834
     11          6           0        0.681862   -0.088079   -0.795688
     12          6           0       -1.889046   -1.071547   -0.151250
     13          6           0        0.423059   -1.493281   -0.791032
     14          1           0        1.034598   -2.131333   -1.438931
     15          6           0       -0.921743   -1.950364   -0.515920
     16          1           0       -1.116447   -3.022319   -0.590125
     17          8           0        1.873107    0.356068   -0.990108
     18         17           0       -3.459572   -1.674331    0.248998
     19          6           0        3.052860   -0.094500    0.346721
     20          6           0        2.751022   -1.478023    0.439902
     21          1           0        3.430244   -2.174674   -0.051664
     22          6           0        4.299938    0.328449   -0.373783
     23          1           0        4.670897   -0.435442   -1.069812
     24          1           0        4.111399    1.230076   -0.980163
     25          1           0        5.114569    0.568074    0.322403
     26          6           0        2.570732    0.869248    1.395010
     27          1           0        1.543243    0.667431    1.728272
     28          1           0        3.212455    0.819768    2.286946
     29          1           0        2.584556    1.909236    1.039551
     30          6           0        1.500147   -1.939492    0.836151
     31          1           0        1.302392   -3.010218    0.862356
     32          1           0        0.884437   -1.379608    1.539938
 ---------------------------------------------------------------------
                    Distance matrix (angstroms):
                    1          2          3          4          5
     1  C    0.000000
     2  C    1.385271   0.000000
     3  C    2.428522   1.416069   0.000000
     4  C    2.801310   2.440036   1.414059   0.000000
     5  C    2.418710   2.806093   2.446890   1.414206   0.000000
     6  C    1.411175   2.429590   2.816783   2.427547   1.383600
     7  H    1.090913   2.150582   3.419555   3.892166   3.400531
     8  H    2.143959   1.090179   2.179372   3.432307   3.896158
     9  H    3.420352   3.899079   3.426728   2.159783   1.093176
    10  H    2.166370   3.409055   3.905852   3.419658   2.152870
    11  C    4.272132   3.790345   2.499500   1.470852   2.500162
    12  C    3.775583   2.520000   1.450058   2.452283   3.754956
    13  C    5.132757   4.301523   2.885542   2.506187   3.795941
    14  H    6.139062   5.330206   3.919274   3.455950   4.643917
    15  C    4.895961   3.765460   2.467618   2.851305   4.265247
    16  H    5.876998   4.661158   3.465131   3.942829   5.356517
    17  O    5.029894   4.821956   3.659241   2.383265   2.818322
    18  Cl   4.437955   3.054467   2.729102   4.031042   5.175260
    19  C    6.123617   5.908703   4.770802   3.649036   4.024274
    20  C    6.617326   6.106150   4.823372   4.000682   4.783670
    21  H    7.588604   7.037870   5.701052   4.884121   5.687749
    22  C    7.141315   7.085070   5.981811   4.716765   4.832495
    23  H    7.850547   7.676154   6.469734   5.259521   5.543835
    24  H    6.804088   6.915178   5.917893   4.549981   4.406110
    25  H    7.819743   7.839933   6.805967   5.559286   5.559811
    26  C    5.417778   5.401180   4.528980   3.470802   3.527856
    27  H    4.664191   4.526743   3.712526   2.894057   3.136534
    28  H    6.256696   6.262033   5.457253   4.504282   4.524667
    29  H    5.120249   5.371827   4.672539   3.476884   3.098225
    30  C    6.058558   5.319396   4.030995   3.593928   4.657194
    31  H    6.795500   5.895224   4.599550   4.403723   5.589664
    32  H    5.359083   4.640276   3.501792   3.228734   4.233358
                    6          7          8          9         10
     6  C    0.000000
     7  H    2.164779   0.000000
     8  H    3.414198   2.469915   0.000000
     9  H    2.163009   4.316005   4.989195   0.000000
    10  H    1.089168   2.481286   4.301895   2.505113   0.000000
    11  C    3.770129   5.362972   4.675002   2.689818   4.651200
    12  C    4.265729   4.666237   2.770756   4.611080   5.354883
    13  C    4.933620   6.199684   4.947124   4.111284   5.905265
    14  H    5.857151   7.210626   5.956361   4.789737   6.782263
    15  C    5.103203   5.869316   4.122904   4.883061   6.168745
    16  H    6.172812   6.802182   4.840743   5.953896   7.245000
    17  O    4.200676   6.095590   5.790909   2.475463   4.865093
    18  Cl   5.340148   5.038446   2.624369   6.142039   6.392806
    19  C    5.304524   7.149776   6.823344   3.611627   5.884809
    20  C    6.050519   7.670979   6.877281   4.621633   6.795588
    21  H    7.001138   8.657967   7.788091   5.449512   7.735806
    22  C    6.127852   8.146651   8.062277   4.126420   6.533860
    23  H    6.893030   8.890530   8.618339   4.882117   7.360621
    24  H    5.661710   7.773144   7.949345   3.536932   5.946091
    25  H    6.770312   8.779496   8.815500   4.812035   7.080208
    26  C    4.580915   6.346942   6.325304   3.183798   5.055083
    27  H    4.054637   5.583785   5.381724   3.146949   4.671030
    28  H    5.456116   7.118357   7.130658   4.169695   5.845336
    29  H    4.070452   5.990873   6.374909   2.518352   4.349155
    30  C    5.783251   7.087773   5.939695   4.816967   6.668262
    31  H    6.669625   7.803870   6.369337   5.824184   7.607500
    32  H    5.192348   6.333230   5.227605   4.543772   6.081613
                   11         12         13         14         15
    11  C    0.000000
    12  C    2.827026   0.000000
    13  C    1.428843   2.435777   0.000000
    14  H    2.170961   3.365852   1.095839   0.000000
    15  C    2.473444   1.356827   1.446756   2.170707   0.000000
    16  H    3.447599   2.143603   2.179082   2.478169   1.092018
    17  O    1.286130   4.110421   2.358466   2.663025   3.654541
    18  Cl   4.556209   1.729190   4.023589   4.822398   2.664933
    19  C    2.631876   5.062117   3.188561   3.377961   4.470554
    20  C    2.782095   4.695201   2.633409   2.627344   3.824383
    21  H    3.530022   5.433383   3.170824   2.768665   4.382424
    22  C    3.666330   6.349254   4.303834   4.224632   5.699048
    23  H    4.013503   6.654415   4.386442   4.029264   5.820602
    24  H    3.678762   6.479962   4.588714   4.579983   5.971871
    25  H    4.618393   7.208559   5.243967   5.199544   6.594117
    26  C    3.046878   5.103648   3.869473   4.403909   4.878447
    27  H    2.771849   4.282202   3.502910   4.257109   4.238562
    28  H    4.090320   5.962146   4.754458   5.228214   5.711504
    29  H    3.313248   5.506014   4.427214   4.987127   5.441520
    30  C    2.600042   3.635233   2.001736   2.330137   2.773764
    31  H    3.416587   3.869253   2.409983   2.477917   2.823068
    32  H    2.676608   3.263009   2.378910   3.075923   2.795461
                   16         17         18         19         20
    16  H    0.000000
    17  O    4.528898   0.000000
    18  Cl   2.830448   5.839124   0.000000
    19  C    5.180051   1.839005   6.702029   0.000000
    20  C    4.289886   2.485871   6.216628   1.419128   0.000000
    21  H    4.656269   3.116089   6.914500   2.151338   1.090093
    22  C    6.372729   2.504022   8.037971   1.501071   2.514869
    23  H    6.357309   2.908689   8.329384   2.177350   2.655585
    24  H    6.750212   2.402902   8.201586   2.153051   3.346791
    25  H    7.249082   3.503528   8.862825   2.165696   3.128366
    26  C    5.716672   2.537483   6.644374   1.503385   2.540554
    27  H    5.105210   2.755966   5.718414   2.183613   2.778777
    28  H    6.463634   3.570428   7.408759   2.150774   2.984013
    29  H    6.377578   2.652924   7.070955   2.171239   3.443953
    30  C    3.170701   2.957011   5.001387   2.460580   1.390919
    31  H    2.821459   3.884485   4.983684   3.439684   2.150492
    32  H    3.352492   3.223534   4.541344   2.788786   2.168849
                   21         22         23         24         25
    21  H    0.000000
    22  C    2.669411   0.000000
    23  H    2.366595   1.097997   0.000000
    24  H    3.594218   1.102803   1.759268   0.000000
    25  H    3.240300   1.098052   1.772612   1.772364   0.000000
    26  C    3.478087   2.532044   3.491168   2.853997   2.777102
    27  H    3.847922   3.483233   4.339104   3.774601   3.839363
    28  H    3.805681   2.916075   3.869164   3.413276   2.746055
    29  H    4.310946   2.727441   3.781500   2.621403   2.951946
    30  C    2.137475   3.800832   3.993559   4.490411   4.428981
    31  H    2.461975   4.654033   4.659353   5.409759   5.256274
    32  H    3.105875   4.271467   4.694627   4.855373   4.813509
                   26         27         28         29         30
    26  C    0.000000
    27  H    1.098875   0.000000
    28  H    1.099912   1.766803   0.000000
    29  H    1.099144   1.760894   1.771212   0.000000
    30  C    3.057367   2.755682   3.556729   4.003751   0.000000
    31  H    4.116147   3.785885   4.510719   5.086882   1.089150
    32  H    2.814596   2.158672   3.288608   3.735945   1.089901
                   31         32
    31  H    0.000000
    32  H    1.814578   0.000000
 Stoichiometry    C15H15ClO
 Framework group  C1[X(C15H15ClO)]
 Deg. of freedom    90
 Full point group                 C1      NOp   1
 Largest Abelian subgroup         C1      NOp   1
 Largest concise Abelian subgroup C1      NOp   1
                         Standard orientation:                         
 ---------------------------------------------------------------------
 Center     Atomic      Atomic             Coordinates (Angstroms)
 Number     Number       Type             X           Y           Z
 ---------------------------------------------------------------------
      1          6           0       -2.425184    2.641312    0.275667
      2          6           0       -2.692473    1.282238    0.254460
      3          6           0       -1.675353    0.361635   -0.096551
      4          6           0       -0.387807    0.848848   -0.419680
      5          6           0       -0.138026    2.240702   -0.401517
      6          6           0       -1.142110    3.127166   -0.054608
      7          1           0       -3.209797    3.349102    0.546788
      8          1           0       -3.691684    0.926976    0.507155
      9          1           0        0.862545    2.592542   -0.666282
     10          1           0       -0.952809    4.199593   -0.035834
     11          6           0        0.681862   -0.088079   -0.795688
     12          6           0       -1.889046   -1.071547   -0.151250
     13          6           0        0.423059   -1.493281   -0.791032
     14          1           0        1.034598   -2.131333   -1.438931
     15          6           0       -0.921743   -1.950364   -0.515920
     16          1           0       -1.116447   -3.022319   -0.590125
     17          8           0        1.873107    0.356068   -0.990108
     18         17           0       -3.459572   -1.674330    0.248998
     19          6           0        3.052860   -0.094500    0.346721
     20          6           0        2.751022   -1.478023    0.439902
     21          1           0        3.430244   -2.174674   -0.051664
     22          6           0        4.299938    0.328448   -0.373783
     23          1           0        4.670897   -0.435443   -1.069812
     24          1           0        4.111399    1.230075   -0.980163
     25          1           0        5.114569    0.568073    0.322403
     26          6           0        2.570732    0.869248    1.395010
     27          1           0        1.543243    0.667431    1.728272
     28          1           0        3.212455    0.819768    2.286946
     29          1           0        2.584556    1.909236    1.039551
     30          6           0        1.500147   -1.939492    0.836151
     31          1           0        1.302392   -3.010218    0.862356
     32          1           0        0.884437   -1.379608    1.539938
 ---------------------------------------------------------------------
 Rotational constants (GHZ):      0.6926351      0.3372797      0.2485954
 Standard basis: 6-31+G(d,p) (6D, 7F)
 There are   402 symmetry adapted cartesian basis functions of A   symmetry.
 There are   402 symmetry adapted basis functions of A   symmetry.
   402 basis functions,   673 primitive gaussians,   402 cartesian basis functions
    65 alpha electrons       65 beta electrons
       nuclear repulsion energy      1305.0654213443 Hartrees.
 NAtoms=   32 NActive=   32 NUniq=   32 SFac= 1.00D+00 NAtFMM=   60 NAOKFM=F Big=F
 Integral buffers will be    131072 words long.
 Raffenetti 2 integral format.
 Two-electron integral symmetry is turned on.
 Nuclear repulsion after empirical dispersion term =     1305.0290352018 Hartrees.
 Force inversion solution in PCM.
 ------------------------------------------------------------------------------
 Polarizable Continuum Model (PCM)
 =================================
 Model                : C-PCM.
 Atomic radii         : UFF (Universal Force Field).
 Polarization charges : Total charges.
 Charge compensation  : None.
 Solution method      : Matrix inversion.
 Cavity type          : Scaled VdW (van der Waals Surface) (Alpha=1.100).
 Cavity algorithm     : GePol (No added spheres)
                        Default sphere list used, NSphG=   32.
                        Lebedev-Laikov grids with approx.  5.0 points / Ang**2.
                        Smoothing algorithm: Karplus/York (Gamma=1.0000).
                        Polarization charges: spherical gaussians, with
                                              point-specific exponents (IZeta= 3).
                        Self-potential: point-specific (ISelfS= 7).
                        Self-field    : sphere-specific E.n sum rule (ISelfD= 2).
 1st derivatives      : Analytical E(r).r(x)/FMM algorithm (CHGder, D1EAlg=3).
                        Cavity 1st derivative terms included.
 2nd derivatives      : Analytical E(r).r(xy)/FMM algorithm (CHGder, D2EAlg=3).
                        Cavity 2nd derivative terms included.
 Solvent              : Toluene, Eps=   2.374100 Eps(inf)=   2.238315
 ------------------------------------------------------------------------------
 One-electron integrals computed using PRISM.
 NBasis=   402 RedAO= T EigKep=  1.11D-06  NBF=   402
 NBsUse=   400 1.00D-06 EigRej=  6.50D-07 NBFU=   400
 ExpMin= 4.38D-02 ExpMax= 2.52D+04 ExpMxC= 3.78D+03 IAcc=2 IRadAn=         4 AccDes= 0.00D+00
 Harris functional with IExCor=  402 and IRadAn=       4 diagonalized for initial guess.
 HarFok:  IExCor=  402 AccDes= 0.00D+00 IRadAn=         4 IDoV= 1 UseB2=F ITyADJ=14
 ICtDFT=  3500011 ScaDFX=  1.000000  1.000000  1.000000  1.000000
 FoFCou: FMM=F IPFlag=           0 FMFlag=      100000 FMFlg1=           0
         NFxFlg=           0 DoJE=T BraDBF=F KetDBF=T FulRan=T
         wScrn=  0.000000 ICntrl=     500 IOpCl=  0 I1Cent=   200000004 NGrid=           0
         NMat0=    1 NMatS0=      1 NMatT0=    0 NMatD0=    1 NMtDS0=    0 NMtDT0=    0
 Petite list used in FoFCou.
 Requested convergence on RMS density matrix=1.00D-08 within 128 cycles.
 Requested convergence on MAX density matrix=1.00D-06.
 Requested convergence on             energy=1.00D-06.
 No special actions if energy rises.
 Inv3:  Mode=1 IEnd=    15526875.
 Iteration    1 A*A^-1 deviation from unit magnitude is 5.44D-15 for   2235.
 Iteration    1 A*A^-1 deviation from orthogonality  is 2.65D-15 for    664    338.
 Iteration    1 A^-1*A deviation from unit magnitude is 5.22D-15 for   2274.
 Iteration    1 A^-1*A deviation from orthogonality  is 2.00D-15 for   2274   2205.
 Error on total polarization charges =  0.01282
 SCF Done:  E(RB3LYP) =  -1116.06124542     A.U. after   16 cycles
            NFock= 16  Conv=0.67D-08     -V/T= 2.0069
 DoSCS=F DFT=T ScalE2(SS,OS)=  1.000000  1.000000
 Range of M.O.s used for correlation:     1   400
 NBasis=   402 NAE=    65 NBE=    65 NFC=     0 NFV=     0
 NROrb=    400 NOA=    65 NOB=    65 NVA=   335 NVB=   335

 **** Warning!!: The largest alpha MO coefficient is  0.17310148D+03

 PrsmSu:  requested number of processors reduced to:   3 ShMem   1 Linda.
 Symmetrizing basis deriv contribution to polar:
 IMax=3 JMax=2 DiffMx= 0.00D+00
 G2DrvN: will do    17 centers at a time, making    2 passes.
 Calling FoFCou, ICntrl=  3107 FMM=F I1Cent=   0 AccDes= 0.00D+00.
 Calling FoFCou, ICntrl=  3107 FMM=F I1Cent=   0 AccDes= 0.00D+00.
 NEqPCM:  Using equilibrium solvation (IEInf=0, Eps=   2.3741, EpsInf=   2.2383)
 G2PCM: DoFxE=T DoFxN=T DoGrad=T DoDP/DQ/DG/TGxP=FFFF NFrqRd=   0 IEInf=0 SqF1=F DoCFld=F IF1Alg=4.
 End of G2Drv F.D. properties file   721 does not exist.
 End of G2Drv F.D. properties file   722 does not exist.
 End of G2Drv F.D. properties file   788 does not exist.
          IDoAtm=11111111111111111111111111111111
 NEqPCM:  Using equilibrium solvation (IEInf=0, Eps=   2.3741, EpsInf=   2.2383)
          Differentiating once with respect to nuclear coordinates.
          There are    99 degrees of freedom in the 1st order CPHF.  IDoFFX=6 NUNeed=     0.
     96 vectors produced by pass  0 Test12= 2.20D-14 1.01D-09 XBig12= 3.05D-01 1.38D-01.
 AX will form    48 AO Fock derivatives at one time.
     96 vectors produced by pass  1 Test12= 2.20D-14 1.01D-09 XBig12= 5.24D-02 4.00D-02.
     93 vectors produced by pass  2 Test12= 2.20D-14 1.01D-09 XBig12= 4.81D-04 3.10D-03.
     93 vectors produced by pass  3 Test12= 2.20D-14 1.01D-09 XBig12= 1.58D-06 1.56D-04.
     93 vectors produced by pass  4 Test12= 2.20D-14 1.01D-09 XBig12= 3.29D-09 5.52D-06.
     93 vectors produced by pass  5 Test12= 2.20D-14 1.01D-09 XBig12= 1.45D-11 3.50D-07.
     90 vectors produced by pass  6 Test12= 2.20D-14 1.01D-09 XBig12= 1.20D-12 1.17D-07.
     45 vectors produced by pass  7 Test12= 2.20D-14 1.01D-09 XBig12= 4.50D-14 1.76D-08.
      5 vectors produced by pass  8 Test12= 2.20D-14 1.01D-09 XBig12= 1.40D-16 1.11D-09.
      5 vectors produced by pass  9 Test12= 2.20D-14 1.01D-09 XBig12= 5.64D-15 6.50D-09.
      5 vectors produced by pass 10 Test12= 2.20D-14 1.01D-09 XBig12= 5.06D-14 2.04D-08.
      5 vectors produced by pass 11 Test12= 2.20D-14 1.01D-09 XBig12= 2.85D-14 1.73D-08.
      5 vectors produced by pass 12 Test12= 2.20D-14 1.01D-09 XBig12= 3.80D-14 1.76D-08.
      5 vectors produced by pass 13 Test12= 2.20D-14 1.01D-09 XBig12= 4.58D-14 2.00D-08.
      5 vectors produced by pass 14 Test12= 2.20D-14 1.01D-09 XBig12= 1.02D-14 7.43D-09.
      5 vectors produced by pass 15 Test12= 2.20D-14 1.01D-09 XBig12= 1.02D-14 1.02D-08.
      5 vectors produced by pass 16 Test12= 2.20D-14 1.01D-09 XBig12= 2.96D-14 1.48D-08.
      5 vectors produced by pass 17 Test12= 2.20D-14 1.01D-09 XBig12= 3.63D-14 1.57D-08.
      5 vectors produced by pass 18 Test12= 2.20D-14 1.01D-09 XBig12= 2.73D-14 1.22D-08.
      5 vectors produced by pass 19 Test12= 2.20D-14 1.01D-09 XBig12= 2.59D-14 1.21D-08.
      5 vectors produced by pass 20 Test12= 2.20D-14 1.01D-09 XBig12= 9.51D-15 8.76D-09.
      5 vectors produced by pass 21 Test12= 2.20D-14 1.01D-09 XBig12= 2.94D-14 1.19D-08.
      5 vectors produced by pass 22 Test12= 2.20D-14 1.01D-09 XBig12= 2.86D-14 1.11D-08.
      5 vectors produced by pass 23 Test12= 2.20D-14 1.01D-09 XBig12= 1.78D-14 1.12D-08.
      5 vectors produced by pass 24 Test12= 2.20D-14 1.01D-09 XBig12= 1.20D-14 8.13D-09.
      5 vectors produced by pass 25 Test12= 2.20D-14 1.01D-09 XBig12= 1.61D-14 1.04D-08.
      5 vectors produced by pass 26 Test12= 2.20D-14 1.01D-09 XBig12= 1.30D-14 9.83D-09.
      5 vectors produced by pass 27 Test12= 2.20D-14 1.01D-09 XBig12= 1.17D-14 7.31D-09.
      4 vectors produced by pass 28 Test12= 2.20D-14 1.01D-09 XBig12= 3.01D-15 4.22D-09.
      4 vectors produced by pass 29 Test12= 2.20D-14 1.01D-09 XBig12= 8.05D-15 5.57D-09.
      4 vectors produced by pass 30 Test12= 2.20D-14 1.01D-09 XBig12= 1.61D-14 8.29D-09.
      4 vectors produced by pass 31 Test12= 2.20D-14 1.01D-09 XBig12= 7.05D-15 6.16D-09.
      4 vectors produced by pass 32 Test12= 2.20D-14 1.01D-09 XBig12= 7.47D-15 6.04D-09.
      4 vectors produced by pass 33 Test12= 2.20D-14 1.01D-09 XBig12= 2.67D-14 1.29D-08.
      4 vectors produced by pass 34 Test12= 2.20D-14 1.01D-09 XBig12= 7.63D-15 5.52D-09.
      4 vectors produced by pass 35 Test12= 2.20D-14 1.01D-09 XBig12= 1.45D-14 9.68D-09.
      4 vectors produced by pass 36 Test12= 2.20D-14 1.01D-09 XBig12= 3.80D-14 1.48D-08.
      4 vectors produced by pass 37 Test12= 2.20D-14 1.01D-09 XBig12= 1.40D-14 8.88D-09.
      4 vectors produced by pass 38 Test12= 2.20D-14 1.01D-09 XBig12= 1.03D-14 6.37D-09.
      4 vectors produced by pass 39 Test12= 2.20D-14 1.01D-09 XBig12= 1.22D-14 8.27D-09.
      4 vectors produced by pass 40 Test12= 2.20D-14 1.01D-09 XBig12= 7.16D-15 6.07D-09.
      4 vectors produced by pass 41 Test12= 2.20D-14 1.01D-09 XBig12= 1.53D-14 8.80D-09.
      4 vectors produced by pass 42 Test12= 2.20D-14 1.01D-09 XBig12= 8.97D-15 6.85D-09.
      4 vectors produced by pass 43 Test12= 2.20D-14 1.01D-09 XBig12= 1.75D-14 8.07D-09.
      4 vectors produced by pass 44 Test12= 2.20D-14 1.01D-09 XBig12= 6.03D-15 5.13D-09.
      4 vectors produced by pass 45 Test12= 2.20D-14 1.01D-09 XBig12= 8.35D-15 6.28D-09.
      4 vectors produced by pass 46 Test12= 2.20D-14 1.01D-09 XBig12= 9.11D-15 6.88D-09.
      4 vectors produced by pass 47 Test12= 2.20D-14 1.01D-09 XBig12= 7.07D-15 6.58D-09.
      4 vectors produced by pass 48 Test12= 2.20D-14 1.01D-09 XBig12= 9.01D-15 6.07D-09.
      4 vectors produced by pass 49 Test12= 2.20D-14 1.01D-09 XBig12= 1.26D-14 7.87D-09.
      4 vectors produced by pass 50 Test12= 2.20D-14 1.01D-09 XBig12= 9.30D-15 6.59D-09.
      4 vectors produced by pass 51 Test12= 2.20D-14 1.01D-09 XBig12= 7.92D-15 6.08D-09.
      4 vectors produced by pass 52 Test12= 2.20D-14 1.01D-09 XBig12= 9.16D-15 6.60D-09.
      4 vectors produced by pass 53 Test12= 2.20D-14 1.01D-09 XBig12= 9.83D-15 6.85D-09.
      4 vectors produced by pass 54 Test12= 2.20D-14 1.01D-09 XBig12= 3.52D-15 4.21D-09.
      4 vectors produced by pass 55 Test12= 2.20D-14 1.01D-09 XBig12= 5.10D-15 4.42D-09.
      4 vectors produced by pass 56 Test12= 2.20D-14 1.01D-09 XBig12= 3.01D-15 3.89D-09.
      4 vectors produced by pass 57 Test12= 2.20D-14 1.01D-09 XBig12= 2.68D-15 3.84D-09.
      4 vectors produced by pass 58 Test12= 2.20D-14 1.01D-09 XBig12= 8.92D-15 7.27D-09.
      4 vectors produced by pass 59 Test12= 2.20D-14 1.01D-09 XBig12= 3.49D-15 3.80D-09.
      4 vectors produced by pass 60 Test12= 2.20D-14 1.01D-09 XBig12= 4.01D-15 5.75D-09.
      4 vectors produced by pass 61 Test12= 2.20D-14 1.01D-09 XBig12= 5.59D-15 4.95D-09.
      4 vectors produced by pass 62 Test12= 2.20D-14 1.01D-09 XBig12= 4.83D-15 4.98D-09.
      4 vectors produced by pass 63 Test12= 2.20D-14 1.01D-09 XBig12= 4.04D-15 4.23D-09.
      4 vectors produced by pass 64 Test12= 2.20D-14 1.01D-09 XBig12= 3.04D-15 4.15D-09.
      4 vectors produced by pass 65 Test12= 2.20D-14 1.01D-09 XBig12= 4.93D-15 5.54D-09.
      4 vectors produced by pass 66 Test12= 2.20D-14 1.01D-09 XBig12= 3.09D-15 3.62D-09.
      4 vectors produced by pass 67 Test12= 2.20D-14 1.01D-09 XBig12= 5.57D-15 4.25D-09.
      4 vectors produced by pass 68 Test12= 2.20D-14 1.01D-09 XBig12= 3.98D-15 4.78D-09.
      4 vectors produced by pass 69 Test12= 2.20D-14 1.01D-09 XBig12= 4.40D-15 4.41D-09.
      4 vectors produced by pass 70 Test12= 2.20D-14 1.01D-09 XBig12= 3.77D-15 4.94D-09.
      4 vectors produced by pass 71 Test12= 2.20D-14 1.01D-09 XBig12= 5.63D-15 4.56D-09.
      4 vectors produced by pass 72 Test12= 2.20D-14 1.01D-09 XBig12= 5.57D-15 4.57D-09.
      4 vectors produced by pass 73 Test12= 2.20D-14 1.01D-09 XBig12= 9.54D-15 6.23D-09.
      4 vectors produced by pass 74 Test12= 2.20D-14 1.01D-09 XBig12= 5.14D-15 4.12D-09.
      4 vectors produced by pass 75 Test12= 2.20D-14 1.01D-09 XBig12= 4.68D-15 4.05D-09.
      4 vectors produced by pass 76 Test12= 2.20D-14 1.01D-09 XBig12= 5.24D-15 4.37D-09.
      3 vectors produced by pass 77 Test12= 2.20D-14 1.01D-09 XBig12= 2.11D-15 2.67D-09.
      3 vectors produced by pass 78 Test12= 2.20D-14 1.01D-09 XBig12= 5.40D-15 4.69D-09.
      3 vectors produced by pass 79 Test12= 2.20D-14 1.01D-09 XBig12= 2.54D-15 2.90D-09.
      3 vectors produced by pass 80 Test12= 2.20D-14 1.01D-09 XBig12= 2.96D-15 3.18D-09.
      3 vectors produced by pass 81 Test12= 2.20D-14 1.01D-09 XBig12= 2.56D-15 3.46D-09.
      3 vectors produced by pass 82 Test12= 2.20D-14 1.01D-09 XBig12= 3.46D-15 4.49D-09.
      1 vectors produced by pass 83 Test12= 2.20D-14 1.01D-09 XBig12= 1.21D-15 2.66D-09.
 InvSVY:  IOpt=1 It=  1 EMax= 8.88D-16
 Solved reduced A of dimension  1014 with    99 vectors.
 End of Minotr F.D. properties file   721 does not exist.
 End of Minotr F.D. properties file   722 does not exist.
 End of Minotr F.D. properties file   788 does not exist.

 **********************************************************************

            Population analysis using the SCF density.

 **********************************************************************

 Orbital symmetries:
       Occupied  (A) (A) (A) (A) (A) (A) (A) (A) (A) (A) (A) (A)
                 (A) (A) (A) (A) (A) (A) (A) (A) (A) (A) (A) (A)
                 (A) (A) (A) (A) (A) (A) (A) (A) (A) (A) (A) (A)
                 (A) (A) (A) (A) (A) (A) (A) (A) (A) (A) (A) (A)
                 (A) (A) (A) (A) (A) (A) (A) (A) (A) (A) (A) (A)
                 (A) (A) (A) (A) (A)
       Virtual   (A) (A) (A) (A) (A) (A) (A) (A) (A) (A) (A) (A)
                 (A) (A) (A) (A) (A) (A) (A) (A) (A) (A) (A) (A)
                 (A) (A) (A) (A) (A) (A) (A) (A) (A) (A) (A) (A)
                 (A) (A) (A) (A) (A) (A) (A) (A) (A) (A) (A) (A)
                 (A) (A) (A) (A) (A) (A) (A) (A) (A) (A) (A) (A)
                 (A) (A) (A) (A) (A) (A) (A) (A) (A) (A) (A) (A)
                 (A) (A) (A) (A) (A) (A) (A) (A) (A) (A) (A) (A)
                 (A) (A) (A) (A) (A) (A) (A) (A) (A) (A) (A) (A)
                 (A) (A) (A) (A) (A) (A) (A) (A) (A) (A) (A) (A)
                 (A) (A) (A) (A) (A) (A) (A) (A) (A) (A) (A) (A)
                 (A) (A) (A) (A) (A) (A) (A) (A) (A) (A) (A) (A)
                 (A) (A) (A) (A) (A) (A) (A) (A) (A) (A) (A) (A)
                 (A) (A) (A) (A) (A) (A) (A) (A) (A) (A) (A) (A)
                 (A) (A) (A) (A) (A) (A) (A) (A) (A) (A) (A) (A)
                 (A) (A) (A) (A) (A) (A) (A) (A) (A) (A) (A) (A)
                 (A) (A) (A) (A) (A) (A) (A) (A) (A) (A) (A) (A)
                 (A) (A) (A) (A) (A) (A) (A) (A) (A) (A) (A) (A)
                 (A) (A) (A) (A) (A) (A) (A) (A) (A) (A) (A) (A)
                 (A) (A) (A) (A) (A) (A) (A) (A) (A) (A) (A) (A)
                 (A) (A) (A) (A) (A) (A) (A) (A) (A) (A) (A) (A)
                 (A) (A) (A) (A) (A) (A) (A) (A) (A) (A) (A) (A)
                 (A) (A) (A) (A) (A) (A) (A) (A) (A) (A) (A) (A)
                 (A) (A) (A) (A) (A) (A) (A) (A) (A) (A) (A) (A)
                 (A) (A) (A) (A) (A) (A) (A) (A) (A) (A) (A) (A)
                 (A) (A) (A) (A) (A) (A) (A) (A) (A) (A) (A) (A)
                 (A) (A) (A) (A) (A) (A) (A) (A) (A) (A) (A) (A)
                 (A) (A) (A) (A) (A) (A) (A) (A) (A) (A) (A) (A)
                 (A) (A) (A) (A) (A) (A) (A) (A) (A) (A) (A)
 The electronic state is 1-A.
 Alpha  occ. eigenvalues -- -101.55837 -19.15235 -10.25691 -10.25507 -10.24707
 Alpha  occ. eigenvalues --  -10.22042 -10.21632 -10.21455 -10.21026 -10.20998
 Alpha  occ. eigenvalues --  -10.20465 -10.20371 -10.20279 -10.20196 -10.18822
 Alpha  occ. eigenvalues --  -10.18531 -10.18491  -9.47390  -7.23773  -7.22835
 Alpha  occ. eigenvalues --   -7.22801  -1.03616  -0.90540  -0.86180  -0.83156
 Alpha  occ. eigenvalues --   -0.82257  -0.76820  -0.76176  -0.74702  -0.70334
 Alpha  occ. eigenvalues --   -0.70074  -0.63812  -0.63170  -0.62630  -0.58424
 Alpha  occ. eigenvalues --   -0.54404  -0.52604  -0.52366  -0.50263  -0.48190
 Alpha  occ. eigenvalues --   -0.47640  -0.46265  -0.45655  -0.44279  -0.43718
 Alpha  occ. eigenvalues --   -0.43287  -0.42080  -0.41485  -0.40105  -0.39759
 Alpha  occ. eigenvalues --   -0.38659  -0.38434  -0.37597  -0.36772  -0.36278
 Alpha  occ. eigenvalues --   -0.36110  -0.35762  -0.34904  -0.32346  -0.31876
 Alpha  occ. eigenvalues --   -0.28971  -0.28303  -0.26749  -0.23543  -0.20314
 Alpha virt. eigenvalues --   -0.06089  -0.05195  -0.00698  -0.00001   0.00519
 Alpha virt. eigenvalues --    0.01216   0.01468   0.01938   0.02356   0.02980
 Alpha virt. eigenvalues --    0.03422   0.03636   0.04118   0.04630   0.05072
 Alpha virt. eigenvalues --    0.05850   0.06193   0.06487   0.06860   0.07335
 Alpha virt. eigenvalues --    0.07674   0.08114   0.08581   0.08760   0.09582
 Alpha virt. eigenvalues --    0.09914   0.10586   0.10964   0.11141   0.11453
 Alpha virt. eigenvalues --    0.12278   0.12486   0.12676   0.13716   0.14109
 Alpha virt. eigenvalues --    0.14316   0.14704   0.15011   0.15468   0.15816
 Alpha virt. eigenvalues --    0.16337   0.16858   0.17235   0.17803   0.17930
 Alpha virt. eigenvalues --    0.18021   0.18767   0.18964   0.19661   0.19813
 Alpha virt. eigenvalues --    0.20069   0.20800   0.20976   0.21338   0.21469
 Alpha virt. eigenvalues --    0.21643   0.22372   0.22659   0.22763   0.23351
 Alpha virt. eigenvalues --    0.23818   0.24138   0.24194   0.24500   0.25328
 Alpha virt. eigenvalues --    0.25690   0.25719   0.26264   0.26407   0.26802
 Alpha virt. eigenvalues --    0.27311   0.27500   0.27761   0.28389   0.28729
 Alpha virt. eigenvalues --    0.29061   0.29471   0.29712   0.30576   0.30712
 Alpha virt. eigenvalues --    0.31404   0.31657   0.32426   0.32958   0.34322
 Alpha virt. eigenvalues --    0.34636   0.35499   0.36064   0.37121   0.37238
 Alpha virt. eigenvalues --    0.38233   0.38953   0.39416   0.40046   0.40773
 Alpha virt. eigenvalues --    0.42400   0.43538   0.44136   0.45807   0.47619
 Alpha virt. eigenvalues --    0.48352   0.51514   0.52587   0.57427   0.59651
 Alpha virt. eigenvalues --    0.61791   0.62879   0.64059   0.65372   0.67133
 Alpha virt. eigenvalues --    0.68497   0.68765   0.69094   0.69965   0.70284
 Alpha virt. eigenvalues --    0.70958   0.71299   0.72160   0.72610   0.73321
 Alpha virt. eigenvalues --    0.74025   0.74214   0.75335   0.75729   0.76185
 Alpha virt. eigenvalues --    0.76526   0.77598   0.78162   0.78454   0.80475
 Alpha virt. eigenvalues --    0.81165   0.81671   0.84268   0.84578   0.84755
 Alpha virt. eigenvalues --    0.85203   0.86501   0.86863   0.88144   0.88438
 Alpha virt. eigenvalues --    0.89170   0.89617   0.90389   0.92513   0.92882
 Alpha virt. eigenvalues --    0.94144   0.94810   0.95715   0.97428   0.98113
 Alpha virt. eigenvalues --    0.99089   1.00042   1.01136   1.01420   1.01725
 Alpha virt. eigenvalues --    1.02625   1.03555   1.04236   1.06306   1.07887
 Alpha virt. eigenvalues --    1.09323   1.09621   1.11406   1.12726   1.13714
 Alpha virt. eigenvalues --    1.14578   1.15243   1.16160   1.17019   1.17773
 Alpha virt. eigenvalues --    1.20200   1.21343   1.22296   1.23345   1.25183
 Alpha virt. eigenvalues --    1.25753   1.26628   1.28092   1.29225   1.31360
 Alpha virt. eigenvalues --    1.33415   1.34521   1.36199   1.37407   1.39084
 Alpha virt. eigenvalues --    1.39591   1.40239   1.40728   1.41358   1.44840
 Alpha virt. eigenvalues --    1.45289   1.47255   1.47820   1.48809   1.50050
 Alpha virt. eigenvalues --    1.51840   1.53675   1.54744   1.55235   1.60525
 Alpha virt. eigenvalues --    1.62612   1.65971   1.71400   1.73642   1.76065
 Alpha virt. eigenvalues --    1.76747   1.77723   1.79322   1.82171   1.82788
 Alpha virt. eigenvalues --    1.83449   1.87636   1.88032   1.89111   1.89882
 Alpha virt. eigenvalues --    1.90545   1.91355   1.92316   1.94192   1.94226
 Alpha virt. eigenvalues --    1.96693   1.98099   1.99257   2.00696   2.00978
 Alpha virt. eigenvalues --    2.02571   2.03599   2.04211   2.05350   2.06142
 Alpha virt. eigenvalues --    2.06902   2.07220   2.08923   2.10328   2.10671
 Alpha virt. eigenvalues --    2.13081   2.13350   2.14432   2.16927   2.18353
 Alpha virt. eigenvalues --    2.19905   2.20442   2.21596   2.22618   2.26343
 Alpha virt. eigenvalues --    2.26805   2.27827   2.29256   2.29820   2.32900
 Alpha virt. eigenvalues --    2.34757   2.36373   2.37233   2.37876   2.38674
 Alpha virt. eigenvalues --    2.39650   2.42237   2.42620   2.44582   2.46374
 Alpha virt. eigenvalues --    2.46723   2.48405   2.49397   2.51432   2.53770
 Alpha virt. eigenvalues --    2.54160   2.55965   2.56680   2.57723   2.58460
 Alpha virt. eigenvalues --    2.60009   2.61943   2.63104   2.64389   2.66636
 Alpha virt. eigenvalues --    2.67092   2.67248   2.69336   2.69583   2.70604
 Alpha virt. eigenvalues --    2.70967   2.73140   2.73507   2.76968   2.77969
 Alpha virt. eigenvalues --    2.80288   2.82672   2.83172   2.84647   2.86561
 Alpha virt. eigenvalues --    2.87750   2.91725   2.94029   2.95771   3.02443
 Alpha virt. eigenvalues --    3.03853   3.05197   3.09692   3.14010   3.15588
 Alpha virt. eigenvalues --    3.21387   3.22709   3.25876   3.26382   3.27903
 Alpha virt. eigenvalues --    3.33133   3.34193   3.37072   3.38012   3.45044
 Alpha virt. eigenvalues --    3.45731   3.46438   3.49454   3.51057   3.52357
 Alpha virt. eigenvalues --    3.61950   3.64921   3.84822   4.26274   4.31185
 Alpha virt. eigenvalues --    4.35995   4.36580   4.38288   4.41749   4.43666
 Alpha virt. eigenvalues --    4.48095   4.50561   4.54678   4.56150   4.59300
 Alpha virt. eigenvalues --    4.66771   4.69553   4.75974   4.87874   5.02317
          Condensed to atoms (all electrons):
               1          2          3          4          5          6
     1  C    6.467029  -1.634873   1.283037  -0.346846  -0.090923   0.643950
     2  C   -1.634873  13.305966  -5.620016   0.262210   0.692220  -0.353479
     3  C    1.283037  -5.620016  17.558614   1.945110  -3.701669   0.410319
     4  C   -0.346846   0.262210   1.945110  20.228395  -9.735102   2.235185
     5  C   -0.090923   0.692220  -3.701669  -9.735102  18.606920  -3.375497
     6  C    0.643950  -0.353479   0.410319   2.235185  -3.375497   7.499072
     7  H    0.302590  -0.024529   0.031579  -0.014360   0.025798  -0.003355
     8  H    0.142113   0.191082  -0.008243   0.010850   0.009218   0.004898
     9  H    0.000998  -0.001082   0.016577   0.004570   0.278600  -0.026814
    10  H   -0.031677   0.063875  -0.009326   0.055302  -0.098059   0.352281
    11  C    0.432331  -1.498001  -3.522209  -5.074294   3.688286  -1.082677
    12  C   -0.281817  -0.054351  -1.704964  -0.716856  -0.994516   0.392620
    13  C   -0.144453   0.763419   1.982758  -2.355094  -0.922806  -0.306791
    14  H   -0.000561  -0.001109  -0.062882   0.104734   0.013603   0.002403
    15  C   -0.291869   0.218201  -3.219084  -0.131037   1.768708  -0.144127
    16  H    0.003262   0.000869   0.087872  -0.032682  -0.000436  -0.000785
    17  O   -0.021343   0.091880  -0.083548  -0.284076   0.090641   0.053535
    18  Cl  -0.003625   0.050004  -0.092694  -0.009181  -0.097784   0.023707
    19  C   -0.007961   0.007300   0.005952  -0.036114   0.140293  -0.051753
    20  C   -0.000055  -0.002498   0.248530   0.268175  -0.233510  -0.012787
    21  H    0.000076  -0.000403  -0.005134  -0.012202   0.003859  -0.000309
    22  C   -0.000787   0.006705   0.062198   0.204204  -0.086041  -0.028726
    23  H   -0.000008   0.000009  -0.000161  -0.006729  -0.002811  -0.000486
    24  H   -0.000062   0.000156   0.000168   0.019849  -0.004985   0.002645
    25  H    0.000024   0.000015  -0.000288  -0.009444   0.003871  -0.000085
    26  C    0.011785   0.010266   0.008985  -0.451353   0.036062   0.080914
    27  H    0.007683  -0.018846   0.014962  -0.119347   0.070790  -0.018749
    28  H   -0.000486   0.001442  -0.001462  -0.014061   0.008739   0.004968
    29  H   -0.003076   0.004382  -0.002057   0.119154  -0.073227   0.020078
    30  C   -0.000682   0.011645  -0.367198  -0.412295   0.303316  -0.008274
    31  H   -0.000357   0.004527   0.002723  -0.005497   0.000211   0.000690
    32  H    0.002698  -0.031240  -0.097224  -0.055465   0.056103  -0.001034
               7          8          9         10         11         12
     1  C    0.302590   0.142113   0.000998  -0.031677   0.432331  -0.281817
     2  C   -0.024529   0.191082  -0.001082   0.063875  -1.498001  -0.054351
     3  C    0.031579  -0.008243   0.016577  -0.009326  -3.522209  -1.704964
     4  C   -0.014360   0.010850   0.004570   0.055302  -5.074294  -0.716856
     5  C    0.025798   0.009218   0.278600  -0.098059   3.688286  -0.994516
     6  C   -0.003355   0.004898  -0.026814   0.352281  -1.082677   0.392620
     7  H    0.556770  -0.005047  -0.000157  -0.004801   0.000742  -0.003351
     8  H   -0.005047   0.551143   0.000014  -0.000158   0.005458  -0.049003
     9  H   -0.000157   0.000014   0.553350  -0.004670   0.000436  -0.006228
    10  H   -0.004801  -0.000158  -0.004670   0.557266  -0.020218   0.002636
    11  C    0.000742   0.005458   0.000436  -0.020218  17.518539   2.460155
    12  C   -0.003351  -0.049003  -0.006228   0.002636   2.460155  11.254637
    13  C   -0.000646  -0.004687   0.030722   0.000028  -5.217517  -1.907873
    14  H    0.000000   0.000000  -0.000005   0.000000   0.196334  -0.043488
    15  C   -0.000046   0.010103   0.000563  -0.000876  -1.302212  -1.852705
    16  H    0.000000  -0.000005   0.000000   0.000000   0.001405   0.135001
    17  O    0.000002   0.000036   0.009492   0.000180   0.314981  -0.121226
    18  Cl   0.000338  -0.008464   0.000056   0.000113   0.022035  -0.312648
    19  C    0.000085  -0.000015  -0.018782  -0.000220  -0.731962  -0.213022
    20  C   -0.000011  -0.000039  -0.001548   0.000111   0.550614   0.156934
    21  H    0.000000   0.000000   0.000000   0.000000  -0.022437  -0.002137
    22  C   -0.000004  -0.000002   0.002734   0.000052  -0.123124  -0.022559
    23  H    0.000000   0.000000   0.000002   0.000000  -0.005743   0.000523
    24  H    0.000000   0.000000   0.000228   0.000000  -0.008379   0.000315
    25  H    0.000000   0.000000  -0.000003   0.000000  -0.005206  -0.000124
    26  C   -0.000133   0.000037   0.014090   0.000201  -0.582171  -0.013964
    27  H    0.000000   0.000000  -0.000312  -0.000002   0.092838  -0.003001
    28  H    0.000000   0.000000   0.000029   0.000000  -0.026400  -0.001293
    29  H    0.000000   0.000000   0.001239  -0.000006  -0.026214   0.005022
    30  C    0.000019   0.000202  -0.000924  -0.000073   0.159708   0.056255
    31  H    0.000000   0.000000   0.000000   0.000000  -0.057521  -0.007518
    32  H    0.000000   0.000000   0.000001   0.000000   0.121975   0.008087
              13         14         15         16         17         18
     1  C   -0.144453  -0.000561  -0.291869   0.003262  -0.021343  -0.003625
     2  C    0.763419  -0.001109   0.218201   0.000869   0.091880   0.050004
     3  C    1.982758  -0.062882  -3.219084   0.087872  -0.083548  -0.092694
     4  C   -2.355094   0.104734  -0.131037  -0.032682  -0.284076  -0.009181
     5  C   -0.922806   0.013603   1.768708  -0.000436   0.090641  -0.097784
     6  C   -0.306791   0.002403  -0.144127  -0.000785   0.053535   0.023707
     7  H   -0.000646   0.000000  -0.000046   0.000000   0.000002   0.000338
     8  H   -0.004687   0.000000   0.010103  -0.000005   0.000036  -0.008464
     9  H    0.030722  -0.000005   0.000563   0.000000   0.009492   0.000056
    10  H    0.000028   0.000000  -0.000876   0.000000   0.000180   0.000113
    11  C   -5.217517   0.196334  -1.302212   0.001405   0.314981   0.022035
    12  C   -1.907873  -0.043488  -1.852705   0.135001  -0.121226  -0.312648
    13  C   14.301791   0.079378  -0.688331  -0.046538  -0.204773   0.129679
    14  H    0.079378   0.554043   0.009148  -0.004668   0.005643   0.000419
    15  C   -0.688331   0.009148  11.482635   0.150625   0.119700  -0.135023
    16  H   -0.046538  -0.004668   0.150625   0.540358  -0.000817   0.006943
    17  O   -0.204773   0.005643   0.119700  -0.000817   8.472154   0.000930
    18  Cl   0.129679   0.000419  -0.135023   0.006943   0.000930  17.174585
    19  C    0.213699  -0.022515   0.385306  -0.004802   0.205581  -0.000586
    20  C   -0.188231  -0.038662  -0.728057   0.017662  -0.070489   0.019167
    21  H    0.019103   0.000533   0.030999  -0.000005  -0.001128   0.000010
    22  C   -0.012598   0.004034  -0.002899   0.000049  -0.109419   0.000881
    23  H    0.018163  -0.000024   0.003051   0.000000   0.001699  -0.000001
    24  H   -0.012451   0.000009  -0.001333   0.000000  -0.014165   0.000003
    25  H    0.006565  -0.000001   0.000634   0.000000   0.004078   0.000000
    26  C    0.668776  -0.015196   0.046594   0.000454  -0.057232  -0.000971
    27  H    0.000361  -0.000037  -0.009190   0.000000  -0.006973   0.000067
    28  H    0.010693   0.000000   0.000830   0.000000   0.008270   0.000003
    29  H   -0.033349   0.000006  -0.003743   0.000000  -0.009232   0.000015
    30  C   -0.246643   0.041484   0.591420  -0.002368   0.005037  -0.012836
    31  H    0.047299  -0.004856  -0.019368   0.001212   0.003719   0.001334
    32  H   -0.185365   0.002441   0.133329  -0.000294  -0.000750   0.001458
              19         20         21         22         23         24
     1  C   -0.007961  -0.000055   0.000076  -0.000787  -0.000008  -0.000062
     2  C    0.007300  -0.002498  -0.000403   0.006705   0.000009   0.000156
     3  C    0.005952   0.248530  -0.005134   0.062198  -0.000161   0.000168
     4  C   -0.036114   0.268175  -0.012202   0.204204  -0.006729   0.019849
     5  C    0.140293  -0.233510   0.003859  -0.086041  -0.002811  -0.004985
     6  C   -0.051753  -0.012787  -0.000309  -0.028726  -0.000486   0.002645
     7  H    0.000085  -0.000011   0.000000  -0.000004   0.000000   0.000000
     8  H   -0.000015  -0.000039   0.000000  -0.000002   0.000000   0.000000
     9  H   -0.018782  -0.001548   0.000000   0.002734   0.000002   0.000228
    10  H   -0.000220   0.000111   0.000000   0.000052   0.000000   0.000000
    11  C   -0.731962   0.550614  -0.022437  -0.123124  -0.005743  -0.008379
    12  C   -0.213022   0.156934  -0.002137  -0.022559   0.000523   0.000315
    13  C    0.213699  -0.188231   0.019103  -0.012598   0.018163  -0.012451
    14  H   -0.022515  -0.038662   0.000533   0.004034  -0.000024   0.000009
    15  C    0.385306  -0.728057   0.030999  -0.002899   0.003051  -0.001333
    16  H   -0.004802   0.017662  -0.000005   0.000049   0.000000   0.000000
    17  O    0.205581  -0.070489  -0.001128  -0.109419   0.001699  -0.014165
    18  Cl  -0.000586   0.019167   0.000010   0.000881  -0.000001   0.000003
    19  C    8.135501  -0.960168  -0.041374  -0.537683  -0.127240  -0.048018
    20  C   -0.960168   7.048462   0.362812   0.091217  -0.024163   0.012454
    21  H   -0.041374   0.362812   0.573969  -0.035806   0.003652   0.000105
    22  C   -0.537683   0.091217  -0.035806   6.367477   0.499804   0.452921
    23  H   -0.127240  -0.024163   0.003652   0.499804   0.546135  -0.027347
    24  H   -0.048018   0.012454   0.000105   0.452921  -0.027347   0.520051
    25  H   -0.049332  -0.005773   0.000360   0.396087  -0.027386  -0.028017
    26  C   -0.270341  -0.359318   0.019139  -0.519601   0.003963  -0.035470
    27  H   -0.075587  -0.009413  -0.000075   0.024388  -0.000150  -0.000074
    28  H   -0.125541  -0.002551  -0.000019  -0.040799  -0.000008   0.000157
    29  H   -0.059179   0.037974  -0.000124  -0.037649   0.000082   0.002124
    30  C   -0.078290  -0.030463  -0.017869  -0.133415  -0.005691  -0.005839
    31  H    0.038108  -0.051055  -0.005596  -0.001302  -0.000011   0.000003
    32  H    0.023053  -0.111838   0.004400  -0.007108  -0.000002  -0.000006
              25         26         27         28         29         30
     1  C    0.000024   0.011785   0.007683  -0.000486  -0.003076  -0.000682
     2  C    0.000015   0.010266  -0.018846   0.001442   0.004382   0.011645
     3  C   -0.000288   0.008985   0.014962  -0.001462  -0.002057  -0.367198
     4  C   -0.009444  -0.451353  -0.119347  -0.014061   0.119154  -0.412295
     5  C    0.003871   0.036062   0.070790   0.008739  -0.073227   0.303316
     6  C   -0.000085   0.080914  -0.018749   0.004968   0.020078  -0.008274
     7  H    0.000000  -0.000133   0.000000   0.000000   0.000000   0.000019
     8  H    0.000000   0.000037   0.000000   0.000000   0.000000   0.000202
     9  H   -0.000003   0.014090  -0.000312   0.000029   0.001239  -0.000924
    10  H    0.000000   0.000201  -0.000002   0.000000  -0.000006  -0.000073
    11  C   -0.005206  -0.582171   0.092838  -0.026400  -0.026214   0.159708
    12  C   -0.000124  -0.013964  -0.003001  -0.001293   0.005022   0.056255
    13  C    0.006565   0.668776   0.000361   0.010693  -0.033349  -0.246643
    14  H   -0.000001  -0.015196  -0.000037   0.000000   0.000006   0.041484
    15  C    0.000634   0.046594  -0.009190   0.000830  -0.003743   0.591420
    16  H    0.000000   0.000454   0.000000   0.000000   0.000000  -0.002368
    17  O    0.004078  -0.057232  -0.006973   0.008270  -0.009232   0.005037
    18  Cl   0.000000  -0.000971   0.000067   0.000003   0.000015  -0.012836
    19  C   -0.049332  -0.270341  -0.075587  -0.125541  -0.059179  -0.078290
    20  C   -0.005773  -0.359318  -0.009413  -0.002551   0.037974  -0.030463
    21  H    0.000360   0.019139  -0.000075  -0.000019  -0.000124  -0.017869
    22  C    0.396087  -0.519601   0.024388  -0.040799  -0.037649  -0.133415
    23  H   -0.027386   0.003963  -0.000150  -0.000008   0.000082  -0.005691
    24  H   -0.028017  -0.035470  -0.000074   0.000157   0.002124  -0.005839
    25  H    0.545097   0.011582   0.000132   0.001125  -0.000366  -0.001086
    26  C    0.011582   6.672682   0.432296   0.520964   0.413524  -0.144390
    27  H    0.000132   0.432296   0.551515  -0.024722  -0.031148  -0.029725
    28  H    0.001125   0.520964  -0.024722   0.544132  -0.029717   0.002271
    29  H   -0.000366   0.413524  -0.031148  -0.029717   0.542154   0.003457
    30  C   -0.001086  -0.144390  -0.029725   0.002271   0.003457   6.066881
    31  H    0.000003   0.013244   0.000046   0.000002  -0.000001   0.370736
    32  H    0.000008   0.013745   0.000637   0.000405  -0.000171   0.433566
              31         32
     1  C   -0.000357   0.002698
     2  C    0.004527  -0.031240
     3  C    0.002723  -0.097224
     4  C   -0.005497  -0.055465
     5  C    0.000211   0.056103
     6  C    0.000690  -0.001034
     7  H    0.000000   0.000000
     8  H    0.000000   0.000000
     9  H    0.000000   0.000001
    10  H    0.000000   0.000000
    11  C   -0.057521   0.121975
    12  C   -0.007518   0.008087
    13  C    0.047299  -0.185365
    14  H   -0.004856   0.002441
    15  C   -0.019368   0.133329
    16  H    0.001212  -0.000294
    17  O    0.003719  -0.000750
    18  Cl   0.001334   0.001458
    19  C    0.038108   0.023053
    20  C   -0.051055  -0.111838
    21  H   -0.005596   0.004400
    22  C   -0.001302  -0.007108
    23  H   -0.000011  -0.000002
    24  H    0.000003  -0.000006
    25  H    0.000003   0.000008
    26  C    0.013244   0.013745
    27  H    0.000046   0.000637
    28  H    0.000002   0.000405
    29  H   -0.000001  -0.000171
    30  C    0.370736   0.433566
    31  H    0.527935  -0.030552
    32  H   -0.030552   0.542003
 Mulliken charges:
               1
     1  C   -0.436114
     2  C   -0.445746
     3  C    0.838777
     4  C    0.364301
     5  C   -0.379872
     6  C   -0.311536
     7  H    0.138516
     8  H    0.150510
     9  H    0.146825
    10  H    0.138041
    11  C   -0.259550
    12  C   -0.159540
    13  C    0.205711
    14  H    0.179791
    15  C   -0.421942
    16  H    0.147688
    17  O   -0.402387
    18  Cl   0.242065
    19  C    0.305606
    20  C    0.016519
    21  H    0.125601
    22  C   -0.413230
    23  H    0.150880
    24  H    0.174962
    25  H    0.157529
    26  C   -0.529163
    27  H    0.151637
    28  H    0.163028
    29  H    0.160048
    30  C   -0.547936
    31  H    0.171842
    32  H    0.177139
 Sum of Mulliken charges =   0.00000
 Mulliken charges with hydrogens summed into heavy atoms:
               1
     1  C   -0.297597
     2  C   -0.295237
     3  C    0.838777
     4  C    0.364301
     5  C   -0.233047
     6  C   -0.173495
    11  C   -0.259550
    12  C   -0.159540
    13  C    0.385502
    15  C   -0.274254
    17  O   -0.402387
    18  Cl   0.242065
    19  C    0.305606
    20  C    0.142120
    22  C    0.070140
    26  C   -0.054449
    30  C   -0.198954
 APT charges:
               1
     1  C   -0.561617
     2  C   -0.800524
     3  C   -0.257395
     4  C   -0.377015
     5  C   -0.722159
     6  C   -0.589491
     7  H    0.887409
     8  H    0.690589
     9  H    0.437619
    10  H    0.786024
    11  C   -0.344071
    12  C    0.387875
    13  C   -0.081415
    14  H    0.629890
    15  C   -0.449277
    16  H    0.669434
    17  O   -0.095159
    18  Cl  -0.111371
    19  C    0.652123
    20  C   -0.586074
    21  H    0.711525
    22  C   -1.871281
    23  H    0.543052
    24  H    0.306111
    25  H    0.754422
    26  C   -1.308824
    27  H    0.027064
    28  H    0.684594
    29  H    0.381010
    30  C   -1.119645
    31  H    0.592673
    32  H    0.133906
 Sum of APT charges =   0.00000
 APT charges with hydrogens summed into heavy atoms:
               1
     1  C    0.325792
     2  C   -0.109935
     3  C   -0.257395
     4  C   -0.377015
     5  C   -0.284540
     6  C    0.196533
    11  C   -0.344071
    12  C    0.387875
    13  C    0.548475
    15  C    0.220158
    17  O   -0.095159
    18  Cl  -0.111371
    19  C    0.652123
    20  C    0.125450
    22  C   -0.267696
    26  C   -0.216157
    30  C   -0.393066
 Electronic spatial extent (au):  <R**2>=           4403.7361
 Charge=              0.0000 electrons
 Dipole moment (field-independent basis, Debye):
    X=              1.8750    Y=             -0.0453    Z=              1.2205  Tot=              2.2377
 Quadrupole moment (field-independent basis, Debye-Ang):
   XX=           -107.2207   YY=            -97.7679   ZZ=           -113.2716
   XY=             -4.7760   XZ=             -0.0095   YZ=              3.6234
 Traceless Quadrupole moment (field-independent basis, Debye-Ang):
   XX=             -1.1340   YY=              8.3188   ZZ=             -7.1849
   XY=             -4.7760   XZ=             -0.0095   YZ=              3.6234
 Octapole moment (field-independent basis, Debye-Ang**2):
  XXX=             21.5952  YYY=              0.5544  ZZZ=              1.5765  XYY=              0.6915
  XXY=             20.5779  XXZ=              5.9615  XZZ=              0.8760  YZZ=             -6.4826
  YYZ=             -4.4232  XYZ=              2.9062
 Hexadecapole moment (field-independent basis, Debye-Ang**3):
 XXXX=          -3688.8924 YYYY=          -1676.9233 ZZZZ=           -422.4462 XXXY=             -8.5725
 XXXZ=            -52.1910 YYYX=            -18.4961 YYYZ=             18.0585 ZZZX=             -8.9842
 ZZZY=              5.2818 XXYY=           -925.6923 XXZZ=           -728.9419 YYZZ=           -398.9935
 XXYZ=             35.7636 YYXZ=            -28.7606 ZZXY=             21.9304
 N-N= 1.305029035202D+03 E-N=-5.224120651396D+03  KE= 1.108425653902D+03
  Exact polarizability:   0.000   0.000   0.000   0.000   0.000   0.000
 Approx polarizability: 440.153 -31.448 387.571 -10.400  -3.790 212.029
 D2PCM: C-PCM CHGder 2nd derivatives, FixD1E=F FixD2E=F DoIter=F DoCFld=F I1PDM=0
 Calling FoFJK, ICntrl=    100147 FMM=F ISym2X=0 I1Cent= 0 IOpClX= 0 NMat=1 NMatS=1 NMatT=0.
 ***** Axes restored to original set *****
 -------------------------------------------------------------------
 Center     Atomic                   Forces (Hartrees/Bohr)
 Number     Number              X              Y              Z
 -------------------------------------------------------------------
      1        6          -0.002039505    0.002782096    0.001020481
      2        6          -0.002893826    0.002275231    0.000720955
      3        6          -0.007202271   -0.005929825    0.000888373
      4        6           0.014940328   -0.005293715    0.001065036
      5        6           0.003658875    0.001929909   -0.000988325
      6        6           0.000273780    0.001748623   -0.000216324
      7        1           0.001630481   -0.002929479   -0.000764442
      8        1           0.004719833    0.000870069   -0.001291116
      9        1          -0.005642541   -0.002268351    0.001495112
     10        1           0.000404810   -0.002287047   -0.000282803
     11        6          -0.014610817    0.010500262   -0.003513712
     12        6           0.007727800    0.006978820    0.000645541
     13        6          -0.007888237   -0.002021668   -0.015371144
     14        1          -0.004712169    0.005570172    0.004964935
     15        6           0.005474795   -0.004064548   -0.007159536
     16        1          -0.002304612    0.005313275    0.001217433
     17        8          -0.005391029    0.002680039   -0.020735871
     18       17          -0.016464120   -0.009024343    0.003622859
     19        6           0.003452408   -0.005872246    0.003690991
     20        6           0.015589111   -0.002827830    0.016608440
     21        1          -0.004163368    0.001967098   -0.004623136
     22        6           0.012576506    0.003620718   -0.006526439
     23        1          -0.002682533   -0.000548687    0.003063511
     24        1          -0.000978051   -0.003276548    0.005936204
     25        1          -0.001782033   -0.000668880    0.001271707
     26        6          -0.005810781    0.009771020    0.010057998
     27        1           0.004096748   -0.000733922   -0.001905237
     28        1           0.000258186   -0.001758398   -0.002509322
     29        1           0.001792401   -0.004658199   -0.000998804
     30        6           0.002754062   -0.001750933    0.011630162
     31        1           0.002313343    0.001419897    0.000062578
     32        1           0.002902425   -0.001512611   -0.001076106
 -------------------------------------------------------------------
 Cartesian Forces:  Max     0.020735871 RMS     0.006144072
 FormGI is forming the generalized inverse of G from B-inverse, IUseBI=4.

 GradGradGradGradGradGradGradGradGradGradGradGradGradGradGradGradGradGrad
 Berny optimization.
 Internal  Forces:  Max     0.082966182 RMS     0.009418386
 Search for a saddle point.
 Step number   1 out of a maximum of  175
 All quantities printed in internal units (Hartrees-Bohrs-Radians)
 Swapping is turned off.
 Second derivative matrix not updated -- analytic derivatives used.
 ITU=  0
     Eigenvalues ---   -0.08475  -0.00029   0.00105   0.00247   0.00645
     Eigenvalues ---    0.01114   0.01389   0.01454   0.01643   0.01779
     Eigenvalues ---    0.01840   0.02064   0.02164   0.02257   0.02333
     Eigenvalues ---    0.02442   0.02723   0.02748   0.02810   0.03087
     Eigenvalues ---    0.03934   0.04239   0.04369   0.04380   0.04472
     Eigenvalues ---    0.04539   0.05018   0.06560   0.09719   0.10039
     Eigenvalues ---    0.11008   0.11084   0.11633   0.11837   0.11892
     Eigenvalues ---    0.11948   0.12086   0.12275   0.12399   0.12533
     Eigenvalues ---    0.13117   0.14118   0.14593   0.14799   0.14969
     Eigenvalues ---    0.15927   0.16330   0.18620   0.18921   0.19046
     Eigenvalues ---    0.19310   0.19733   0.20664   0.23290   0.24107
     Eigenvalues ---    0.25746   0.28072   0.28733   0.29200   0.31231
     Eigenvalues ---    0.32316   0.32471   0.32749   0.32865   0.33050
     Eigenvalues ---    0.33412   0.33651   0.33682   0.34148   0.34789
     Eigenvalues ---    0.34830   0.34955   0.34990   0.35061   0.35199
     Eigenvalues ---    0.35375   0.35402   0.37020   0.38329   0.40223
     Eigenvalues ---    0.42239   0.43586   0.47102   0.47407   0.50351
     Eigenvalues ---    0.52056   0.54048   0.60193   0.71091   1.24888
 Eigenvectors required to have negative eigenvalues:
                          R20       D75       D76       A31       R25
   1                    0.55548  -0.25229   0.23796  -0.20550   0.19651
                          R21       D35       D77       D74       D46
   1                   -0.18685  -0.18615  -0.17404   0.15971   0.15854
 RFO step:  Lambda0=3.071377297D-03 Lambda=-2.74839597D-02.
 Linear search not attempted -- option 19 set.
 Maximum step size (   0.300) exceeded in Quadratic search.
    -- Step size scaled by   0.530
 Iteration  1 RMS(Cart)=  0.11549082 RMS(Int)=  0.00536576
 Iteration  2 RMS(Cart)=  0.02148376 RMS(Int)=  0.00023526
 Iteration  3 RMS(Cart)=  0.00018564 RMS(Int)=  0.00022601
 Iteration  4 RMS(Cart)=  0.00000001 RMS(Int)=  0.00022601
 Variable       Old X    -DE/DX   Delta X   Delta X   Delta X     New X
                                 (Linear)    (Quad)   (Total)
    R1        2.61778  -0.00069   0.00000  -0.00099  -0.00099   2.61679
    R2        2.66673  -0.00023   0.00000  -0.00072  -0.00072   2.66602
    R3        2.06153  -0.00326   0.00000  -0.00456  -0.00456   2.05696
    R4        2.67598   0.00061   0.00000   0.00146   0.00145   2.67744
    R5        2.06014  -0.00491   0.00000  -0.00615  -0.00615   2.05399
    R6        2.67218   0.01074   0.00000   0.01266   0.01257   2.68476
    R7        2.74021  -0.00063   0.00000  -0.00567  -0.00574   2.73447
    R8        2.67246  -0.00062   0.00000  -0.00392  -0.00392   2.66854
    R9        2.77951  -0.00655   0.00000  -0.00483  -0.00484   2.77467
[...]
 Alpha virt. eigenvalues --    2.46433   2.46926   2.48188   2.49886   2.50903
 Alpha virt. eigenvalues --    2.53553   2.54971   2.55991   2.58059   2.58476
 Alpha virt. eigenvalues --    2.58844   2.59603   2.61291   2.61977   2.63975
 Alpha virt. eigenvalues --    2.65902   2.66432   2.66920   2.67614   2.69178
 Alpha virt. eigenvalues --    2.70351   2.71135   2.73630   2.74480   2.76755
 Alpha virt. eigenvalues --    2.80762   2.81953   2.82206   2.84035   2.86290
 Alpha virt. eigenvalues --    2.86834   2.88635   2.94741   2.94956   3.02211
 Alpha virt. eigenvalues --    3.04615   3.06191   3.10208   3.15257   3.16448
 Alpha virt. eigenvalues --    3.22683   3.25210   3.26240   3.27590   3.29061
 Alpha virt. eigenvalues --    3.33091   3.34805   3.36261   3.38397   3.43780
 Alpha virt. eigenvalues --    3.45017   3.45535   3.49870   3.51158   3.51868
 Alpha virt. eigenvalues --    3.66274   3.68173   3.85656   4.26321   4.31855
 Alpha virt. eigenvalues --    4.35970   4.36329   4.38411   4.40775   4.42010
 Alpha virt. eigenvalues --    4.45197   4.49132   4.51191   4.54852   4.55877
 Alpha virt. eigenvalues --    4.61268   4.67724   4.72675   4.87113   5.02841
          Condensed to atoms (all electrons):
               1          2          3          4          5          6
     1  C    6.388935  -1.419107   1.159383  -0.344745  -0.083465   0.647696
     2  C   -1.419107  12.734859  -5.730217   0.420716   0.935695  -0.353522
     3  C    1.159383  -5.730217  17.238065   1.990433  -3.580749   0.330863
     4  C   -0.344745   0.420716   1.990433  19.721295 -10.322307   2.369601
     5  C   -0.083465   0.935695  -3.580749 -10.322307  20.177542  -4.056148
     6  C    0.647696  -0.353522   0.330863   2.369601  -4.056148   7.893886
     7  H    0.306930  -0.025193   0.029177  -0.014837   0.026938  -0.005557
     8  H    0.126309   0.208958  -0.020784   0.010631   0.003566   0.007325
     9  H    0.005737  -0.006478   0.022463   0.002832   0.300430  -0.058525
    10  H   -0.032309   0.058975  -0.006078   0.058342  -0.120447   0.373271
    11  C    0.397653  -1.356139  -3.001614  -6.527944   3.688437  -1.180126
    12  C   -0.239000  -0.069452  -1.636681  -0.621047  -1.401235   0.500471
    13  C   -0.176342   0.657309   1.043800  -1.016410  -0.862368  -0.152651
    14  H   -0.000934   0.004784  -0.025561   0.083407  -0.002034   0.003464
    15  C   -0.268379   0.242531  -2.209559   0.361886   1.666441  -0.162380
    16  H    0.003617   0.000870   0.082947  -0.031542   0.001971  -0.000854
    17  O   -0.023380   0.083829  -0.112648  -0.308324   0.075906   0.047723
    18  Cl  -0.001339   0.010830  -0.092151  -0.004424  -0.119059   0.024092
    19  C   -0.025991   0.027756   0.033535   0.396864  -0.118910  -0.021772
    20  C    0.013445  -0.021717   0.168576  -0.036020  -0.146657  -0.048481
    21  H   -0.000027  -0.000242  -0.003309   0.006155   0.002019   0.000351
    22  C   -0.003661   0.005297   0.032069   0.180822  -0.093330  -0.002699
    23  H   -0.000006  -0.000008  -0.000136   0.000346  -0.001810  -0.000083
    24  H   -0.000100   0.000324   0.000514   0.021740  -0.005867   0.004204
    25  H    0.000034  -0.000047  -0.000408  -0.009723   0.003938  -0.000470
    26  C    0.020784  -0.015384  -0.077414  -0.404664   0.201398   0.086511
    27  H    0.006679  -0.023747   0.016391  -0.083184   0.060175  -0.013635
    28  H   -0.000465   0.001643  -0.002123  -0.014391   0.008237   0.002142
    29  H   -0.001152   0.003843  -0.003908   0.049317  -0.037374   0.019053
    30  C   -0.003937   0.010965  -0.198675  -0.288171   0.217084   0.006989
    31  H   -0.000254   0.004213  -0.003156   0.000086   0.001843   0.000437
    32  H   -0.000644  -0.021771  -0.065113  -0.011816   0.028867   0.004244
               7          8          9         10         11         12
     1  C    0.306930   0.126309   0.005737  -0.032309   0.397653  -0.239000
     2  C   -0.025193   0.208958  -0.006478   0.058975  -1.356139  -0.069452
     3  C    0.029177  -0.020784   0.022463  -0.006078  -3.001614  -1.636681
     4  C   -0.014837   0.010631   0.002832   0.058342  -6.527944  -0.621047
     5  C    0.026938   0.003566   0.300430  -0.120447   3.688437  -1.401235
     6  C   -0.005557   0.007325  -0.058525   0.373271  -1.180126   0.500471
     7  H    0.557540  -0.005207  -0.000163  -0.004578   0.000895  -0.003269
     8  H   -0.005207   0.554305   0.000014  -0.000161   0.005416  -0.038305
     9  H   -0.000163   0.000014   0.555246  -0.004823   0.006473  -0.009612
    10  H   -0.004578  -0.000161  -0.004823   0.559322  -0.020609   0.004231
    11  C    0.000895   0.005416   0.006473  -0.020609  15.662573   2.620395
    12  C   -0.003269  -0.038305  -0.009612   0.004231   2.620395  11.030352
    13  C   -0.000622  -0.003173   0.032841  -0.000383  -3.141573  -1.505525
    14  H    0.000000   0.000000  -0.000006   0.000000   0.069451  -0.003794
    15  C    0.000103   0.010075   0.001288  -0.001136  -1.400669  -2.310559
    16  H    0.000000  -0.000004   0.000000   0.000000   0.009922   0.118779
    17  O    0.000006   0.000025   0.005859   0.000141   0.352346  -0.108901
    18  Cl   0.000318  -0.006941   0.000022   0.000095   0.048502  -0.239520
    19  C    0.000057  -0.000088  -0.010174  -0.000030  -0.641183  -0.144491
    20  C   -0.000011   0.000033  -0.000996   0.000204   0.551905   0.095138
    21  H    0.000000   0.000000   0.000000   0.000000  -0.008665  -0.001856
    22  C   -0.000001  -0.000003   0.000957   0.000036  -0.054684  -0.000267
    23  H    0.000000   0.000000   0.000001   0.000000   0.004289   0.000432
    24  H    0.000000   0.000000   0.000139   0.000000  -0.021340   0.000252
    25  H    0.000000   0.000000  -0.000002   0.000000   0.006372  -0.000097
    26  C   -0.000134   0.000080   0.010178   0.000206  -0.060416  -0.000574
    27  H    0.000000   0.000000  -0.000569  -0.000004   0.083339   0.001449
    28  H    0.000000   0.000000   0.000029   0.000000  -0.009238  -0.001195
    29  H    0.000000   0.000000   0.000886  -0.000006  -0.022871   0.002611
    30  C    0.000020   0.000099  -0.000139  -0.000086   0.141116   0.054313
    31  H    0.000000   0.000000   0.000000   0.000000  -0.031171  -0.010942
    32  H    0.000000   0.000000   0.000002   0.000000   0.065342   0.006047
              13         14         15         16         17         18
     1  C   -0.176342  -0.000934  -0.268379   0.003617  -0.023380  -0.001339
     2  C    0.657309   0.004784   0.242531   0.000870   0.083829   0.010830
     3  C    1.043800  -0.025561  -2.209559   0.082947  -0.112648  -0.092151
     4  C   -1.016410   0.083407   0.361886  -0.031542  -0.308324  -0.004424
     5  C   -0.862368  -0.002034   1.666441   0.001971   0.075906  -0.119059
     6  C   -0.152651   0.003464  -0.162380  -0.000854   0.047723   0.024092
     7  H   -0.000622   0.000000   0.000103   0.000000   0.000006   0.000318
     8  H   -0.003173   0.000000   0.010075  -0.000004   0.000025  -0.006941
     9  H    0.032841  -0.000006   0.001288   0.000000   0.005859   0.000022
    10  H   -0.000383   0.000000  -0.001136   0.000000   0.000141   0.000095
    11  C   -3.141573   0.069451  -1.400669   0.009922   0.352346   0.048502
    12  C   -1.505525  -0.003794  -2.310559   0.118779  -0.108901  -0.239520
    13  C   11.311295   0.238116  -0.415533  -0.064703  -0.192959   0.120911
    14  H    0.238116   0.552751  -0.075385  -0.004645   0.005453   0.000745
    15  C   -0.415533  -0.075385  10.559146   0.188519   0.140802  -0.141060
    16  H   -0.064703  -0.004645   0.188519   0.541162  -0.000786   0.003070
    17  O   -0.192959   0.005453   0.140802  -0.000786   8.505967  -0.000659
    18  Cl   0.120911   0.000745  -0.141060   0.003070  -0.000659  17.156359
    19  C    0.063881  -0.008314   0.268478  -0.003849   0.224756  -0.000971
    20  C   -0.111936  -0.016914  -0.456088   0.008385  -0.077119   0.016255
    21  H   -0.002487   0.000309   0.013715  -0.000003  -0.001801   0.000002
    22  C   -0.043691   0.002348  -0.028393   0.000036  -0.081410   0.001011
    23  H    0.001548  -0.000008   0.000786   0.000000   0.000147   0.000000
    24  H   -0.004498   0.000001  -0.001471   0.000000  -0.008005   0.000002
    25  H    0.000526   0.000000   0.000436   0.000000   0.002639   0.000000
    26  C    0.087797  -0.008179   0.071599   0.000209   0.017413  -0.001711
    27  H   -0.029020  -0.000012  -0.003104   0.000000  -0.009231   0.000163
    28  H    0.006418   0.000000   0.000403   0.000000   0.005431  -0.000010
    29  H   -0.006572   0.000002  -0.001871   0.000000  -0.008850   0.000014
    30  C    0.082099   0.029014   0.197446   0.000256  -0.043045  -0.011414
    31  H    0.035473  -0.001863  -0.013252   0.000301   0.002675   0.000741
    32  H   -0.106465   0.000977   0.083317  -0.000123  -0.000829   0.000940
              19         20         21         22         23         24
     1  C   -0.025991   0.013445  -0.000027  -0.003661  -0.000006  -0.000100
     2  C    0.027756  -0.021717  -0.000242   0.005297  -0.000008   0.000324
     3  C    0.033535   0.168576  -0.003309   0.032069  -0.000136   0.000514
     4  C    0.396864  -0.036020   0.006155   0.180822   0.000346   0.021740
     5  C   -0.118910  -0.146657   0.002019  -0.093330  -0.001810  -0.005867
     6  C   -0.021772  -0.048481   0.000351  -0.002699  -0.000083   0.004204
     7  H    0.000057  -0.000011   0.000000  -0.000001   0.000000   0.000000
     8  H   -0.000088   0.000033   0.000000  -0.000003   0.000000   0.000000
     9  H   -0.010174  -0.000996   0.000000   0.000957   0.000001   0.000139
    10  H   -0.000030   0.000204   0.000000   0.000036   0.000000   0.000000
    11  C   -0.641183   0.551905  -0.008665  -0.054684   0.004289  -0.021340
    12  C   -0.144491   0.095138  -0.001856  -0.000267   0.000432   0.000252
    13  C    0.063881  -0.111936  -0.002487  -0.043691   0.001548  -0.004498
    14  H   -0.008314  -0.016914   0.000309   0.002348  -0.000008   0.000001
    15  C    0.268478  -0.456088   0.013715  -0.028393   0.000786  -0.001471
    16  H   -0.003849   0.008385  -0.000003   0.000036   0.000000   0.000000
    17  O    0.224756  -0.077119  -0.001801  -0.081410   0.000147  -0.008005
    18  Cl  -0.000971   0.016255   0.000002   0.001011   0.000000   0.000002
    19  C    7.906871  -1.111984   0.003144  -0.642749  -0.139167  -0.066281
    20  C   -1.111984   7.093419   0.302115   0.363087  -0.003992   0.019941
    21  H    0.003144   0.302115   0.575440  -0.028534   0.004474   0.000118
    22  C   -0.642749   0.363087  -0.028534   6.210063   0.501059   0.461855
    23  H   -0.139167  -0.003992   0.004474   0.501059   0.537254  -0.023053
    24  H   -0.066281   0.019941   0.000118   0.461855  -0.023053   0.507598
    25  H   -0.066326  -0.006833   0.000255   0.393224  -0.026076  -0.028606
    26  C   -0.456541  -0.156058   0.007993  -0.419351  -0.002140  -0.042415
    27  H   -0.081015  -0.008581  -0.000070   0.016665  -0.000150  -0.000047
    28  H   -0.134061   0.001527  -0.000065  -0.034429  -0.000049   0.000109
    29  H   -0.055633   0.032920  -0.000130  -0.026813   0.000146   0.002495
    30  C    0.216925  -0.280473   0.003520  -0.203738  -0.007704  -0.003713
    31  H    0.029669  -0.029125  -0.005467  -0.003305  -0.000009   0.000002
    32  H    0.056811  -0.141617   0.004533  -0.004127  -0.000001  -0.000006
              25         26         27         28         29         30
     1  C    0.000034   0.020784   0.006679  -0.000465  -0.001152  -0.003937
     2  C   -0.000047  -0.015384  -0.023747   0.001643   0.003843   0.010965
     3  C   -0.000408  -0.077414   0.016391  -0.002123  -0.003908  -0.198675
     4  C   -0.009723  -0.404664  -0.083184  -0.014391   0.049317  -0.288171
     5  C    0.003938   0.201398   0.060175   0.008237  -0.037374   0.217084
     6  C   -0.000470   0.086511  -0.013635   0.002142   0.019053   0.006989
     7  H    0.000000  -0.000134   0.000000   0.000000   0.000000   0.000020
     8  H    0.000000   0.000080   0.000000   0.000000   0.000000   0.000099
     9  H   -0.000002   0.010178  -0.000569   0.000029   0.000886  -0.000139
    10  H    0.000000   0.000206  -0.000004   0.000000  -0.000006  -0.000086
    11  C    0.006372  -0.060416   0.083339  -0.009238  -0.022871   0.141116
    12  C   -0.000097  -0.000574   0.001449  -0.001195   0.002611   0.054313
    13  C    0.000526   0.087797  -0.029020   0.006418  -0.006572   0.082099
    14  H    0.000000  -0.008179  -0.000012   0.000000   0.000002   0.029014
    15  C    0.000436   0.071599  -0.003104   0.000403  -0.001871   0.197446
    16  H    0.000000   0.000209   0.000000   0.000000   0.000000   0.000256
    17  O    0.002639   0.017413  -0.009231   0.005431  -0.008850  -0.043045
    18  Cl   0.000000  -0.001711   0.000163  -0.000010   0.000014  -0.011414
    19  C   -0.066326  -0.456541  -0.081015  -0.134061  -0.055633   0.216925
    20  C   -0.006833  -0.156058  -0.008581   0.001527   0.032920  -0.280473
    21  H    0.000255   0.007993  -0.000070  -0.000065  -0.000130   0.003520
    22  C    0.393224  -0.419351   0.016665  -0.034429  -0.026813  -0.203738
    23  H   -0.026076  -0.002140  -0.000150  -0.000049   0.000146  -0.007704
    24  H   -0.028606  -0.042415  -0.000047   0.000109   0.002495  -0.003713
    25  H    0.539363   0.027854   0.000096   0.001174  -0.000539  -0.003863
    26  C    0.027854   6.533303   0.443511   0.519032   0.409160  -0.168853
    27  H    0.000096   0.443511   0.537029  -0.024751  -0.027102  -0.022537
    28  H    0.001174   0.519032  -0.024751   0.534130  -0.028217  -0.005320
    29  H   -0.000539   0.409160  -0.027102  -0.028217   0.530255   0.003584
    30  C   -0.003863  -0.168853  -0.022537  -0.005320   0.003584   5.901056
    31  H    0.000004   0.015884   0.000032   0.000005  -0.000003   0.347573
    32  H    0.000004   0.007379   0.000988   0.000167  -0.000121   0.425390
              31         32
     1  C   -0.000254  -0.000644
     2  C    0.004213  -0.021771
     3  C   -0.003156  -0.065113
     4  C    0.000086  -0.011816
     5  C    0.001843   0.028867
     6  C    0.000437   0.004244
     7  H    0.000000   0.000000
     8  H    0.000000   0.000000
     9  H    0.000000   0.000002
    10  H    0.000000   0.000000
    11  C   -0.031171   0.065342
    12  C   -0.010942   0.006047
    13  C    0.035473  -0.106465
    14  H   -0.001863   0.000977
    15  C   -0.013252   0.083317
    16  H    0.000301  -0.000123
    17  O    0.002675  -0.000829
    18  Cl   0.000741   0.000940
    19  C    0.029669   0.056811
    20  C   -0.029125  -0.141617
    21  H   -0.005467   0.004533
    22  C   -0.003305  -0.004127
    23  H   -0.000009  -0.000001
    24  H    0.000002  -0.000006
    25  H    0.000004   0.000004
    26  C    0.015884   0.007379
    27  H    0.000032   0.000988
    28  H    0.000005   0.000167
    29  H   -0.000003  -0.000121
    30  C    0.347573   0.425390
    31  H    0.520134  -0.029776
    32  H   -0.029776   0.527854
 Mulliken charges:
               1
     1  C   -0.451964
     2  C   -0.370377
     3  C    0.622069
     4  C    0.365077
     5  C   -0.448724
     6  C   -0.265419
     7  H    0.137589
     8  H    0.147832
     9  H    0.146089
    10  H    0.135827
    11  C   -0.236182
    12  C   -0.088148
    13  C    0.154897
    14  H    0.156825
    15  C   -0.318131
    16  H    0.146468
    17  O   -0.493170
    18  Cl   0.235187
    19  C    0.500783
    20  C   -0.012346
    21  H    0.128514
    22  C   -0.497346
    23  H    0.153909
    24  H    0.186110
    25  H    0.167072
    26  C   -0.646454
    27  H    0.160244
    28  H    0.173866
    29  H    0.166878
    30  C   -0.395782
    31  H    0.169255
    32  H    0.169551
 Sum of Mulliken charges =   0.00000
 Mulliken charges with hydrogens summed into heavy atoms:
               1
     1  C   -0.314375
     2  C   -0.222544
     3  C    0.622069
     4  C    0.365077
     5  C   -0.302635
     6  C   -0.129593
    11  C   -0.236182
    12  C   -0.088148
    13  C    0.311722
    15  C   -0.171663
    17  O   -0.493170
    18  Cl   0.235187
    19  C    0.500783
    20  C    0.116169
    22  C    0.009746
    26  C   -0.145467
    30  C   -0.056976
 Electronic spatial extent (au):  <R**2>=           4534.1988
 Charge=              0.0000 electrons
 Dipole moment (field-independent basis, Debye):
    X=              3.1626    Y=             -0.1694    Z=              2.6296  Tot=              4.1166
 Quadrupole moment (field-independent basis, Debye-Ang):
   XX=           -103.6514   YY=            -96.8417   ZZ=           -114.2837
   XY=             -4.8144   XZ=              3.2322   YZ=              3.1581
 Traceless Quadrupole moment (field-independent basis, Debye-Ang):
   XX=              1.2742   YY=              8.0839   ZZ=             -9.3581
   XY=             -4.8144   XZ=              3.2322   YZ=              3.1581
 Octapole moment (field-independent basis, Debye-Ang**2):
  XXX=             56.3149  YYY=             -2.7934  ZZZ=              6.8438  XYY=              5.5237
  XXY=             18.2072  XXZ=             14.0350  XZZ=             -1.5733  YZZ=             -5.8897
  YYZ=             -2.1945  XYZ=              0.0476
 Hexadecapole moment (field-independent basis, Debye-Ang**3):
 XXXX=          -3735.7227 YYYY=          -1658.1853 ZZZZ=           -501.9309 XXXY=            -16.3143
 XXXZ=            -35.0178 YYYX=            -17.7070 YYYZ=             17.2733 ZZZX=              0.0915
 ZZZY=              4.2757 XXYY=           -931.6449 XXZZ=           -760.2648 YYZZ=           -404.2385
 XXYZ=             36.7966 YYXZ=            -27.9400 ZZXY=             19.9559
 N-N= 1.283029320429D+03 E-N=-5.180238124615D+03  KE= 1.108244287264D+03
 1\1\GINC-D11S2B2\FTS\RB3LYP\6-31+G(d,p)\C15H15Cl1O1\CHMKSH\27-Aug-2020
 \0\\# opt=(calcfc,ts,noeigentest) b3lyp/6-31+g(d,p) scrf=(cpcm,solvent
 =toluene) geom=connectivity empiricaldispersion=gd3\\Title Card Requir
 ed\\0,1\C,-2.376028906,2.6079782622,0.4172385687\C,-2.6747773359,1.257
 8518471,0.3601651406\C,-1.7173644819,0.3199063889,-0.1032279914\C,-0.4
 279794368,0.7968613706,-0.4980051051\C,-0.1598718718,2.1811346078,-0.4
 457928444\C,-1.1114388348,3.0783343046,0.0068365255\H,-3.1256408018,3.
 3085818569,0.773431801\H,-3.6544141056,0.9090235413,0.665777054\H,0.81
 84961847,2.5173730766,-0.7712668315\H,-0.887606066,4.1403069857,0.0443
 777863\C,0.5982535971,-0.1271616992,-1.0005259146\C,-1.9757203054,-1.0
 922420802,-0.2115851998\C,0.2688505526,-1.5152098175,-1.0190817362\H,0
 .9551489368,-2.190239303,-1.5152622572\C,-1.0342909627,-1.9696494573,-
 0.6783223962\H,-1.2739862415,-3.0240901013,-0.7673229905\O,1.764770220
 6,0.2823491644,-1.3204297521\Cl,-3.5617632786,-1.7274704054,0.24438419
 36\C,3.1680609693,-0.0778758913,0.4490364555\C,2.799407366,-1.42860571
 31,0.5268115527\H,3.4179824095,-2.137861306,-0.0190334547\C,4.43011633
 39,0.310085204,-0.2576744986\H,4.8360440232,-0.5055112673,-0.8603344\H
 ,4.2348233071,1.1671144858,-0.9097638065\H,5.1891906613,0.6220830543,0
 .4730666522\C,2.5650842764,0.9770539177,1.3293823732\H,1.5081507296,0.
 8110117147,1.5400604424\H,3.1022969986,0.9811317067,2.2881937914\H,2.6
 754257378,1.9659697921,0.8802988681\C,1.5833592284,-1.8768294226,1.002
 7190359\H,1.3472916445,-2.9348132504,0.9949777585\H,0.9201384511,-1.25
 13405667,1.5882411795\\Version=ES64L-G09RevD.01\State=1-A\HF=-1116.080
 4079\RMSD=6.935e-09\RMSF=1.368e-05\Dipole=1.2429,-0.0566174,1.0368327\
 Quadrupole=1.1825607,5.5996776,-6.7822384,-3.820476,2.2276072,2.806835
 \PG=C01 [X(C15H15Cl1O1)]\\@


 MORNING PEOPLE ARE USUALLY ADMIRED AS EARLY BIRDS.
 RECALL BEN FRANKLIN'S APHORISM THAT THE EARLY BIRD GETS THE WORM.
 I IDENTIFY WITH THE WORM. --  CRAIG JAGGER, MINNEAPOLIS, KS.
 Job cpu time:       0 days  6 hours 27 minutes 11.3 seconds.
 File lengths (MBytes):  RWF=   1011 Int=      0 D2E=      0 Chk=     20 Scr=      1
 Normal termination of Gaussian 09 at Thu Aug 27 19:15:30 2020.
