 Entering Gaussian System, Link 0=g09
 Input=b3lyp_sm_claisen_PM6_toluene.com
 Output=b3lyp_sm_claisen_PM6_toluene.log
 Initial command:
 /apps/applications/gaussian/G09.D01/2/default/g09/l1.exe "/local/714070.1.40core-192G.q/Gau-18845.inp" -scrdir="/local/714070.1.40core-192G.q/"
 Entering Link 1 = /apps/applications/gaussian/G09.D01/2/default/g09/l1.exe PID=     18846.
  
 Copyright (c) 1988,1990,1992,1993,1995,1998,2003,2009,2013,
            Gaussian, Inc.  All Rights Reserved.
  
 This is part of the Gaussian(R) 09 program.  It is based on
 the Gaussian(R) 03 system (copyright 2003, Gaussian, Inc.),
 the Gaussian(R) 98 system (copyright 1998, Gaussian, Inc.),
 the Gaussian(R) 94 system (copyright 1995, Gaussian, Inc.),
 the Gaussian 92(TM) system (copyright 1992, Gaussian, Inc.),
 the Gaussian 90(TM) system (copyright 1990, Gaussian, Inc.),
 the Gaussian 88(TM) system (copyright 1988, Gaussian, Inc.),
 the Gaussian 86(TM) system (copyright 1986, Carnegie Mellon
 University), and the Gaussian 82(TM) system (copyright 1983,
 Carnegie Mellon University). Gaussian is a federally registered
 trademark of Gaussian, Inc.
  
 This software contains proprietary and confidential information,
 including trade secrets, belonging to Gaussian, Inc.
  
 This software is provided under written license and may be
 used, copied, transmitted, or stored only in accord with that
 written license.
  
 The following legend is applicable only to US Government
 contracts under FAR:
  
                    RESTRICTED RIGHTS LEGEND
  
 Use, reproduction and disclosure by the US Government is
 subject to restrictions as set forth in subparagraphs (a)
 and (c) of the Commercial Computer Software - Restricted
 Rights clause in FAR 52.227-19.
  
 Gaussian, Inc.
 340 Quinnipiac St., Bldg. 40, Wallingford CT 06492
  
  
 ---------------------------------------------------------------
 Warning -- This program may not be used in any manner that
 competes with the business of Gaussian, Inc. or will provide
 assistance to any competitor of Gaussian, Inc.  The licensee
 of this program is prohibited from giving any competitor of
 Gaussian, Inc. access to this program.  By using this program,
 the user acknowledges that Gaussian, Inc. is engaged in the
 business of creating and licensing software in the field of
 computational chemistry and represents and warrants to the
 licensee that it is not a competitor of Gaussian, Inc. and that
 it will not use this program in any manner prohibited above.
 ---------------------------------------------------------------
  

 Cite this work as:
 Gaussian 09, Revision D.01,
 M. J. Frisch, G. W. Trucks, H. B. Schlegel, G. E. Scuseria, 
 M. A. Robb, J. R. Cheeseman, G. Scalmani, V. Barone, B. Mennucci, 
 G. A. Petersson, H. Nakatsuji, M. Caricato, X. Li, H. P. Hratchian, 
 A. F. Izmaylov, J. Bloino, G. Zheng, J. L. Sonnenberg, M. Hada, 
 M. Ehara, K. Toyota, R. Fukuda, J. Hasegawa, M. Ishida, T. Nakajima, 
 Y. Honda, O. Kitao, H. Nakai, T. Vreven, J. A. Montgomery, Jr., 
 J. E. Peralta, F. Ogliaro, M. Bearpark, J. J. Heyd, E. Brothers, 
 K. N. Kudin, V. N. Staroverov, T. Keith, R. Kobayashi, J. Normand, 
 K. Raghavachari, A. Rendell, J. C. Burant, S. S. Iyengar, J. Tomasi, 
 M. Cossi, N. Rega, J. M. Millam, M. Klene, J. E. Knox, J. B. Cross, 
 V. Bakken, C. Adamo, J. Jaramillo, R. Gomperts, R. E. Stratmann, 
 O. Yazyev, A. J. Austin, R. Cammi, C. Pomelli, J. W. Ochterski, 
 R. L. Martin, K. Morokuma, V. G. Zakrzewski, G. A. Voth, 
 P. Salvador, J. J. Dannenberg, S. Dapprich, A. D. Daniels, 
 O. Farkas, J. B. Foresman, J. V. Ortiz, J. Cioslowski, 
 and D. J. Fox, Gaussian, Inc., Wallingford CT, 2013.
 
 ******************************************
 Gaussian 09:  ES64L-G09RevD.01 24-Apr-2013
                27-Aug-2020 
 ******************************************
 %nprocshared=4
 Will use up to    4 processors via shared memory.
 %chk=b3lyp_sm_claisen_PM6_toluene.chk
 ----------------------------------------------------------------------
 # opt freq b3lyp/6-31+g(d,p) scrf=(cpcm,solvent=toluene) geom=connecti
 vity empiricaldispersion=gd3
 ----------------------------------------------------------------------
 1/14=-1,18=20,19=15,26=3,38=1,57=2/1,3;
 2/9=110,12=2,17=6,18=5,40=1/2;
 3/5=1,6=6,7=111,11=2,16=1,25=1,30=1,70=2101,71=1,72=13,74=-5,124=31/1,2,3;
 4//1;
 5/5=2,38=5,53=13/2;
 6/7=2,8=2,9=2,10=2,28=1/1;
 7//1,2,3,16;
 1/14=-1,18=20,19=15,26=3/3(2);
 2/9=110/2;
 99//99;
 2/9=110/2;
 3/5=1,6=6,7=111,11=2,16=1,25=1,30=1,70=2105,71=1,72=13,74=-5,124=31/1,2,3;
 4/5=5,16=3,69=1/1;
 5/5=2,38=5,53=13/2;
 7//1,2,3,16;
 1/14=-1,18=20,19=15,26=3/3(-5);
 2/9=110/2;
 6/7=2,8=2,9=2,10=2,19=2,28=1/1;
 99/9=1/99;
 -------------------
 Title Card Required
 -------------------
 Symbolic Z-matrix:
 Charge =  0 Multiplicity = 1
 C                     2.81622   2.50258  -0.12777 
 C                     3.00346   1.14097  -0.07657 
 C                     1.88345   0.26098   0.01979 
 C                     0.57931   0.81892   0.06205 
 C                     0.41283   2.2338    0.00658 
 C                     1.50796   3.0586   -0.0863 
 H                     3.67074   3.17663  -0.20112 
 H                     4.01116   0.72626  -0.10951 
 H                    -0.60324   2.63464   0.04019 
 H                     1.39193   4.14061  -0.12908 
 C                    -0.5556   -0.07572   0.16023 
 C                     2.00311  -1.16557   0.07591 
 C                    -0.39484  -1.44532   0.21093 
 H                    -1.24508  -2.1202    0.2788 
 C                     0.91156  -1.99348   0.16805 
 H                     1.02666  -3.07861   0.2088 
 O                    -1.73395   0.60818   0.1887 
 Cl                    3.57805  -1.87288   0.0232 
 C                    -3.05459  -0.06567   0.28836 
 C                    -3.28931  -0.97981  -0.89162 
 H                    -3.9766   -1.80337  -0.68775 
 C                    -3.13663  -0.7864    1.62753 
 H                    -4.1755   -0.99247   1.91304 
 H                    -2.6042   -1.7467    1.62522 
 H                    -2.69455  -0.18129   2.43098 
 C                    -3.96481   1.16138   0.22053 
 H                    -3.72542   1.78173  -0.65436 
 H                    -5.01893   0.87143   0.14399 
 H                    -3.85248   1.80005   1.1052 
 C                    -2.74827  -0.79803  -2.09289 
 H                    -2.93844  -1.45005  -2.93482 
 H                    -2.06447   0.01152  -2.32239 
 

 GradGradGradGradGradGradGradGradGradGradGradGradGradGradGradGradGradGrad
 Berny optimization.
 Initialization pass.
                           ----------------------------
                           !    Initial Parameters    !
                           ! (Angstroms and Degrees)  !
 --------------------------                            --------------------------
 ! Name  Definition              Value          Derivative Info.                !
 --------------------------------------------------------------------------------
 ! R1    R(1,2)                  1.3754         estimate D2E/DX2                !
 ! R2    R(1,6)                  1.4221         estimate D2E/DX2                !
 ! R3    R(1,7)                  1.0908         estimate D2E/DX2                !
 ! R4    R(2,3)                  1.4276         estimate D2E/DX2                !
 ! R5    R(2,8)                  1.0902         estimate D2E/DX2                !
 ! R6    R(3,4)                  1.4191         estimate D2E/DX2                !
 ! R7    R(3,12)                 1.4327         estimate D2E/DX2                !
 ! R8    R(4,5)                  1.4257         estimate D2E/DX2                !
 ! R9    R(4,11)                 1.4485         estimate D2E/DX2                !
 ! R10   R(5,6)                  1.3741         estimate D2E/DX2                !
 ! R11   R(5,9)                  1.0928         estimate D2E/DX2                !
 ! R12   R(6,10)                 1.0891         estimate D2E/DX2                !
 ! R13   R(11,13)                1.3799         estimate D2E/DX2                !
 ! R14   R(11,17)                1.3627         estimate D2E/DX2                !
 ! R15   R(12,15)                1.3731         estimate D2E/DX2                !
 ! R16   R(12,18)                1.7273         estimate D2E/DX2                !
 ! R17   R(13,14)                1.0876         estimate D2E/DX2                !
 ! R18   R(13,15)                1.4174         estimate D2E/DX2                !
 ! R19   R(15,16)                1.092          estimate D2E/DX2                !
 ! R20   R(17,19)                1.486          estimate D2E/DX2                !
 ! R21   R(19,20)                1.511          estimate D2E/DX2                !
 ! R22   R(19,22)                1.523          estimate D2E/DX2                !
 ! R23   R(19,26)                1.5293         estimate D2E/DX2                !
 ! R24   R(20,21)                1.0919         estimate D2E/DX2                !
 ! R25   R(20,30)                1.33           estimate D2E/DX2                !
 ! R26   R(22,23)                1.0969         estimate D2E/DX2                !
 ! R27   R(22,24)                1.098          estimate D2E/DX2                !
 ! R28   R(22,25)                1.0987         estimate D2E/DX2                !
 ! R29   R(26,27)                1.0989         estimate D2E/DX2                !
 ! R30   R(26,28)                1.096          estimate D2E/DX2                !
 ! R31   R(26,29)                1.0969         estimate D2E/DX2                !
 ! R32   R(30,31)                1.0817         estimate D2E/DX2                !
 ! R33   R(30,32)                1.0843         estimate D2E/DX2                !
 ! A1    A(2,1,6)              120.7451         estimate D2E/DX2                !
 ! A2    A(2,1,7)              120.5042         estimate D2E/DX2                !
 ! A3    A(6,1,7)              118.7507         estimate D2E/DX2                !
 ! A4    A(1,2,3)              120.394          estimate D2E/DX2                !
 ! A5    A(1,2,8)              120.0855         estimate D2E/DX2                !
 ! A6    A(3,2,8)              119.5205         estimate D2E/DX2                !
 ! A7    A(2,3,4)              118.7273         estimate D2E/DX2                !
 ! A8    A(2,3,12)             123.4279         estimate D2E/DX2                !
 ! A9    A(4,3,12)             117.8449         estimate D2E/DX2                !
 ! A10   A(3,4,5)              119.7571         estimate D2E/DX2                !
 ! A11   A(3,4,11)             118.6352         estimate D2E/DX2                !
 ! A12   A(5,4,11)             121.6077         estimate D2E/DX2                !
 ! A13   A(4,5,6)              120.3473         estimate D2E/DX2                !
 ! A14   A(4,5,9)              118.125          estimate D2E/DX2                !
 ! A15   A(6,5,9)              121.5278         estimate D2E/DX2                !
 ! A16   A(1,6,5)              120.0293         estimate D2E/DX2                !
 ! A17   A(1,6,10)             119.0336         estimate D2E/DX2                !
 ! A18   A(5,6,10)             120.9371         estimate D2E/DX2                !
 ! A19   A(4,11,13)            121.6168         estimate D2E/DX2                !
 ! A20   A(4,11,17)            111.6512         estimate D2E/DX2                !
 ! A21   A(13,11,17)           126.7318         estimate D2E/DX2                !
 ! A22   A(3,12,15)            122.4528         estimate D2E/DX2                !
 ! A23   A(3,12,18)            118.8628         estimate D2E/DX2                !
 ! A24   A(15,12,18)           118.6843         estimate D2E/DX2                !
 ! A25   A(11,13,14)           121.8077         estimate D2E/DX2                !
 ! A26   A(11,13,15)           119.3475         estimate D2E/DX2                !
 ! A27   A(14,13,15)           118.8442         estimate D2E/DX2                !
 ! A28   A(12,15,13)           120.1028         estimate D2E/DX2                !
 ! A29   A(12,15,16)           121.1899         estimate D2E/DX2                !
 ! A30   A(13,15,16)           118.7073         estimate D2E/DX2                !
 ! A31   A(11,17,19)           122.8415         estimate D2E/DX2                !
 ! A32   A(17,19,20)           111.1022         estimate D2E/DX2                !
 ! A33   A(17,19,22)           108.7499         estimate D2E/DX2                !
 ! A34   A(17,19,26)            99.3313         estimate D2E/DX2                !
 ! A35   A(20,19,22)           113.0788         estimate D2E/DX2                !
 ! A36   A(20,19,26)           110.998          estimate D2E/DX2                !
 ! A37   A(22,19,26)           112.7456         estimate D2E/DX2                !
 ! A38   A(19,20,21)           114.0979         estimate D2E/DX2                !
 ! A39   A(19,20,30)           124.0197         estimate D2E/DX2                !
 ! A40   A(21,20,30)           121.8572         estimate D2E/DX2                !
 ! A41   A(19,22,23)           111.6404         estimate D2E/DX2                !
 ! A42   A(19,22,24)           112.6995         estimate D2E/DX2                !
 ! A43   A(19,22,25)           111.143          estimate D2E/DX2                !
 ! A44   A(23,22,24)           107.1872         estimate D2E/DX2                !
 ! A45   A(23,22,25)           107.1094         estimate D2E/DX2                !
 ! A46   A(24,22,25)           106.7447         estimate D2E/DX2                !
 ! A47   A(19,26,27)           111.0145         estimate D2E/DX2                !
 ! A48   A(19,26,28)           111.3021         estimate D2E/DX2                !
 ! A49   A(19,26,29)           111.7436         estimate D2E/DX2                !
 ! A50   A(27,26,28)           107.655          estimate D2E/DX2                !
 ! A51   A(27,26,29)           106.9251         estimate D2E/DX2                !
 ! A52   A(28,26,29)           107.9913         estimate D2E/DX2                !
 ! A53   A(20,30,31)           123.3053         estimate D2E/DX2                !
 ! A54   A(20,30,32)           123.3524         estimate D2E/DX2                !
 ! A55   A(31,30,32)           113.3389         estimate D2E/DX2                !
 ! D1    D(6,1,2,3)             -0.02           estimate D2E/DX2                !
 ! D2    D(6,1,2,8)            179.9764         estimate D2E/DX2                !
 ! D3    D(7,1,2,3)            179.9827         estimate D2E/DX2                !
 ! D4    D(7,1,2,8)             -0.0209         estimate D2E/DX2                !
 ! D5    D(2,1,6,5)              0.0324         estimate D2E/DX2                !
 ! D6    D(2,1,6,10)          -179.9735         estimate D2E/DX2                !
 ! D7    D(7,1,6,5)           -179.9702         estimate D2E/DX2                !
 ! D8    D(7,1,6,10)             0.0239         estimate D2E/DX2                !
 ! D9    D(1,2,3,4)             -0.0304         estimate D2E/DX2                !
 ! D10   D(1,2,3,12)           179.9322         estimate D2E/DX2                !
 ! D11   D(8,2,3,4)            179.9731         estimate D2E/DX2                !
 ! D12   D(8,2,3,12)            -0.0642         estimate D2E/DX2                !
 ! D13   D(2,3,4,5)              0.0685         estimate D2E/DX2                !
 ! D14   D(2,3,4,11)          -179.9818         estimate D2E/DX2                !
 ! D15   D(12,3,4,5)          -179.8963         estimate D2E/DX2                !
 ! D16   D(12,3,4,11)            0.0534         estimate D2E/DX2                !
 ! D17   D(2,3,12,15)         -179.9765         estimate D2E/DX2                !
 ! D18   D(2,3,12,18)           -0.0814         estimate D2E/DX2                !
 ! D19   D(4,3,12,15)           -0.0135         estimate D2E/DX2                !
 ! D20   D(4,3,12,18)          179.8815         estimate D2E/DX2                !
 ! D21   D(3,4,5,6)             -0.0573         estimate D2E/DX2                !
 ! D22   D(3,4,5,9)            179.9494         estimate D2E/DX2                !
 ! D23   D(11,4,5,6)           179.9946         estimate D2E/DX2                !
 ! D24   D(11,4,5,9)             0.0013         estimate D2E/DX2                !
 ! D25   D(3,4,11,13)           -0.0951         estimate D2E/DX2                !
 ! D26   D(3,4,11,17)         -179.9226         estimate D2E/DX2                !
 ! D27   D(5,4,11,13)          179.8536         estimate D2E/DX2                !
 ! D28   D(5,4,11,17)            0.0261         estimate D2E/DX2                !
 ! D29   D(4,5,6,1)              0.0067         estimate D2E/DX2                !
 ! D30   D(4,5,6,10)          -179.9873         estimate D2E/DX2                !
 ! D31   D(9,5,6,1)            179.9997         estimate D2E/DX2                !
 ! D32   D(9,5,6,10)             0.0057         estimate D2E/DX2                !
 ! D33   D(4,11,13,14)        -179.6362         estimate D2E/DX2                !
 ! D34   D(4,11,13,15)           0.0922         estimate D2E/DX2                !
 ! D35   D(17,11,13,14)          0.1638         estimate D2E/DX2                !
 ! D36   D(17,11,13,15)        179.8922         estimate D2E/DX2                !
 ! D37   D(4,11,17,19)        -179.9021         estimate D2E/DX2                !
 ! D38   D(13,11,17,19)          0.2812         estimate D2E/DX2                !
 ! D39   D(3,12,15,13)           0.0102         estimate D2E/DX2                !
 ! D40   D(3,12,15,16)         179.9571         estimate D2E/DX2                !
 ! D41   D(18,12,15,13)       -179.885          estimate D2E/DX2                !
 ! D42   D(18,12,15,16)          0.0619         estimate D2E/DX2                !
 ! D43   D(11,13,15,12)         -0.0493         estimate D2E/DX2                !
 ! D44   D(11,13,15,16)       -179.9975         estimate D2E/DX2                !
 ! D45   D(14,13,15,12)        179.6872         estimate D2E/DX2                !
 ! D46   D(14,13,15,16)         -0.2609         estimate D2E/DX2                !
 ! D47   D(11,17,19,20)        -60.928          estimate D2E/DX2                !
 ! D48   D(11,17,19,22)         64.152          estimate D2E/DX2                !
 ! D49   D(11,17,19,26)       -177.8422         estimate D2E/DX2                !
 ! D50   D(17,19,20,21)        154.2387         estimate D2E/DX2                !
 ! D51   D(17,19,20,30)        -27.558          estimate D2E/DX2                !
 ! D52   D(22,19,20,21)         31.6263         estimate D2E/DX2                !
 ! D53   D(22,19,20,30)       -150.1704         estimate D2E/DX2                !
 ! D54   D(26,19,20,21)        -96.2324         estimate D2E/DX2                !
 ! D55   D(26,19,20,30)         81.9709         estimate D2E/DX2                !
 ! D56   D(17,19,22,23)        159.7557         estimate D2E/DX2                !
 ! D57   D(17,19,22,24)        -79.5437         estimate D2E/DX2                !
 ! D58   D(17,19,22,25)         40.2321         estimate D2E/DX2                !
 ! D59   D(20,19,22,23)        -76.3317         estimate D2E/DX2                !
 ! D60   D(20,19,22,24)         44.3688         estimate D2E/DX2                !
 ! D61   D(20,19,22,25)        164.1446         estimate D2E/DX2                !
 ! D62   D(26,19,22,23)         50.6094         estimate D2E/DX2                !
 ! D63   D(26,19,22,24)        171.3099         estimate D2E/DX2                !
 ! D64   D(26,19,22,25)        -68.9142         estimate D2E/DX2                !
 ! D65   D(17,19,26,27)         52.4694         estimate D2E/DX2                !
 ! D66   D(17,19,26,28)        172.3709         estimate D2E/DX2                !
 ! D67   D(17,19,26,29)        -66.8031         estimate D2E/DX2                !
 ! D68   D(20,19,26,27)        -64.5236         estimate D2E/DX2                !
 ! D69   D(20,19,26,28)         55.3779         estimate D2E/DX2                !
 ! D70   D(20,19,26,29)        176.2038         estimate D2E/DX2                !
 ! D71   D(22,19,26,27)        167.4371         estimate D2E/DX2                !
 ! D72   D(22,19,26,28)        -72.6614         estimate D2E/DX2                !
 ! D73   D(22,19,26,29)         48.1645         estimate D2E/DX2                !
 ! D74   D(19,20,30,31)       -178.858          estimate D2E/DX2                !
 ! D75   D(19,20,30,32)          1.8525         estimate D2E/DX2                !
 ! D76   D(21,20,30,31)         -0.7891         estimate D2E/DX2                !
 ! D77   D(21,20,30,32)        179.9215         estimate D2E/DX2                !
 --------------------------------------------------------------------------------
 Trust Radius=3.00D-01 FncErr=1.00D-07 GrdErr=1.00D-06
 Number of steps in this run=    175 maximum allowed number of steps=    192.
 GradGradGradGradGradGradGradGradGradGradGradGradGradGradGradGradGradGrad

                          Input orientation:                          
 ---------------------------------------------------------------------
 Center     Atomic      Atomic             Coordinates (Angstroms)
 Number     Number       Type             X           Y           Z
 ---------------------------------------------------------------------
      1          6           0        2.816222    2.502575   -0.127767
      2          6           0        3.003456    1.140966   -0.076570
      3          6           0        1.883446    0.260984    0.019789
      4          6           0        0.579305    0.818923    0.062051
      5          6           0        0.412825    2.233795    0.006584
      6          6           0        1.507964    3.058602   -0.086300
      7          1           0        3.670742    3.176634   -0.201119
      8          1           0        4.011160    0.726264   -0.109505
      9          1           0       -0.603237    2.634642    0.040191
     10          1           0        1.391934    4.140609   -0.129084
     11          6           0       -0.555601   -0.075721    0.160226
     12          6           0        2.003112   -1.165566    0.075910
     13          6           0       -0.394838   -1.445321    0.210928
     14          1           0       -1.245076   -2.120200    0.278796
     15          6           0        0.911559   -1.993475    0.168046
     16          1           0        1.026663   -3.078611    0.208799
     17          8           0       -1.733947    0.608175    0.188700
     18         17           0        3.578051   -1.872882    0.023200
     19          6           0       -3.054591   -0.065670    0.288355
     20          6           0       -3.289306   -0.979808   -0.891617
     21          1           0       -3.976604   -1.803370   -0.687751
     22          6           0       -3.136630   -0.786404    1.627531
     23          1           0       -4.175502   -0.992465    1.913043
     24          1           0       -2.604202   -1.746696    1.625219
     25          1           0       -2.694550   -0.181288    2.430981
     26          6           0       -3.964805    1.161383    0.220527
     27          1           0       -3.725415    1.781730   -0.654358
     28          1           0       -5.018930    0.871428    0.143986
     29          1           0       -3.852476    1.800046    1.105203
     30          6           0       -2.748266   -0.798030   -2.092892
     31          1           0       -2.938439   -1.450049   -2.934822
     32          1           0       -2.064472    0.011518   -2.322392
 ---------------------------------------------------------------------
                    Distance matrix (angstroms):
                    1          2          3          4          5
     1  C    0.000000
     2  C    1.375375   0.000000
     3  C    2.432401   1.427612   0.000000
     4  C    2.806156   2.449375   1.419107   0.000000
     5  C    2.422109   2.812927   2.460667   1.425712   0.000000
     6  C    1.422120   2.431855   2.824696   2.429110   1.374141
     7  H    1.090844   2.145863   3.426987   3.896799   3.397957
     8  H    2.140909   1.090197   2.181827   3.437389   3.903094
     9  H    3.426128   3.905501   3.437770   2.166961   1.092790
    10  H    2.170657   3.405528   3.913469   3.424981   2.147790
    11  C    4.254379   3.768725   2.466180   1.448461   2.509047
    12  C    3.762697   2.518735   1.432660   2.442461   3.753595
    13  C    5.100147   4.280180   2.852821   2.469397   3.772263
    14  H    6.166805   5.367636   3.940149   3.466091   4.666906
    15  C    4.891800   3.776320   2.459498   2.833939   4.259650
    16  H    5.870727   4.668402   3.452926   3.925867   5.351574
    17  O    4.938921   4.774644   3.637940   2.326282   2.698970
    18  Cl   4.443850   3.069755   2.724900   4.029864   5.184952
    19  C    6.421486   6.187817   4.956111   3.746854   4.170121
    20  C    7.070214   6.690354   5.396998   4.371621   4.983953
    21  H    8.062086   7.600256   6.253188   5.309890   6.003989
    22  C    7.023881   6.657280   5.374292   4.340043   4.934339
    23  H    8.078639   7.749034   6.470425   5.414378   5.924195
    24  H    7.107057   6.533032   5.171767   4.377284   5.250404
    25  H    6.642207   6.364231   5.193024   4.162977   4.622349
    26  C    6.921158   6.974621   5.920562   4.559751   4.512148
    27  H    6.602267   6.783961   5.850339   4.468876   4.215001
    28  H    8.007752   8.029942   6.930430   5.599081   5.601686
    29  H    6.818013   6.988188   6.037188   4.657408   4.425821
    30  C    6.761600   6.395902   5.199778   4.281477   4.857186
    31  H    7.524554   7.084425   5.908294   5.148204   5.783904
    32  H    5.902789   5.657143   4.597184   3.650620   4.061975
                    6          7          8          9         10
     6  C    0.000000
     7  H    2.169037   0.000000
     8  H    3.421451   2.475599   0.000000
     9  H    2.157061   4.314960   4.995696   0.000000
    10  H    1.089051   2.475359   4.303310   2.505454   0.000000
    11  C    3.760725   5.345125   4.644485   2.713438   4.653389
    12  C    4.256181   4.659660   2.765078   4.608244   5.345190
    13  C    4.898400   6.169375   4.922528   4.088848   5.874587
    14  H    5.876437   7.242378   5.990088   4.803896   6.805727
    15  C    5.093513   5.871916   4.132982   4.871388   6.160035
    16  H    6.163126   6.803475   4.846196   5.943590   7.236348
    17  O    4.073107   5.996633   5.754053   2.325323   4.727601
    18  Cl   5.349466   5.055346   2.638324   6.148271   6.400342
    19  C    5.542414   7.482127   7.121116   3.655463   6.135032
    20  C    6.322269   8.136035   7.537850   4.598639   6.979551
    21  H    7.353979   9.138881   8.398678   5.621873   8.028960
    22  C    6.268456   8.086405   7.509751   4.543268   6.918746
    23  H    7.260186   9.133160   8.606170   5.424441   7.843155
    24  H    6.552106   8.182274   7.272401   5.070729   7.328509
    25  H    5.873220   7.662932   7.228020   4.244871   6.475498
    26  C    5.800412   7.908261   7.994640   3.674664   6.139435
    27  H    5.416765   7.540180   7.827226   3.310265   5.659283
    28  H    6.887460   8.996859   9.034814   4.755843   7.201478
    29  H    5.633645   7.758884   8.029028   3.519710   5.874141
    30  C    6.084038   7.783343   7.207436   4.575416   6.737058
    31  H    6.943523   8.518251   7.811253   5.566738   7.607874
    32  H    5.200685   6.885524   6.505462   3.820705   5.814356
                   11         12         13         14         15
    11  C    0.000000
    12  C    2.782424   0.000000
    13  C    1.379935   2.417986   0.000000
    14  H    2.160863   3.391639   1.087645   0.000000
    15  C    2.414622   1.373102   1.417387   2.163192   0.000000
    16  H    3.394594   2.151942   2.165250   2.466627   1.091984
    17  O    1.362727   4.138175   2.451643   2.773291   3.710487
    18  Cl   4.509506   1.727283   4.000237   4.836223   2.673145
    19  C    2.502293   5.180276   2.997285   2.737796   4.411491
    20  C    3.065435   5.383336   3.132132   2.617105   4.449458
    21  H    3.925188   6.061928   3.710104   2.914762   4.966152
    22  C    3.052829   5.382215   3.155687   2.678820   4.469335
    23  H    4.125102   6.448278   4.170815   3.539766   5.470395
    24  H    3.022437   4.895448   2.640518   1.949252   3.813768
    25  H    3.121310   5.346325   3.437309   3.239175   4.626977
    26  C    3.627221   6.407155   4.420369   4.262524   5.808167
    27  H    3.763163   6.483507   4.717555   4.716770   6.035731
    28  H    4.562747   7.311843   5.172430   4.817674   6.586270
    29  H    3.909075   6.643960   4.825702   4.780148   6.161582
    30  C    3.225841   5.235874   3.356366   3.103646   4.464891
    31  H    4.140775   5.793476   4.045451   3.693768   4.974494
    32  H    2.906492   4.866479   3.365675   3.461475   4.367956
                   16         17         18         19         20
    16  H    0.000000
    17  O    4.605840   0.000000
    18  Cl   2.828040   5.865182   0.000000
    19  C    5.073537   1.485967   6.879554   0.000000
    20  C    4.923767   2.471420   6.985346   1.510984   0.000000
    21  H    5.240489   3.407818   7.588353   2.196017   1.091876
    22  C    4.959841   2.445936   6.988652   1.523017   2.531170
    23  H    5.858240   3.390663   8.028962   2.180597   2.941364
    24  H    4.118668   2.892464   6.387694   2.194517   2.718814
    25  H    5.213444   2.563949   6.928522   2.175740   3.468577
    26  C    6.549232   2.298647   8.132674   1.529297   2.505566
    27  H    6.852022   2.460472   8.194870   2.179816   2.805811
    28  H    7.221925   3.295818   9.025182   2.181198   2.736996
    29  H    6.957789   2.597826   8.359059   2.187409   3.468723
    30  C    4.974829   2.865644   6.756881   2.510084   1.329973
    31  H    5.315694   3.929819   7.168914   3.509824   2.125775
    32  H    5.050836   2.602082   6.394594   2.793259   2.128394
                   21         22         23         24         25
    21  H    0.000000
    22  C    2.664640   0.000000
    23  H    2.731530   1.096920   0.000000
    24  H    2.690080   1.098019   1.766548   0.000000
    25  H    3.741831   1.098696   1.766207   1.762929   0.000000
    26  C    3.100785   2.541537   2.747374   3.504472   2.881392
    27  H    3.594044   3.485541   3.806611   4.347802   3.799400
    28  H    2.988775   2.914166   2.704631   3.857400   3.426558
    29  H    4.026748   2.734042   2.924905   3.795785   2.650314
    30  C    2.119892   3.740656   4.257032   3.839931   4.566036
    31  H    2.500390   4.614626   5.024092   4.581887   5.519156
    32  H    3.101954   4.169903   4.837700   4.355027   4.798826
                   26         27         28         29         30
    26  C    0.000000
    27  H    1.098891   0.000000
    28  H    1.095953   1.771774   0.000000
    29  H    1.096886   1.764238   1.773946   0.000000
    30  C    3.266676   3.111167   3.598142   4.265805   0.000000
    31  H    4.222467   4.032895   4.381410   5.265015   1.081730
    32  H    3.376373   2.945288   3.943512   4.259601   1.084257
                   31         32
    31  H    0.000000
    32  H    1.809715   0.000000
 Stoichiometry    C15H15ClO
 Framework group  C1[X(C15H15ClO)]
 Deg. of freedom    90
 Full point group                 C1      NOp   1
 Largest Abelian subgroup         C1      NOp   1
 Largest concise Abelian subgroup C1      NOp   1
                         Standard orientation:                         
 ---------------------------------------------------------------------
 Center     Atomic      Atomic             Coordinates (Angstroms)
 Number     Number       Type             X           Y           Z
 ---------------------------------------------------------------------
      1          6           0       -2.816222    2.502575    0.127767
      2          6           0       -3.003456    1.140966    0.076570
      3          6           0       -1.883446    0.260984   -0.019789
      4          6           0       -0.579305    0.818923   -0.062051
      5          6           0       -0.412825    2.233795   -0.006584
      6          6           0       -1.507964    3.058602    0.086300
      7          1           0       -3.670742    3.176634    0.201119
      8          1           0       -4.011160    0.726264    0.109505
      9          1           0        0.603237    2.634642   -0.040191
     10          1           0       -1.391934    4.140609    0.129084
     11          6           0        0.555601   -0.075721   -0.160226
     12          6           0       -2.003112   -1.165566   -0.075910
     13          6           0        0.394838   -1.445321   -0.210928
     14          1           0        1.245076   -2.120200   -0.278796
     15          6           0       -0.911559   -1.993475   -0.168046
     16          1           0       -1.026663   -3.078611   -0.208799
     17          8           0        1.733947    0.608175   -0.188700
     18         17           0       -3.578051   -1.872882   -0.023200
     19          6           0        3.054591   -0.065670   -0.288355
     20          6           0        3.289306   -0.979808    0.891617
     21          1           0        3.976604   -1.803370    0.687751
     22          6           0        3.136630   -0.786404   -1.627531
     23          1           0        4.175502   -0.992465   -1.913043
     24          1           0        2.604202   -1.746696   -1.625219
     25          1           0        2.694550   -0.181288   -2.430981
     26          6           0        3.964805    1.161383   -0.220527
     27          1           0        3.725415    1.781730    0.654358
     28          1           0        5.018930    0.871428   -0.143986
     29          1           0        3.852476    1.800046   -1.105203
     30          6           0        2.748266   -0.798030    2.092892
     31          1           0        2.938439   -1.450049    2.934822
     32          1           0        2.064472    0.011518    2.322392
 ---------------------------------------------------------------------
 Rotational constants (GHZ):      0.6982938      0.2884429      0.2273496
 Standard basis: 6-31+G(d,p) (6D, 7F)
 There are   402 symmetry adapted cartesian basis functions of A   symmetry.
 There are   402 symmetry adapted basis functions of A   symmetry.
   402 basis functions,   673 primitive gaussians,   402 cartesian basis functions
    65 alpha electrons       65 beta electrons
       nuclear repulsion energy      1275.0787164047 Hartrees.
 NAtoms=   32 NActive=   32 NUniq=   32 SFac= 1.00D+00 NAtFMM=   60 NAOKFM=F Big=F
 Integral buffers will be    131072 words long.
 Raffenetti 2 integral format.
 Two-electron integral symmetry is turned on.
 Nuclear repulsion after empirical dispersion term =     1275.0449000223 Hartrees.
 ------------------------------------------------------------------------------
 Polarizable Continuum Model (PCM)
 =================================
 Model                : C-PCM.
 Atomic radii         : UFF (Universal Force Field).
 Polarization charges : Total charges.
 Charge compensation  : None.
 Solution method      : On-the-fly selection.
 Cavity type          : Scaled VdW (van der Waals Surface) (Alpha=1.100).
 Cavity algorithm     : GePol (No added spheres)
                        Default sphere list used, NSphG=   32.
                        Lebedev-Laikov grids with approx.  5.0 points / Ang**2.
                        Smoothing algorithm: Karplus/York (Gamma=1.0000).
                        Polarization charges: spherical gaussians, with
                                              point-specific exponents (IZeta= 3).
                        Self-potential: point-specific (ISelfS= 7).
                        Self-field    : sphere-specific E.n sum rule (ISelfD= 2).
 1st derivatives      : Analytical E(r).r(x)/FMM algorithm (CHGder, D1EAlg=3).
                        Cavity 1st derivative terms included.
 Solvent              : Toluene, Eps=   2.374100 Eps(inf)=   2.238315
 ------------------------------------------------------------------------------
 One-electron integrals computed using PRISM.
 NBasis=   402 RedAO= T EigKep=  1.25D-06  NBF=   402
 NBsUse=   399 1.00D-06 EigRej=  6.78D-07 NBFU=   399
 ExpMin= 4.38D-02 ExpMax= 2.52D+04 ExpMxC= 3.78D+03 IAcc=2 IRadAn=         4 AccDes= 0.00D+00
 Harris functional with IExCor=  402 and IRadAn=       4 diagonalized for initial guess.
 HarFok:  IExCor=  402 AccDes= 0.00D+00 IRadAn=         4 IDoV= 1 UseB2=F ITyADJ=14
 ICtDFT=  3500011 ScaDFX=  1.000000  1.000000  1.000000  1.000000
 FoFCou: FMM=F IPFlag=           0 FMFlag=      100000 FMFlg1=           0
         NFxFlg=           0 DoJE=T BraDBF=F KetDBF=T FulRan=T
         wScrn=  0.000000 ICntrl=     500 IOpCl=  0 I1Cent=   200000004 NGrid=           0
         NMat0=    1 NMatS0=      1 NMatT0=    0 NMatD0=    1 NMtDS0=    0 NMtDT0=    0
 Petite list used in FoFCou.
 Requested convergence on RMS density matrix=1.00D-08 within 128 cycles.
 Requested convergence on MAX density matrix=1.00D-06.
 Requested convergence on             energy=1.00D-06.
 No special actions if energy rises.
 Inv3:  Mode=1 IEnd=    17222448.
 Iteration    1 A*A^-1 deviation from unit magnitude is 7.55D-15 for   2378.
 Iteration    1 A*A^-1 deviation from orthogonality  is 2.91D-15 for   1793    584.
 Iteration    1 A^-1*A deviation from unit magnitude is 7.55D-15 for   2378.
 Iteration    1 A^-1*A deviation from orthogonality  is 1.63D-15 for   1683    339.
 Error on total polarization charges =  0.01298
 SCF Done:  E(RB3LYP) =  -1116.10606595     A.U. after   15 cycles
            NFock= 15  Conv=0.70D-08     -V/T= 2.0070

 **********************************************************************

            Population analysis using the SCF density.

 **********************************************************************

 Orbital symmetries:
       Occupied  (A) (A) (A) (A) (A) (A) (A) (A) (A) (A) (A) (A)
                 (A) (A) (A) (A) (A) (A) (A) (A) (A) (A) (A) (A)
                 (A) (A) (A) (A) (A) (A) (A) (A) (A) (A) (A) (A)
                 (A) (A) (A) (A) (A) (A) (A) (A) (A) (A) (A) (A)
                 (A) (A) (A) (A) (A) (A) (A) (A) (A) (A) (A) (A)
                 (A) (A) (A) (A) (A)
       Virtual   (A) (A) (A) (A) (A) (A) (A) (A) (A) (A) (A) (A)
                 (A) (A) (A) (A) (A) (A) (A) (A) (A) (A) (A) (A)
                 (A) (A) (A) (A) (A) (A) (A) (A) (A) (A) (A) (A)
                 (A) (A) (A) (A) (A) (A) (A) (A) (A) (A) (A) (A)
                 (A) (A) (A) (A) (A) (A) (A) (A) (A) (A) (A) (A)
                 (A) (A) (A) (A) (A) (A) (A) (A) (A) (A) (A) (A)
                 (A) (A) (A) (A) (A) (A) (A) (A) (A) (A) (A) (A)
                 (A) (A) (A) (A) (A) (A) (A) (A) (A) (A) (A) (A)
                 (A) (A) (A) (A) (A) (A) (A) (A) (A) (A) (A) (A)
                 (A) (A) (A) (A) (A) (A) (A) (A) (A) (A) (A) (A)
                 (A) (A) (A) (A) (A) (A) (A) (A) (A) (A) (A) (A)
                 (A) (A) (A) (A) (A) (A) (A) (A) (A) (A) (A) (A)
                 (A) (A) (A) (A) (A) (A) (A) (A) (A) (A) (A) (A)
                 (A) (A) (A) (A) (A) (A) (A) (A) (A) (A) (A) (A)
                 (A) (A) (A) (A) (A) (A) (A) (A) (A) (A) (A) (A)
                 (A) (A) (A) (A) (A) (A) (A) (A) (A) (A) (A) (A)
                 (A) (A) (A) (A) (A) (A) (A) (A) (A) (A) (A) (A)
                 (A) (A) (A) (A) (A) (A) (A) (A) (A) (A) (A) (A)
                 (A) (A) (A) (A) (A) (A) (A) (A) (A) (A) (A) (A)
                 (A) (A) (A) (A) (A) (A) (A) (A) (A) (A) (A) (A)
                 (A) (A) (A) (A) (A) (A) (A) (A) (A) (A) (A) (A)
                 (A) (A) (A) (A) (A) (A) (A) (A) (A) (A) (A) (A)
                 (A) (A) (A) (A) (A) (A) (A) (A) (A) (A) (A) (A)
                 (A) (A) (A) (A) (A) (A) (A) (A) (A) (A) (A) (A)
                 (A) (A) (A) (A) (A) (A) (A) (A) (A) (A) (A) (A)
                 (A) (A) (A) (A) (A) (A) (A) (A) (A) (A) (A) (A)
                 (A) (A) (A) (A) (A) (A) (A) (A) (A) (A) (A) (A)
                 (A) (A) (A) (A) (A) (A) (A) (A) (A) (A)
 The electronic state is 1-A.
 Alpha  occ. eigenvalues -- -101.55416 -19.18550 -10.27180 -10.26176 -10.24852
 Alpha  occ. eigenvalues --  -10.21678 -10.21122 -10.20870 -10.20523 -10.20208
 Alpha  occ. eigenvalues --  -10.20113 -10.20082 -10.20018 -10.19896 -10.19423
 Alpha  occ. eigenvalues --  -10.19142 -10.18859  -9.46973  -7.23353  -7.22415
 Alpha  occ. eigenvalues --   -7.22389  -1.06667  -0.90324  -0.86149  -0.83509
 Alpha  occ. eigenvalues --   -0.81637  -0.76506  -0.75655  -0.75374  -0.71860
 Alpha  occ. eigenvalues --   -0.70074  -0.64129  -0.63280  -0.62160  -0.60164
 Alpha  occ. eigenvalues --   -0.55952  -0.52540  -0.52145  -0.50754  -0.49000
 Alpha  occ. eigenvalues --   -0.47902  -0.46796  -0.44796  -0.44185  -0.43690
 Alpha  occ. eigenvalues --   -0.43314  -0.42263  -0.42054  -0.40622  -0.40185
 Alpha  occ. eigenvalues --   -0.39539  -0.38486  -0.38308  -0.37230  -0.36050
 Alpha  occ. eigenvalues --   -0.35702  -0.34862  -0.34680  -0.32644  -0.31542
 Alpha  occ. eigenvalues --   -0.30576  -0.27595  -0.26911  -0.25695  -0.20981
 Alpha virt. eigenvalues --   -0.05105  -0.02650  -0.01754   0.00067   0.00887
 Alpha virt. eigenvalues --    0.01453   0.01822   0.01982   0.02147   0.02598
 Alpha virt. eigenvalues --    0.03542   0.03764   0.04714   0.05028   0.05466
 Alpha virt. eigenvalues --    0.05798   0.06392   0.06832   0.06883   0.07211
 Alpha virt. eigenvalues --    0.07992   0.08117   0.08339   0.08584   0.09175
 Alpha virt. eigenvalues --    0.09950   0.10345   0.10803   0.11005   0.11287
 Alpha virt. eigenvalues --    0.11915   0.12373   0.12966   0.13054   0.13697
 Alpha virt. eigenvalues --    0.14239   0.14590   0.14961   0.15190   0.15527
 Alpha virt. eigenvalues --    0.16414   0.16629   0.17106   0.17475   0.17755
 Alpha virt. eigenvalues --    0.18083   0.18302   0.18779   0.19289   0.19356
 Alpha virt. eigenvalues --    0.19970   0.20034   0.20460   0.20803   0.21338
 Alpha virt. eigenvalues --    0.21785   0.22267   0.22403   0.22697   0.22976
 Alpha virt. eigenvalues --    0.23689   0.24050   0.24319   0.24778   0.25313
 Alpha virt. eigenvalues --    0.25626   0.25793   0.26157   0.26441   0.26987
 Alpha virt. eigenvalues --    0.27245   0.27811   0.28238   0.28320   0.29269
 Alpha virt. eigenvalues --    0.30221   0.30392   0.30595   0.31027   0.31371
 Alpha virt. eigenvalues --    0.31756   0.31976   0.33216   0.33745   0.34289
 Alpha virt. eigenvalues --    0.34818   0.35687   0.36270   0.37282   0.37885
 Alpha virt. eigenvalues --    0.38340   0.39155   0.40824   0.41580   0.42623
 Alpha virt. eigenvalues --    0.43246   0.45227   0.46702   0.48292   0.50956
 Alpha virt. eigenvalues --    0.52143   0.54632   0.57206   0.59386   0.61647
 Alpha virt. eigenvalues --    0.63347   0.64404   0.64824   0.66048   0.67175
 Alpha virt. eigenvalues --    0.67894   0.68667   0.68904   0.69557   0.70312
 Alpha virt. eigenvalues --    0.71112   0.71812   0.72675   0.73030   0.73590
 Alpha virt. eigenvalues --    0.73937   0.74652   0.75217   0.75763   0.76593
 Alpha virt. eigenvalues --    0.76923   0.77170   0.78811   0.79686   0.80364
 Alpha virt. eigenvalues --    0.80853   0.81917   0.82736   0.83927   0.84331
 Alpha virt. eigenvalues --    0.85684   0.86833   0.87732   0.88493   0.88920
 Alpha virt. eigenvalues --    0.89618   0.91631   0.92101   0.92684   0.94195
 Alpha virt. eigenvalues --    0.94362   0.96258   0.96583   0.97888   0.98761
 Alpha virt. eigenvalues --    0.99227   1.00406   1.01121   1.02048   1.03208
 Alpha virt. eigenvalues --    1.03735   1.05064   1.07565   1.08619   1.09521
 Alpha virt. eigenvalues --    1.10992   1.12680   1.13627   1.14239   1.14978
 Alpha virt. eigenvalues --    1.16034   1.17631   1.18766   1.19513   1.21582
 Alpha virt. eigenvalues --    1.22121   1.23199   1.23576   1.24184   1.24319
 Alpha virt. eigenvalues --    1.25076   1.26628   1.27939   1.29883   1.31050
 Alpha virt. eigenvalues --    1.34281   1.35084   1.36152   1.36646   1.38299
 Alpha virt. eigenvalues --    1.38987   1.39759   1.40666   1.41520   1.43348
 Alpha virt. eigenvalues --    1.45007   1.46486   1.46764   1.49097   1.51453
 Alpha virt. eigenvalues --    1.52751   1.54327   1.56503   1.59003   1.62704
 Alpha virt. eigenvalues --    1.65506   1.67450   1.72263   1.78300   1.79522
 Alpha virt. eigenvalues --    1.80411   1.80707   1.81086   1.82230   1.84739
 Alpha virt. eigenvalues --    1.85854   1.86904   1.87928   1.88447   1.90373
 Alpha virt. eigenvalues --    1.90846   1.92185   1.92517   1.93223   1.96501
 Alpha virt. eigenvalues --    1.97035   1.97833   1.98384   1.99640   2.00380
 Alpha virt. eigenvalues --    2.02521   2.03321   2.04042   2.04632   2.05302
 Alpha virt. eigenvalues --    2.06214   2.07734   2.08497   2.10291   2.11737
 Alpha virt. eigenvalues --    2.12606   2.13784   2.15526   2.16454   2.17777
 Alpha virt. eigenvalues --    2.19859   2.21367   2.23511   2.23887   2.25094
 Alpha virt. eigenvalues --    2.25738   2.27549   2.28892   2.31065   2.33447
 Alpha virt. eigenvalues --    2.36442   2.36856   2.37332   2.38126   2.38566
 Alpha virt. eigenvalues --    2.41681   2.42170   2.43794   2.44491   2.45672
 Alpha virt. eigenvalues --    2.46778   2.49138   2.51007   2.51717   2.53732
 Alpha virt. eigenvalues --    2.56117   2.57051   2.57736   2.58775   2.60585
 Alpha virt. eigenvalues --    2.61204   2.63666   2.64256   2.64578   2.65893
 Alpha virt. eigenvalues --    2.67341   2.67613   2.70772   2.71191   2.72250
 Alpha virt. eigenvalues --    2.73307   2.75163   2.77875   2.78745   2.80913
 Alpha virt. eigenvalues --    2.81562   2.82955   2.85878   2.86044   2.88161
 Alpha virt. eigenvalues --    2.89929   2.95355   2.97203   3.01919   3.05674
 Alpha virt. eigenvalues --    3.06497   3.11063   3.16010   3.18713   3.20967
 Alpha virt. eigenvalues --    3.25451   3.26571   3.27268   3.27877   3.30248
 Alpha virt. eigenvalues --    3.34052   3.35022   3.39405   3.42967   3.45662
 Alpha virt. eigenvalues --    3.46953   3.50155   3.50291   3.52179   3.70031
 Alpha virt. eigenvalues --    3.71663   3.85246   4.26125   4.30180   4.34916
 Alpha virt. eigenvalues --    4.36405   4.36637   4.41376   4.43429   4.46564
 Alpha virt. eigenvalues --    4.49751   4.51187   4.55384   4.56062   4.63015
 Alpha virt. eigenvalues --    4.68346   4.75201   4.88122   4.95441
          Condensed to atoms (all electrons):
               1          2          3          4          5          6
     1  C    7.197027  -1.759488   1.052628   1.141003  -0.831501   0.910747
     2  C   -1.759488  14.690750  -6.587887  -2.627910   2.774498  -1.406072
     3  C    1.052628  -6.587887  14.675774   2.475107  -2.247160   0.699981
     4  C    1.141003  -2.627910   2.475107  10.320485  -2.803480   0.025159
     5  C   -0.831501   2.774498  -2.247160  -2.803480  12.471695  -2.343075
     6  C    0.910747  -1.406072   0.699981   0.025159  -2.343075   7.747996
     7  H    0.311817  -0.045126   0.038228  -0.006987   0.042442  -0.017360
     8  H    0.127217   0.187859   0.008708   0.043300   0.005374   0.005007
     9  H    0.002280   0.010056   0.015079  -0.076756   0.245915   0.078952
    10  H   -0.005178   0.034333  -0.012545   0.018913   0.013180   0.276638
    11  C   -0.167455  -1.210686  -0.418589   0.173456  -0.430773  -0.041841
    12  C   -0.625689   0.404043  -1.134605  -0.622537  -0.739544   0.192808
    13  C   -0.503940   0.935104  -1.065445  -1.775570  -0.637226   0.153260
    14  H    0.001951  -0.003091  -0.013885   0.034785   0.015003  -0.000401
    15  C   -0.377739   1.137704  -2.058601  -0.266736   0.795083  -0.078995
    16  H    0.002628   0.001587   0.100864   0.020913   0.000102  -0.000371
    17  O   -0.018668   0.023920  -0.009534  -0.408827  -0.000060   0.066334
    18  Cl   0.044043   0.015096  -0.085115   0.015261  -0.061544   0.011323
    19  C    0.017399  -0.200134  -0.392546   0.249555  -0.255528   0.163180
    20  C    0.001199   0.077360   0.324172   0.004929  -0.111105  -0.080710
    21  H   -0.000034  -0.000169  -0.004164  -0.003337   0.001854   0.000292
    22  C   -0.006574  -0.007947   0.026087  -0.021570  -0.044020  -0.021382
    23  H   -0.000035   0.000046  -0.000423  -0.003780  -0.000078   0.000226
    24  H    0.000253  -0.000083   0.005705   0.012035  -0.000714  -0.001784
    25  H   -0.000106  -0.000359  -0.006007  -0.000769  -0.000313   0.004089
    26  C   -0.002807   0.032617   0.051806  -0.094718   0.119986  -0.044031
    27  H   -0.000071   0.000371   0.001532   0.007590  -0.008901  -0.000348
    28  H    0.000009  -0.000016  -0.000111   0.000233   0.001037   0.000298
    29  H    0.000187  -0.000284  -0.000367  -0.011449   0.011410   0.003681
    30  C    0.000015  -0.032417  -0.137419   0.034258   0.060708   0.066801
    31  H   -0.000095  -0.000041  -0.001134  -0.001222  -0.001847  -0.000025
    32  H   -0.000909  -0.002869  -0.029544  -0.020121   0.016246   0.012926
               7          8          9         10         11         12
     1  C    0.311817   0.127217   0.002280  -0.005178  -0.167455  -0.625689
     2  C   -0.045126   0.187859   0.010056   0.034333  -1.210686   0.404043
     3  C    0.038228   0.008708   0.015079  -0.012545  -0.418589  -1.134605
     4  C   -0.006987   0.043300  -0.076756   0.018913   0.173456  -0.622537
     5  C    0.042442   0.005374   0.245915   0.013180  -0.430773  -0.739544
     6  C   -0.017360   0.005007   0.078952   0.276638  -0.041841   0.192808
     7  H    0.557679  -0.005068  -0.000158  -0.004785  -0.000767  -0.007607
     8  H   -0.005068   0.552088   0.000013  -0.000158  -0.007978  -0.067739
     9  H   -0.000158   0.000013   0.554449  -0.005008  -0.006902   0.000027
    10  H   -0.004785  -0.000158  -0.005008   0.558627  -0.009708  -0.001663
    11  C   -0.000767  -0.007978  -0.006902  -0.009708  12.661951   1.302331
    12  C   -0.007607  -0.067739   0.000027  -0.001663   1.302331  10.073640
    13  C   -0.001635  -0.012487   0.039633  -0.000034  -2.536231  -1.815336
    14  H    0.000000   0.000000  -0.000010   0.000000   0.151142   0.041731
    15  C    0.000885   0.022811  -0.001385  -0.000654  -2.729659  -0.683541
    16  H    0.000000  -0.000005   0.000000   0.000000   0.025110   0.043314
    17  O    0.000005   0.000026  -0.003441   0.000457  -0.056224  -0.030872
    18  Cl   0.000330  -0.008558   0.000040   0.000084   0.005527  -0.186493
    19  C    0.000011  -0.000044  -0.005144   0.000423  -0.693635   0.142961
    20  C   -0.000002  -0.000018  -0.001359  -0.000003   0.497541  -0.061708
    21  H    0.000000   0.000000   0.000000   0.000000  -0.059685  -0.000051
    22  C   -0.000003   0.000002  -0.000799  -0.000001   0.467023  -0.051208
    23  H    0.000000   0.000000   0.000000   0.000000  -0.027877   0.000063
    24  H    0.000000   0.000000  -0.000001   0.000000   0.162367  -0.009270
    25  H    0.000000   0.000000  -0.000018   0.000000  -0.114946   0.006012
    26  C    0.000002  -0.000007   0.002239  -0.000257   0.265182  -0.043566
    27  H    0.000000   0.000000   0.000174   0.000000  -0.013101  -0.000327
    28  H    0.000000   0.000000   0.000000   0.000000  -0.002076   0.000067
    29  H    0.000000   0.000000   0.000048   0.000000   0.012704   0.000164
    30  C   -0.000002   0.000025   0.001217  -0.000001  -0.787448   0.072509
    31  H    0.000000   0.000000   0.000000   0.000000  -0.004617  -0.000424
    32  H    0.000000   0.000000  -0.000034   0.000000  -0.120562   0.005261
              13         14         15         16         17         18
     1  C   -0.503940   0.001951  -0.377739   0.002628  -0.018668   0.044043
     2  C    0.935104  -0.003091   1.137704   0.001587   0.023920   0.015096
     3  C   -1.065445  -0.013885  -2.058601   0.100864  -0.009534  -0.085115
     4  C   -1.775570   0.034785  -0.266736   0.020913  -0.408827   0.015261
     5  C   -0.637226   0.015003   0.795083   0.000102  -0.000060  -0.061544
     6  C    0.153260  -0.000401  -0.078995  -0.000371   0.066334   0.011323
     7  H   -0.001635   0.000000   0.000885   0.000000   0.000005   0.000330
     8  H   -0.012487   0.000000   0.022811  -0.000005   0.000026  -0.008558
     9  H    0.039633  -0.000010  -0.001385   0.000000  -0.003441   0.000040
    10  H   -0.000034   0.000000  -0.000654   0.000000   0.000457   0.000084
    11  C   -2.536231   0.151142  -2.729659   0.025110  -0.056224   0.005527
    12  C   -1.815336   0.041731  -0.683541   0.043314  -0.030872  -0.186493
    13  C   13.185649   0.106279  -0.257121  -0.045224   0.131502  -0.041916
    14  H    0.106279   0.582961  -0.024651  -0.005730  -0.006241   0.001715
    15  C   -0.257121  -0.024651  10.791062   0.180721   0.083704  -0.134848
    16  H   -0.045224  -0.005730   0.180721   0.534275  -0.001112  -0.009535
    17  O    0.131502  -0.006241   0.083704  -0.001112   8.675683  -0.000228
    18  Cl  -0.041916   0.001715  -0.134848  -0.009535  -0.000228  17.143195
    19  C   -0.076382  -0.005862  -0.068241   0.003189  -0.023331   0.004270
    20  C    0.230249  -0.011495   0.067140  -0.001509  -0.058544  -0.002125
    21  H    0.034883   0.000069   0.008366  -0.000001   0.006653   0.000004
    22  C   -0.066647  -0.008569  -0.351714  -0.002043  -0.008484  -0.002787
    23  H    0.020513   0.000286  -0.001154   0.000000   0.007669   0.000001
    24  H   -0.126758   0.004615  -0.044192  -0.000012  -0.012282   0.000023
    25  H    0.084823  -0.000228   0.034557   0.000000   0.005164   0.000000
    26  C   -0.116244  -0.005568  -0.023643   0.000111  -0.098758  -0.000057
    27  H    0.009827  -0.000004   0.000343   0.000000  -0.011109   0.000001
    28  H   -0.001914   0.000005  -0.000438   0.000000   0.007988   0.000000
    29  H   -0.019554   0.000000  -0.003378   0.000000  -0.005165  -0.000001
    30  C   -0.056456   0.020553   0.313470   0.000446   0.039227   0.002226
    31  H    0.008661  -0.000063  -0.008009   0.000000  -0.002656   0.000005
    32  H    0.050402  -0.000047   0.023255  -0.000001   0.019360   0.000031
              19         20         21         22         23         24
     1  C    0.017399   0.001199  -0.000034  -0.006574  -0.000035   0.000253
     2  C   -0.200134   0.077360  -0.000169  -0.007947   0.000046  -0.000083
     3  C   -0.392546   0.324172  -0.004164   0.026087  -0.000423   0.005705
     4  C    0.249555   0.004929  -0.003337  -0.021570  -0.003780   0.012035
     5  C   -0.255528  -0.111105   0.001854  -0.044020  -0.000078  -0.000714
     6  C    0.163180  -0.080710   0.000292  -0.021382   0.000226  -0.001784
     7  H    0.000011  -0.000002   0.000000  -0.000003   0.000000   0.000000
     8  H   -0.000044  -0.000018   0.000000   0.000002   0.000000   0.000000
     9  H   -0.005144  -0.001359   0.000000  -0.000799   0.000000  -0.000001
    10  H    0.000423  -0.000003   0.000000  -0.000001   0.000000   0.000000
    11  C   -0.693635   0.497541  -0.059685   0.467023  -0.027877   0.162367
    12  C    0.142961  -0.061708  -0.000051  -0.051208   0.000063  -0.009270
    13  C   -0.076382   0.230249   0.034883  -0.066647   0.020513  -0.126758
    14  H   -0.005862  -0.011495   0.000069  -0.008569   0.000286   0.004615
    15  C   -0.068241   0.067140   0.008366  -0.351714  -0.001154  -0.044192
    16  H    0.003189  -0.001509  -0.000001  -0.002043   0.000000  -0.000012
    17  O   -0.023331  -0.058544   0.006653  -0.008484   0.007669  -0.012282
    18  Cl   0.004270  -0.002125   0.000004  -0.002787   0.000001   0.000023
    19  C   10.264606  -2.644064   0.022986  -0.697718  -0.027575  -0.122665
    20  C   -2.644064   8.740303   0.279440   0.427370  -0.008180   0.008025
    21  H    0.022986   0.279440   0.558672   0.000175   0.000433  -0.000360
    22  C   -0.697718   0.427370   0.000175   6.624420   0.398547   0.450899
    23  H   -0.027575  -0.008180   0.000433   0.398547   0.533149  -0.027740
    24  H   -0.122665   0.008025  -0.000360   0.450899  -0.027740   0.558206
    25  H   -0.049943   0.026997   0.000199   0.458827  -0.024632  -0.030102
    26  C   -0.766097  -0.365028  -0.018365  -0.761020  -0.007936   0.042554
    27  H   -0.091295  -0.020346   0.000081   0.001353   0.000151  -0.000147
    28  H   -0.069171  -0.001572   0.000234  -0.019346   0.000811  -0.000034
    29  H   -0.080224  -0.003394  -0.000073   0.004697  -0.000098   0.000134
    30  C    1.067039  -0.929400   0.032290  -0.341733   0.003689  -0.016917
    31  H    0.054903  -0.087173  -0.005881  -0.006382   0.000001  -0.000019
    32  H    0.096303  -0.206658   0.004662  -0.000576  -0.000006  -0.000019
              25         26         27         28         29         30
     1  C   -0.000106  -0.002807  -0.000071   0.000009   0.000187   0.000015
     2  C   -0.000359   0.032617   0.000371  -0.000016  -0.000284  -0.032417
     3  C   -0.006007   0.051806   0.001532  -0.000111  -0.000367  -0.137419
     4  C   -0.000769  -0.094718   0.007590   0.000233  -0.011449   0.034258
     5  C   -0.000313   0.119986  -0.008901   0.001037   0.011410   0.060708
     6  C    0.004089  -0.044031  -0.000348   0.000298   0.003681   0.066801
     7  H    0.000000   0.000002   0.000000   0.000000   0.000000  -0.000002
     8  H    0.000000  -0.000007   0.000000   0.000000   0.000000   0.000025
     9  H   -0.000018   0.002239   0.000174   0.000000   0.000048   0.001217
    10  H    0.000000  -0.000257   0.000000   0.000000   0.000000  -0.000001
    11  C   -0.114946   0.265182  -0.013101  -0.002076   0.012704  -0.787448
    12  C    0.006012  -0.043566  -0.000327   0.000067   0.000164   0.072509
    13  C    0.084823  -0.116244   0.009827  -0.001914  -0.019554  -0.056456
    14  H   -0.000228  -0.005568  -0.000004   0.000005   0.000000   0.020553
    15  C    0.034557  -0.023643   0.000343  -0.000438  -0.003378   0.313470
    16  H    0.000000   0.000111   0.000000   0.000000   0.000000   0.000446
    17  O    0.005164  -0.098758  -0.011109   0.007988  -0.005165   0.039227
    18  Cl   0.000000  -0.000057   0.000001   0.000000  -0.000001   0.002226
    19  C   -0.049943  -0.766097  -0.091295  -0.069171  -0.080224   1.067039
    20  C    0.026997  -0.365028  -0.020346  -0.001572  -0.003394  -0.929400
    21  H    0.000199  -0.018365   0.000081   0.000234  -0.000073   0.032290
    22  C    0.458827  -0.761020   0.001353  -0.019346   0.004697  -0.341733
    23  H   -0.024632  -0.007936   0.000151   0.000811  -0.000098   0.003689
    24  H   -0.030102   0.042554  -0.000147  -0.000034   0.000134  -0.016917
    25  H    0.531668  -0.090718  -0.000019   0.000211   0.001987  -0.002575
    26  C   -0.090718   6.902781   0.473110   0.434347   0.442609   0.129112
    27  H   -0.000019   0.473110   0.523780  -0.025081  -0.027864   0.010815
    28  H    0.000211   0.434347  -0.025081   0.542164  -0.027669   0.004746
    29  H    0.001987   0.442609  -0.027864  -0.027669   0.542762   0.000309
    30  C   -0.002575   0.129112   0.010815   0.004746   0.000309   5.787919
    31  H    0.000002   0.013481  -0.000045  -0.000009   0.000004   0.394360
    32  H    0.000004  -0.017610   0.000216   0.000017  -0.000021   0.524223
              31         32
     1  C   -0.000095  -0.000909
     2  C   -0.000041  -0.002869
     3  C   -0.001134  -0.029544
     4  C   -0.001222  -0.020121
     5  C   -0.001847   0.016246
     6  C   -0.000025   0.012926
     7  H    0.000000   0.000000
     8  H    0.000000   0.000000
     9  H    0.000000  -0.000034
    10  H    0.000000   0.000000
    11  C   -0.004617  -0.120562
    12  C   -0.000424   0.005261
    13  C    0.008661   0.050402
    14  H   -0.000063  -0.000047
    15  C   -0.008009   0.023255
    16  H    0.000000  -0.000001
    17  O   -0.002656   0.019360
    18  Cl   0.000005   0.000031
    19  C    0.054903   0.096303
    20  C   -0.087173  -0.206658
    21  H   -0.005881   0.004662
    22  C   -0.006382  -0.000576
    23  H    0.000001  -0.000006
    24  H   -0.000019  -0.000019
    25  H    0.000002   0.000004
    26  C    0.013481  -0.017610
    27  H   -0.000045   0.000216
    28  H   -0.000009   0.000017
    29  H    0.000004  -0.000021
    30  C    0.394360   0.524223
    31  H    0.543421  -0.036562
    32  H   -0.036562   0.536967
 Mulliken charges:
               1
     1  C   -0.510115
     2  C   -0.440762
     3  C    0.729409
     4  C    0.168786
     5  C   -0.057662
     6  C   -0.383302
     7  H    0.138101
     8  H    0.149631
     9  H    0.150893
    10  H    0.137340
    11  C   -0.283574
    12  C   -0.202753
    13  C    0.165335
    14  H    0.124747
    15  C   -0.344403
    16  H    0.152283
    17  O   -0.312156
    18  Cl   0.290036
    19  C    0.182773
    20  C   -0.090332
    21  H    0.140826
    22  C   -0.438880
    23  H    0.163930
    24  H    0.148281
    25  H    0.166196
    26  C   -0.453507
    27  H    0.169315
    28  H    0.155270
    29  H    0.158848
    30  C   -0.261589
    31  H    0.141367
    32  H    0.145668
 Sum of Mulliken charges =   0.00000
 Mulliken charges with hydrogens summed into heavy atoms:
               1
     1  C   -0.372014
     2  C   -0.291132
     3  C    0.729409
     4  C    0.168786
     5  C    0.093231
     6  C   -0.245962
    11  C   -0.283574
    12  C   -0.202753
    13  C    0.290082
    15  C   -0.192120
    17  O   -0.312156
    18  Cl   0.290036
    19  C    0.182773
    20  C    0.050494
    22  C    0.039528
    26  C    0.029926
    30  C    0.025446
 Electronic spatial extent (au):  <R**2>=           4834.6362
 Charge=              0.0000 electrons
 Dipole moment (field-independent basis, Debye):
    X=              3.8809    Y=              0.1436    Z=             -0.2481  Tot=              3.8915
 Quadrupole moment (field-independent basis, Debye-Ang):
   XX=           -101.7914   YY=           -101.4302   ZZ=           -110.6508
   XY=             -8.7283   XZ=             -2.6463   YZ=              0.6645
 Traceless Quadrupole moment (field-independent basis, Debye-Ang):
   XX=              2.8327   YY=              3.1940   ZZ=             -6.0267
   XY=             -8.7283   XZ=             -2.6463   YZ=              0.6645
 Octapole moment (field-independent basis, Debye-Ang**2):
  XXX=             33.9371  YYY=              7.6673  ZZZ=              3.0076  XYY=              2.9749
  XXY=             11.0165  XXZ=             -9.3659  XZZ=             12.6307  YZZ=             -8.0722
  YYZ=              0.4644  XYZ=             -2.2641
 Hexadecapole moment (field-independent basis, Debye-Ang**3):
 XXXX=          -4259.4918 YYYY=          -1608.8071 ZZZZ=           -495.1675 XXXY=            -78.5535
 XXXZ=            -68.2862 YYYX=            -23.1597 YYYZ=             10.5320 ZZZX=              2.7232
 ZZZY=            -14.6071 XXYY=           -989.7250 XXZZ=           -846.9954 YYZZ=           -397.7948
 XXYZ=             -1.1313 YYXZ=             -2.5282 ZZXY=             10.7703
 N-N= 1.275044900022D+03 E-N=-5.163997877304D+03  KE= 1.108338103319D+03
 D1PCM: C-PCM CHGder 1st derivatives, ID1Alg=3 FixD1E=F DoIter=F DoCFld=F I1PDM=0.
 Calling FoFJK, ICntrl=      2127 FMM=F ISym2X=0 I1Cent= 0 IOpClX= 0 NMat=1 NMatS=1 NMatT=0.
 ***** Axes restored to original set *****
 -------------------------------------------------------------------
 Center     Atomic                   Forces (Hartrees/Bohr)
 Number     Number              X              Y              Z
 -------------------------------------------------------------------
      1        6          -0.001379420    0.007114505   -0.000215806
      2        6           0.001495016   -0.003619185    0.000087521
      3        6           0.007827965   -0.003728271   -0.000229145
      4        6          -0.009688629   -0.005116980    0.000717311
      5        6          -0.008098504   -0.003497836    0.000514145
      6        6           0.006593766    0.002235226   -0.000493176
      7        1          -0.001513265   -0.003186888    0.000216624
      8        1          -0.004441307    0.001675105    0.000134304
      9        1           0.006672051   -0.001405892   -0.000217202
     10        1          -0.001151611   -0.002288195    0.000167592
     11        6          -0.000335811    0.014018825    0.000565583
     12        6          -0.007687260    0.006114502    0.000008268
     13        6           0.001809215   -0.002040397    0.000116729
     14        1           0.006065189    0.003821014   -0.002459656
     15        6          -0.004916523   -0.000757100    0.000625060
     16        1           0.001575453    0.005443015   -0.000365477
     17        8          -0.006676025   -0.012590851   -0.001027942
     18       17           0.017359650   -0.010205825   -0.000433826
     19        6           0.017040260    0.015535508   -0.000911908
     20        6          -0.004635911    0.000243036    0.002028034
     21        1           0.001316503    0.000477710   -0.003106753
     22        6          -0.002086022   -0.007161939    0.012415337
     23        1          -0.000023738    0.000829211   -0.003490599
     24        1          -0.003926673    0.004071623    0.000047268
     25        1          -0.001498586    0.001259124   -0.004533180
     26        6          -0.011536211    0.005799179    0.000373092
     27        1           0.000862217   -0.005677411    0.000923209
     28        1           0.000928003   -0.001342951    0.000769253
     29        1           0.001570439   -0.003467678    0.000979732
     30        6           0.001104728   -0.000341607   -0.008763176
     31        1          -0.004029448   -0.004992681    0.000338936
     32        1           0.001404490    0.002784107    0.005219850
 -------------------------------------------------------------------
 Cartesian Forces:  Max     0.017359650 RMS     0.005331591

 GradGradGradGradGradGradGradGradGradGradGradGradGradGradGradGradGradGrad
 Berny optimization.
 FormGI is forming the generalized inverse of G from B-inverse, IUseBI=4.
 Internal  Forces:  Max     0.022622222 RMS     0.003820075
 Search for a local minimum.
 Step number   1 out of a maximum of  175
 All quantities printed in internal units (Hartrees-Bohrs-Radians)
 Mixed Optimization -- RFO/linear search
 Second derivative matrix not updated -- first step.
 ITU=  0
     Eigenvalues ---    0.00378   0.00461   0.00555   0.00621   0.01645
     Eigenvalues ---    0.01664   0.01697   0.01745   0.01893   0.01945
     Eigenvalues ---    0.01974   0.01984   0.02031   0.02085   0.02111
     Eigenvalues ---    0.02117   0.02137   0.02179   0.02185   0.02249
     Eigenvalues ---    0.02267   0.03015   0.03015   0.04261   0.05357
     Eigenvalues ---    0.05419   0.05514   0.05516   0.06340   0.07912
     Eigenvalues ---    0.15995   0.16000   0.16000   0.16000   0.16000
     Eigenvalues ---    0.16000   0.16000   0.16000   0.16000   0.16000
     Eigenvalues ---    0.16000   0.16000   0.16000   0.16000   0.16000
     Eigenvalues ---    0.16616   0.17380   0.22000   0.22001   0.22498
     Eigenvalues ---    0.22559   0.24487   0.24504   0.25000   0.25000
     Eigenvalues ---    0.25000   0.25000   0.29488   0.30078   0.31252
     Eigenvalues ---    0.32797   0.33805   0.33827   0.33895   0.33902
     Eigenvalues ---    0.34025   0.34029   0.34134   0.34492   0.34584
     Eigenvalues ---    0.34597   0.34715   0.34790   0.34923   0.35086
     Eigenvalues ---    0.35485   0.35786   0.36829   0.37718   0.39314
     Eigenvalues ---    0.39740   0.41220   0.41775   0.42615   0.47608
     Eigenvalues ---    0.48176   0.49410   0.49487   0.52400   0.59512
 RFO step:  Lambda=-1.19596013D-02 EMin= 3.78404665D-03
 Linear search not attempted -- first point.
 Iteration  1 RMS(Cart)=  0.18212791 RMS(Int)=  0.00570844
 Iteration  2 RMS(Cart)=  0.01183404 RMS(Int)=  0.00037563
 Iteration  3 RMS(Cart)=  0.00004634 RMS(Int)=  0.00037485
 Iteration  4 RMS(Cart)=  0.00000001 RMS(Int)=  0.00037485
 Variable       Old X    -DE/DX   Delta X   Delta X   Delta X     New X
                                 (Linear)    (Quad)   (Total)
    R1        2.59908   0.00164   0.00000   0.00289   0.00288   2.60196
    R2        2.68742  -0.00387   0.00000  -0.00963  -0.00963   2.67779
    R3        2.06140  -0.00317   0.00000  -0.00882  -0.00882   2.05257
    R4        2.69780  -0.00218   0.00000  -0.00481  -0.00482   2.69298
    R5        2.06017  -0.00475   0.00000  -0.01319  -0.01319   2.04698
    R6        2.68172   0.01103   0.00000   0.02683   0.02682   2.70854
    R7        2.70733  -0.00155   0.00000  -0.00320  -0.00321   2.70413
    R8        2.69421  -0.00279   0.00000  -0.00615  -0.00614   2.68806
    R9        2.73719  -0.00431   0.00000  -0.01041  -0.01040   2.72679
   R10        2.59675   0.00306   0.00000   0.00568   0.00569   2.60244
   R11        2.06507  -0.00672   0.00000  -0.01884  -0.01884   2.04623
   R12        2.05801  -0.00216   0.00000  -0.00597  -0.00597   2.05204
   R13        2.60770   0.00054   0.00000   0.00064   0.00065   2.60835
   R14        2.57518   0.00652   0.00000   0.01217   0.01217   2.58735
   R15        2.59479  -0.00070   0.00000  -0.00173  -0.00174   2.59305
   R16        3.26409   0.02002   0.00000   0.05890   0.05890   3.32299
   R17        2.05535  -0.00727   0.00000  -0.02003  -0.02003   2.03532
   R18        2.67847   0.00094   0.00000   0.00117   0.00118   2.67965
   R19        2.06355  -0.00526   0.00000  -0.01469  -0.01469   2.04886
   R20        2.80807  -0.00035   0.00000  -0.00101  -0.00101   2.80706
   R21        2.85535   0.00521   0.00000   0.01607   0.01607   2.87141
   R22        2.87808   0.00478   0.00000   0.01529   0.01529   2.89338
   R23        2.88995   0.00097   0.00000   0.00315   0.00315   2.89310
   R24        2.06335  -0.00177   0.00000  -0.00494  -0.00494   2.05841
   R25        2.51329   0.00192   0.00000   0.00317   0.00317   2.51646
   R26        2.07288  -0.00104   0.00000  -0.00296  -0.00296   2.06992
   R27        2.07496  -0.00547   0.00000  -0.01558  -0.01558   2.05938
   R28        2.07623  -0.00322   0.00000  -0.00920  -0.00920   2.06703
   R29        2.07660  -0.00375   0.00000  -0.01071  -0.01071   2.06589
   R30        2.07105  -0.00059   0.00000  -0.00167  -0.00167   2.06938
   R31        2.07281  -0.00107   0.00000  -0.00304  -0.00304   2.06977
   R32        2.04417   0.00346   0.00000   0.00935   0.00935   2.05352
   R33        2.04895   0.00186   0.00000   0.00506   0.00506   2.05401
    A1        2.10740  -0.00044   0.00000  -0.00379  -0.00380   2.10360
    A2        2.10320  -0.00139   0.00000  -0.00746  -0.00746   2.09573
    A3        2.07259   0.00183   0.00000   0.01126   0.01126   2.08385
    A4        2.10127   0.00175   0.00000   0.00755   0.00753   2.10881
    A5        2.09589  -0.00074   0.00000  -0.00295  -0.00294   2.09294
    A6        2.08603  -0.00102   0.00000  -0.00460  -0.00459   2.08143
    A7        2.07218  -0.00101   0.00000  -0.00309  -0.00309   2.06909
    A8        2.15422   0.00002   0.00000  -0.00189  -0.00188   2.15235
    A9        2.05678   0.00099   0.00000   0.00498   0.00496   2.06174
   A10        2.09016  -0.00290   0.00000  -0.01020  -0.01020   2.07995
   A11        2.07057   0.00611   0.00000   0.02442   0.02441   2.09498
   A12        2.12245  -0.00321   0.00000  -0.01421  -0.01421   2.10825
   A13        2.10046   0.00176   0.00000   0.00774   0.00775   2.10820
   A14        2.06167   0.00030   0.00000   0.00297   0.00297   2.06464
   A15        2.12106  -0.00205   0.00000  -0.01071  -0.01071   2.11035
   A16        2.09491   0.00084   0.00000   0.00180   0.00181   2.09671
   A17        2.07753   0.00101   0.00000   0.00744   0.00744   2.08496
   A18        2.11075  -0.00185   0.00000  -0.00924  -0.00924   2.10151
   A19        2.12261  -0.00998   0.00000  -0.03872  -0.03873   2.08388
   A20        1.94868   0.00546   0.00000   0.02113   0.02109   1.96977
   A21        2.21189   0.00452   0.00000   0.01756   0.01752   2.22941
   A22        2.13720  -0.00792   0.00000  -0.03064  -0.03066   2.10655
   A23        2.07455   0.00755   0.00000   0.02903   0.02903   2.10358
   A24        2.07143   0.00037   0.00000   0.00160   0.00160   2.07303
   A25        2.12595  -0.00193   0.00000  -0.00546  -0.00554   2.12040
   A26        2.08301   0.00544   0.00000   0.02008   0.02003   2.10304
   A27        2.07422  -0.00352   0.00000  -0.01471  -0.01479   2.05943
   A28        2.09619   0.00536   0.00000   0.01987   0.01988   2.11607
   A29        2.11516  -0.00490   0.00000  -0.02284  -0.02285   2.09231
   A30        2.07183  -0.00046   0.00000   0.00295   0.00294   2.07478
   A31        2.14399   0.02262   0.00000   0.08636   0.08636   2.23035
   A32        1.93910  -0.00098   0.00000   0.02237   0.02227   1.96137
   A33        1.89804   0.00209   0.00000   0.03688   0.03751   1.93555
   A34        1.73366   0.00406   0.00000   0.03641   0.03771   1.77136
   A35        1.97360   0.00326   0.00000   0.00311  -0.00002   1.97357
   A36        1.93728  -0.00092   0.00000  -0.02903  -0.03065   1.90663
   A37        1.96778  -0.00743   0.00000  -0.06305  -0.06400   1.90379
   A38        1.99138   0.00095   0.00000   0.00851   0.00849   1.99988
   A39        2.16455   0.00407   0.00000   0.01751   0.01749   2.18204
   A40        2.12681  -0.00503   0.00000  -0.02630  -0.02631   2.10050
   A41        1.94849  -0.00448   0.00000  -0.03088  -0.03111   1.91738
   A42        1.96698   0.00260   0.00000   0.01883   0.01896   1.98594
   A43        1.93981  -0.00428   0.00000  -0.02374  -0.02399   1.91582
   A44        1.87077   0.00081   0.00000   0.00271   0.00285   1.87362
   A45        1.86941   0.00365   0.00000   0.01422   0.01358   1.88299
   A46        1.86305   0.00221   0.00000   0.02176   0.02187   1.88491
   A47        1.93757  -0.00446   0.00000  -0.02494  -0.02509   1.91248
   A48        1.94259  -0.00071   0.00000  -0.00589  -0.00600   1.93659
   A49        1.95029  -0.00379   0.00000  -0.02128  -0.02143   1.92887
   A50        1.87893   0.00253   0.00000   0.01329   0.01317   1.89211
   A51        1.86620   0.00483   0.00000   0.03148   0.03130   1.89750
   A52        1.88480   0.00217   0.00000   0.01076   0.01066   1.89546
   A53        2.15208  -0.00347   0.00000  -0.02024  -0.02027   2.13182
   A54        2.15291  -0.00413   0.00000  -0.02407  -0.02410   2.12881
   A55        1.97814   0.00760   0.00000   0.04417   0.04413   2.02227
    D1       -0.00035   0.00001   0.00000   0.00038   0.00037   0.00002
    D2        3.14118  -0.00001   0.00000  -0.00037  -0.00037   3.14081
    D3        3.14129   0.00002   0.00000   0.00040   0.00040  -3.14150
    D4       -0.00036  -0.00001   0.00000  -0.00034  -0.00035  -0.00071
    D5        0.00057   0.00001   0.00000   0.00033   0.00033   0.00089
    D6       -3.14113  -0.00002   0.00000  -0.00057  -0.00057   3.14148
    D7       -3.14107   0.00001   0.00000   0.00030   0.00030  -3.14077
    D8        0.00042  -0.00002   0.00000  -0.00060  -0.00060  -0.00018
    D9       -0.00053  -0.00001   0.00000  -0.00019  -0.00019  -0.00072
   D10        3.14041  -0.00003   0.00000  -0.00119  -0.00120   3.13921
   D11        3.14112   0.00001   0.00000   0.00055   0.00055  -3.14151
   D12       -0.00112  -0.00001   0.00000  -0.00045  -0.00046  -0.00159
   D13        0.00120  -0.00002   0.00000  -0.00068  -0.00067   0.00053
   D14       -3.14128   0.00008   0.00000   0.00254   0.00259  -3.13868
   D15       -3.13978   0.00000   0.00000   0.00027   0.00030  -3.13948
   D16        0.00093   0.00010   0.00000   0.00348   0.00356   0.00449
   D17       -3.14118   0.00019   0.00000   0.00590   0.00597  -3.13521
   D18       -0.00142   0.00000   0.00000   0.00021   0.00018  -0.00124
   D19       -0.00024   0.00017   0.00000   0.00491   0.00496   0.00472
   D20        3.13952  -0.00003   0.00000  -0.00079  -0.00083   3.13870
   D21       -0.00100   0.00005   0.00000   0.00138   0.00136   0.00036
   D22        3.14071   0.00006   0.00000   0.00181   0.00180  -3.14068
   D23        3.14150  -0.00007   0.00000  -0.00196  -0.00194   3.13956
   D24        0.00002  -0.00005   0.00000  -0.00153  -0.00151  -0.00148
   D25       -0.00166  -0.00041   0.00000  -0.01304  -0.01294  -0.01460
   D26       -3.14024  -0.00002   0.00000  -0.00035  -0.00041  -3.14066
   D27        3.13904  -0.00030   0.00000  -0.00975  -0.00963   3.12941
   D28        0.00045   0.00009   0.00000   0.00293   0.00290   0.00336
   D29        0.00012  -0.00004   0.00000  -0.00120  -0.00119  -0.00108
   D30       -3.14137  -0.00001   0.00000  -0.00028  -0.00028   3.14153
   D31        3.14159  -0.00006   0.00000  -0.00164  -0.00164   3.13995
   D32        0.00010  -0.00003   0.00000  -0.00073  -0.00073  -0.00063
   D33       -3.13524   0.00121   0.00000   0.03671   0.03665  -3.09859
   D34        0.00161   0.00045   0.00000   0.01400   0.01392   0.01553
   D35        0.00286   0.00076   0.00000   0.02198   0.02203   0.02489
   D36        3.13971  -0.00001   0.00000  -0.00073  -0.00070   3.13901
   D37       -3.13988   0.00317   0.00000   0.09368   0.09352  -3.04637
   D38        0.00491   0.00362   0.00000   0.10727   0.10744   0.11235
   D39        0.00018  -0.00014   0.00000  -0.00413  -0.00418  -0.00401
   D40        3.14084  -0.00041   0.00000  -0.01144  -0.01146   3.12939
   D41       -3.13959   0.00005   0.00000   0.00153   0.00147  -3.13811
   D42        0.00108  -0.00022   0.00000  -0.00579  -0.00580  -0.00472
   D43       -0.00086  -0.00018   0.00000  -0.00543  -0.00556  -0.00642
   D44       -3.14155   0.00009   0.00000   0.00171   0.00166  -3.13989
   D45        3.13613  -0.00092   0.00000  -0.02745  -0.02749   3.10865
   D46       -0.00455  -0.00065   0.00000  -0.02030  -0.02027  -0.02483
   D47       -1.06340   0.00033   0.00000   0.08321   0.08331  -0.98009
   D48        1.11966   0.00528   0.00000   0.12870   0.12832   1.24799
   D49       -3.10393  -0.00035   0.00000   0.08892   0.08920  -3.01473
   D50        2.69197   0.00046   0.00000   0.02061   0.02073   2.71270
   D51       -0.48098   0.00012   0.00000   0.00992   0.00995  -0.47102
   D52        0.55198  -0.00392   0.00000  -0.04681  -0.04704   0.50494
   D53       -2.62097  -0.00425   0.00000  -0.05750  -0.05781  -2.67878
   D54       -1.67957   0.00430   0.00000   0.06072   0.06095  -1.61862
   D55        1.43066   0.00396   0.00000   0.05003   0.05018   1.48084
   D56        2.78826  -0.00026   0.00000  -0.00489  -0.00506   2.78321
   D57       -1.38830  -0.00060   0.00000  -0.01031  -0.01070  -1.39900
   D58        0.70218   0.00100   0.00000   0.01378   0.01320   0.71539
   D59       -1.33224   0.00229   0.00000   0.05349   0.05367  -1.27857
   D60        0.77438   0.00194   0.00000   0.04807   0.04803   0.82241
   D61        2.86486   0.00355   0.00000   0.07217   0.07193   2.93679
   D62        0.88330  -0.00253   0.00000  -0.03733  -0.03671   0.84659
   D63        2.98992  -0.00288   0.00000  -0.04275  -0.04235   2.94757
   D64       -1.20278  -0.00128   0.00000  -0.01866  -0.01845  -1.22123
   D65        0.91576   0.00022   0.00000   0.02286   0.02297   0.93874
   D66        3.00844  -0.00004   0.00000   0.01900   0.01910   3.02754
   D67       -1.16593  -0.00038   0.00000   0.01394   0.01402  -1.15192
   D68       -1.12615  -0.00040   0.00000  -0.01027  -0.00937  -1.13552
   D69        0.96653  -0.00066   0.00000  -0.01412  -0.01324   0.95329
   D70        3.07534  -0.00100   0.00000  -0.01918  -0.01833   3.05701
   D71        2.92233   0.00200   0.00000   0.06109   0.06013   2.98246
   D72       -1.26818   0.00174   0.00000   0.05723   0.05626  -1.21192
   D73        0.84063   0.00141   0.00000   0.05217   0.05117   0.89180
   D74       -3.12166   0.00026   0.00000   0.00863   0.00857  -3.11309
   D75        0.03233   0.00087   0.00000   0.02328   0.02322   0.05555
   D76       -0.01377   0.00001   0.00000  -0.00218  -0.00213  -0.01590
   D77        3.14022   0.00063   0.00000   0.01246   0.01252  -3.13044
         Item               Value     Threshold  Converged?
[...]
 000183,-0.00000307,-0.00017715,-0.00001647,-0.00004685,-0.00002143,0.0
 0001396,-0.00000513,0.00020191,-0.00008777,0.00000976,0.00001075,-0.00
 003990,-0.00003893,-0.00002235,-0.00004381,0.00001073,0.00001671,-0.00
 001065,-0.00000069,0.00147835,0.00009449,-0.00036906,0.00004747,-0.000
 02466,0.00000295,-0.00224689,0.00950165,-0.01802386,-0.00015519,-0.001
 18469,-0.00051704,0.00003231,-0.00003040,0.00000765,-0.00250646,0.0030
 6929,0.00079380,0.00030136,0.00005612,-0.00010304,0.00012902,0.0007467
 8,-0.00109595,0.00006051,-0.00008641,0.00032544,-0.04632324,-0.0014222
 9,0.00028365,0.04751586,0.00000938,-0.00000263,-0.00000466,0.00000305,
 0.00000625,-0.00000469,0.00000321,-0.00001583,0.00002084,-0.00002026,-
 0.00001498,0.00003572,0.00000374,0.00002110,-0.00001057,0.00000214,-0.
 00000588,0.00000416,0.00000182,0.00000006,0.00000079,0.00000043,-0.000
 00084,0.00000276,-0.00000373,-0.00000236,-0.00000573,-0.00000313,-0.00
 000081,0.00000005,-0.00005786,0.00019391,-0.00018539,0.00000040,0.0000
 2190,0.00000022,-0.00013017,0.00002842,-0.00005254,0.00000230,0.000035
 42,0.00006533,-0.00002663,0.00003063,-0.00000812,-0.00000599,0.0000018
 0,0.00000520,-0.00179746,0.00094290,-0.00059849,0.00000324,-0.00000185
 ,-0.00000195,-0.00073871,-0.01331981,0.02368919,0.00001025,0.00060303,
 0.00212323,0.00012798,-0.00008291,0.00002911,0.00355478,-0.00417330,-0
 .00109903,-0.00001607,0.00014807,-0.00043426,0.00040961,-0.00029149,0.
 00172717,0.00016893,0.00012540,0.00014388,0.00042126,-0.09633648,0.102
 14549,-0.00297424,0.10524991,-0.00001022,0.00000650,-0.00000528,0.0000
 0506,-0.00001297,0.00000732,-0.00000432,0.00001038,-0.00002458,0.00001
 564,0.00005512,0.00000947,-0.00005826,0.00002746,0.00001710,0.00002789
 ,-0.00001824,0.00001381,0.00000305,-0.00000186,-0.00000131,-0.00000093
 ,-0.00000137,-0.00000228,-0.00003197,-0.00001351,-0.00004384,-0.000006
 17,-0.00000535,-0.00000511,-0.00011771,-0.00022911,0.00021072,-0.00001
 412,-0.00002663,-0.00000245,0.00005994,-0.00004613,0.00005221,0.000000
 46,-0.00002366,-0.00000178,0.00004136,-0.00003243,-0.00001493,0.000005
 06,-0.00000168,-0.00000124,-0.00007201,-0.00047550,0.00064984,-0.00000
 925,0.00000110,0.00000155,0.00051098,-0.00126565,-0.00060225,0.0000217
 8,-0.00096370,0.00084829,0.00002724,-0.00009756,0.00003693,-0.00043940
 ,0.00078544,0.00095759,0.00005891,-0.00028542,0.00011022,0.00018030,0.
 00010061,-0.00001749,0.00023349,-0.00014466,0.00027517,-0.00148117,0.1
 0560804,-0.26937884,0.00084749,-0.11435799,0.28833474,0.00001222,-0.00
 002052,0.00000410,-0.00002717,0.00002433,-0.00000598,-0.00002812,-0.00
 005301,-0.00002950,-0.00034220,0.00014857,0.00001451,0.00001642,0.0000
 5418,0.00002123,-0.00003451,-0.00003584,-0.00000193,-0.00001326,-0.000
 00862,-0.00000197,-0.00001623,-0.00000622,-0.00000396,0.00004671,0.000
 06017,-0.00001281,-0.00000391,-0.00001559,-0.00000193,0.00150327,-0.00
 084233,0.00098429,0.00006619,-0.00003803,0.00001202,-0.00038269,0.0003
 2002,-0.00011752,-0.00000471,-0.00000753,0.00002815,0.00006820,0.00004
 692,-0.00006431,-0.00004305,0.00002677,-0.00000131,-0.00581426,0.00362
 724,-0.00019806,-0.00014875,0.00006406,-0.00000486,-0.01429946,-0.0086
 7077,0.00412950,-0.00012902,-0.00082098,-0.00050637,0.00048164,0.00034
 085,0.00006149,-0.00012974,-0.00076069,0.00045468,0.00050823,0.0004224
 1,-0.00055579,0.00038240,0.00019730,-0.00008724,0.00003257,0.00010095,
 0.00004837,-0.27914976,-0.06801523,0.05826092,0.00207245,0.00046210,-0
 .00055182,0.30308426,-0.00000323,0.00000796,-0.00000669,0.00001501,-0.
 00002328,0.00000274,0.00004097,0.00007950,0.00004975,0.00030480,-0.000
 26427,-0.00000273,0.00006230,-0.00009122,-0.00000583,-0.00000793,0.000
 06165,0.00000025,-0.00000217,0.00000578,0.00000114,0.00001191,0.000009
 28,0.00000534,0.00003350,0.00003247,-0.00000960,0.00001046,0.00001180,
 0.00000350,0.00040581,0.00091327,-0.00077170,-0.00000854,0.00001779,-0
 .00000684,0.00011146,-0.00004118,0.00006185,-0.00001956,-0.00001871,0.
 00000123,-0.00004579,-0.00001867,0.00003154,0.00002214,-0.00001358,-0.
 00000139,0.00645081,-0.00316858,-0.00019601,0.00006237,-0.00002568,0.0
 0000123,0.02003786,0.00853224,-0.00566627,0.00039662,-0.00013836,-0.00
 059238,0.00013617,-0.00056079,-0.00041032,-0.00000224,0.00048279,-0.00
 023217,0.00035178,-0.00047936,0.00059700,-0.00023073,0.00004568,-0.000
 22546,0.00002045,-0.00001925,0.00008136,-0.07166474,-0.07015693,0.0182
 3907,-0.01276514,-0.00404592,0.00163720,0.07497219,0.07412021,-0.00000
 054,0.00000484,-0.00000232,0.00000751,-0.00001071,-0.00000035,0.000011
 23,0.00003818,-0.00001004,0.00008315,-0.00006623,0.00000677,-0.0000018
 9,-0.00001706,0.00001815,0.00000509,0.00000393,0.00001045,0.00000167,0
 .00000156,-0.00000066,0.00000456,0.00000294,-0.00000247,0.00000050,-0.
 00000368,-0.00004590,0.00000136,0.00000310,-0.00000058,-0.00021147,0.0
 0015808,0.00042000,-0.00002179,0.00000474,0.00000374,0.00006928,-0.000
 01607,-0.00000600,0.00000052,-0.00000505,0.00003459,0.00000083,-0.0000
 3025,-0.00005496,0.00001021,-0.00000427,0.00000410,0.00086266,-0.00029
 359,0.00073283,0.00001744,-0.00000840,0.00000380,-0.00053845,0.0006785
 9,-0.00258230,0.00045322,-0.00029180,-0.00007104,-0.00005600,-0.000333
 84,0.00000530,-0.00040889,0.00021165,-0.00032224,-0.00052726,0.0007093
 6,-0.00028643,0.00010522,-0.00013509,0.00000655,-0.00011389,0.00004309
 ,0.00005349,0.05873329,0.01690880,-0.06125253,0.02729881,0.00672039,-0
 .00507460,-0.06451167,-0.01949582,0.06233654,-0.00000469,0.00000087,0.
 00000102,0.00001673,-0.00000362,0.00000496,0.00000172,0.00000879,-0.00
 000570,0.00011042,-0.00000931,-0.00000242,-0.00002626,-0.00001511,0.00
 000474,0.00001611,-0.00001093,-0.00001515,0.00000778,0.00000160,0.0000
 0253,0.00000454,0.00000077,-0.00000021,-0.00004603,-0.00002493,0.00001
 793,-0.00000109,0.00000275,0.00000109,-0.00019950,0.00011242,-0.000112
 33,-0.00002478,0.00001833,0.00000222,0.00016120,-0.00008767,0.00004102
 ,0.00004838,-0.00003886,0.00001831,-0.00002470,-0.00003110,0.00001112,
 0.00001024,-0.00000779,-0.00000145,0.00198606,0.00008186,-0.00026912,0
 .00003903,-0.00002091,0.00000146,0.00392861,0.01528253,0.01385668,-0.0
 0223277,0.00174294,-0.00060023,0.00018601,0.00027809,0.00008829,0.0006
 9905,-0.00037030,0.00083236,0.00000681,-0.00008171,-0.00016379,-0.0000
 6455,-0.00017108,0.00019990,-0.00005944,0.00005667,-0.00040913,-0.0759
 5737,-0.05956909,-0.06101044,-0.00051218,0.00059941,0.00078380,-0.0079
 8095,-0.01866050,-0.02114401,0.07948058,0.00001489,-0.00000405,0.00000
 712,0.00000127,0.00000822,-0.00000746,0.00001707,-0.00000645,0.0000196
 4,0.00001084,-0.00006588,0.00000194,0.00003489,-0.00001518,0.00004616,
 -0.00000993,0.00001539,-0.00000129,-0.00000210,0.00000100,-0.00000225,
 0.00000183,0.00000098,-0.00000244,0.00002076,0.00004055,-0.00004266,0.
 00000006,0.00000158,-0.00000302,0.00023486,0.00020261,0.00014855,0.000
 02142,0.00002814,-0.00000178,-0.00011598,0.00000750,0.00005278,-0.0000
 7856,0.00007471,-0.00007153,-0.00001998,0.00004806,-0.00000704,-0.0000
 0685,0.00000224,-0.00000624,-0.00147228,0.00137377,0.00113749,0.000001
 35,0.00000367,0.00000086,-0.00939488,-0.02001491,-0.01816085,0.0052293
 4,-0.00283966,0.00007951,-0.00028320,0.00018308,0.00011942,-0.00099204
 ,0.00071553,-0.00104269,0.00000257,-0.00005109,0.00009378,0.00010402,0
 .00052872,0.00011175,0.00060247,-0.00019622,0.00106902,-0.05704643,-0.
 15946509,-0.11668800,0.00532328,0.01045617,0.00949031,-0.00184690,-0.0
 0524919,-0.00483249,0.06042270,0.17480132,0.00001654,-0.00001174,-0.00
 000868,-0.00001420,0.00001952,0.00000347,0.00000363,-0.00000418,0.0000
 0615,-0.00003795,-0.00006084,-0.00001685,0.00011973,-0.00007329,0.0000
 2603,-0.00005169,0.00004642,0.00001224,-0.00000912,0.00000193,-0.00000
 066,-0.00000073,0.00000255,0.00000011,0.00005561,0.00005451,-0.0000403
 9,0.00001210,0.00000698,0.00000068,0.00012002,0.00015776,0.00000797,0.
 00002792,0.00001283,-0.00000348,-0.00003533,-0.00000157,-0.00000119,-0
 .00001112,0.00003929,0.00000422,-0.00002259,0.00004736,-0.00000264,-0.
 00000675,0.00000432,-0.00000091,0.00031838,0.00022976,0.00010698,-0.00
 000256,0.00001018,0.00000031,-0.00080588,0.00051699,-0.00114237,0.0007
 6456,-0.00067343,0.00000141,-0.00017832,-0.00005275,-0.00009238,0.0000
 6161,0.00122053,0.00048177,0.00013467,-0.00003003,0.00000072,0.0001818
 1,-0.00001126,0.00007387,-0.00031135,0.00042644,0.00019568,-0.06017490
 ,-0.11819004,-0.17232644,-0.00951041,-0.01927887,-0.01689620,0.0024999
 0,0.00657019,0.00608441,0.06696967,0.12935769,0.18283159,-0.00005753,-
 0.00001202,-0.00000287,0.00001531,-0.00004494,-0.00000099,-0.00007329,
 0.00006582,-0.00003863,0.00014148,0.00003038,0.00025517,-0.00007327,-0
 .00004829,-0.00002240,0.00003175,-0.00001799,0.00002212,-0.00000197,-0
 .00000631,-0.00000486,-0.00000504,0.00000307,-0.00000324,0.00000902,-0
 .00000859,-0.00003918,-0.00000485,-0.00001510,-0.00000292,-0.00097440,
 -0.00012114,-0.00040586,-0.00003258,-0.00001517,0.00005966,-0.00128617
 ,0.00147460,-0.00144299,-0.00177711,-0.00042714,-0.00073891,-0.0002534
 4,-0.00052924,-0.00019716,0.00004461,0.00001640,-0.00003530,0.00101728
 ,0.00067581,-0.00065134,-0.00014422,0.00001077,0.00002772,0.01057488,-
 0.00056249,-0.00974825,-0.14162180,-0.00650840,0.15451183,-0.00427523,
 0.00348218,0.02655248,-0.00106780,-0.00157747,-0.00157180,0.00018567,0
 .00000294,-0.00020589,0.00000654,0.00002114,0.00015137,-0.00006323,0.0
 0006245,-0.00103194,-0.00074825,-0.00063782,-0.00114479,0.00009126,-0.
 00012013,0.00004314,0.00031052,-0.00009331,-0.00011453,0.00037658,-0.0
 0068008,-0.00009421,0.47678158,0.00008674,-0.00002670,0.00000879,-0.00
 002890,0.00009195,0.00000080,0.00009818,-0.00020761,-0.00005033,-0.000
 51732,-0.00007075,0.00006642,0.00011596,0.00010968,0.00001297,-0.00008
 638,0.00000659,0.00001605,0.00000334,0.00000511,-0.00000248,0.00000098
 ,-0.00000460,-0.00000490,0.00001552,0.00005110,-0.00001560,0.00000407,
 0.00001586,-0.00000251,0.00187088,-0.00108605,0.00028393,0.00003540,0.
 00019386,-0.00003142,0.00019244,-0.00015733,0.00099399,0.00066552,0.00
 041965,0.00000539,-0.00010422,0.00035248,0.00003884,-0.00004002,0.0000
 0090,-0.00001202,-0.00064696,0.00043563,-0.00162576,0.00008182,-0.0000
 0548,0.00000776,0.00805325,0.00025193,-0.02259774,-0.00431729,-0.08888
 033,-0.07893270,-0.00752332,0.00736507,0.01533712,-0.00151058,-0.00343
 974,-0.00027711,0.00032101,0.00006682,-0.00012025,-0.00012719,0.000269
 12,-0.00019557,0.00001351,0.00064780,-0.00120150,-0.00211727,-0.000963
 93,-0.00214055,-0.00004953,0.00044005,0.00017540,0.00020635,0.00001780
 ,0.00005621,0.00057443,-0.00080600,-0.00039884,0.22251889,0.37109402,0
 .00000212,-0.00000257,-0.00000239,-0.00001836,-0.00000460,0.00001115,0
 .00003757,-0.00002743,-0.00001117,-0.00015874,0.00012030,-0.00003787,0
 .00000845,0.00006179,0.00001159,-0.00001230,-0.00001001,0.00002765,-0.
 00000871,-0.00000582,-0.00000412,-0.00000958,-0.00000277,-0.00000449,0
 .00001665,0.00004249,-0.00000741,-0.00000263,-0.00001030,-0.00000642,0
 .00139859,-0.00100638,0.00005593,0.00004482,-0.00004593,-0.00001531,-0
 .00036676,0.00031795,-0.00016962,-0.00138545,0.00026723,-0.00087405,0.
 00015001,0.00007302,0.00004946,-0.00002613,0.00001008,0.00001542,0.000
 09496,0.00108736,-0.00203791,-0.00007327,0.00004528,-0.00001421,0.0052
 5083,-0.01026747,-0.02078550,0.15823489,-0.07589774,-0.48775423,0.0026
 2705,-0.00394586,-0.00768213,-0.00121793,-0.00243595,0.00110832,0.0001
 7357,0.00010887,0.00021822,-0.00007324,0.00040194,-0.00015990,-0.00003
 577,0.00046413,-0.00075015,-0.00310609,0.00187684,-0.00124251,0.000154
 82,-0.00063366,0.00046541,0.00025122,0.00025542,-0.00007341,0.00071498
 ,-0.00045762,0.00074383,-0.17192627,0.16628814,0.76124763,-0.00001015,
 0.00000695,-0.00000419,-0.00000614,-0.00001335,0.00000134,-0.00001346,
 0.00004095,-0.00000052,0.00002412,0.00004106,0.00001357,-0.00000860,-0
 .00001385,-0.00000301,0.00001333,-0.00000239,0.00000570,-0.00000416,-0
 .00000242,-0.00000064,-0.00000456,-0.00000095,-0.00000104,0.00000486,0
 .00001349,0.00000787,0.00000019,-0.00000255,0.00000058,0.00066003,-0.0
 0011864,0.00019847,-0.00001170,-0.00006120,0.00001688,-0.00015716,0.00
 020185,-0.00000537,-0.00006275,-0.00011974,-0.00000985,0.00007514,-0.0
 0003453,-0.00005471,-0.00002050,0.00001394,-0.00001060,0.00011897,0.00
 010930,-0.00097136,-0.00005809,0.00002803,0.00000147,0.00319497,-0.005
 55242,0.00506792,0.00797198,0.00860627,0.00913289,-0.00216413,0.004045
 35,-0.00194951,0.00062098,0.00131761,0.00083527,-0.00004076,0.00000450
 ,-0.00000564,0.00000748,0.00004895,-0.00006337,-0.00002156,-0.00014160
 ,0.00052142,-0.00046864,-0.00100100,-0.00108461,-0.00007957,0.00005095
 ,-0.00003668,-0.00001680,0.00005492,-0.00000976,0.00023760,-0.00031642
 ,-0.00000423,-0.10678879,-0.09700971,-0.07442248,0.10243228,-0.0000092
 5,-0.00000059,-0.00000171,-0.00000244,-0.00001335,0.00000141,-0.000008
 92,0.00002367,0.00000393,-0.00002116,0.00001769,0.00001247,-0.00001943
 ,0.00000946,-0.00001291,0.00000362,-0.00000847,0.00000399,-0.00000507,
 -0.00000398,-0.00000119,-0.00000457,-0.00000003,-0.00000077,0.00000397
 ,0.00001717,0.00000544,-0.00000191,-0.00000791,-0.00000141,0.00045999,
 -0.00018724,0.00006994,0.00001919,-0.00005575,0.00000041,0.00001342,-0
 .00006751,-0.00006426,0.00003915,-0.00002278,0.00005603,0.00009022,-0.
 00001557,0.00002391,-0.00000439,0.00000608,0.00000427,-0.00024083,-0.0
 0003625,-0.00047112,-0.00005301,0.00002105,-0.00000674,-0.00506937,0.0
 0755308,-0.00314356,-0.00301206,0.00033838,-0.00026947,0.00413576,-0.0
 0366947,0.00209803,-0.00056826,-0.00144988,-0.00105496,0.00005201,0.00
 001353,-0.00001373,-0.00001745,-0.00008181,0.00009308,0.00006895,0.000
 19133,-0.00051083,0.00072789,0.00119972,0.00137581,0.00002750,-0.00002
 030,0.00004485,0.00003555,-0.00006725,-0.00001256,-0.00031043,0.000451
 66,0.00002948,-0.09519009,-0.17053393,-0.12044415,0.10289955,0.1716390
 8,0.00000368,-0.00000356,-0.00000199,-0.00000798,0.00000747,0.00000222
 ,-0.00000608,-0.00001649,-0.00000404,-0.00010330,0.00002502,-0.0000022
 5,0.00001065,0.00000875,-0.00000146,-0.00001078,-0.00000151,0.00000755
 ,-0.00000218,-0.00000084,-0.00000107,-0.00000327,-0.00000170,-0.000001
 32,0.00000684,0.00001509,-0.00000673,0.00000035,-0.00000102,-0.0000013
 9,0.00030575,-0.00021367,0.00010180,-0.00000324,-0.00000009,-0.0000032
 3,-0.00011246,0.00020384,-0.00003930,0.00000531,-0.00008749,-0.0000439
 7,-0.00000553,-0.00002408,-0.00000550,-0.00001294,0.00000733,-0.000006
 80,-0.00034445,0.00052918,0.00089986,-0.00003040,0.00001354,0.00000119
 ,0.00629421,-0.00074702,-0.00051308,-0.01428601,-0.02150986,-0.0157102
 8,-0.00170106,0.00233820,-0.00022600,-0.00017592,-0.00042290,0.0001207
 0,0.00002085,-0.00000057,0.00002121,-0.00001193,0.00011458,-0.00005803
 ,-0.00008762,0.00005393,-0.00021092,-0.00078120,-0.00067306,-0.0010029
 7,0.00002924,-0.00003737,0.00003876,0.00002018,0.00004278,-0.00000456,
 0.00027997,-0.00048524,-0.00002683,-0.07134412,-0.11717277,-0.15493938
 ,0.07687766,0.13084861,0.16309146,0.00001508,-0.00000661,0.00000556,0.
 00000133,0.00001450,0.00000634,0.00002432,-0.00006210,-0.00000950,-0.0
 0004871,-0.00006519,-0.00003989,0.00003476,0.00002317,0.00002086,-0.00
 002124,0.00001782,-0.00001324,0.00000239,0.00000248,0.00000148,0.00000
 226,-0.00000045,0.00000224,0.00000393,0.00000700,0.00001477,0.00000260
 ,0.00000674,0.00000179,-0.00004896,-0.00031539,-0.00081291,0.00001141,
 0.00006463,0.00003760,-0.00010490,-0.00000850,-0.00006888,-0.00001747,
 -0.00001226,-0.00013678,-0.00003205,0.00004857,-0.00005745,0.00000177,
 -0.00000706,0.00000873,-0.00033280,0.00009236,-0.00142767,0.00004187,-
 0.00001665,0.00000305,-0.00321581,0.00218871,-0.00224711,-0.00476977,-
 0.00688304,0.00422885,0.00453685,-0.00408590,0.00355357,-0.00019174,-0
 .00031175,-0.00032106,0.00006508,0.00000572,-0.00004743,-0.00003388,-0
 .00005354,0.00000770,0.00012745,0.00009596,-0.00011252,0.00022488,0.00
 036165,0.00069288,0.00002544,0.00005939,-0.00003156,-0.00002050,0.0000
 0236,-0.00000638,-0.00018312,0.00022203,-0.00001481,-0.23033752,-0.120
 77960,0.08368319,-0.00542443,-0.00403812,0.00517577,0.23966145,-0.0000
 4938,0.00000803,0.00000063,0.00001595,-0.00004469,-0.00001109,-0.00005
 304,0.00007680,0.00000961,0.00030249,0.00007773,0.00006231,-0.00006256
 ,-0.00006548,0.00002451,0.00004389,0.00000009,0.00000156,0.00000145,-0
 .00000275,-0.00000072,-0.00000019,0.00000235,-0.00000031,0.00001291,-0
 .00001874,-0.00001317,-0.00000081,-0.00000710,-0.00000252,-0.00114834,
 0.00060062,-0.00054290,0.00000269,-0.00008849,0.00001099,0.00006276,0.
 00013666,-0.00030586,-0.00021379,-0.00031860,0.00022285,0.00002001,-0.
 00013095,-0.00002892,0.00001334,-0.00000495,0.00000325,0.00101628,-0.0
 0090357,-0.00089756,-0.00001488,-0.00000492,0.00000245,0.00284296,-0.0
 0461076,0.00141844,0.00303943,0.00812387,-0.00107967,-0.00414287,0.006
 37104,-0.00396875,-0.00003549,0.00057630,0.00057039,-0.00000043,-0.000
 01042,0.00012799,0.00003619,0.00005111,-0.00000093,-0.00008440,-0.0000
 8790,0.00018860,-0.00041013,-0.00048857,-0.00071645,-0.00004705,0.0000
 1039,0.00006100,0.00003233,0.00004402,0.00001146,0.00022920,-0.0002312
 0,0.00003209,-0.12174870,-0.11565299,0.04377739,-0.01309291,-0.0052398
 4,0.00719094,0.13343311,0.11183292,0.00004175,-0.00000942,0.00000476,0
 .00000717,0.00005426,0.00000782,0.00005248,-0.00015644,-0.00000325,-0.
 00005750,-0.00006906,-0.00007706,0.00006514,0.00004106,0.00001892,-0.0
 0002446,0.00003713,-0.00003152,0.00001293,0.00000847,0.00000462,0.0000
 1178,-0.00000004,0.00000311,-0.00000359,-0.00001453,0.00001032,0.00000
 571,0.00001890,0.00000369,-0.00188059,0.00010000,-0.00109504,0.0000431
 0,0.00019814,-0.00002115,0.00018188,-0.00032736,0.00013130,0.00001556,
 0.00019135,-0.00030435,-0.00025534,0.00009851,0.00008035,0.00002741,-0
 .00002815,0.00000289,-0.00005215,-0.00053769,0.00079063,0.00017146,-0.
 00006778,0.00000619,0.00027146,0.00314026,-0.00079718,0.02511876,0.014
 75905,-0.00622530,0.00360629,-0.00408257,-0.00309402,-0.00016713,-0.00
 023547,-0.00013300,-0.00009088,-0.00004757,0.00010538,0.00001290,-0.00
 002399,0.00000854,-0.00000346,0.00000710,-0.00009699,0.00011020,0.0001
 4754,0.00027343,0.00000642,-0.00000022,0.00004304,-0.00013352,0.000041
 63,0.00006969,-0.00009808,0.00007658,-0.00002243,0.07914497,0.04149024
 ,-0.08738241,-0.01404348,-0.00866231,0.00852636,-0.09209718,-0.0461476
 3,0.08919264\\-0.00000045,0.00000168,-0.00000218,-0.00000013,-0.000000
 59,-0.00000409,-0.00000280,0.00000184,-0.00000382,0.00000039,-0.000001
 09,-0.00000083,-0.00000122,-0.00000148,0.00000061,0.00000050,0.0000003
 9,0.00000124,0.00000008,-0.00000028,-0.00000206,-0.00000005,0.00000079
 ,-0.00000585,-0.00000085,0.00000017,0.00000309,-0.00000098,-0.00000011
 ,0.00000206,-0.00000918,0.00000688,-0.00000149,0.00000808,-0.00000477,
 -0.00000524,0.00000180,-0.00000143,-0.00000199,0.00000079,0.00000066,-
 0.00000317,-0.00000143,0.00000210,-0.00000534,0.00000038,0.00000045,-0
 .00000710,0.00000888,-0.00000038,0.00000113,-0.00000310,0.00000172,-0.
 00000923,-0.00000596,-0.00000308,0.00000542,-0.00000223,0.00000181,0.0
 0000511,0.00000032,-0.00000075,0.00000164,0.00000497,-0.00000208,0.000
 00290,0.00000231,-0.00000301,0.00000180,0.00000288,-0.00000186,-0.0000
 0036,0.00000255,-0.00000365,0.00000192,0.00000308,0.00000118,0.0000049
 9,-0.00000170,0.00000032,0.00000625,0.00000083,-0.00000219,0.00000652,
 0.00000127,-0.00000239,0.00000602,-0.00000183,0.00000355,-0.00000217,-
 0.00000451,0.00000286,0.00000211,-0.00000269,0.00000275,0.00000209\\\@


 TIME IS IN FACT THE HERO OF THE PLOT. THE TIME
 WITH WHICH WE HAVE TO DEAL IS OF THE ORDER OF TWO
 BILLION YEARS...GIVEN SO MUCH TIME, THE "IMPOSSIBLE"
 BECOMES POSSIBLE, THE POSSIBLE PROBABLE, THE PROBABLE
 VIRTUALLY CERTAIN.  ONE HAS ONLY TO WAIT, TIME
 ITSELF PERFORMS THE MIRACLES.
 "ORIGIN OF LIFE" LECTURES, GEORGE WALD, 1954
 Job cpu time:       0 days  4 hours 11 minutes 50.3 seconds.
 File lengths (MBytes):  RWF=   1014 Int=      0 D2E=      0 Chk=     21 Scr=      1
 Normal termination of Gaussian 09 at Thu Aug 27 19:35:05 2020.
