 Entering Gaussian System, Link 0=g09
 Input=freq_b3lyp_TS_claisen_PM6_toluene.com
 Output=freq_b3lyp_TS_claisen_PM6_toluene.log
 Initial command:
 /apps/applications/gaussian/G09.D01/2/default/g09/l1.exe "/local/715277.1.40core-192G.q/Gau-247006.inp" -scrdir="/local/715277.1.40core-192G.q/"
 Entering Link 1 = /apps/applications/gaussian/G09.D01/2/default/g09/l1.exe PID=    247007.
  
 Copyright (c) 1988,1990,1992,1993,1995,1998,2003,2009,2013,
            Gaussian, Inc.  All Rights Reserved.
  
 This is part of the Gaussian(R) 09 program.  It is based on
 the Gaussian(R) 03 system (copyright 2003, Gaussian, Inc.),
 the Gaussian(R) 98 system (copyright 1998, Gaussian, Inc.),
 the Gaussian(R) 94 system (copyright 1995, Gaussian, Inc.),
 the Gaussian 92(TM) system (copyright 1992, Gaussian, Inc.),
 the Gaussian 90(TM) system (copyright 1990, Gaussian, Inc.),
 the Gaussian 88(TM) system (copyright 1988, Gaussian, Inc.),
 the Gaussian 86(TM) system (copyright 1986, Carnegie Mellon
 University), and the Gaussian 82(TM) system (copyright 1983,
 Carnegie Mellon University). Gaussian is a federally registered
 trademark of Gaussian, Inc.
  
 This software contains proprietary and confidential information,
 including trade secrets, belonging to Gaussian, Inc.
  
 This software is provided under written license and may be
 used, copied, transmitted, or stored only in accord with that
 written license.
  
 The following legend is applicable only to US Government
 contracts under FAR:
  
                    RESTRICTED RIGHTS LEGEND
  
 Use, reproduction and disclosure by the US Government is
 subject to restrictions as set forth in subparagraphs (a)
 and (c) of the Commercial Computer Software - Restricted
 Rights clause in FAR 52.227-19.
  
 Gaussian, Inc.
 340 Quinnipiac St., Bldg. 40, Wallingford CT 06492
  
  
 ---------------------------------------------------------------
 Warning -- This program may not be used in any manner that
 competes with the business of Gaussian, Inc. or will provide
 assistance to any competitor of Gaussian, Inc.  The licensee
 of this program is prohibited from giving any competitor of
 Gaussian, Inc. access to this program.  By using this program,
 the user acknowledges that Gaussian, Inc. is engaged in the
 business of creating and licensing software in the field of
 computational chemistry and represents and warrants to the
 licensee that it is not a competitor of Gaussian, Inc. and that
 it will not use this program in any manner prohibited above.
 ---------------------------------------------------------------
  

 Cite this work as:
 Gaussian 09, Revision D.01,
 M. J. Frisch, G. W. Trucks, H. B. Schlegel, G. E. Scuseria, 
 M. A. Robb, J. R. Cheeseman, G. Scalmani, V. Barone, B. Mennucci, 
 G. A. Petersson, H. Nakatsuji, M. Caricato, X. Li, H. P. Hratchian, 
 A. F. Izmaylov, J. Bloino, G. Zheng, J. L. Sonnenberg, M. Hada, 
 M. Ehara, K. Toyota, R. Fukuda, J. Hasegawa, M. Ishida, T. Nakajima, 
 Y. Honda, O. Kitao, H. Nakai, T. Vreven, J. A. Montgomery, Jr., 
 J. E. Peralta, F. Ogliaro, M. Bearpark, J. J. Heyd, E. Brothers, 
 K. N. Kudin, V. N. Staroverov, T. Keith, R. Kobayashi, J. Normand, 
 K. Raghavachari, A. Rendell, J. C. Burant, S. S. Iyengar, J. Tomasi, 
 M. Cossi, N. Rega, J. M. Millam, M. Klene, J. E. Knox, J. B. Cross, 
 V. Bakken, C. Adamo, J. Jaramillo, R. Gomperts, R. E. Stratmann, 
 O. Yazyev, A. J. Austin, R. Cammi, C. Pomelli, J. W. Ochterski, 
 R. L. Martin, K. Morokuma, V. G. Zakrzewski, G. A. Voth, 
 P. Salvador, J. J. Dannenberg, S. Dapprich, A. D. Daniels, 
 O. Farkas, J. B. Foresman, J. V. Ortiz, J. Cioslowski, 
 and D. J. Fox, Gaussian, Inc., Wallingford CT, 2013.
 
 ******************************************
 Gaussian 09:  ES64L-G09RevD.01 24-Apr-2013
                27-Aug-2020 
 ******************************************
 %nprocshared=4
 Will use up to    4 processors via shared memory.
 %chk=freq_b3lyp_TS_claisen_PM6_toluene.chk
 ----------------------------------------------------------------------
 # freq b3lyp/6-31+g(d,p) scrf=(cpcm,solvent=toluene) geom=connectivity
  empiricaldispersion=gd3
 ----------------------------------------------------------------------
 1/10=4,30=1,38=1,57=2/1,3;
 2/12=2,17=6,18=5,40=1/2;
 3/5=1,6=6,7=111,11=2,16=1,25=1,30=1,70=2101,71=2,72=13,74=-5,124=31,140=1/1,2,3;
 4//1;
 5/5=2,38=5,53=13,98=1/2;
 8/6=4,10=90,11=11/1;
 11/6=1,8=1,9=11,15=111,16=1/1,2,10;
 10/6=1/2;
 6/7=2,8=2,9=2,10=2,18=1,28=1/1;
 7/8=1,10=1,25=1/1,2,3,16;
 1/10=4,30=1/3;
 99//99;
 -------------------
 Title Card Required
 -------------------
 Symbolic Z-matrix:
 Charge =  0 Multiplicity = 1
 C                    -2.2631    2.71459   0.36331 
 C                    -2.60753   1.37425   0.34899 
 C                    -1.68416   0.39051  -0.08778 
 C                    -0.38093   0.81105  -0.5008 
 C                    -0.06599   2.18639  -0.49231 
 C                    -0.98493   3.1289   -0.06505 
 H                    -2.98722   3.45088   0.69971 
 H                    -3.5972    1.06844   0.66803 
 H                     0.92192   2.47905  -0.83081 
 H                    -0.72519   4.18332  -0.0611 
 C                     0.61154  -0.16232  -0.97731 
 C                    -1.99051  -1.01474  -0.15156 
 C                     0.23534  -1.53831  -0.95187 
 H                     0.89651  -2.25123  -1.4288 
 C                    -1.08109  -1.93757  -0.5935 
 H                    -1.35662  -2.98552  -0.64908 
 O                     1.78998   0.19733  -1.31304 
 Cl                   -3.59534  -1.58144   0.32837 
 C                     3.18713  -0.1554    0.46278 
 C                     2.77334  -1.48981   0.58346 
 H                     3.36548  -2.23616   0.05814 
 C                     4.45883   0.16752  -0.25918 
 H                     4.83463  -0.6796   -0.83739 
 H                     4.2901    1.01012  -0.93699 
 H                     5.23084   0.47605   0.45939 
 C                     2.62356   0.94607   1.31168 
 H                     1.56244   0.82254   1.53038 
 H                     3.16431   0.96156   2.26838 
 H                     2.76552   1.91632   0.83182 
 C                     1.54469  -1.88163   1.07647 
 H                     1.27297  -2.93073   1.10221 
 H                     0.90526  -1.21622   1.64417 
 

 GradGradGradGradGradGradGradGradGradGradGradGradGradGradGradGradGradGrad
 Berny optimization.
 Initialization pass.
 Trust Radius=3.00D-01 FncErr=1.00D-07 GrdErr=1.00D-07
 Number of steps in this run=      2 maximum allowed number of steps=      2.
 GradGradGradGradGradGradGradGradGradGradGradGradGradGradGradGradGradGrad

                          Input orientation:                          
 ---------------------------------------------------------------------
 Center     Atomic      Atomic             Coordinates (Angstroms)
 Number     Number       Type             X           Y           Z
 ---------------------------------------------------------------------
      1          6           0       -2.263100    2.714589    0.363311
      2          6           0       -2.607527    1.374248    0.348988
      3          6           0       -1.684160    0.390511   -0.087784
      4          6           0       -0.380928    0.811052   -0.500799
      5          6           0       -0.065989    2.186393   -0.492307
      6          6           0       -0.984932    3.128896   -0.065047
      7          1           0       -2.987223    3.450876    0.699711
      8          1           0       -3.597204    1.068443    0.668033
      9          1           0        0.921918    2.479051   -0.830811
     10          1           0       -0.725193    4.183323   -0.061097
     11          6           0        0.611539   -0.162319   -0.977305
     12          6           0       -1.990511   -1.014741   -0.151556
     13          6           0        0.235343   -1.538313   -0.951866
     14          1           0        0.896511   -2.251232   -1.428801
     15          6           0       -1.081085   -1.937565   -0.593503
     16          1           0       -1.356623   -2.985520   -0.649076
     17          8           0        1.789984    0.197328   -1.313044
     18         17           0       -3.595342   -1.581440    0.328367
     19          6           0        3.187130   -0.155402    0.462782
     20          6           0        2.773340   -1.489808    0.583458
     21          1           0        3.365476   -2.236158    0.058136
     22          6           0        4.458834    0.167524   -0.259177
     23          1           0        4.834632   -0.679601   -0.837389
     24          1           0        4.290098    1.010118   -0.936985
     25          1           0        5.230840    0.476045    0.459392
     26          6           0        2.623560    0.946067    1.311677
     27          1           0        1.562441    0.822542    1.530382
     28          1           0        3.164308    0.961562    2.268382
     29          1           0        2.765524    1.916322    0.831824
     30          6           0        1.544688   -1.881627    1.076466
     31          1           0        1.272970   -2.930733    1.102212
     32          1           0        0.905255   -1.216216    1.644171
 ---------------------------------------------------------------------
                    Distance matrix (angstroms):
                    1          2          3          4          5
     1  C    0.000000
     2  C    1.383961   0.000000
     3  C    2.437211   1.418138   0.000000
     4  C    2.812954   2.448892   1.430332   0.000000
     5  C    2.416272   2.797637   2.450981   1.410965   0.000000
     6  C    1.410267   2.425496   2.826338   2.434564   1.383951
     7  H    1.086111   2.139991   3.418180   3.899060   3.399034
     8  H    2.140674   1.083867   2.165777   3.431741   3.881453
     9  H    3.409655   3.881945   3.421364   2.142087   1.084525
    10  H    2.168516   3.406208   3.912257   3.418197   2.146677
    11  C    4.282219   3.805585   2.523312   1.469524   2.492131
    12  C    3.774559   2.517642   1.439670   2.458912   3.750621
    13  C    5.104810   4.272838   2.855082   2.470378   3.765027
    14  H    6.152576   5.346300   3.928994   3.445377   4.636372
    15  C    4.894404   3.766486   2.457517   2.837906   4.248257
    16  H    5.859852   4.644187   3.438010   3.922745   5.332823
    17  O    5.057100   4.846194   3.688937   2.397761   2.841588
    18  Cl   4.497995   3.116456   2.777479   4.091942   5.227466
    19  C    6.160499   5.994233   4.932607   3.820152   4.120556
    20  C    6.564385   6.100125   4.884206   4.052034   4.767967
    21  H    7.502259   6.985441   5.693813   4.861424   5.624669
    22  C    7.215222   7.194408   6.149429   4.888334   4.960263
    23  H    7.958643   7.810987   6.648436   5.434833   5.687626
    24  H    6.894954   7.025920   6.066038   4.695569   4.533967
    25  H    7.821729   7.890434   6.937142   5.703169   5.646895
    26  C    5.282662   5.336139   4.563287   3.511445   3.467916
    27  H    4.424552   4.369062   3.653153   2.811141   2.933112
    28  H    6.013248   6.096594   5.420817   4.501079   4.422266
    29  H    5.113100   5.421868   4.793064   3.591332   3.137471
    30  C    6.011077   5.326428   4.116254   3.666917   4.648023
    31  H    6.702196   5.844524   4.603409   4.393857   5.524516
    32  H    5.208676   4.552762   3.505183   3.219469   4.133473
                    6          7          8          9         10
     6  C    0.000000
     7  H    2.167417   0.000000
     8  H    3.406881   2.459485   0.000000
     9  H    2.155173   4.309098   4.965764   0.000000
    10  H    1.085954   2.496415   4.299134   2.491983   0.000000
    11  C    3.770017   5.368300   4.683528   2.663575   4.637984
    12  C    4.264786   4.654012   2.755512   4.598936   5.350615
    13  C    4.904932   6.164791   4.909956   4.077408   5.869686
    14  H    5.860497   7.219972   5.967447   4.767999   6.775252
    15  C    5.094854   5.860125   4.118059   4.855392   6.154298
    16  H    6.153481   6.775343   4.815558   5.923370   7.220577
    17  O    4.225133   6.120332   5.805627   2.488443   4.876643
    18  Cl   5.399656   5.082510   2.671564   6.183601   6.451506
    19  C    5.335852   7.154300   6.896892   3.707413   5.865599
    20  C    5.989791   7.589991   6.865539   4.602148   6.696238
    21  H    6.908330   8.550483   7.731188   5.384645   7.612984
    22  C    6.200161   8.194122   8.159113   4.263766   6.560489
    23  H    6.997749   8.978025   8.741728   5.028564   7.427134
    24  H    5.751125   7.848278   8.049163   3.676095   5.999129
    25  H    6.778531   8.743222   8.850357   4.923765   7.034852
    26  C    4.436364   6.174905   6.255171   3.136221   4.855768
    27  H    3.788637   5.319549   5.236989   2.954577   4.365882
    28  H    5.230528   6.818999   6.949143   4.115347   5.561873
    29  H    4.042355   5.955368   6.421062   2.545565   4.256960
    30  C    5.727772   7.008263   5.942119   4.800110   6.574955
    31  H    6.571128   7.683501   6.316685   5.755482   7.480357
    32  H    5.037284   6.150214   5.142436   4.447562   5.892480
                   11         12         13         14         15
    11  C    0.000000
    12  C    2.859921   0.000000
    13  C    1.426720   2.422612   0.000000
    14  H    2.156065   3.390451   1.082988   0.000000
    15  C    2.482696   1.368933   1.421552   2.169561   0.000000
    16  H    3.457146   2.129157   2.172659   2.494747   1.084997
    17  O    1.277028   4.136461   2.357924   2.609050   3.649458
    18  Cl   4.627800   1.768320   4.039184   4.869600   2.701510
    19  C    2.950859   5.284301   3.553409   3.635591   4.744418
    20  C    2.978522   4.843574   2.966648   2.855073   4.054913
    21  H    3.599599   5.497493   3.362265   2.882186   4.503964
    22  C    3.927618   6.557697   4.607339   4.461899   5.935813
    23  H    4.256956   6.867697   4.680166   4.281190   6.052905
    24  H    3.861092   6.645525   4.789129   4.732306   6.136483
    25  H    4.879503   7.398893   5.568148   5.457996   6.839188
    26  C    3.242867   5.222592   4.123027   4.551444   5.066502
    27  H    2.857037   4.339123   3.673742   4.318369   4.372334
    28  H    4.279512   6.027772   5.019782   5.397602   5.883765
    29  H    3.497620   5.672569   4.638736   5.096287   5.628535
    30  C    2.836329   3.841505   2.438520   2.614021   3.112332
    31  H    3.525053   3.986636   2.689747   2.647540   3.066498
    32  H    2.840617   3.413310   2.700359   3.242606   3.077836
                   16         17         18         19         20
    16  H    0.000000
    17  O    4.524656   0.000000
    18  Cl   2.817570   5.904234   0.000000
    19  C    5.467311   2.286918   6.932069   0.000000
    20  C    4.562115   2.722157   6.374447   1.402292   0.000000
    21  H    4.833209   3.206893   6.996761   2.127226   1.087946
    22  C    6.626707   2.869544   8.262798   1.497577   2.509517
    23  H    6.609415   3.203925   8.557848   2.163213   2.631381
    24  H    6.923400   2.655677   8.396276   2.129395   3.295744
    25  H    7.523683   3.880554   9.063769   2.139039   3.149488
    26  C    5.928219   2.853878   6.784536   1.500489   2.546807
    27  H    5.269944   2.920229   5.816072   2.176180   2.776671
    28  H    6.673068   3.911449   7.478194   2.123281   3.000173
    29  H    6.573676   2.916689   7.276567   2.146156   3.415182
    30  C    3.551574   3.176788   5.202852   2.460503   1.380639
    31  H    3.159869   3.985666   5.110762   3.431522   2.143940
    32  H    3.674984   3.394992   4.703201   2.779921   2.165573
                   21         22         23         24         25
    21  H    0.000000
    22  C    2.659663   0.000000
    23  H    2.320184   1.092325   0.000000
    24  H    3.519020   1.094468   1.778085   0.000000
    25  H    3.316117   1.098872   1.781611   1.766380   0.000000
    26  C    3.499766   2.538098   3.485702   2.799631   2.783023
    27  H    3.843708   3.467083   4.309293   3.682825   3.837217
    28  H    3.892437   2.948703   3.889629   3.397667   2.789037
    29  H    4.266336   2.667560   3.715682   2.504839   2.879390
    30  C    2.116118   3.804630   3.991421   4.466928   4.418949
    31  H    2.439490   4.647828   4.638435   5.365789   5.261567
    32  H    3.099754   4.262088   4.678258   4.803758   4.793551
                   26         27         28         29         30
    26  C    0.000000
    27  H    1.090442   0.000000
    28  H    1.099060   1.769166   0.000000
    29  H    1.091699   1.769674   1.770394   0.000000
    30  C    3.035645   2.742059   3.482464   3.996837   0.000000
    31  H    4.110663   3.788693   4.481860   5.078855   1.084028
    32  H    2.781833   2.145082   3.199324   3.732734   1.083483
                   31         32
    31  H    0.000000
    32  H    1.835348   0.000000
 Stoichiometry    C15H15ClO
 Framework group  C1[X(C15H15ClO)]
 Deg. of freedom    90
 Full point group                 C1      NOp   1
 Largest Abelian subgroup         C1      NOp   1
 Largest concise Abelian subgroup C1      NOp   1
                         Standard orientation:                         
 ---------------------------------------------------------------------
 Center     Atomic      Atomic             Coordinates (Angstroms)
 Number     Number       Type             X           Y           Z
 ---------------------------------------------------------------------
      1          6           0       -2.263100    2.714589    0.363311
      2          6           0       -2.607527    1.374248    0.348988
      3          6           0       -1.684160    0.390511   -0.087784
      4          6           0       -0.380928    0.811052   -0.500799
      5          6           0       -0.065989    2.186393   -0.492307
      6          6           0       -0.984932    3.128896   -0.065047
      7          1           0       -2.987223    3.450876    0.699711
      8          1           0       -3.597204    1.068443    0.668033
      9          1           0        0.921918    2.479051   -0.830811
     10          1           0       -0.725193    4.183323   -0.061097
     11          6           0        0.611539   -0.162319   -0.977305
     12          6           0       -1.990511   -1.014741   -0.151556
     13          6           0        0.235343   -1.538313   -0.951866
     14          1           0        0.896511   -2.251232   -1.428801
     15          6           0       -1.081085   -1.937565   -0.593503
     16          1           0       -1.356623   -2.985520   -0.649076
     17          8           0        1.789984    0.197328   -1.313044
     18         17           0       -3.595342   -1.581440    0.328367
     19          6           0        3.187130   -0.155402    0.462782
     20          6           0        2.773340   -1.489808    0.583458
     21          1           0        3.365476   -2.236158    0.058136
     22          6           0        4.458834    0.167524   -0.259177
     23          1           0        4.834632   -0.679601   -0.837389
     24          1           0        4.290098    1.010118   -0.936985
     25          1           0        5.230840    0.476045    0.459392
     26          6           0        2.623560    0.946067    1.311677
     27          1           0        1.562441    0.822542    1.530382
     28          1           0        3.164308    0.961562    2.268382
     29          1           0        2.765524    1.916322    0.831824
     30          6           0        1.544688   -1.881627    1.076466
     31          1           0        1.272970   -2.930733    1.102212
     32          1           0        0.905255   -1.216216    1.644171
 ---------------------------------------------------------------------
 Rotational constants (GHZ):      0.6733854      0.3199152      0.2434737
 Standard basis: 6-31+G(d,p) (6D, 7F)
 There are   402 symmetry adapted cartesian basis functions of A   symmetry.
 There are   402 symmetry adapted basis functions of A   symmetry.
   402 basis functions,   673 primitive gaussians,   402 cartesian basis functions
    65 alpha electrons       65 beta electrons
       nuclear repulsion energy      1283.0671050542 Hartrees.
 NAtoms=   32 NActive=   32 NUniq=   32 SFac= 1.00D+00 NAtFMM=   60 NAOKFM=F Big=F
 Integral buffers will be    131072 words long.
 Raffenetti 2 integral format.
 Two-electron integral symmetry is turned on.
 Nuclear repulsion after empirical dispersion term =     1283.0293059209 Hartrees.
 Force inversion solution in PCM.
 ------------------------------------------------------------------------------
 Polarizable Continuum Model (PCM)
 =================================
 Model                : C-PCM.
 Atomic radii         : UFF (Universal Force Field).
 Polarization charges : Total charges.
 Charge compensation  : None.
 Solution method      : Matrix inversion.
 Cavity type          : Scaled VdW (van der Waals Surface) (Alpha=1.100).
 Cavity algorithm     : GePol (No added spheres)
                        Default sphere list used, NSphG=   32.
                        Lebedev-Laikov grids with approx.  5.0 points / Ang**2.
                        Smoothing algorithm: Karplus/York (Gamma=1.0000).
                        Polarization charges: spherical gaussians, with
                                              point-specific exponents (IZeta= 3).
                        Self-potential: point-specific (ISelfS= 7).
                        Self-field    : sphere-specific E.n sum rule (ISelfD= 2).
 1st derivatives      : Analytical E(r).r(x)/FMM algorithm (CHGder, D1EAlg=3).
                        Cavity 1st derivative terms included.
 2nd derivatives      : Analytical E(r).r(xy)/FMM algorithm (CHGder, D2EAlg=3).
                        Cavity 2nd derivative terms included.
 Solvent              : Toluene, Eps=   2.374100 Eps(inf)=   2.238315
 ------------------------------------------------------------------------------
 One-electron integrals computed using PRISM.
 NBasis=   402 RedAO= T EigKep=  1.16D-06  NBF=   402
 NBsUse=   400 1.00D-06 EigRej=  7.32D-07 NBFU=   400
 ExpMin= 4.38D-02 ExpMax= 2.52D+04 ExpMxC= 3.78D+03 IAcc=2 IRadAn=         4 AccDes= 0.00D+00
 Harris functional with IExCor=  402 and IRadAn=       4 diagonalized for initial guess.
 HarFok:  IExCor=  402 AccDes= 0.00D+00 IRadAn=         4 IDoV= 1 UseB2=F ITyADJ=14
 ICtDFT=  3500011 ScaDFX=  1.000000  1.000000  1.000000  1.000000
 FoFCou: FMM=F IPFlag=           0 FMFlag=      100000 FMFlg1=           0
         NFxFlg=           0 DoJE=T BraDBF=F KetDBF=T FulRan=T
         wScrn=  0.000000 ICntrl=     500 IOpCl=  0 I1Cent=   200000004 NGrid=           0
         NMat0=    1 NMatS0=      1 NMatT0=    0 NMatD0=    1 NMtDS0=    0 NMtDT0=    0
 Petite list used in FoFCou.
 Requested convergence on RMS density matrix=1.00D-08 within 128 cycles.
 Requested convergence on MAX density matrix=1.00D-06.
 Requested convergence on             energy=1.00D-06.
 No special actions if energy rises.
 Inv3:  Mode=1 IEnd=    15732300.
 Iteration    1 A*A^-1 deviation from unit magnitude is 4.66D-15 for   2254.
 Iteration    1 A*A^-1 deviation from orthogonality  is 2.39D-15 for   2268    963.
 Iteration    1 A^-1*A deviation from unit magnitude is 4.66D-15 for   2254.
 Iteration    1 A^-1*A deviation from orthogonality  is 1.49D-15 for   1594   1081.
 Error on total polarization charges =  0.01272
 SCF Done:  E(RB3LYP) =  -1116.08040789     A.U. after   16 cycles
            NFock= 16  Conv=0.93D-08     -V/T= 2.0071
 DoSCS=F DFT=T ScalE2(SS,OS)=  1.000000  1.000000
 Range of M.O.s used for correlation:     1   400
 NBasis=   402 NAE=    65 NBE=    65 NFC=     0 NFV=     0
 NROrb=    400 NOA=    65 NOB=    65 NVA=   335 NVB=   335

 **** Warning!!: The largest alpha MO coefficient is  0.15833514D+03

 PrsmSu:  requested number of processors reduced to:   3 ShMem   1 Linda.
 Symmetrizing basis deriv contribution to polar:
 IMax=3 JMax=2 DiffMx= 0.00D+00
 G2DrvN: will do    17 centers at a time, making    2 passes.
 Calling FoFCou, ICntrl=  3107 FMM=F I1Cent=   0 AccDes= 0.00D+00.
 Calling FoFCou, ICntrl=  3107 FMM=F I1Cent=   0 AccDes= 0.00D+00.
 NEqPCM:  Using equilibrium solvation (IEInf=0, Eps=   2.3741, EpsInf=   2.2383)
 G2PCM: DoFxE=T DoFxN=T DoGrad=T DoDP/DQ/DG/TGxP=FFFF NFrqRd=   0 IEInf=0 SqF1=F DoCFld=F IF1Alg=4.
 End of G2Drv F.D. properties file   721 does not exist.
 End of G2Drv F.D. properties file   722 does not exist.
 End of G2Drv F.D. properties file   788 does not exist.
          IDoAtm=11111111111111111111111111111111
 NEqPCM:  Using equilibrium solvation (IEInf=0, Eps=   2.3741, EpsInf=   2.2383)
          Differentiating once with respect to electric field.
                with respect to dipole field.
          Differentiating once with respect to nuclear coordinates.
          There are    99 degrees of freedom in the 1st order CPHF.  IDoFFX=6 NUNeed=     3.
     99 vectors produced by pass  0 Test12= 2.20D-14 1.01D-09 XBig12= 6.32D+02 1.93D+01.
 AX will form    52 AO Fock derivatives at one time.
     99 vectors produced by pass  1 Test12= 2.20D-14 1.01D-09 XBig12= 1.18D+02 1.53D+00.
     96 vectors produced by pass  2 Test12= 2.20D-14 1.01D-09 XBig12= 9.49D-01 1.22D-01.
     96 vectors produced by pass  3 Test12= 2.20D-14 1.01D-09 XBig12= 4.62D-03 6.25D-03.
     96 vectors produced by pass  4 Test12= 2.20D-14 1.01D-09 XBig12= 1.20D-05 3.23D-04.
     96 vectors produced by pass  5 Test12= 2.20D-14 1.01D-09 XBig12= 2.00D-08 9.36D-06.
     66 vectors produced by pass  6 Test12= 2.20D-14 1.01D-09 XBig12= 3.21D-11 4.16D-07.
 PrRfSu:  requested number of processors reduced to:   3 ShMem   1 Linda.
     24 vectors produced by pass  7 Test12= 2.20D-14 1.01D-09 XBig12= 1.25D-12 7.80D-08.
     11 vectors produced by pass  8 Test12= 2.20D-14 1.01D-09 XBig12= 1.46D-14 9.58D-09.
     11 vectors produced by pass  9 Test12= 2.20D-14 1.01D-09 XBig12= 4.83D-15 6.72D-09.
     11 vectors produced by pass 10 Test12= 2.20D-14 1.01D-09 XBig12= 3.77D-14 1.63D-08.
     11 vectors produced by pass 11 Test12= 2.20D-14 1.01D-09 XBig12= 1.66D-14 1.07D-08.
     11 vectors produced by pass 12 Test12= 2.20D-14 1.01D-09 XBig12= 3.38D-14 1.34D-08.
     11 vectors produced by pass 13 Test12= 2.20D-14 1.01D-09 XBig12= 2.48D-14 1.30D-08.
      9 vectors produced by pass 14 Test12= 2.20D-14 1.01D-09 XBig12= 2.31D-14 9.93D-09.
      7 vectors produced by pass 15 Test12= 2.20D-14 1.01D-09 XBig12= 1.77D-14 1.14D-08.
      7 vectors produced by pass 16 Test12= 2.20D-14 1.01D-09 XBig12= 1.40D-14 9.46D-09.
      6 vectors produced by pass 17 Test12= 2.20D-14 1.01D-09 XBig12= 1.35D-14 8.78D-09.
      6 vectors produced by pass 18 Test12= 2.20D-14 1.01D-09 XBig12= 2.23D-14 1.32D-08.
      3 vectors produced by pass 19 Test12= 2.20D-14 1.01D-09 XBig12= 1.20D-14 7.55D-09.
      3 vectors produced by pass 20 Test12= 2.20D-14 1.01D-09 XBig12= 1.75D-14 9.54D-09.
      3 vectors produced by pass 21 Test12= 2.20D-14 1.01D-09 XBig12= 5.50D-15 4.96D-09.
      3 vectors produced by pass 22 Test12= 2.20D-14 1.01D-09 XBig12= 1.57D-14 1.01D-08.
      3 vectors produced by pass 23 Test12= 2.20D-14 1.01D-09 XBig12= 1.98D-14 1.04D-08.
      3 vectors produced by pass 24 Test12= 2.20D-14 1.01D-09 XBig12= 7.95D-15 7.06D-09.
      3 vectors produced by pass 25 Test12= 2.20D-14 1.01D-09 XBig12= 1.55D-14 9.16D-09.
      3 vectors produced by pass 26 Test12= 2.20D-14 1.01D-09 XBig12= 2.82D-14 1.21D-08.
      3 vectors produced by pass 27 Test12= 2.20D-14 1.01D-09 XBig12= 1.05D-14 8.42D-09.
      3 vectors produced by pass 28 Test12= 2.20D-14 1.01D-09 XBig12= 1.02D-14 8.22D-09.
      3 vectors produced by pass 29 Test12= 2.20D-14 1.01D-09 XBig12= 9.96D-15 7.10D-09.
      3 vectors produced by pass 30 Test12= 2.20D-14 1.01D-09 XBig12= 1.38D-14 1.05D-08.
      3 vectors produced by pass 31 Test12= 2.20D-14 1.01D-09 XBig12= 1.27D-14 8.96D-09.
      3 vectors produced by pass 32 Test12= 2.20D-14 1.01D-09 XBig12= 2.98D-15 4.00D-09.
      3 vectors produced by pass 33 Test12= 2.20D-14 1.01D-09 XBig12= 1.44D-14 8.07D-09.
      3 vectors produced by pass 34 Test12= 2.20D-14 1.01D-09 XBig12= 7.26D-15 5.92D-09.
      3 vectors produced by pass 35 Test12= 2.20D-14 1.01D-09 XBig12= 1.72D-14 1.00D-08.
      3 vectors produced by pass 36 Test12= 2.20D-14 1.01D-09 XBig12= 5.14D-15 5.75D-09.
      3 vectors produced by pass 37 Test12= 2.20D-14 1.01D-09 XBig12= 7.76D-15 7.60D-09.
      3 vectors produced by pass 38 Test12= 2.20D-14 1.01D-09 XBig12= 2.46D-14 1.27D-08.
      3 vectors produced by pass 39 Test12= 2.20D-14 1.01D-09 XBig12= 3.28D-15 4.03D-09.
      3 vectors produced by pass 40 Test12= 2.20D-14 1.01D-09 XBig12= 1.92D-14 1.02D-08.
      3 vectors produced by pass 41 Test12= 2.20D-14 1.01D-09 XBig12= 6.76D-15 6.63D-09.
      3 vectors produced by pass 42 Test12= 2.20D-14 1.01D-09 XBig12= 1.20D-14 8.52D-09.
      3 vectors produced by pass 43 Test12= 2.20D-14 1.01D-09 XBig12= 1.55D-14 7.91D-09.
      3 vectors produced by pass 44 Test12= 2.20D-14 1.01D-09 XBig12= 4.26D-15 5.40D-09.
      3 vectors produced by pass 45 Test12= 2.20D-14 1.01D-09 XBig12= 1.66D-14 9.23D-09.
      3 vectors produced by pass 46 Test12= 2.20D-14 1.01D-09 XBig12= 9.39D-15 7.72D-09.
      3 vectors produced by pass 47 Test12= 2.20D-14 1.01D-09 XBig12= 9.02D-15 6.08D-09.
      3 vectors produced by pass 48 Test12= 2.20D-14 1.01D-09 XBig12= 1.23D-14 1.00D-08.
      3 vectors produced by pass 49 Test12= 2.20D-14 1.01D-09 XBig12= 2.25D-15 3.54D-09.
      3 vectors produced by pass 50 Test12= 2.20D-14 1.01D-09 XBig12= 5.32D-15 4.69D-09.
      3 vectors produced by pass 51 Test12= 2.20D-14 1.01D-09 XBig12= 1.16D-14 8.00D-09.
      3 vectors produced by pass 52 Test12= 2.20D-14 1.01D-09 XBig12= 1.23D-14 7.44D-09.
      3 vectors produced by pass 53 Test12= 2.20D-14 1.01D-09 XBig12= 4.08D-15 4.64D-09.
      3 vectors produced by pass 54 Test12= 2.20D-14 1.01D-09 XBig12= 7.91D-15 6.41D-09.
      3 vectors produced by pass 55 Test12= 2.20D-14 1.01D-09 XBig12= 4.85D-15 4.91D-09.
      3 vectors produced by pass 56 Test12= 2.20D-14 1.01D-09 XBig12= 1.81D-14 9.15D-09.
      3 vectors produced by pass 57 Test12= 2.20D-14 1.01D-09 XBig12= 7.58D-15 6.63D-09.
      3 vectors produced by pass 58 Test12= 2.20D-14 1.01D-09 XBig12= 8.41D-15 6.85D-09.
      3 vectors produced by pass 59 Test12= 2.20D-14 1.01D-09 XBig12= 9.43D-15 7.41D-09.
      3 vectors produced by pass 60 Test12= 2.20D-14 1.01D-09 XBig12= 5.06D-15 4.88D-09.
      3 vectors produced by pass 61 Test12= 2.20D-14 1.01D-09 XBig12= 4.45D-15 5.06D-09.
      3 vectors produced by pass 62 Test12= 2.20D-14 1.01D-09 XBig12= 1.93D-15 2.92D-09.
      3 vectors produced by pass 63 Test12= 2.20D-14 1.01D-09 XBig12= 1.36D-14 8.72D-09.
      3 vectors produced by pass 64 Test12= 2.20D-14 1.01D-09 XBig12= 5.95D-15 5.30D-09.
      3 vectors produced by pass 65 Test12= 2.20D-14 1.01D-09 XBig12= 7.97D-15 7.37D-09.
      3 vectors produced by pass 66 Test12= 2.20D-14 1.01D-09 XBig12= 5.38D-15 4.95D-09.
      3 vectors produced by pass 67 Test12= 2.20D-14 1.01D-09 XBig12= 6.60D-15 5.40D-09.
      3 vectors produced by pass 68 Test12= 2.20D-14 1.01D-09 XBig12= 2.02D-15 3.00D-09.
      3 vectors produced by pass 69 Test12= 2.20D-14 1.01D-09 XBig12= 9.85D-15 7.95D-09.
      3 vectors produced by pass 70 Test12= 2.20D-14 1.01D-09 XBig12= 3.83D-15 5.22D-09.
      3 vectors produced by pass 71 Test12= 2.20D-14 1.01D-09 XBig12= 7.16D-15 6.27D-09.
      3 vectors produced by pass 72 Test12= 2.20D-14 1.01D-09 XBig12= 6.03D-15 5.54D-09.
      3 vectors produced by pass 73 Test12= 2.20D-14 1.01D-09 XBig12= 5.44D-15 5.41D-09.
      3 vectors produced by pass 74 Test12= 2.20D-14 1.01D-09 XBig12= 4.83D-15 5.06D-09.
      3 vectors produced by pass 75 Test12= 2.20D-14 1.01D-09 XBig12= 7.41D-15 5.68D-09.
      3 vectors produced by pass 76 Test12= 2.20D-14 1.01D-09 XBig12= 3.57D-15 3.54D-09.
      3 vectors produced by pass 77 Test12= 2.20D-14 1.01D-09 XBig12= 4.61D-15 4.20D-09.
      3 vectors produced by pass 78 Test12= 2.20D-14 1.01D-09 XBig12= 7.26D-15 5.87D-09.
      3 vectors produced by pass 79 Test12= 2.20D-14 1.01D-09 XBig12= 4.72D-15 5.28D-09.
      3 vectors produced by pass 80 Test12= 2.20D-14 1.01D-09 XBig12= 2.75D-15 4.54D-09.
      3 vectors produced by pass 81 Test12= 2.20D-14 1.01D-09 XBig12= 2.85D-15 3.08D-09.
      3 vectors produced by pass 82 Test12= 2.20D-14 1.01D-09 XBig12= 4.78D-15 4.10D-09.
      3 vectors produced by pass 83 Test12= 2.20D-14 1.01D-09 XBig12= 2.75D-15 3.00D-09.
      3 vectors produced by pass 84 Test12= 2.20D-14 1.01D-09 XBig12= 5.23D-15 5.24D-09.
      3 vectors produced by pass 85 Test12= 2.20D-14 1.01D-09 XBig12= 6.19D-15 6.25D-09.
      3 vectors produced by pass 86 Test12= 2.20D-14 1.01D-09 XBig12= 4.11D-15 3.89D-09.
      3 vectors produced by pass 87 Test12= 2.20D-14 1.01D-09 XBig12= 6.05D-15 4.63D-09.
      3 vectors produced by pass 88 Test12= 2.20D-14 1.01D-09 XBig12= 3.03D-15 4.49D-09.
      3 vectors produced by pass 89 Test12= 2.20D-14 1.01D-09 XBig12= 1.77D-15 2.62D-09.
      3 vectors produced by pass 90 Test12= 2.20D-14 1.01D-09 XBig12= 5.32D-15 4.40D-09.
      3 vectors produced by pass 91 Test12= 2.20D-14 1.01D-09 XBig12= 3.30D-15 4.66D-09.
      3 vectors produced by pass 92 Test12= 2.20D-14 1.01D-09 XBig12= 3.13D-15 3.67D-09.
      3 vectors produced by pass 93 Test12= 2.20D-14 1.01D-09 XBig12= 4.15D-15 4.48D-09.
      3 vectors produced by pass 94 Test12= 2.20D-14 1.01D-09 XBig12= 8.32D-15 7.51D-09.
      3 vectors produced by pass 95 Test12= 2.20D-14 1.01D-09 XBig12= 3.24D-15 3.60D-09.
      3 vectors produced by pass 96 Test12= 2.20D-14 1.01D-09 XBig12= 2.19D-15 3.19D-09.
      3 vectors produced by pass 97 Test12= 2.20D-14 1.01D-09 XBig12= 3.52D-15 4.13D-09.
      3 vectors produced by pass 98 Test12= 2.20D-14 1.01D-09 XBig12= 3.61D-15 3.79D-09.
      3 vectors produced by pass 99 Test12= 2.20D-14 1.01D-09 XBig12= 3.35D-15 3.97D-09.
      3 vectors produced by pass100 Test12= 2.20D-14 1.01D-09 XBig12= 3.85D-15 4.26D-09.
      3 vectors produced by pass101 Test12= 2.20D-14 1.01D-09 XBig12= 4.12D-15 4.39D-09.
      3 vectors produced by pass102 Test12= 2.20D-14 1.01D-09 XBig12= 5.10D-15 5.49D-09.
      3 vectors produced by pass103 Test12= 2.20D-14 1.01D-09 XBig12= 1.56D-15 2.32D-09.
      3 vectors produced by pass104 Test12= 2.20D-14 1.01D-09 XBig12= 5.36D-15 4.48D-09.
      2 vectors produced by pass105 Test12= 2.20D-14 1.01D-09 XBig12= 2.41D-15 3.20D-09.
 InvSVY:  IOpt=1 It=  1 EMax= 5.33D-14
 Solved reduced A of dimension  1033 with    99 vectors.
 Isotropic polarizability for W=    0.000000      273.49 Bohr**3.
 End of Minotr F.D. properties file   721 does not exist.
 End of Minotr F.D. properties file   722 does not exist.
 End of Minotr F.D. properties file   788 does not exist.

 **********************************************************************

            Population analysis using the SCF density.

 **********************************************************************

 Orbital symmetries:
       Occupied  (A) (A) (A) (A) (A) (A) (A) (A) (A) (A) (A) (A)
                 (A) (A) (A) (A) (A) (A) (A) (A) (A) (A) (A) (A)
                 (A) (A) (A) (A) (A) (A) (A) (A) (A) (A) (A) (A)
                 (A) (A) (A) (A) (A) (A) (A) (A) (A) (A) (A) (A)
                 (A) (A) (A) (A) (A) (A) (A) (A) (A) (A) (A) (A)
                 (A) (A) (A) (A) (A)
       Virtual   (A) (A) (A) (A) (A) (A) (A) (A) (A) (A) (A) (A)
                 (A) (A) (A) (A) (A) (A) (A) (A) (A) (A) (A) (A)
                 (A) (A) (A) (A) (A) (A) (A) (A) (A) (A) (A) (A)
                 (A) (A) (A) (A) (A) (A) (A) (A) (A) (A) (A) (A)
                 (A) (A) (A) (A) (A) (A) (A) (A) (A) (A) (A) (A)
                 (A) (A) (A) (A) (A) (A) (A) (A) (A) (A) (A) (A)
                 (A) (A) (A) (A) (A) (A) (A) (A) (A) (A) (A) (A)
                 (A) (A) (A) (A) (A) (A) (A) (A) (A) (A) (A) (A)
                 (A) (A) (A) (A) (A) (A) (A) (A) (A) (A) (A) (A)
                 (A) (A) (A) (A) (A) (A) (A) (A) (A) (A) (A) (A)
                 (A) (A) (A) (A) (A) (A) (A) (A) (A) (A) (A) (A)
                 (A) (A) (A) (A) (A) (A) (A) (A) (A) (A) (A) (A)
                 (A) (A) (A) (A) (A) (A) (A) (A) (A) (A) (A) (A)
                 (A) (A) (A) (A) (A) (A) (A) (A) (A) (A) (A) (A)
                 (A) (A) (A) (A) (A) (A) (A) (A) (A) (A) (A) (A)
                 (A) (A) (A) (A) (A) (A) (A) (A) (A) (A) (A) (A)
                 (A) (A) (A) (A) (A) (A) (A) (A) (A) (A) (A) (A)
                 (A) (A) (A) (A) (A) (A) (A) (A) (A) (A) (A) (A)
                 (A) (A) (A) (A) (A) (A) (A) (A) (A) (A) (A) (A)
                 (A) (A) (A) (A) (A) (A) (A) (A) (A) (A) (A) (A)
                 (A) (A) (A) (A) (A) (A) (A) (A) (A) (A) (A) (A)
                 (A) (A) (A) (A) (A) (A) (A) (A) (A) (A) (A) (A)
                 (A) (A) (A) (A) (A) (A) (A) (A) (A) (A) (A) (A)
                 (A) (A) (A) (A) (A) (A) (A) (A) (A) (A) (A) (A)
                 (A) (A) (A) (A) (A) (A) (A) (A) (A) (A) (A) (A)
                 (A) (A) (A) (A) (A) (A) (A) (A) (A) (A) (A) (A)
                 (A) (A) (A) (A) (A) (A) (A) (A) (A) (A) (A) (A)
                 (A) (A) (A) (A) (A) (A) (A) (A) (A) (A) (A)
 The electronic state is 1-A.
 Alpha  occ. eigenvalues -- -101.55747 -19.13079 -10.25608 -10.25188 -10.25170
 Alpha  occ. eigenvalues --  -10.22572 -10.21990 -10.20871 -10.20667 -10.20564
 Alpha  occ. eigenvalues --  -10.20284 -10.20225 -10.20121 -10.20019 -10.19832
 Alpha  occ. eigenvalues --  -10.19477 -10.19338  -9.47219  -7.23611  -7.22669
 Alpha  occ. eigenvalues --   -7.22640  -1.00966  -0.89659  -0.85619  -0.84155
 Alpha  occ. eigenvalues --   -0.81514  -0.76378  -0.76110  -0.75193  -0.71058
 Alpha  occ. eigenvalues --   -0.70143  -0.64081  -0.63205  -0.62629  -0.57719
 Alpha  occ. eigenvalues --   -0.54034  -0.52102  -0.51735  -0.49710  -0.48971
 Alpha  occ. eigenvalues --   -0.46873  -0.46331  -0.45982  -0.44082  -0.43233
 Alpha  occ. eigenvalues --   -0.42611  -0.41686  -0.41545  -0.40984  -0.39948
 Alpha  occ. eigenvalues --   -0.39114  -0.39046  -0.37529  -0.37495  -0.36412
 Alpha  occ. eigenvalues --   -0.36044  -0.35822  -0.34762  -0.31858  -0.30575
 Alpha  occ. eigenvalues --   -0.29537  -0.26824  -0.25753  -0.24785  -0.20634
 Alpha virt. eigenvalues --   -0.09146  -0.04536  -0.02512  -0.00016   0.00402
 Alpha virt. eigenvalues --    0.01026   0.01429   0.01802   0.02408   0.02794
 Alpha virt. eigenvalues --    0.03085   0.03363   0.04158   0.04634   0.04916
 Alpha virt. eigenvalues --    0.05592   0.05970   0.06441   0.06738   0.07362
 Alpha virt. eigenvalues --    0.07616   0.07964   0.08416   0.08643   0.09251
 Alpha virt. eigenvalues --    0.09837   0.10311   0.10745   0.10974   0.11312
 Alpha virt. eigenvalues --    0.11991   0.12167   0.12604   0.13388   0.14048
 Alpha virt. eigenvalues --    0.14293   0.14597   0.15017   0.15158   0.15683
 Alpha virt. eigenvalues --    0.16065   0.16596   0.17120   0.17671   0.18053
 Alpha virt. eigenvalues --    0.18141   0.18558   0.18896   0.19386   0.19761
 Alpha virt. eigenvalues --    0.19963   0.20727   0.20945   0.21331   0.21385
 Alpha virt. eigenvalues --    0.21684   0.22402   0.22494   0.22839   0.23079
 Alpha virt. eigenvalues --    0.23392   0.23923   0.24197   0.24430   0.24992
 Alpha virt. eigenvalues --    0.25369   0.25692   0.25960   0.26262   0.26770
 Alpha virt. eigenvalues --    0.27155   0.27519   0.27972   0.28160   0.28612
 Alpha virt. eigenvalues --    0.28922   0.29080   0.29598   0.30147   0.30939
 Alpha virt. eigenvalues --    0.31271   0.31508   0.32098   0.32927   0.34011
 Alpha virt. eigenvalues --    0.34253   0.35321   0.35759   0.36535   0.37612
 Alpha virt. eigenvalues --    0.37913   0.38482   0.39495   0.39974   0.40306
 Alpha virt. eigenvalues --    0.41625   0.43216   0.43874   0.45625   0.47200
 Alpha virt. eigenvalues --    0.49648   0.52228   0.53085   0.57590   0.59673
 Alpha virt. eigenvalues --    0.62430   0.63946   0.64346   0.65198   0.67164
 Alpha virt. eigenvalues --    0.67851   0.68297   0.68991   0.69252   0.70027
 Alpha virt. eigenvalues --    0.70215   0.71201   0.72071   0.72446   0.72913
 Alpha virt. eigenvalues --    0.73476   0.74291   0.74833   0.75631   0.76142
 Alpha virt. eigenvalues --    0.76731   0.77277   0.78337   0.78690   0.80425
 Alpha virt. eigenvalues --    0.80686   0.82414   0.84011   0.84292   0.85052
 Alpha virt. eigenvalues --    0.85841   0.86448   0.86669   0.87762   0.88507
 Alpha virt. eigenvalues --    0.89106   0.89464   0.91288   0.92355   0.92582
 Alpha virt. eigenvalues --    0.92971   0.94452   0.96505   0.97228   0.97549
 Alpha virt. eigenvalues --    0.98388   0.99382   0.99659   1.00123   1.01121
 Alpha virt. eigenvalues --    1.02152   1.02861   1.04421   1.05908   1.06974
 Alpha virt. eigenvalues --    1.08364   1.09771   1.10650   1.11252   1.13394
 Alpha virt. eigenvalues --    1.14505   1.14979   1.15777   1.16092   1.18697
 Alpha virt. eigenvalues --    1.19937   1.21131   1.22357   1.23771   1.24968
 Alpha virt. eigenvalues --    1.25781   1.26392   1.27311   1.29041   1.29804
 Alpha virt. eigenvalues --    1.31365   1.34543   1.35400   1.35792   1.37321
 Alpha virt. eigenvalues --    1.38074   1.38687   1.39724   1.40800   1.41929
 Alpha virt. eigenvalues --    1.42538   1.44847   1.46165   1.46629   1.47324
 Alpha virt. eigenvalues --    1.47826   1.50592   1.51213   1.53056   1.57540
 Alpha virt. eigenvalues --    1.59419   1.60938   1.67523   1.71632   1.74727
 Alpha virt. eigenvalues --    1.76688   1.77238   1.79136   1.80812   1.82634
 Alpha virt. eigenvalues --    1.83362   1.84561   1.86120   1.87809   1.89025
 Alpha virt. eigenvalues --    1.89871   1.90854   1.91231   1.92702   1.93341
 Alpha virt. eigenvalues --    1.95382   1.97043   1.98415   1.99378   2.00105
 Alpha virt. eigenvalues --    2.00373   2.01318   2.02891   2.04088   2.04281
 Alpha virt. eigenvalues --    2.04623   2.05666   2.06622   2.07731   2.10497
 Alpha virt. eigenvalues --    2.11091   2.12049   2.12912   2.14425   2.15872
 Alpha virt. eigenvalues --    2.16579   2.18608   2.19269   2.21333   2.23795
 Alpha virt. eigenvalues --    2.24948   2.26422   2.28296   2.30330   2.31693
 Alpha virt. eigenvalues --    2.33302   2.34114   2.36036   2.37140   2.37632
 Alpha virt. eigenvalues --    2.38952   2.40746   2.42165   2.44289   2.45154
 Alpha virt. eigenvalues --    2.46433   2.46926   2.48188   2.49886   2.50903
 Alpha virt. eigenvalues --    2.53553   2.54971   2.55991   2.58059   2.58476
 Alpha virt. eigenvalues --    2.58844   2.59603   2.61291   2.61977   2.63975
 Alpha virt. eigenvalues --    2.65902   2.66432   2.66920   2.67614   2.69178
 Alpha virt. eigenvalues --    2.70351   2.71135   2.73630   2.74480   2.76755
 Alpha virt. eigenvalues --    2.80762   2.81953   2.82206   2.84035   2.86290
 Alpha virt. eigenvalues --    2.86834   2.88635   2.94741   2.94955   3.02211
 Alpha virt. eigenvalues --    3.04615   3.06191   3.10208   3.15257   3.16448
 Alpha virt. eigenvalues --    3.22683   3.25210   3.26240   3.27590   3.29061
 Alpha virt. eigenvalues --    3.33091   3.34805   3.36261   3.38397   3.43780
 Alpha virt. eigenvalues --    3.45017   3.45535   3.49870   3.51158   3.51868
 Alpha virt. eigenvalues --    3.66274   3.68173   3.85656   4.26321   4.31855
 Alpha virt. eigenvalues --    4.35970   4.36329   4.38411   4.40775   4.42010
 Alpha virt. eigenvalues --    4.45197   4.49132   4.51191   4.54852   4.55877
 Alpha virt. eigenvalues --    4.61268   4.67724   4.72675   4.87113   5.02841
          Condensed to atoms (all electrons):
               1          2          3          4          5          6
     1  C    6.388935  -1.419109   1.159390  -0.344751  -0.083461   0.647694
     2  C   -1.419109  12.734848  -5.730206   0.420731   0.935677  -0.353513
     3  C    1.159390  -5.730206  17.238074   1.990410  -3.580746   0.330857
     4  C   -0.344751   0.420731   1.990410  19.721242 -10.322266   2.369598
     5  C   -0.083461   0.935677  -3.580746 -10.322266  20.177529  -4.056161
     6  C    0.647694  -0.353513   0.330857   2.369598  -4.056161   7.893897
     7  H    0.306930  -0.025192   0.029177  -0.014836   0.026938  -0.005556
     8  H    0.126309   0.208958  -0.020784   0.010631   0.003566   0.007325
     9  H    0.005737  -0.006478   0.022464   0.002833   0.300430  -0.058525
    10  H   -0.032308   0.058975  -0.006078   0.058342  -0.120447   0.373271
    11  C    0.397652  -1.356139  -3.001623  -6.527930   3.688435  -1.180127
    12  C   -0.239002  -0.069452  -1.636670  -0.621043  -1.401235   0.500472
    13  C   -0.176343   0.657311   1.043804  -1.016406  -0.862367  -0.152652
    14  H   -0.000934   0.004784  -0.025561   0.083407  -0.002034   0.003464
    15  C   -0.268377   0.242527  -2.209561   0.361895   1.666435  -0.162379
    16  H    0.003617   0.000870   0.082946  -0.031542   0.001971  -0.000854
    17  O   -0.023380   0.083828  -0.112650  -0.308325   0.075909   0.047723
    18  Cl  -0.001339   0.010830  -0.092151  -0.004424  -0.119059   0.024092
    19  C   -0.025991   0.027757   0.033536   0.396865  -0.118912  -0.021772
    20  C    0.013445  -0.021717   0.168576  -0.036021  -0.146656  -0.048481
    21  H   -0.000027  -0.000242  -0.003309   0.006155   0.002019   0.000351
    22  C   -0.003661   0.005297   0.032069   0.180821  -0.093330  -0.002699
    23  H   -0.000006  -0.000008  -0.000136   0.000346  -0.001810  -0.000083
    24  H   -0.000100   0.000324   0.000514   0.021740  -0.005868   0.004204
    25  H    0.000034  -0.000047  -0.000408  -0.009723   0.003938  -0.000470
    26  C    0.020784  -0.015384  -0.077415  -0.404666   0.201400   0.086512
    27  H    0.006679  -0.023747   0.016391  -0.083184   0.060175  -0.013635
    28  H   -0.000465   0.001643  -0.002123  -0.014391   0.008237   0.002142
    29  H   -0.001153   0.003843  -0.003908   0.049317  -0.037375   0.019053
    30  C   -0.003937   0.010965  -0.198674  -0.288171   0.217082   0.006989
    31  H   -0.000254   0.004213  -0.003156   0.000086   0.001843   0.000437
    32  H   -0.000644  -0.021772  -0.065113  -0.011816   0.028867   0.004244
               7          8          9         10         11         12
     1  C    0.306930   0.126309   0.005737  -0.032308   0.397652  -0.239002
     2  C   -0.025192   0.208958  -0.006478   0.058975  -1.356139  -0.069452
     3  C    0.029177  -0.020784   0.022464  -0.006078  -3.001623  -1.636670
     4  C   -0.014836   0.010631   0.002833   0.058342  -6.527930  -0.621043
     5  C    0.026938   0.003566   0.300430  -0.120447   3.688435  -1.401235
     6  C   -0.005556   0.007325  -0.058525   0.373271  -1.180127   0.500472
     7  H    0.557540  -0.005207  -0.000163  -0.004578   0.000895  -0.003269
     8  H   -0.005207   0.554305   0.000014  -0.000161   0.005416  -0.038305
     9  H   -0.000163   0.000014   0.555246  -0.004823   0.006472  -0.009612
    10  H   -0.004578  -0.000161  -0.004823   0.559322  -0.020609   0.004231
    11  C    0.000895   0.005416   0.006472  -0.020609  15.662573   2.620391
    12  C   -0.003269  -0.038305  -0.009612   0.004231   2.620391  11.030334
    13  C   -0.000622  -0.003173   0.032841  -0.000383  -3.141576  -1.505524
    14  H    0.000000   0.000000  -0.000006   0.000000   0.069452  -0.003794
    15  C    0.000103   0.010075   0.001288  -0.001136  -1.400666  -2.310555
    16  H    0.000000  -0.000004   0.000000   0.000000   0.009922   0.118779
    17  O    0.000006   0.000025   0.005859   0.000141   0.352348  -0.108901
    18  Cl   0.000318  -0.006941   0.000022   0.000095   0.048502  -0.239520
    19  C    0.000057  -0.000088  -0.010174  -0.000030  -0.641184  -0.144491
    20  C   -0.000011   0.000033  -0.000996   0.000204   0.551906   0.095137
    21  H    0.000000   0.000000   0.000000   0.000000  -0.008665  -0.001856
    22  C   -0.000001  -0.000003   0.000957   0.000036  -0.054684  -0.000267
    23  H    0.000000   0.000000   0.000001   0.000000   0.004289   0.000432
    24  H    0.000000   0.000000   0.000139   0.000000  -0.021340   0.000252
    25  H    0.000000   0.000000  -0.000002   0.000000   0.006372  -0.000097
    26  C   -0.000134   0.000080   0.010178   0.000206  -0.060417  -0.000574
    27  H    0.000000   0.000000  -0.000569  -0.000004   0.083339   0.001449
    28  H    0.000000   0.000000   0.000029   0.000000  -0.009238  -0.001195
    29  H    0.000000   0.000000   0.000886  -0.000006  -0.022870   0.002611
    30  C    0.000020   0.000099  -0.000139  -0.000086   0.141116   0.054314
    31  H    0.000000   0.000000   0.000000   0.000000  -0.031171  -0.010943
    32  H    0.000000   0.000000   0.000002   0.000000   0.065342   0.006047
              13         14         15         16         17         18
     1  C   -0.176343  -0.000934  -0.268377   0.003617  -0.023380  -0.001339
     2  C    0.657311   0.004784   0.242527   0.000870   0.083828   0.010830
     3  C    1.043804  -0.025561  -2.209561   0.082946  -0.112650  -0.092151
     4  C   -1.016406   0.083407   0.361895  -0.031542  -0.308325  -0.004424
     5  C   -0.862367  -0.002034   1.666435   0.001971   0.075909  -0.119059
     6  C   -0.152652   0.003464  -0.162379  -0.000854   0.047723   0.024092
     7  H   -0.000622   0.000000   0.000103   0.000000   0.000006   0.000318
     8  H   -0.003173   0.000000   0.010075  -0.000004   0.000025  -0.006941
     9  H    0.032841  -0.000006   0.001288   0.000000   0.005859   0.000022
    10  H   -0.000383   0.000000  -0.001136   0.000000   0.000141   0.000095
    11  C   -3.141576   0.069452  -1.400666   0.009922   0.352348   0.048502
    12  C   -1.505524  -0.003794  -2.310555   0.118779  -0.108901  -0.239520
    13  C   11.311293   0.238116  -0.415534  -0.064704  -0.192961   0.120911
    14  H    0.238116   0.552751  -0.075385  -0.004645   0.005453   0.000745
    15  C   -0.415534  -0.075385  10.559138   0.188520   0.140802  -0.141060
    16  H   -0.064704  -0.004645   0.188520   0.541162  -0.000786   0.003070
    17  O   -0.192961   0.005453   0.140802  -0.000786   8.505967  -0.000659
    18  Cl   0.120911   0.000745  -0.141060   0.003070  -0.000659  17.156359
    19  C    0.063883  -0.008314   0.268478  -0.003849   0.224757  -0.000971
    20  C   -0.111938  -0.016914  -0.456087   0.008385  -0.077120   0.016255
    21  H   -0.002487   0.000309   0.013715  -0.000003  -0.001801   0.000002
    22  C   -0.043692   0.002348  -0.028393   0.000036  -0.081410   0.001011
    23  H    0.001548  -0.000008   0.000786   0.000000   0.000147   0.000000
    24  H   -0.004498   0.000001  -0.001471   0.000000  -0.008005   0.000002
    25  H    0.000526   0.000000   0.000436   0.000000   0.002639   0.000000
    26  C    0.087797  -0.008179   0.071599   0.000209   0.017413  -0.001711
    27  H   -0.029020  -0.000012  -0.003104   0.000000  -0.009231   0.000163
    28  H    0.006418   0.000000   0.000403   0.000000   0.005431  -0.000010
    29  H   -0.006572   0.000002  -0.001871   0.000000  -0.008850   0.000014
    30  C    0.082100   0.029014   0.197444   0.000256  -0.043045  -0.011414
    31  H    0.035473  -0.001863  -0.013252   0.000301   0.002675   0.000741
    32  H   -0.106465   0.000977   0.083317  -0.000123  -0.000829   0.000940
              19         20         21         22         23         24
     1  C   -0.025991   0.013445  -0.000027  -0.003661  -0.000006  -0.000100
     2  C    0.027757  -0.021717  -0.000242   0.005297  -0.000008   0.000324
     3  C    0.033536   0.168576  -0.003309   0.032069  -0.000136   0.000514
     4  C    0.396865  -0.036021   0.006155   0.180821   0.000346   0.021740
     5  C   -0.118912  -0.146656   0.002019  -0.093330  -0.001810  -0.005868
     6  C   -0.021772  -0.048481   0.000351  -0.002699  -0.000083   0.004204
     7  H    0.000057  -0.000011   0.000000  -0.000001   0.000000   0.000000
     8  H   -0.000088   0.000033   0.000000  -0.000003   0.000000   0.000000
     9  H   -0.010174  -0.000996   0.000000   0.000957   0.000001   0.000139
    10  H   -0.000030   0.000204   0.000000   0.000036   0.000000   0.000000
    11  C   -0.641184   0.551906  -0.008665  -0.054684   0.004289  -0.021340
    12  C   -0.144491   0.095137  -0.001856  -0.000267   0.000432   0.000252
    13  C    0.063883  -0.111938  -0.002487  -0.043692   0.001548  -0.004498
    14  H   -0.008314  -0.016914   0.000309   0.002348  -0.000008   0.000001
    15  C    0.268478  -0.456087   0.013715  -0.028393   0.000786  -0.001471
    16  H   -0.003849   0.008385  -0.000003   0.000036   0.000000   0.000000
    17  O    0.224757  -0.077120  -0.001801  -0.081410   0.000147  -0.008005
    18  Cl  -0.000971   0.016255   0.000002   0.001011   0.000000   0.000002
    19  C    7.906876  -1.111989   0.003145  -0.642752  -0.139167  -0.066282
    20  C   -1.111989   7.093425   0.302114   0.363089  -0.003992   0.019941
    21  H    0.003145   0.302114   0.575440  -0.028534   0.004474   0.000118
    22  C   -0.642752   0.363089  -0.028534   6.210065   0.501059   0.461855
    23  H   -0.139167  -0.003992   0.004474   0.501059   0.537254  -0.023053
    24  H   -0.066282   0.019941   0.000118   0.461855  -0.023053   0.507598
    25  H   -0.066326  -0.006833   0.000255   0.393224  -0.026076  -0.028606
    26  C   -0.456539  -0.156059   0.007993  -0.419351  -0.002140  -0.042415
    27  H   -0.081015  -0.008581  -0.000070   0.016665  -0.000150  -0.000047
    28  H   -0.134061   0.001527  -0.000065  -0.034429  -0.000049   0.000109
    29  H   -0.055633   0.032920  -0.000130  -0.026813   0.000146   0.002495
    30  C    0.216925  -0.280475   0.003520  -0.203738  -0.007704  -0.003713
    31  H    0.029669  -0.029125  -0.005467  -0.003305  -0.000009   0.000002
    32  H    0.056811  -0.141618   0.004533  -0.004127  -0.000001  -0.000006
              25         26         27         28         29         30
     1  C    0.000034   0.020784   0.006679  -0.000465  -0.001153  -0.003937
     2  C   -0.000047  -0.015384  -0.023747   0.001643   0.003843   0.010965
     3  C   -0.000408  -0.077415   0.016391  -0.002123  -0.003908  -0.198674
     4  C   -0.009723  -0.404666  -0.083184  -0.014391   0.049317  -0.288171
     5  C    0.003938   0.201400   0.060175   0.008237  -0.037375   0.217082
     6  C   -0.000470   0.086512  -0.013635   0.002142   0.019053   0.006989
     7  H    0.000000  -0.000134   0.000000   0.000000   0.000000   0.000020
     8  H    0.000000   0.000080   0.000000   0.000000   0.000000   0.000099
     9  H   -0.000002   0.010178  -0.000569   0.000029   0.000886  -0.000139
    10  H    0.000000   0.000206  -0.000004   0.000000  -0.000006  -0.000086
    11  C    0.006372  -0.060417   0.083339  -0.009238  -0.022870   0.141116
    12  C   -0.000097  -0.000574   0.001449  -0.001195   0.002611   0.054314
    13  C    0.000526   0.087797  -0.029020   0.006418  -0.006572   0.082100
    14  H    0.000000  -0.008179  -0.000012   0.000000   0.000002   0.029014
    15  C    0.000436   0.071599  -0.003104   0.000403  -0.001871   0.197444
    16  H    0.000000   0.000209   0.000000   0.000000   0.000000   0.000256
    17  O    0.002639   0.017413  -0.009231   0.005431  -0.008850  -0.043045
    18  Cl   0.000000  -0.001711   0.000163  -0.000010   0.000014  -0.011414
    19  C   -0.066326  -0.456539  -0.081015  -0.134061  -0.055633   0.216925
    20  C   -0.006833  -0.156059  -0.008581   0.001527   0.032920  -0.280475
    21  H    0.000255   0.007993  -0.000070  -0.000065  -0.000130   0.003520
    22  C    0.393224  -0.419351   0.016665  -0.034429  -0.026813  -0.203738
    23  H   -0.026076  -0.002140  -0.000150  -0.000049   0.000146  -0.007704
    24  H   -0.028606  -0.042415  -0.000047   0.000109   0.002495  -0.003713
    25  H    0.539363   0.027854   0.000096   0.001174  -0.000539  -0.003863
    26  C    0.027854   6.533303   0.443511   0.519032   0.409160  -0.168854
    27  H    0.000096   0.443511   0.537029  -0.024751  -0.027102  -0.022537
    28  H    0.001174   0.519032  -0.024751   0.534130  -0.028217  -0.005320
    29  H   -0.000539   0.409160  -0.027102  -0.028217   0.530255   0.003584
    30  C   -0.003863  -0.168854  -0.022537  -0.005320   0.003584   5.901058
    31  H    0.000004   0.015884   0.000032   0.000005  -0.000003   0.347573
    32  H    0.000004   0.007379   0.000988   0.000167  -0.000121   0.425390
              31         32
     1  C   -0.000254  -0.000644
     2  C    0.004213  -0.021772
     3  C   -0.003156  -0.065113
     4  C    0.000086  -0.011816
     5  C    0.001843   0.028867
     6  C    0.000437   0.004244
     7  H    0.000000   0.000000
     8  H    0.000000   0.000000
     9  H    0.000000   0.000002
    10  H    0.000000   0.000000
    11  C   -0.031171   0.065342
    12  C   -0.010943   0.006047
    13  C    0.035473  -0.106465
    14  H   -0.001863   0.000977
    15  C   -0.013252   0.083317
    16  H    0.000301  -0.000123
    17  O    0.002675  -0.000829
    18  Cl   0.000741   0.000940
    19  C    0.029669   0.056811
    20  C   -0.029125  -0.141618
    21  H   -0.005467   0.004533
    22  C   -0.003305  -0.004127
    23  H   -0.000009  -0.000001
    24  H    0.000002  -0.000006
    25  H    0.000004   0.000004
    26  C    0.015884   0.007379
    27  H    0.000032   0.000988
    28  H    0.000005   0.000167
    29  H   -0.000003  -0.000121
    30  C    0.347573   0.425390
    31  H    0.520133  -0.029776
    32  H   -0.029776   0.527854
 Mulliken charges:
               1
     1  C   -0.451963
     2  C   -0.370376
     3  C    0.622067
     4  C    0.365077
     5  C   -0.448726
     6  C   -0.265417
     7  H    0.137589
     8  H    0.147832
     9  H    0.146089
    10  H    0.135827
    11  C   -0.236183
    12  C   -0.088146
    13  C    0.154896
    14  H    0.156825
    15  C   -0.318131
    16  H    0.146468
    17  O   -0.493170
    18  Cl   0.235187
    19  C    0.500782
    20  C   -0.012345
    21  H    0.128514
    22  C   -0.497346
    23  H    0.153910
    24  H    0.186110
    25  H    0.167072
    26  C   -0.646454
    27  H    0.160244
    28  H    0.173866
    29  H    0.166878
    30  C   -0.395782
    31  H    0.169255
    32  H    0.169551
 Sum of Mulliken charges =   0.00000
 Mulliken charges with hydrogens summed into heavy atoms:
               1
     1  C   -0.314374
     2  C   -0.222544
     3  C    0.622067
     4  C    0.365077
     5  C   -0.302637
     6  C   -0.129591
    11  C   -0.236183
    12  C   -0.088146
    13  C    0.311721
    15  C   -0.171663
    17  O   -0.493170
    18  Cl   0.235187
    19  C    0.500782
    20  C    0.116169
    22  C    0.009746
    26  C   -0.145466
    30  C   -0.056976
 APT charges:
               1
     1  C   -0.006341
     2  C   -0.111673
     3  C   -0.018317
     4  C   -0.040773
     5  C   -0.075889
     6  C   -0.019783
     7  H    0.029312
     8  H    0.064240
     9  H    0.074232
    10  H    0.031150
    11  C    0.412738
    12  C    0.412066
    13  C   -0.235885
    14  H    0.041146
    15  C    0.015440
    16  H    0.052011
    17  O   -0.683185
    18  Cl  -0.469190
    19  C    0.561489
    20  C   -0.462760
    21  H    0.031655
    22  C   -0.048507
    23  H   -0.008361
    24  H    0.026710
    25  H   -0.037582
    26  C   -0.084076
    27  H    0.022442
    28  H    0.008820
    29  H    0.036941
    30  C    0.439698
    31  H    0.041014
    32  H    0.001217
 Sum of APT charges =   0.00000
 APT charges with hydrogens summed into heavy atoms:
               1
     1  C    0.022972
     2  C   -0.047433
     3  C   -0.018317
     4  C   -0.040773
     5  C   -0.001657
     6  C    0.011367
    11  C    0.412738
    12  C    0.412066
    13  C   -0.194738
    15  C    0.067451
    17  O   -0.683185
    18  Cl  -0.469190
    19  C    0.561489
    20  C   -0.431105
    22  C   -0.067740
    26  C   -0.015873
    30  C    0.481929
 Electronic spatial extent (au):  <R**2>=           4534.1989
 Charge=              0.0000 electrons
 Dipole moment (field-independent basis, Debye):
    X=              3.1626    Y=             -0.1694    Z=              2.6296  Tot=              4.1166
 Quadrupole moment (field-independent basis, Debye-Ang):
   XX=           -103.6514   YY=            -96.8417   ZZ=           -114.2837
   XY=             -4.8144   XZ=              3.2322   YZ=              3.1581
 Traceless Quadrupole moment (field-independent basis, Debye-Ang):
   XX=              1.2742   YY=              8.0839   ZZ=             -9.3581
   XY=             -4.8144   XZ=              3.2322   YZ=              3.1581
 Octapole moment (field-independent basis, Debye-Ang**2):
  XXX=             56.3149  YYY=             -2.7934  ZZZ=              6.8438  XYY=              5.5237
  XXY=             18.2072  XXZ=             14.0350  XZZ=             -1.5733  YZZ=             -5.8897
  YYZ=             -2.1946  XYZ=              0.0476
 Hexadecapole moment (field-independent basis, Debye-Ang**3):
 XXXX=          -3735.7227 YYYY=          -1658.1851 ZZZZ=           -501.9308 XXXY=            -16.3144
 XXXZ=            -35.0178 YYYX=            -17.7071 YYYZ=             17.2731 ZZZX=              0.0915
 ZZZY=              4.2757 XXYY=           -931.6450 XXZZ=           -760.2649 YYZZ=           -404.2385
 XXYZ=             36.7965 YYXZ=            -27.9400 ZZXY=             19.9559
 N-N= 1.283029305921D+03 E-N=-5.180238094131D+03  KE= 1.108244284723D+03
  Exact polarizability: 371.432 -10.080 278.077   6.588   1.251 170.963
 Approx polarizability: 498.923  -1.980 385.807   8.677  -1.604 247.475
 D2PCM: C-PCM CHGder 2nd derivatives, FixD1E=F FixD2E=F DoIter=F DoCFld=F I1PDM=0
 Calling FoFJK, ICntrl=    100127 FMM=F ISym2X=0 I1Cent= 0 IOpClX= 0 NMat=1 NMatS=1 NMatT=0.
 Full mass-weighted force constant matrix:
 Low frequencies --- -202.4038  -13.3097   -2.6571    0.0012    0.0016    0.0020
 Low frequencies ---    8.6355   42.2715   68.2719
 ******    1 imaginary frequencies (negative Signs) ****** 
 Diagonal vibrational polarizability:
       72.2030441      15.4948377      31.7392807
 Harmonic frequencies (cm**-1), IR intensities (KM/Mole), Raman scattering
 activities (A**4/AMU), depolarization ratios for plane and unpolarized
 incident light, reduced masses (AMU), force constants (mDyne/A),
 and normal coordinates:
                      1                      2                      3
                      A                      A                      A
 Frequencies --   -202.4028                42.1565                68.2567
 Red. masses --      6.8025                 3.7900                 4.6607
 Frc consts  --      0.1642                 0.0040                 0.0128
 IR Inten    --     38.4745                 0.0317                 0.8581
  Atom  AN      X      Y      Z        X      Y      Z        X      Y      Z
     1   6     0.01   0.00   0.00     0.03   0.03  -0.06     0.13  -0.04   0.17
     2   6     0.00   0.01  -0.01     0.03   0.03  -0.01     0.11  -0.03   0.13
     3   6     0.00   0.00  -0.02     0.02   0.02  -0.01     0.05  -0.03   0.00
     4   6     0.03  -0.02   0.00     0.01   0.01  -0.04     0.02  -0.03  -0.09
     5   6     0.03  -0.01   0.02     0.01   0.01  -0.09     0.04  -0.03  -0.08
     6   6     0.02  -0.01   0.00     0.02   0.02  -0.09     0.09  -0.04   0.05
     7   1     0.02   0.01  -0.01     0.03   0.04  -0.06     0.18  -0.05   0.28
     8   1     0.00   0.01  -0.02     0.04   0.03   0.02     0.14  -0.03   0.22
     9   1     0.03   0.00   0.03     0.01   0.00  -0.11     0.01  -0.03  -0.16
    10   1     0.02  -0.01  -0.01     0.02   0.02  -0.13     0.10  -0.04   0.06
    11   6     0.00  -0.03   0.05     0.01   0.00  -0.04     0.01  -0.03  -0.12
    12   6    -0.02   0.03  -0.04     0.02   0.02   0.02     0.02  -0.02  -0.04
    13   6    -0.10   0.05  -0.23    -0.01   0.00  -0.06    -0.01  -0.02  -0.13
    14   1     0.01   0.01   0.00    -0.03   0.01  -0.10     0.01  -0.03  -0.09
    15   6    -0.04   0.03  -0.14     0.00   0.01  -0.02    -0.01  -0.02  -0.12
    16   1    -0.04   0.03  -0.16    -0.01   0.01  -0.01    -0.02  -0.01  -0.14
    17   8     0.15  -0.05   0.26     0.02  -0.01  -0.01     0.02  -0.04  -0.08
    18  17     0.00   0.00   0.01     0.05   0.02   0.12     0.05  -0.02   0.04
    19   6    -0.18   0.08  -0.21    -0.07   0.00   0.04    -0.11   0.06   0.03
    20   6     0.01  -0.04   0.07     0.02  -0.04  -0.08    -0.13   0.07   0.11
    21   1     0.07  -0.03   0.12     0.08   0.04  -0.14    -0.10   0.02   0.22
    22   6    -0.14   0.04  -0.15    -0.06   0.15   0.13    -0.05  -0.02   0.10
    23   1    -0.24   0.09  -0.29     0.02   0.24   0.06    -0.05  -0.06   0.16
    24   1     0.02   0.20   0.01    -0.08   0.21   0.21     0.03  -0.05   0.05
    25   1    -0.13  -0.23  -0.05    -0.11   0.13   0.19    -0.08  -0.02   0.13
    26   6    -0.05   0.01  -0.04    -0.19  -0.12   0.12    -0.12   0.13  -0.07
    27   1    -0.05   0.04   0.00    -0.20  -0.20   0.01    -0.12   0.13  -0.05
    28   1     0.01  -0.16  -0.07    -0.27  -0.20   0.16    -0.11   0.22  -0.08
    29   1    -0.02   0.06   0.06    -0.20  -0.06   0.23    -0.14   0.08  -0.16
    30   6     0.22  -0.09   0.33     0.04  -0.16  -0.12    -0.18   0.12   0.03
    31   1     0.19  -0.08   0.29     0.11  -0.18  -0.23    -0.19   0.13   0.09
    32   1     0.10  -0.02   0.11     0.01  -0.26  -0.06    -0.23   0.18  -0.09
                      4                      5                      6
                      A                      A                      A
 Frequencies --     75.8608               130.2826               147.7740
 Red. masses --      5.7534                 4.3446                 1.6467
 Frc consts  --      0.0195                 0.0434                 0.0212
 IR Inten    --      1.5055                 0.6233                 6.0121
  Atom  AN      X      Y      Z        X      Y      Z        X      Y      Z
     1   6     0.13  -0.01   0.10    -0.01   0.00   0.09    -0.02   0.00   0.03
     2   6     0.07   0.00   0.08     0.07  -0.02   0.25    -0.01   0.00   0.03
     3   6     0.01  -0.03   0.04     0.05   0.00   0.14    -0.02   0.00  -0.01
     4   6     0.01  -0.08   0.01    -0.01   0.04   0.00    -0.02   0.00  -0.02
     5   6     0.06  -0.09  -0.01    -0.11   0.06  -0.21    -0.03   0.01  -0.03
     6   6     0.12  -0.06   0.04    -0.13   0.05  -0.21    -0.03   0.00  -0.01
     7   1     0.17   0.01   0.15     0.00  -0.02   0.16    -0.01  -0.01   0.06
     8   1     0.06   0.04   0.12     0.14  -0.06   0.44     0.00  -0.01   0.05
     9   1     0.06  -0.13  -0.05    -0.17   0.10  -0.37    -0.04   0.01  -0.04
    10   1     0.16  -0.07   0.04    -0.21   0.07  -0.40    -0.03   0.00  -0.02
    11   6    -0.02  -0.11   0.01     0.02   0.04   0.04    -0.02   0.00  -0.02
    12   6    -0.04  -0.02   0.03     0.05   0.01   0.08    -0.03   0.01  -0.03
    13   6    -0.03  -0.11   0.12     0.04   0.04   0.05    -0.05   0.01  -0.07
    14   1    -0.05  -0.14   0.13     0.04   0.05   0.04    -0.03   0.00  -0.04
    15   6    -0.05  -0.06   0.12     0.04   0.02   0.04    -0.04   0.01  -0.07
    16   1    -0.08  -0.05   0.13     0.03   0.03  -0.03    -0.05   0.02  -0.08
    17   8    -0.05  -0.13  -0.08     0.02   0.04   0.05    -0.01   0.00   0.00
    18  17    -0.13   0.08  -0.14    -0.01   0.00  -0.11    -0.02   0.01   0.02
    19   6     0.01   0.11  -0.01    -0.01  -0.05  -0.01     0.07  -0.02   0.02
    20   6     0.11   0.08  -0.03     0.01  -0.06   0.01     0.06  -0.02   0.02
    21   1     0.14   0.13  -0.07     0.01  -0.06   0.02     0.09  -0.03   0.05
    22   6    -0.04   0.24  -0.03     0.00  -0.07   0.00     0.09  -0.01   0.06
    23   1     0.06   0.27  -0.01    -0.06  -0.05  -0.08     0.38  -0.15   0.45
    24   1    -0.15   0.20  -0.05     0.06   0.00   0.07    -0.05  -0.33  -0.30
    25   1    -0.07   0.36  -0.05     0.03  -0.19   0.02    -0.09   0.49   0.03
    26   6    -0.09   0.05   0.00    -0.02  -0.04  -0.03     0.02   0.00  -0.03
    27   1    -0.08  -0.03  -0.01    -0.02  -0.07  -0.01    -0.02   0.06  -0.19
    28   1    -0.09   0.08   0.00    -0.01   0.00  -0.04    -0.11  -0.05   0.04
    29   1    -0.16   0.07   0.02    -0.06  -0.06  -0.06     0.15   0.00   0.00
    30   6     0.15  -0.02   0.01     0.01  -0.06   0.02     0.08  -0.02   0.05
    31   1     0.24  -0.04   0.01     0.01  -0.06   0.01     0.07  -0.02   0.04
    32   1     0.14  -0.09   0.07     0.02  -0.06   0.03     0.07   0.00   0.01
                      7                      8                      9
                      A                      A                      A
 Frequencies --    166.9192               172.1437               185.1438
 Red. masses --      1.9483                 1.5115                 1.9442
 Frc consts  --      0.0320                 0.0264                 0.0393
 IR Inten    --     13.1835                 0.9409                 3.5974
  Atom  AN      X      Y      Z        X      Y      Z        X      Y      Z
     1   6     0.01   0.01  -0.02    -0.02   0.00  -0.01    -0.02   0.00   0.04
     2   6     0.01   0.01  -0.02    -0.02   0.00  -0.02    -0.02   0.01  -0.04
     3   6     0.03   0.01   0.01     0.00   0.00   0.01    -0.01   0.02  -0.04
     4   6     0.03   0.02   0.03     0.01   0.01   0.03    -0.01   0.03  -0.04
     5   6     0.03   0.02   0.04     0.00   0.01   0.04    -0.01   0.03   0.01
     6   6     0.02   0.02   0.02    -0.01   0.00   0.03    -0.01   0.01   0.08
     7   1    -0.01   0.01  -0.04    -0.04   0.00  -0.03    -0.01  -0.01   0.08
     8   1     0.00   0.01  -0.05    -0.02   0.00  -0.05    -0.03  -0.01  -0.06
     9   1     0.03   0.02   0.05     0.00   0.02   0.04    -0.01   0.05   0.04
    10   1     0.02   0.02   0.03    -0.01   0.00   0.03     0.01   0.01   0.15
    11   6     0.02   0.02   0.03     0.01   0.00   0.02     0.00   0.02  -0.02
    12   6     0.05   0.00   0.03     0.00   0.00   0.01     0.01   0.01   0.01
    13   6     0.05   0.01   0.06     0.00   0.01   0.00     0.03   0.01   0.06
    14   1     0.05   0.02   0.04    -0.01   0.01  -0.02     0.04   0.00   0.09
    15   6     0.06   0.00   0.06     0.00   0.00   0.01     0.04   0.00   0.09
    16   1     0.06   0.00   0.07     0.00   0.01   0.00     0.07  -0.01   0.15
    17   8     0.02   0.01   0.03     0.01   0.00   0.02     0.00   0.01  -0.05
    18  17     0.04  -0.01  -0.03     0.00   0.02   0.00     0.01   0.00  -0.01
    19   6    -0.08  -0.03  -0.03    -0.01  -0.01  -0.02    -0.02  -0.02  -0.06
    20   6    -0.05  -0.03   0.01     0.03  -0.02   0.01     0.02  -0.03   0.00
    21   1    -0.04  -0.04   0.03     0.08  -0.01   0.05     0.03  -0.04   0.03
    22   6    -0.12   0.01  -0.09     0.04  -0.02   0.07     0.04  -0.05   0.05
    23   1     0.12  -0.12   0.25     0.08  -0.02   0.09    -0.01  -0.01  -0.05
    24   1    -0.34  -0.32  -0.44     0.12  -0.01   0.06     0.19   0.08   0.17
    25   1    -0.22   0.51  -0.20    -0.01  -0.05   0.13     0.04  -0.25   0.14
    26   6    -0.08  -0.03  -0.04    -0.07   0.04  -0.13    -0.12  -0.02  -0.13
    27   1    -0.09  -0.02  -0.05     0.03  -0.19   0.23    -0.22   0.12  -0.53
    28   1    -0.10  -0.03  -0.03     0.24   0.45  -0.31    -0.48  -0.21   0.07
    29   1    -0.07  -0.03  -0.04    -0.48  -0.05  -0.43     0.19   0.01   0.03
    30   6    -0.07  -0.02  -0.02     0.03  -0.07  -0.04     0.04  -0.02   0.05
    31   1    -0.06  -0.02   0.00     0.07  -0.08  -0.06     0.04  -0.01   0.09
    32   1    -0.06  -0.03  -0.01    -0.01  -0.10  -0.04     0.06   0.01   0.05
                     10                     11                     12
                      A                      A                      A
 Frequencies --    204.3089               226.6498               255.6612
 Red. masses --      3.3572                 9.0402                 6.0137
 Frc consts  --      0.0826                 0.2736                 0.2316
 IR Inten    --      7.0660                 4.4631                12.4346
  Atom  AN      X      Y      Z        X      Y      Z        X      Y      Z
     1   6    -0.04  -0.01  -0.14     0.17   0.23  -0.05     0.08  -0.02   0.11
     2   6     0.03  -0.02   0.05     0.02   0.25   0.03    -0.01   0.00  -0.04
     3   6     0.06  -0.04   0.17    -0.09   0.10   0.07    -0.07  -0.01  -0.13
     4   6     0.07  -0.05   0.19    -0.05   0.03   0.05    -0.05  -0.03  -0.10
     5   6     0.06  -0.04   0.13     0.10  -0.01  -0.02    -0.03  -0.03  -0.14
     6   6    -0.01  -0.02  -0.08     0.21   0.11  -0.07     0.04  -0.03   0.01
     7   1    -0.10   0.02  -0.32     0.24   0.31  -0.09     0.15  -0.03   0.28
     8   1     0.01  -0.01   0.02    -0.01   0.36   0.04    -0.01   0.02  -0.01
     9   1     0.07  -0.05   0.16     0.13  -0.15  -0.05    -0.04  -0.06  -0.18
    10   1    -0.05  -0.01  -0.21     0.31   0.09  -0.12     0.08  -0.04   0.07
    11   6     0.02  -0.03   0.06    -0.07   0.02   0.03     0.03  -0.02   0.12
    12   6     0.02  -0.02   0.09    -0.10   0.07   0.06    -0.05  -0.02  -0.06
    13   6    -0.03  -0.01  -0.07    -0.09   0.05   0.01     0.04  -0.02   0.13
    14   1    -0.06   0.01  -0.14    -0.11   0.02   0.01     0.02  -0.04   0.12
    15   6    -0.03  -0.01  -0.07    -0.08   0.10   0.04     0.00  -0.02   0.05
    16   1    -0.08   0.01  -0.20    -0.09   0.11   0.03     0.04  -0.04   0.12
    17   8     0.02  -0.02   0.03    -0.08   0.03   0.00     0.11   0.01   0.35
    18  17    -0.02   0.02  -0.01    -0.01  -0.36  -0.04    -0.05  -0.01   0.03
    19   6    -0.02   0.04  -0.07     0.01   0.00  -0.01    -0.05   0.06  -0.12
    20   6    -0.04   0.04  -0.07     0.00   0.00  -0.03    -0.06   0.05  -0.16
    21   1    -0.02   0.03  -0.03    -0.01   0.01  -0.05    -0.07   0.08  -0.22
    22   6     0.06   0.01   0.06     0.05  -0.01   0.06     0.08   0.01   0.06
    23   1     0.10   0.00   0.09     0.07  -0.01   0.07     0.19  -0.03   0.18
    24   1     0.17   0.03   0.05     0.11   0.01   0.06     0.21  -0.03  -0.02
    25   1    -0.01  -0.04   0.15     0.01  -0.04   0.11    -0.06   0.05   0.19
    26   6    -0.04   0.05  -0.09    -0.01   0.01  -0.04     0.06   0.07  -0.05
    27   1    -0.12   0.22  -0.38     0.00  -0.01   0.00     0.03   0.20  -0.12
    28   1    -0.29  -0.17   0.06     0.02   0.06  -0.05     0.01  -0.10  -0.02
    29   1     0.27   0.09   0.07    -0.04   0.00  -0.07     0.24   0.09   0.04
    30   6    -0.05   0.06  -0.10     0.03  -0.01   0.03    -0.08   0.03  -0.23
    31   1    -0.06   0.06  -0.08     0.03  -0.01   0.01    -0.05   0.03  -0.23
    32   1    -0.05   0.08  -0.12     0.04  -0.02   0.05    -0.04  -0.01  -0.12
                     13                     14                     15
                      A                      A                      A
 Frequencies --    302.6142               325.1322               336.5984
 Red. masses --      2.6152                 2.8666                 8.0179
 Frc consts  --      0.1411                 0.1785                 0.5352
 IR Inten    --     14.6458                 4.6639                24.6790
  Atom  AN      X      Y      Z        X      Y      Z        X      Y      Z
     1   6     0.02   0.02   0.01     0.00   0.00  -0.02     0.14  -0.06  -0.07
     2   6     0.00   0.02   0.00    -0.01   0.00  -0.01     0.02  -0.04  -0.03
     3   6    -0.02   0.01  -0.01     0.01  -0.01   0.02    -0.05  -0.12   0.03
     4   6    -0.02  -0.01   0.02    -0.01   0.00  -0.03    -0.09  -0.10   0.00
     5   6     0.00  -0.01   0.00     0.00   0.00  -0.01     0.06  -0.16  -0.04
     6   6     0.01   0.01  -0.01     0.01  -0.01   0.02     0.17  -0.11  -0.03
     7   1     0.03   0.02   0.02     0.00   0.00  -0.03     0.17  -0.01  -0.11
     8   1    -0.01   0.04   0.01    -0.01   0.00  -0.02    -0.02   0.08  -0.04
     9   1     0.00  -0.03  -0.01     0.00  -0.01   0.00     0.08  -0.30  -0.09
    10   1     0.03   0.00  -0.03     0.03  -0.01   0.06     0.22  -0.12  -0.02
    11   6     0.01  -0.01   0.05    -0.03   0.01  -0.06    -0.02   0.09  -0.05
    12   6    -0.03   0.00  -0.07     0.04  -0.01   0.10     0.02  -0.13   0.09
    13   6     0.02  -0.02   0.03    -0.02   0.01  -0.08     0.09   0.07  -0.12
    14   1     0.00   0.01  -0.05    -0.03   0.01  -0.09     0.11   0.07  -0.10
    15   6    -0.03   0.01  -0.09     0.04  -0.01   0.09     0.12  -0.04   0.04
    16   1    -0.06   0.02  -0.15     0.06  -0.02   0.15     0.23  -0.07   0.05
    17   8    -0.02   0.02   0.06    -0.02   0.03  -0.03    -0.10   0.48   0.04
    18  17    -0.01   0.00   0.02     0.00   0.01  -0.02    -0.13   0.05   0.03
    19   6     0.08  -0.01   0.14    -0.09   0.09   0.04     0.01  -0.03  -0.02
    20   6     0.12  -0.01   0.17    -0.05   0.06   0.00     0.04  -0.03   0.03
    21   1     0.24   0.00   0.29     0.03   0.18  -0.07     0.05  -0.09   0.12
    22   6    -0.05  -0.02  -0.11    -0.04  -0.12   0.03     0.01  -0.04  -0.01
    23   1    -0.25   0.01  -0.28    -0.12  -0.23   0.15     0.02  -0.05   0.02
    24   1    -0.19   0.04   0.00     0.08  -0.19  -0.09     0.03  -0.05  -0.03
    25   1     0.16  -0.11  -0.29    -0.03  -0.11   0.01     0.00  -0.03   0.00
    26   6    -0.04   0.08  -0.06     0.08   0.18   0.05    -0.08  -0.09  -0.01
    27   1    -0.10   0.13  -0.32     0.05   0.34   0.02    -0.06  -0.20   0.02
    28   1    -0.30   0.13   0.09     0.06   0.05   0.06    -0.05  -0.02  -0.02
    29   1     0.11   0.04  -0.09     0.28   0.17   0.08    -0.21  -0.07  -0.02
    30   6    -0.01  -0.07  -0.13     0.05  -0.21  -0.03     0.03   0.06   0.07
    31   1     0.06  -0.09  -0.19     0.24  -0.27  -0.22    -0.05   0.08   0.14
    32   1    -0.12  -0.14  -0.17    -0.10  -0.40   0.04     0.02   0.16  -0.06
                     16                     17                     18
                      A                      A                      A
 Frequencies --    352.8001               378.9779               412.3953
 Red. masses --      4.5014                 7.9684                 2.3760
 Frc consts  --      0.3301                 0.6743                 0.2381
 IR Inten    --      2.6934                 1.1171                 1.0723
  Atom  AN      X      Y      Z        X      Y      Z        X      Y      Z
     1   6    -0.04   0.00   0.00     0.01  -0.07  -0.03    -0.01   0.01   0.01
     2   6     0.00   0.00  -0.05     0.14  -0.10   0.02    -0.02   0.01  -0.03
     3   6     0.04   0.01   0.02     0.11  -0.05  -0.07     0.00   0.01   0.02
     4   6     0.03   0.03  -0.09     0.16   0.07  -0.01     0.00   0.00   0.00
     5   6    -0.02   0.06  -0.03     0.07   0.11   0.07    -0.02   0.00  -0.03
     6   6    -0.02   0.02   0.08    -0.04   0.06  -0.04     0.00  -0.01   0.02
     7   1    -0.07  -0.02  -0.01    -0.06  -0.15  -0.02    -0.01   0.01   0.01
     8   1     0.00  -0.04  -0.09     0.18  -0.16   0.07    -0.03   0.01  -0.07
     9   1    -0.04   0.11  -0.03     0.08   0.18   0.14    -0.03   0.01  -0.07
    10   1    -0.01   0.02   0.18    -0.15   0.09  -0.08     0.01  -0.01   0.04
    11   6     0.04   0.02  -0.12     0.18   0.11  -0.02     0.01  -0.02   0.01
    12   6     0.03  -0.01   0.23    -0.12  -0.03  -0.14     0.01   0.01   0.04
    13   6    -0.08   0.06  -0.19     0.10   0.12   0.15    -0.02  -0.01  -0.02
    14   1    -0.13   0.02  -0.20     0.08   0.09   0.17    -0.03  -0.01  -0.03
    15   6     0.03   0.02   0.16     0.00   0.06  -0.07    -0.02   0.00   0.00
    16   1     0.08   0.00   0.25     0.13   0.03  -0.16    -0.04   0.01  -0.02
    17   8     0.15  -0.09   0.03     0.19   0.01  -0.15     0.02  -0.04   0.03
    18  17    -0.10  -0.04  -0.01    -0.27  -0.09   0.10     0.01   0.00  -0.01
    19   6     0.03  -0.02  -0.01    -0.02   0.04   0.03     0.04   0.11   0.03
    20   6     0.08  -0.05   0.13    -0.05   0.05  -0.05     0.03   0.12  -0.05
    21   1     0.21  -0.13   0.38    -0.12   0.11  -0.22     0.01   0.14  -0.10
    22   6     0.01   0.06  -0.01    -0.03  -0.06  -0.03     0.06  -0.15  -0.07
[...]
 827,0.00015041,-0.00034351,-0.00098578,0.00122102,-0.00095421,0.000565
 45,-0.00031695,-0.00046143,-0.00000154,-0.00001540,0.00000993,0.000013
 91,0.00000087,0.00000423,-0.00004414,-0.00003395,0.00014649,0.00002411
 ,-0.00002485,0.00001381,0.00154866,0.00045722,-0.00036870,-0.00013051,
 0.00059548,0.00000927,-0.00035395,-0.00067034,0.00024319,-0.00002852,0
 .00002009,-0.00005590,0.00056786,-0.00019593,-0.00021051,0.00001784,0.
 00001338,-0.00001001,-0.00114756,-0.00031726,-0.00071211,0.00014381,0.
 00003113,-0.00003988,-0.00929392,-0.00128668,0.00242483,0.00008856,-0.
 00033885,0.00047628,-0.00000007,0.00005360,-0.00006790,0.00031376,0.00
 249080,0.00041227,-0.00039760,-0.00030591,0.00028861,0.00007492,-0.000
 03121,-0.00010438,0.00030830,-0.00009683,-0.00027640,-0.30670126,-0.03
 259146,0.05434564,0.33236635,-0.00013105,-0.00016055,0.00002443,-0.000
 09566,0.00016038,0.00009625,-0.00004121,-0.00020136,-0.00004263,0.0001
 6881,0.00006577,-0.00001954,-0.00000782,0.00011771,0.00005658,0.000255
 34,-0.00023973,-0.00021901,-0.00001145,-0.00000212,0.00001535,-0.00000
 515,0.00000245,-0.00000578,-0.00014611,-0.00010297,0.00016620,-0.00000
 745,0.00000523,-0.00000013,-0.00071551,0.00004346,-0.00000668,-0.00003
 422,0.00033402,0.00005992,-0.00053065,0.00009137,-0.00034907,0.0000393
 2,-0.00002493,0.00006805,0.00025468,-0.00011579,-0.00011633,-0.0000001
 2,-0.00000535,-0.00000936,0.00083171,-0.00014520,0.00039951,-0.0000049
 2,-0.00003662,0.00001039,0.02512560,0.00798318,-0.00277440,-0.00156320
 ,-0.00083833,0.00079113,-0.00014606,0.00030363,-0.00025195,0.00025313,
 -0.00301003,-0.00258026,0.00085912,0.00033751,-0.00087383,0.00014274,0
 .00000791,-0.00034162,-0.00023713,-0.00018984,0.00028614,-0.03300394,-
 0.05446877,0.00642514,0.03634944,0.05727457,-0.00004420,-0.00008916,-0
 .00004214,0.00003867,0.00006399,-0.00009173,-0.00029581,-0.00027650,0.
 00021184,-0.00055514,-0.00022638,-0.00036992,-0.00028274,0.00063487,-0
 .00018925,0.00007209,0.00003011,0.00005114,0.00003545,-0.00002123,-0.0
 0000261,0.00003374,-0.00000758,0.00000705,0.00005769,0.00032906,-0.000
 16809,0.00001817,-0.00005208,-0.00000134,-0.00061985,-0.00096544,-0.00
 112422,-0.00019858,0.00020156,0.00008866,-0.00022273,0.00012166,-0.000
 05315,0.00001493,0.00004340,0.00002233,0.00020768,0.00000194,-0.000030
 20,0.00001408,0.00002015,0.00000319,0.00049506,0.00034760,0.00076175,0
 .00016177,0.00006927,-0.00005467,0.01978280,0.00341032,-0.00714909,-0.
 00053666,0.00042346,0.00008768,-0.00001406,0.00009615,-0.00018061,0.00
 069338,-0.00423910,-0.00151651,0.00117411,0.00001466,-0.00048046,-0.00
 031751,-0.00000614,0.00035227,-0.00001312,0.00022466,0.00027581,0.0511
 7270,0.00690518,-0.05332731,-0.05729166,-0.00473335,0.05824474,-0.0001
 5256,-0.00014351,0.00009255,-0.00009512,0.00017996,0.00012411,0.000200
 37,0.00005813,-0.00013197,-0.00012367,0.00023689,0.00012613,-0.0002746
 0,0.00021452,-0.00028685,0.00022162,-0.00020336,-0.00023902,-0.0000187
 4,-0.00000017,0.00000418,-0.00000937,0.00000813,0.00000029,-0.00005772
 ,-0.00008836,0.00014748,0.00000542,0.00001237,0.00000217,0.00086776,0.
 00077859,0.00046733,0.00007305,0.00017195,-0.00005678,0.00011776,-0.00
 039776,0.00026898,-0.00001863,0.00000260,-0.00005697,0.00009082,-0.000
 18327,-0.00005609,0.00000715,0.00000583,-0.00000693,-0.00011477,-0.000
 20010,0.00012775,0.00008739,0.00000608,-0.00003426,0.00554169,-0.00138
 912,0.00989713,0.00059257,0.00072869,-0.00002879,-0.00028923,-0.000003
 53,-0.00046363,-0.00073639,-0.00035310,-0.00049292,-0.00004800,0.00000
 596,-0.00035087,0.00015172,0.00034761,-0.00001772,-0.00029644,0.000213
 50,0.00021569,-0.10648125,0.00030630,-0.10804400,-0.01398980,0.0000739
 0,-0.02770184,0.11338828,-0.00016185,-0.00011783,0.00000196,0.00001788
 ,0.00022996,0.00002569,-0.00018836,-0.00053351,-0.00002933,0.00030797,
 -0.00034337,0.00013585,-0.00018628,0.00006268,0.00025619,0.00025646,0.
 00008555,-0.00003829,0.00000417,0.00001210,-0.00001033,-0.00000549,-0.
 00000054,0.00000758,0.00008862,0.00013911,-0.00023218,0.00000529,0.000
 01168,0.00002237,0.00003666,-0.00035656,0.00029311,-0.00003551,0.00049
 310,0.00007466,-0.00072468,0.00031157,-0.00028401,0.00005438,-0.000029
 45,0.00010309,0.00043720,0.00010316,-0.00017294,-0.00001955,-0.0000243
 3,-0.00000924,0.00053495,0.00021022,-0.00100337,-0.00022265,-0.0000712
 4,0.00007482,-0.01223576,-0.00262800,-0.02146297,0.00058974,-0.0015680
 5,0.00021563,0.00055773,-0.00018285,0.00095211,-0.00019202,-0.00010120
 ,0.00055123,0.00003887,-0.00005990,0.00028251,-0.00012589,0.00011911,0
 .00012868,0.00014952,0.00013061,-0.00004319,-0.00162761,-0.04322287,-0
 .00372379,-0.00229117,-0.00081568,-0.00368582,-0.00052388,0.04596440,0
 .00001163,-0.00002687,0.00001672,-0.00002869,0.00005307,0.00000253,-0.
 00004346,-0.00012852,0.00001395,-0.00000345,0.00001334,0.00010409,-0.0
 0005455,0.00012177,-0.00006170,0.00003110,-0.00000063,-0.00003666,-0.0
 0001837,0.00001314,0.00000932,-0.00001101,-0.00000397,-0.00000760,0.00
 001866,-0.00008797,0.00009553,-0.00000067,0.00002173,-0.00000272,0.000
 91847,-0.00004928,-0.00034041,0.00015189,-0.00006323,-0.00007837,0.000
 06511,-0.00006400,0.00028034,-0.00000257,-0.00000656,-0.00004846,-0.00
 010926,0.00016664,0.00012888,-0.00003083,-0.00002864,0.00000064,-0.000
 39624,-0.00069560,-0.00077438,-0.00025090,-0.00007037,0.00008871,-0.00
 812567,-0.00363774,-0.01757901,0.00230268,0.00141263,0.00003949,0.0002
 7194,-0.00019568,0.00042196,-0.00016234,-0.00049287,0.00035420,0.00040
 657,-0.00011496,0.00038327,-0.00024027,-0.00011215,0.00027162,0.000566
 55,0.00015135,-0.00001076,-0.11190108,0.00017062,-0.23739991,0.0031711
 9,0.00028394,0.00659749,0.12157022,0.00384253,0.25961897,0.00011025,0.
 00009342,-0.00005541,0.00012704,-0.00014146,-0.00009922,0.00008583,0.0
 0033625,-0.00000249,-0.00010103,0.00001815,-0.00008722,-0.00027230,-0.
 00037463,0.00031983,-0.00006410,0.00019463,0.00016568,0.00003586,-0.00
 000076,-0.00001928,0.00001307,0.00000070,0.00000298,-0.00029971,0.0003
 3576,-0.00077380,-0.00001131,-0.00000297,-0.00000105,0.00020155,-0.000
 16551,-0.00011791,0.00001300,-0.00041126,-0.00006300,0.00053317,-0.000
 03404,0.00032201,-0.00001791,0.00002214,-0.00007461,-0.00034876,0.0000
 8823,0.00016933,0.00000773,0.00001307,0.00001408,-0.00046555,0.0003242
 2,0.00017008,0.00008530,0.00005995,-0.00002679,0.00147970,0.00850934,-
 0.00753389,0.00074184,0.00216745,0.00178735,0.00048730,0.00037486,0.00
 035774,-0.00020146,0.00071959,-0.00003187,0.00003963,-0.00021334,-0.00
 018192,-0.00011596,0.00040350,0.00050737,-0.00010501,0.00009710,-0.000
 12742,-0.05385178,-0.03170290,0.01934751,-0.00213363,-0.02762012,0.014
 03854,0.00179083,0.01471498,-0.00688972,0.05315988,-0.00013114,-0.0000
 4874,-0.00002934,0.00006688,0.00012194,-0.00001749,-0.00005597,-0.0003
 5430,-0.00000404,0.00027818,-0.00037767,-0.00017867,0.00001430,-0.0002
 0906,0.00046472,0.00020323,0.00012012,0.00004356,0.00001350,0.00000570
 ,-0.00001085,0.00000244,-0.00000109,0.00001745,0.00033415,0.00031471,-
 0.00009916,0.00000524,0.00000425,0.00001989,-0.00151504,-0.00075242,0.
 00030339,0.00001706,0.00024955,0.00008765,-0.00014882,0.00071528,-0.00
 045103,0.00002923,-0.00001235,0.00010197,0.00013423,0.00011065,-0.0000
 9310,-0.00000119,-0.00000630,0.00000475,0.00176269,0.00111118,0.000709
 23,-0.00013375,-0.00003712,0.00002786,-0.00409089,-0.02236983,0.010038
 87,0.00234183,-0.00243572,-0.00220469,-0.00067475,-0.00102693,-0.00050
 358,-0.00106876,0.00086196,0.00079818,-0.00035527,0.00037041,-0.000123
 05,0.00057155,0.00036194,-0.00084283,0.00012164,-0.00003887,-0.0000090
 6,-0.03201889,-0.25869314,0.10761134,-0.00008211,-0.00218946,0.0009129
 4,0.00046606,0.00178375,-0.00053722,0.03247900,0.28185645,0.00001848,-
 0.00008034,0.00001479,-0.00002342,0.00003936,0.00000604,-0.00004063,-0
 .00000879,0.00000012,0.00013647,0.00000782,0.00005743,-0.00039180,0.00
 014937,-0.00015739,0.00010649,0.00002230,-0.00011190,0.00001669,-0.000
 00092,0.00000558,0.00000362,-0.00000140,-0.00001120,-0.00061220,0.0001
 4014,-0.00024256,0.00000731,-0.00002548,0.00000432,-0.00038033,-0.0001
 7626,0.00005274,-0.00000540,0.00000921,-0.00000748,0.00005760,0.000052
 34,-0.00015101,0.00000757,-0.00000767,-0.00000024,0.00004933,-0.000000
 13,0.00003600,0.00000666,0.00000451,-0.00000628,0.00058151,0.00001158,
 0.00054486,0.00004323,0.00001518,-0.00000248,-0.00316547,-0.02030906,0
 .00772857,0.00221577,-0.00227863,-0.00195894,-0.00053362,-0.00091845,-
 0.00026185,-0.00018744,-0.00054535,0.00047472,-0.00026290,0.00003947,0
 .00008150,0.00030533,-0.00010206,-0.00039593,-0.00010501,0.00014052,-0
 .00000450,0.01859824,0.11176342,-0.09937396,-0.00030127,0.00386124,-0.
 00285698,0.00462133,0.02432383,-0.01187164,-0.02080071,-0.11623183,0.1
 0819473,0.00256945,0.00245388,-0.00071829,0.00093775,-0.00399357,-0.00
 080783,0.00255547,0.00840294,0.00034756,-0.00534680,0.00448227,0.00379
 967,0.00088564,-0.00328607,-0.00100367,-0.00295449,0.00043387,0.001168
 34,0.00008707,-0.00005413,-0.00003470,0.00007918,-0.00004045,-0.000002
 22,-0.00004062,-0.00015695,0.00011034,-0.00000676,-0.00017000,0.000039
 04,0.02883332,0.02677194,-0.01468060,0.00373934,-0.01292246,-0.0051122
 0,0.02299617,-0.01937047,0.03274585,-0.00218441,0.00149389,-0.00461275
 ,-0.02369463,0.00227801,0.00160379,0.00037615,0.00030962,0.00030139,-0
 .03710249,-0.00620457,-0.00694939,0.00094797,0.00045618,0.00003606,-0.
 00801934,-0.05994895,0.02187639,-0.30797623,-0.03512904,0.12313759,-0.
 01556059,-0.00694194,0.00496786,0.00519370,0.00168997,0.00317729,0.000
 33714,0.00001711,-0.00043585,-0.00034270,-0.00044388,-0.00096487,0.000
 84972,0.00037422,-0.00133756,-0.00103566,0.00326602,0.00100910,-0.0006
 3359,0.00114361,0.00024184,-0.00045884,0.00096609,-0.00125518,-0.00161
 635,0.00152545,0.00025318,0.55160832,0.00024558,0.00008782,-0.00003888
 ,0.00007352,-0.00028659,-0.00015155,0.00025282,0.00007530,0.00011974,0
 .00027914,0.00003961,-0.00061209,-0.00003401,-0.00009768,0.00008787,-0
 .00000446,0.00017123,0.00004628,0.00001693,-0.00000139,-0.00000059,0.0
 0003121,-0.00001527,-0.00000336,-0.00002912,0.00016557,0.00003009,-0.0
 0001233,-0.00002514,-0.00003264,-0.00023872,0.00129139,0.00237182,0.00
 004069,-0.00063858,-0.00019328,0.00109122,-0.00986713,-0.00082631,-0.0
 0136932,0.00062596,-0.00283011,-0.00064798,0.00051377,-0.00023554,-0.0
 0005147,-0.00007044,-0.00008466,-0.00337093,-0.00349468,0.00193656,0.0
 0003763,0.00000056,-0.00001175,-0.03180803,-0.01579381,0.01766041,-0.0
 7862030,-0.12716543,0.02192134,0.01935356,0.00898365,-0.00982109,0.000
 46704,-0.00412777,-0.00054836,-0.00001641,0.00029734,0.00016844,-0.000
 86479,-0.00009698,0.00023592,-0.00048234,-0.00018472,0.00007867,-0.000
 00061,-0.00069451,0.00141422,-0.00120662,-0.00179756,0.00008664,-0.000
 32789,0.00037584,0.00011681,-0.00041198,0.00036676,0.00000532,0.061655
 35,0.65483936,0.00175437,0.00163499,-0.00051090,0.00066215,-0.00276757
 ,-0.00069353,0.00194777,0.00632701,0.00035283,-0.00298793,0.00286698,0
 .00146792,0.00045189,-0.00226745,-0.00057127,-0.00199214,0.00037672,0.
 00081327,0.00005389,-0.00002745,-0.00001586,0.00005349,-0.00002228,0.0
 0000800,-0.00002475,-0.00007949,0.00003111,-0.00002123,-0.00007771,0.0
 0003085,0.01194571,0.01109433,-0.00959470,0.00417792,-0.00925006,-0.00
 154324,0.02194754,-0.00912110,0.01022204,-0.00446157,0.00175530,-0.008
 21287,-0.01293581,0.00077820,0.00348352,0.00013066,0.00018863,0.000153
 64,-0.01176433,-0.00101417,0.00041527,0.00048101,0.00047437,-0.0003591
 6,0.00307101,0.00063670,0.00337357,0.13850924,0.02603887,-0.11102612,0
 .01576911,0.00566877,-0.00407018,0.00322303,-0.00100313,0.00452728,-0.
 00041167,0.00004739,0.00024339,-0.00080381,-0.00022042,0.00051166,0.00
 084283,0.00075879,-0.00051624,-0.00259834,0.00106592,-0.00234512,0.000
 39020,-0.00040734,0.00041697,0.00056043,-0.00050807,-0.00022451,0.0000
 3725,0.00029505,0.00020115,-0.27760282,0.06542489,0.26850418,-0.000003
 69,0.00005431,0.00000890,0.00001644,-0.00004845,0.00002122,-0.00002742
 ,0.00009307,-0.00009940,-0.00018706,0.00015552,0.00004840,0.00004971,-
 0.00015414,-0.00003911,-0.00011612,-0.00004746,0.00002929,0.00000106,-
 0.00000478,-0.00000261,-0.00001025,0.00001218,0.00000276,-0.00000122,-
 0.00002461,0.00000222,-0.00000076,0.00000099,0.00000657,-0.00006729,-0
 .00105798,0.00068918,-0.00022769,0.00033374,0.00021679,-0.00159092,0.0
 0286640,-0.00234033,0.00025556,-0.00003100,0.00035096,0.00067203,0.000
 24293,-0.00041357,-0.00011433,-0.00009244,-0.00007094,0.00065567,0.000
 56361,-0.00035202,0.00009414,0.00000180,-0.00003057,-0.00359376,0.0001
 2075,0.00500566,-0.00217135,-0.03013941,0.00122228,-0.00059629,0.00061
 167,-0.00225493,-0.00030903,-0.00096970,-0.00070035,0.00004277,0.00007
 510,-0.00002123,-0.00017941,-0.00013077,0.00009803,-0.00028748,-0.0001
 4879,0.00020906,-0.00031730,0.00065695,0.00010075,0.00030162,-0.000089
 49,-0.00012577,0.00009079,-0.00003511,-0.00003656,0.00016867,-0.000061
 87,-0.00004496,-0.06623413,-0.06707735,0.01116600,0.06737066,0.0000770
 6,0.00011546,-0.00002118,0.00007329,-0.00014117,-0.00004087,-0.0000149
 8,0.00035478,0.00005620,-0.00006873,0.00018637,0.00014900,-0.00000858,
 -0.00006166,0.00002318,-0.00009477,0.00004989,0.00003746,0.00000101,0.
 00000278,-0.00000138,0.00000225,-0.00000629,0.00000113,0.00000364,0.00
 001239,-0.00000646,-0.00000506,0.00000410,-0.00000652,-0.00047035,-0.0
 0012916,-0.00016235,0.00032541,-0.00056526,-0.00026517,0.00079027,-0.0
 0034640,0.00035474,-0.00022011,0.00028509,0.00008056,-0.00061991,0.000
 45049,-0.00008122,0.00011752,0.00005322,0.00012746,0.00027341,0.000052
 19,-0.00004991,-0.00002437,0.00001931,0.00000409,-0.00145986,0.0011504
 8,-0.00095472,0.00158034,-0.00246461,-0.00194921,0.00017284,0.00069155
 ,0.00085563,0.00041816,-0.00033891,0.00026282,-0.00000108,0.00001926,-
 0.00000069,-0.00017273,-0.00002554,0.00003753,0.00003481,-0.00001408,-
 0.00004598,0.00027757,-0.00001744,0.00021279,-0.00023626,0.00018655,0.
 00007334,-0.00008196,0.00002555,0.00003448,-0.00011359,-0.00003800,0.0
 0000264,-0.07268346,-0.33374600,0.00162891,0.07809576,0.34615025,-0.00
 032380,-0.00024612,0.00009769,-0.00014499,0.00042028,0.00012082,-0.000
 29510,-0.00079684,-0.00000551,0.00032189,-0.00049454,0.00003742,0.0000
 1809,0.00033105,0.00008711,0.00024323,-0.00016298,-0.00013855,-0.00000
 600,-0.00000778,-0.00000094,-0.00001282,0.00001421,0.00000099,0.000002
 97,-0.00004677,-0.00001358,0.00000432,0.00000838,0.00000174,-0.0011484
 4,-0.00258838,0.00062700,-0.00063465,0.00137711,0.00050216,-0.00418818
 ,0.00593610,-0.00509214,0.00036194,0.00017489,0.00024826,0.00235342,-0
 .00021069,-0.00076958,-0.00019397,-0.00006578,-0.00002605,0.00257814,0
 .00126335,-0.00027164,0.00010261,-0.00000159,-0.00005957,0.00386464,0.
 00117120,0.00373496,0.00102938,0.00688200,0.00465099,-0.00233307,0.001
 14525,-0.00314396,-0.00076109,0.00056599,-0.00079814,-0.00001676,-0.00
 000967,0.00000534,0.00020797,-0.00003597,-0.00006691,-0.00010211,-0.00
 007203,0.00025862,0.00004083,-0.00012640,-0.00001397,-0.00014731,0.000
 33097,-0.00008302,0.00013607,-0.00002478,-0.00004297,-0.00027128,-0.00
 000900,0.00005582,0.01552068,0.00226222,-0.03757880,-0.01220155,-0.002
 09767,0.03338883,-0.00005064,-0.00012392,-0.00000918,-0.00007295,0.000
 15991,0.00005270,-0.00000962,-0.00001897,0.00000227,0.00028015,-0.0001
 8918,-0.00041156,-0.00004429,0.00011929,0.00011234,0.00013058,0.000035
 90,-0.00003585,-0.00000514,-0.00000179,0.00000005,-0.00000121,-0.00000
 161,-0.00000544,-0.00000149,-0.00001051,0.00000456,-0.00000460,0.00000
 074,-0.00000403,-0.00122361,-0.00120434,-0.00031532,0.00006846,0.00014
 624,0.00098137,-0.00125547,-0.00034571,-0.00465585,-0.00021588,-0.0000
 0757,-0.00023320,0.00154296,-0.00013798,-0.00078800,0.00000303,-0.0000
 0773,0.00001459,0.00109625,0.00034407,0.00016078,-0.00014152,-0.000001
 39,-0.00003057,-0.00067644,0.00292657,-0.00227772,-0.01262627,0.018640
 13,0.01551385,-0.00183154,-0.00305848,0.00452375,-0.00018032,-0.000235
 04,-0.00023749,0.00017145,-0.00005744,-0.00012036,-0.00001675,-0.00005
 289,0.00005733,-0.00009152,-0.00010269,-0.00001434,-0.00043532,-0.0002
 8018,-0.00022816,0.00089778,-0.00110616,-0.00003302,-0.00006208,-0.000
 18471,0.00007484,0.00052421,-0.00002821,-0.00017362,-0.14878873,0.1030
 2995,0.09842888,0.00631640,-0.00596753,-0.00400507,0.15670414,0.000093
 96,0.00015588,-0.00001097,0.00007240,-0.00019393,-0.00001821,0.0000839
 0,0.00032705,-0.00011056,-0.00036578,0.00038072,0.00006895,0.00001832,
 -0.00021023,-0.00012242,-0.00016787,-0.00003637,0.00005915,-0.00000011
 ,0.00000208,-0.00000211,-0.00001098,0.00000542,-0.00000078,-0.00000019
 ,-0.00000729,0.00001742,0.00000034,0.00000078,0.00000909,0.00105111,0.
 00075827,0.00114981,-0.00001668,-0.00019773,-0.00031433,0.00117201,-0.
 00021582,0.00243605,-0.00003691,-0.00000703,0.00018293,-0.00110641,-0.
 00009667,0.00042089,0.00004794,-0.00000435,-0.00004185,-0.00076477,-0.
 00038207,-0.00019434,-0.00000204,-0.00002858,0.00003318,0.00033538,-0.
 00063778,0.00112946,-0.00364487,0.01047653,0.00471142,-0.00250056,0.00
 050059,0.00017827,0.00001039,0.00002371,-0.00023159,0.00007989,0.00002
 990,-0.00006575,0.00005155,0.00001857,-0.00003069,-0.00003810,-0.00002
 006,-0.00002985,-0.00124344,-0.00112613,0.00008759,-0.00101293,-0.0025
 6947,0.00029180,0.00007895,-0.00000302,-0.00008579,0.00024022,0.000236
 36,0.00009810,0.10362551,-0.16973048,-0.10029560,0.01622856,-0.0119151
 9,-0.01488605,-0.11227878,0.17446636,-0.00022189,-0.00028212,0.0000566
 8,-0.00010783,0.00036288,0.00006693,-0.00031943,-0.00060541,-0.0000255
 0,0.00049097,-0.00049676,-0.00025543,-0.00010658,0.00049776,0.00017896
 ,0.00036697,-0.00003327,-0.00015301,-0.00000181,-0.00000557,0.00000228
 ,0.00001105,-0.00000517,-0.00000107,-0.00000024,0.00001005,-0.00001722
 ,-0.00000285,0.00000091,-0.00001790,-0.00280768,-0.00192789,-0.0014093
 8,-0.00053887,0.00096901,0.00099912,-0.00244096,0.00003443,-0.00773035
 ,-0.00017670,0.00007342,-0.00021867,0.00246316,-0.00011803,-0.00046359
 ,-0.00000653,-0.00001015,0.00001280,0.00228953,0.00087992,0.00029321,-
 0.00008197,-0.00000500,-0.00003945,-0.00162099,0.00232482,-0.00381779,
 0.00108300,-0.00890697,0.00075933,0.00390761,-0.00053196,0.00559189,-0
 .00017210,-0.00010757,-0.00020293,-0.00002926,0.00004887,0.00007821,-0
 .00005799,0.00007612,0.00010308,-0.00002698,-0.00006868,0.00000715,0.0
 0095055,-0.00060540,0.00014847,-0.00075607,-0.00014396,0.00060037,-0.0
 0039319,-0.00006349,0.00005138,-0.00008217,-0.00009191,-0.00004402,0.1
 0518195,-0.09857703,-0.11749419,-0.00044415,0.00174137,0.00428759,-0.1
 0634854,0.10556678,0.11865305\\-0.00000484,-0.00000621,0.00000086,-0.0
 0000264,-0.00000101,0.00000224,-0.00000056,-0.00000986,-0.00000156,0.0
 0000013,-0.00000490,0.,-0.00000194,-0.00000053,0.00000403,-0.00000182,
 -0.00000234,-0.00000111,-0.00000445,-0.00000491,0.00000076,-0.00000078
 ,-0.00000587,0.00000047,-0.00000306,0.00000051,-0.00000084,-0.00000538
 ,-0.00000203,0.00000005,-0.00001053,-0.00001379,0.00003897,-0.00000050
 ,0.00000599,0.00000430,-0.00002708,0.00002436,-0.00004228,0.00002384,-
 0.00000435,0.00004196,0.00002370,-0.00000690,0.00000918,0.00000296,-0.
 00000219,-0.00000135,0.00002075,0.00000142,-0.00001739,0.00000039,-0.0
 0000665,0.00000133,-0.00000668,0.00002608,-0.00001347,-0.00004629,-0.0
 0001949,-0.00000472,0.00000601,0.00000217,0.00000429,0.00000042,0.0000
 0053,-0.00000208,-0.00000010,0.00000622,-0.00000292,-0.00000143,0.0000
 0748,0.00000161,0.00000010,0.00000289,-0.00000120,0.00000363,0.0000056
 0,0.00000181,-0.00000260,-0.00000139,0.00000220,0.00000133,0.00000683,
 -0.00000167,-0.00000477,0.00000220,-0.00000222,0.00006047,-0.00000686,
 0.00001546,-0.00000213,0.00000314,-0.00001130,-0.00001615,0.00000384,-
 0.00002539\\\@


 THE MORE POWERFUL THE METHOD, THE MORE CATASTROPHIC THE ERRORS.
     -- M.D. KAMEN
 Job cpu time:       0 days  4 hours 14 minutes 51.0 seconds.
 File lengths (MBytes):  RWF=   1012 Int=      0 D2E=      0 Chk=     18 Scr=      1
 Normal termination of Gaussian 09 at Thu Aug 27 21:54:54 2020.
