 Entering Gaussian System, Link 0=g09
 Input=b3lyp_m062x_quadricyclane_cycloaddition_PM6_toluene.com
 Output=b3lyp_m062x_quadricyclane_cycloaddition_PM6_toluene.log
 Initial command:
 /apps/applications/gaussian/G09.D01/2/default/g09/l1.exe "/local/746248.1.40core-192G.q/Gau-330679.inp" -scrdir="/local/746248.1.40core-192G.q/"
 Entering Link 1 = /apps/applications/gaussian/G09.D01/2/default/g09/l1.exe PID=    330680.
  
 Copyright (c) 1988,1990,1992,1993,1995,1998,2003,2009,2013,
            Gaussian, Inc.  All Rights Reserved.
  
 This is part of the Gaussian(R) 09 program.  It is based on
 the Gaussian(R) 03 system (copyright 2003, Gaussian, Inc.),
 the Gaussian(R) 98 system (copyright 1998, Gaussian, Inc.),
 the Gaussian(R) 94 system (copyright 1995, Gaussian, Inc.),
 the Gaussian 92(TM) system (copyright 1992, Gaussian, Inc.),
 the Gaussian 90(TM) system (copyright 1990, Gaussian, Inc.),
 the Gaussian 88(TM) system (copyright 1988, Gaussian, Inc.),
 the Gaussian 86(TM) system (copyright 1986, Carnegie Mellon
 University), and the Gaussian 82(TM) system (copyright 1983,
 Carnegie Mellon University). Gaussian is a federally registered
 trademark of Gaussian, Inc.
  
 This software contains proprietary and confidential information,
 including trade secrets, belonging to Gaussian, Inc.
  
 This software is provided under written license and may be
 used, copied, transmitted, or stored only in accord with that
 written license.
  
 The following legend is applicable only to US Government
 contracts under FAR:
  
                    RESTRICTED RIGHTS LEGEND
  
 Use, reproduction and disclosure by the US Government is
 subject to restrictions as set forth in subparagraphs (a)
 and (c) of the Commercial Computer Software - Restricted
 Rights clause in FAR 52.227-19.
  
 Gaussian, Inc.
 340 Quinnipiac St., Bldg. 40, Wallingford CT 06492
  
  
 ---------------------------------------------------------------
 Warning -- This program may not be used in any manner that
 competes with the business of Gaussian, Inc. or will provide
 assistance to any competitor of Gaussian, Inc.  The licensee
 of this program is prohibited from giving any competitor of
 Gaussian, Inc. access to this program.  By using this program,
 the user acknowledges that Gaussian, Inc. is engaged in the
 business of creating and licensing software in the field of
 computational chemistry and represents and warrants to the
 licensee that it is not a competitor of Gaussian, Inc. and that
 it will not use this program in any manner prohibited above.
 ---------------------------------------------------------------
  

 Cite this work as:
 Gaussian 09, Revision D.01,
 M. J. Frisch, G. W. Trucks, H. B. Schlegel, G. E. Scuseria, 
 M. A. Robb, J. R. Cheeseman, G. Scalmani, V. Barone, B. Mennucci, 
 G. A. Petersson, H. Nakatsuji, M. Caricato, X. Li, H. P. Hratchian, 
 A. F. Izmaylov, J. Bloino, G. Zheng, J. L. Sonnenberg, M. Hada, 
 M. Ehara, K. Toyota, R. Fukuda, J. Hasegawa, M. Ishida, T. Nakajima, 
 Y. Honda, O. Kitao, H. Nakai, T. Vreven, J. A. Montgomery, Jr., 
 J. E. Peralta, F. Ogliaro, M. Bearpark, J. J. Heyd, E. Brothers, 
 K. N. Kudin, V. N. Staroverov, T. Keith, R. Kobayashi, J. Normand, 
 K. Raghavachari, A. Rendell, J. C. Burant, S. S. Iyengar, J. Tomasi, 
 M. Cossi, N. Rega, J. M. Millam, M. Klene, J. E. Knox, J. B. Cross, 
 V. Bakken, C. Adamo, J. Jaramillo, R. Gomperts, R. E. Stratmann, 
 O. Yazyev, A. J. Austin, R. Cammi, C. Pomelli, J. W. Ochterski, 
 R. L. Martin, K. Morokuma, V. G. Zakrzewski, G. A. Voth, 
 P. Salvador, J. J. Dannenberg, S. Dapprich, A. D. Daniels, 
 O. Farkas, J. B. Foresman, J. V. Ortiz, J. Cioslowski, 
 and D. J. Fox, Gaussian, Inc., Wallingford CT, 2013.
 
 ******************************************
 Gaussian 09:  ES64L-G09RevD.01 24-Apr-2013
                17-Sep-2020 
 ******************************************
 %nprocshared=4
 Will use up to    4 processors via shared memory.
 %chk=b3lyp_m062x_quadricyclane_cycloaddition_PM6_toluene.chk
 ----------------------------------------------------------------------
 # opt freq b3lyp/6-31+g(d,p) scrf=(cpcm,solvent=toluene) geom=connecti
 vity empiricaldispersion=gd3
 ----------------------------------------------------------------------
 1/14=-1,18=20,19=15,26=3,38=1,57=2/1,3;
 2/9=110,12=2,17=6,18=5,40=1/2;
 3/5=1,6=6,7=111,11=2,16=1,25=1,30=1,70=2101,71=1,72=13,74=-5,124=31/1,2,3;
 4//1;
 5/5=2,38=5,53=13/2;
 6/7=2,8=2,9=2,10=2,28=1/1;
 7//1,2,3,16;
 1/14=-1,18=20,19=15,26=3/3(2);
 2/9=110/2;
 99//99;
 2/9=110/2;
 3/5=1,6=6,7=111,11=2,16=1,25=1,30=1,70=2105,71=1,72=13,74=-5,124=31/1,2,3;
 4/5=5,16=3,69=1/1;
 5/5=2,38=5,53=13/2;
 7//1,2,3,16;
 1/14=-1,18=20,19=15,26=3/3(-5);
 2/9=110/2;
 6/7=2,8=2,9=2,10=2,19=2,28=1/1;
 99/9=1/99;
 -------------------
 Title Card Required
 -------------------
 Symbolic Z-matrix:
 Charge =  0 Multiplicity = 1
 C                     0.75337   0.77151  -0.70525 
 C                     0.        1.14743   0.54669 
 C                     0.       -1.14743   0.54669 
 C                     0.75352  -0.77143  -0.70512 
 H                     1.4438    1.42804  -1.23163 
 H                     1.44406  -1.42791  -1.23142 
 C                     0.        0.        1.53444 
 H                    -0.89615  -0.00008   2.17341 
 H                     0.89615   0.00008   2.17341 
 C                    -0.75352   0.77143  -0.70512 
 H                    -1.44406   1.42791  -1.23142 
 C                    -0.75337  -0.77151  -0.70525 
 H                    -1.4438   -1.42804  -1.23163 
 H                     0.00006   2.18949   0.86841 
 H                    -0.00006  -2.18949   0.86841 
 

 GradGradGradGradGradGradGradGradGradGradGradGradGradGradGradGradGradGrad
 Berny optimization.
 Initialization pass.
                           ----------------------------
                           !    Initial Parameters    !
                           ! (Angstroms and Degrees)  !
 --------------------------                            --------------------------
 ! Name  Definition              Value          Derivative Info.                !
 --------------------------------------------------------------------------------
 ! R1    R(1,2)                  1.5087         estimate D2E/DX2                !
 ! R2    R(1,4)                  1.5429         estimate D2E/DX2                !
 ! R3    R(1,5)                  1.0885         estimate D2E/DX2                !
 ! R4    R(1,10)                 1.5069         estimate D2E/DX2                !
 ! R5    R(2,7)                  1.514          estimate D2E/DX2                !
 ! R6    R(2,10)                 1.5087         estimate D2E/DX2                !
 ! R7    R(2,14)                 1.0906         estimate D2E/DX2                !
 ! R8    R(3,4)                  1.5087         estimate D2E/DX2                !
 ! R9    R(3,7)                  1.514          estimate D2E/DX2                !
 ! R10   R(3,12)                 1.5087         estimate D2E/DX2                !
 ! R11   R(3,15)                 1.0906         estimate D2E/DX2                !
 ! R12   R(4,6)                  1.0885         estimate D2E/DX2                !
 ! R13   R(4,12)                 1.5069         estimate D2E/DX2                !
 ! R14   R(7,8)                  1.1006         estimate D2E/DX2                !
 ! R15   R(7,9)                  1.1006         estimate D2E/DX2                !
 ! R16   R(10,11)                1.0885         estimate D2E/DX2                !
 ! R17   R(10,12)                1.5429         estimate D2E/DX2                !
 ! R18   R(12,13)                1.0885         estimate D2E/DX2                !
 ! A1    A(2,1,4)              104.4272         estimate D2E/DX2                !
 ! A2    A(2,1,5)              124.5921         estimate D2E/DX2                !
 ! A3    A(4,1,5)              127.095          estimate D2E/DX2                !
 ! A4    A(4,1,10)              90.0024         estimate D2E/DX2                !
 ! A5    A(5,1,10)             129.3736         estimate D2E/DX2                !
 ! A6    A(1,2,7)              110.6419         estimate D2E/DX2                !
 ! A7    A(1,2,14)             118.8711         estimate D2E/DX2                !
 ! A8    A(7,2,10)             110.6364         estimate D2E/DX2                !
 ! A9    A(7,2,14)             122.1195         estimate D2E/DX2                !
 ! A10   A(10,2,14)            118.8769         estimate D2E/DX2                !
 ! A11   A(4,3,7)              110.6364         estimate D2E/DX2                !
 ! A12   A(4,3,15)             118.8769         estimate D2E/DX2                !
 ! A13   A(7,3,12)             110.6419         estimate D2E/DX2                !
 ! A14   A(7,3,15)             122.1195         estimate D2E/DX2                !
 ! A15   A(12,3,15)            118.8711         estimate D2E/DX2                !
 ! A16   A(1,4,3)              104.4327         estimate D2E/DX2                !
 ! A17   A(1,4,6)              127.095          estimate D2E/DX2                !
 ! A18   A(1,4,12)              89.9976         estimate D2E/DX2                !
 ! A19   A(3,4,6)              124.5913         estimate D2E/DX2                !
 ! A20   A(6,4,12)             129.3705         estimate D2E/DX2                !
 ! A21   A(2,7,3)               98.5539         estimate D2E/DX2                !
 ! A22   A(2,7,8)              112.2599         estimate D2E/DX2                !
 ! A23   A(2,7,9)              112.2531         estimate D2E/DX2                !
 ! A24   A(3,7,8)              112.2531         estimate D2E/DX2                !
 ! A25   A(3,7,9)              112.2599         estimate D2E/DX2                !
 ! A26   A(8,7,9)              109.0214         estimate D2E/DX2                !
 ! A27   A(1,10,11)            129.3705         estimate D2E/DX2                !
 ! A28   A(1,10,12)             89.9976         estimate D2E/DX2                !
 ! A29   A(2,10,11)            124.5913         estimate D2E/DX2                !
 ! A30   A(2,10,12)            104.4327         estimate D2E/DX2                !
 ! A31   A(11,10,12)           127.095          estimate D2E/DX2                !
 ! A32   A(3,12,10)            104.4272         estimate D2E/DX2                !
 ! A33   A(3,12,13)            124.5921         estimate D2E/DX2                !
 ! A34   A(4,12,10)             90.0024         estimate D2E/DX2                !
 ! A35   A(4,12,13)            129.3736         estimate D2E/DX2                !
 ! A36   A(10,12,13)           127.095          estimate D2E/DX2                !
 ! D1    D(4,1,2,7)             21.0598         estimate D2E/DX2                !
 ! D2    D(4,1,2,14)           169.9869         estimate D2E/DX2                !
 ! D3    D(5,1,2,7)           -137.9977         estimate D2E/DX2                !
 ! D4    D(5,1,2,14)            10.9294         estimate D2E/DX2                !
 ! D5    D(2,1,4,3)              0.0111         estimate D2E/DX2                !
 ! D6    D(2,1,4,6)           -158.3542         estimate D2E/DX2                !
 ! D7    D(2,1,4,12)            58.9685         estimate D2E/DX2                !
 ! D8    D(5,1,4,3)            158.3637         estimate D2E/DX2                !
 ! D9    D(5,1,4,6)             -0.0016         estimate D2E/DX2                !
 ! D10   D(5,1,4,12)          -142.6788         estimate D2E/DX2                !
 ! D11   D(10,1,4,3)           -58.948          estimate D2E/DX2                !
 ! D12   D(10,1,4,6)           142.6868         estimate D2E/DX2                !
 ! D13   D(10,1,4,12)            0.0095         estimate D2E/DX2                !
 ! D14   D(4,1,10,11)         -141.2846         estimate D2E/DX2                !
 ! D15   D(4,1,10,12)           -0.0093         estimate D2E/DX2                !
 ! D16   D(5,1,10,11)            0.0003         estimate D2E/DX2                !
 ! D17   D(5,1,10,12)          141.2756         estimate D2E/DX2                !
 ! D18   D(1,2,7,3)            -32.2491         estimate D2E/DX2                !
 ! D19   D(1,2,7,8)           -150.632          estimate D2E/DX2                !
 ! D20   D(1,2,7,9)             86.139          estimate D2E/DX2                !
 ! D21   D(10,2,7,3)            32.255          estimate D2E/DX2                !
 ! D22   D(10,2,7,8)           -86.1279         estimate D2E/DX2                !
 ! D23   D(10,2,7,9)           150.6431         estimate D2E/DX2                !
 ! D24   D(14,2,7,3)          -179.996          estimate D2E/DX2                !
 ! D25   D(14,2,7,8)            61.621          estimate D2E/DX2                !
 ! D26   D(14,2,7,9)           -61.6079         estimate D2E/DX2                !
 ! D27   D(7,2,10,11)          137.9916         estimate D2E/DX2                !
 ! D28   D(7,2,10,12)          -21.0783         estimate D2E/DX2                !
 ! D29   D(14,2,10,11)         -10.9355         estimate D2E/DX2                !
 ! D30   D(14,2,10,12)        -170.0054         estimate D2E/DX2                !
 ! D31   D(7,3,4,1)            -21.0783         estimate D2E/DX2                !
 ! D32   D(7,3,4,6)            137.9916         estimate D2E/DX2                !
 ! D33   D(15,3,4,1)          -170.0054         estimate D2E/DX2                !
 ! D34   D(15,3,4,6)           -10.9355         estimate D2E/DX2                !
 ! D35   D(4,3,7,2)             32.255          estimate D2E/DX2                !
 ! D36   D(4,3,7,8)            150.6431         estimate D2E/DX2                !
 ! D37   D(4,3,7,9)            -86.1279         estimate D2E/DX2                !
 ! D38   D(12,3,7,2)           -32.2491         estimate D2E/DX2                !
 ! D39   D(12,3,7,8)            86.139          estimate D2E/DX2                !
 ! D40   D(12,3,7,9)          -150.632          estimate D2E/DX2                !
 ! D41   D(15,3,7,2)          -179.996          estimate D2E/DX2                !
 ! D42   D(15,3,7,8)           -61.6079         estimate D2E/DX2                !
 ! D43   D(15,3,7,9)            61.621          estimate D2E/DX2                !
 ! D44   D(7,3,12,10)           21.0598         estimate D2E/DX2                !
 ! D45   D(7,3,12,13)         -137.9977         estimate D2E/DX2                !
 ! D46   D(15,3,12,10)         169.9869         estimate D2E/DX2                !
 ! D47   D(15,3,12,13)          10.9294         estimate D2E/DX2                !
 ! D48   D(1,4,12,10)           -0.0093         estimate D2E/DX2                !
 ! D49   D(1,4,12,13)          141.2756         estimate D2E/DX2                !
 ! D50   D(6,4,12,10)         -141.2846         estimate D2E/DX2                !
 ! D51   D(6,4,12,13)            0.0003         estimate D2E/DX2                !
 ! D52   D(1,10,12,3)           58.9685         estimate D2E/DX2                !
 ! D53   D(1,10,12,4)            0.0095         estimate D2E/DX2                !
 ! D54   D(1,10,12,13)        -142.6788         estimate D2E/DX2                !
 ! D55   D(2,10,12,3)            0.0111         estimate D2E/DX2                !
 ! D56   D(2,10,12,4)          -58.948          estimate D2E/DX2                !
 ! D57   D(2,10,12,13)         158.3637         estimate D2E/DX2                !
 ! D58   D(11,10,12,3)        -158.3542         estimate D2E/DX2                !
 ! D59   D(11,10,12,4)         142.6868         estimate D2E/DX2                !
 ! D60   D(11,10,12,13)         -0.0016         estimate D2E/DX2                !
 --------------------------------------------------------------------------------
 Trust Radius=3.00D-01 FncErr=1.00D-07 GrdErr=1.00D-06
 Number of steps in this run=    100 maximum allowed number of steps=    100.
 GradGradGradGradGradGradGradGradGradGradGradGradGradGradGradGradGradGrad

                          Input orientation:                          
 ---------------------------------------------------------------------
 Center     Atomic      Atomic             Coordinates (Angstroms)
 Number     Number       Type             X           Y           Z
 ---------------------------------------------------------------------
      1          6           0        0.753370    0.771506   -0.705247
      2          6           0        0.000000    1.147432    0.546688
      3          6           0        0.000000   -1.147432    0.546688
      4          6           0        0.753516   -0.771427   -0.705122
      5          1           0        1.443803    1.428039   -1.231629
      6          1           0        1.444057   -1.427912   -1.231415
      7          6           0        0.000000    0.000000    1.534439
      8          1           0       -0.896154   -0.000080    2.173407
      9          1           0        0.896154    0.000080    2.173407
     10          6           0       -0.753516    0.771427   -0.705122
     11          1           0       -1.444057    1.427912   -1.231415
     12          6           0       -0.753370   -0.771506   -0.705247
     13          1           0       -1.443803   -1.428039   -1.231629
     14          1           0        0.000064    2.189489    0.868410
     15          1           0       -0.000064   -2.189489    0.868410
 ---------------------------------------------------------------------
                    Distance matrix (angstroms):
                    1          2          3          4          5
     1  C    0.000000
     2  C    1.508717   0.000000
     3  C    2.411894   2.294864   0.000000
     4  C    1.542933   2.411811   1.508706   0.000000
     5  H    1.088490   2.307752   3.446742   2.364605   0.000000
     6  H    2.364602   3.446643   2.307730   1.088487   2.855951
     7  C    2.485756   1.514019   1.514019   2.485663   3.431471
     8  H    3.406306   2.183138   2.183054   3.406217   4.371406
     9  H    2.983644   2.183054   2.183138   2.983538   3.732728
    10  C    1.506886   1.508706   2.411811   2.156744   2.352990
    11  H    2.352957   2.307730   3.446643   3.153316   2.887860
    12  C    2.156653   2.411894   1.508717   1.506886   3.153196
    13  H    3.153196   3.446742   2.307752   2.352990   4.061459
    14  H    2.248231   1.090591   3.352394   3.436672   2.659765
    15  H    3.436794   3.352394   1.090591   2.248285   4.425090
                    6          7          8          9         10
     6  H    0.000000
     7  C    3.431353   0.000000
     8  H    4.371282   1.100624   0.000000
     9  H    3.732582   1.100624   1.792308   0.000000
    10  C    3.153316   2.485663   2.983538   3.406217   0.000000
    11  H    4.061642   3.431353   3.732582   4.371282   1.088487
    12  C    2.352957   2.485756   2.983644   3.406306   1.542933
    13  H    2.887860   3.431471   3.732728   4.371406   2.364605
    14  H    4.424926   2.288549   2.701932   2.701760   2.248285
    15  H    2.659840   2.288549   2.701760   2.701932   3.436672
                   11         12         13         14         15
    11  H    0.000000
    12  C    2.364602   0.000000
    13  H    2.855951   1.088490   0.000000
    14  H    2.659840   3.436794   4.425090   0.000000
    15  H    4.424926   2.248231   2.659765   4.378978   0.000000
 Stoichiometry    C7H8
 Framework group  C2[C2(C),X(C6H8)]
 Deg. of freedom    20
 Full point group                 C2      NOp   2
 Largest Abelian subgroup         C2      NOp   2
 Largest concise Abelian subgroup C2      NOp   2
                         Standard orientation:                         
 ---------------------------------------------------------------------
 Center     Atomic      Atomic             Coordinates (Angstroms)
 Number     Number       Type             X           Y           Z
 ---------------------------------------------------------------------
      1          6           0        0.753370    0.771506   -0.705247
      2          6           0        0.000000    1.147432    0.546688
      3          6           0        0.000000   -1.147432    0.546688
      4          6           0        0.753516   -0.771427   -0.705122
      5          1           0        1.443803    1.428039   -1.231629
      6          1           0        1.444057   -1.427912   -1.231415
      7          6           0        0.000000    0.000000    1.534439
      8          1           0       -0.896154   -0.000080    2.173407
      9          1           0        0.896154    0.000080    2.173407
     10          6           0       -0.753516    0.771427   -0.705122
     11          1           0       -1.444057    1.427912   -1.231415
     12          6           0       -0.753370   -0.771506   -0.705247
     13          1           0       -1.443803   -1.428039   -1.231629
     14          1           0        0.000064    2.189489    0.868410
     15          1           0       -0.000064   -2.189489    0.868410
 ---------------------------------------------------------------------
 Rotational constants (GHZ):      4.4444595      4.3823541      3.2713406
 Standard basis: 6-31+G(d,p) (6D, 7F)
 There are    88 symmetry adapted cartesian basis functions of A   symmetry.
 There are    85 symmetry adapted cartesian basis functions of B   symmetry.
 There are    88 symmetry adapted basis functions of A   symmetry.
 There are    85 symmetry adapted basis functions of B   symmetry.
   173 basis functions,   280 primitive gaussians,   173 cartesian basis functions
    25 alpha electrons       25 beta electrons
       nuclear repulsion energy       297.1533024181 Hartrees.
 NAtoms=   15 NActive=   15 NUniq=    8 SFac= 3.52D+00 NAtFMM=   60 NAOKFM=F Big=F
 Integral buffers will be    131072 words long.
 Raffenetti 2 integral format.
 Two-electron integral symmetry is turned on.
 Nuclear repulsion after empirical dispersion term =      297.1450331329 Hartrees.
 ------------------------------------------------------------------------------
 Polarizable Continuum Model (PCM)
 =================================
 Model                : C-PCM.
 Atomic radii         : UFF (Universal Force Field).
 Polarization charges : Total charges.
 Charge compensation  : None.
 Solution method      : On-the-fly selection.
 Cavity type          : Scaled VdW (van der Waals Surface) (Alpha=1.100).
 Cavity algorithm     : GePol (No added spheres)
                        Default sphere list used, NSphG=   15.
                        Lebedev-Laikov grids with approx.  5.0 points / Ang**2.
                        Smoothing algorithm: Karplus/York (Gamma=1.0000).
                        Polarization charges: spherical gaussians, with
                                              point-specific exponents (IZeta= 3).
                        Self-potential: point-specific (ISelfS= 7).
                        Self-field    : sphere-specific E.n sum rule (ISelfD= 2).
 1st derivatives      : Analytical E(r).r(x)/FMM algorithm (CHGder, D1EAlg=3).
                        Cavity 1st derivative terms included.
 Solvent              : Toluene, Eps=   2.374100 Eps(inf)=   2.238315
 ------------------------------------------------------------------------------
 Spheres list:
 ISph  on   Nord     Re0    Alpha      Xe            Ye            Ze
    1   C      1    1.9255  1.100      0.753370      0.771506     -0.705247
    2   C      2    1.9255  1.100      0.000000      1.147432      0.546688
    3   C      3    1.9255  1.100      0.000000     -1.147432      0.546688
    4   C      4    1.9255  1.100      0.753516     -0.771427     -0.705122
    5   H      5    1.4430  1.100      1.443803      1.428039     -1.231629
    6   H      6    1.4430  1.100      1.444057     -1.427912     -1.231415
    7   C      7    1.9255  1.100      0.000000      0.000000      1.534439
    8   H      8    1.4430  1.100     -0.896154     -0.000080      2.173407
    9   H      9    1.4430  1.100      0.896154      0.000080      2.173407
   10   C     10    1.9255  1.100     -0.753516      0.771427     -0.705122
   11   H     11    1.4430  1.100     -1.444057      1.427912     -1.231415
   12   C     12    1.9255  1.100     -0.753370     -0.771506     -0.705247
   13   H     13    1.4430  1.100     -1.443803     -1.428039     -1.231629
   14   H     14    1.4430  1.100      0.000064      2.189489      0.868410
   15   H     15    1.4430  1.100     -0.000064     -2.189489      0.868410
 ------------------------------------------------------------------------------
 One-electron integrals computed using PRISM.
 NBasis=   173 RedAO= T EigKep=  1.21D-05  NBF=    88    85
 NBsUse=   173 1.00D-06 EigRej= -1.00D+00 NBFU=    88    85
 ExpMin= 4.38D-02 ExpMax= 3.05D+03 ExpMxC= 4.57D+02 IAcc=2 IRadAn=         4 AccDes= 0.00D+00
 Harris functional with IExCor=  402 and IRadAn=       4 diagonalized for initial guess.
 HarFok:  IExCor=  402 AccDes= 0.00D+00 IRadAn=         4 IDoV= 1 UseB2=F ITyADJ=14
 ICtDFT=  3500011 ScaDFX=  1.000000  1.000000  1.000000  1.000000
 FoFCou: FMM=F IPFlag=           0 FMFlag=      100000 FMFlg1=           0
         NFxFlg=           0 DoJE=T BraDBF=F KetDBF=T FulRan=T
         wScrn=  0.000000 ICntrl=     500 IOpCl=  0 I1Cent=   200000004 NGrid=           0
         NMat0=    1 NMatS0=      1 NMatT0=    0 NMatD0=    1 NMtDS0=    0 NMtDT0=    0
 Petite list used in FoFCou.
 Initial guess orbital symmetries:
       Occupied  (A) (B) (A) (A) (B) (B) (A) (A) (B) (A) (B) (A)
                 (B) (A) (A) (B) (A) (B) (A) (B) (B) (A) (B) (A)
                 (B)
       Virtual   (B) (A) (B) (A) (B) (B) (A) (A) (B) (B) (A) (A)
                 (A) (B) (A) (B) (A) (A) (B) (B) (A) (A) (B) (B)
                 (A) (B) (A) (B) (A) (B) (B) (A) (A) (A) (B) (B)
                 (B) (A) (B) (A) (B) (B) (B) (A) (A) (A) (A) (A)
                 (B) (B) (B) (A) (A) (B) (B) (A) (B) (A) (B) (A)
                 (A) (B) (B) (A) (B) (A) (B) (A) (B) (B) (A) (A)
                 (A) (B) (A) (B) (A) (B) (B) (A) (A) (A) (A) (B)
                 (A) (A) (B) (B) (A) (B) (A) (B) (B) (A) (B) (B)
                 (B) (A) (A) (B) (A) (A) (B) (B) (A) (B) (A) (A)
                 (B) (B) (A) (B) (A) (B) (B) (A) (A) (A) (B) (A)
                 (B) (B) (A) (B) (B) (A) (B) (B) (A) (A) (A) (A)
                 (B) (A) (B) (A) (B) (A) (B) (B) (A) (A) (B) (A)
                 (B) (A) (B) (A)
 The electronic state of the initial guess is 1-A.
 Requested convergence on RMS density matrix=1.00D-08 within 128 cycles.
 Requested convergence on MAX density matrix=1.00D-06.
 Requested convergence on             energy=1.00D-06.
 No special actions if energy rises.
 Inv3:  Mode=1 IEnd=     4298427.
 Iteration    1 A*A^-1 deviation from unit magnitude is 3.55D-15 for   1179.
 Iteration    1 A*A^-1 deviation from orthogonality  is 2.19D-15 for   1172    106.
 Iteration    1 A^-1*A deviation from unit magnitude is 3.77D-15 for   1179.
 Iteration    1 A^-1*A deviation from orthogonality  is 1.86D-15 for   1193    157.
 Error on total polarization charges =  0.00833
 SCF Done:  E(RB3LYP) =  -271.473820152     A.U. after   12 cycles
            NFock= 12  Conv=0.84D-09     -V/T= 2.0095

 **********************************************************************

            Population analysis using the SCF density.

 **********************************************************************

 Orbital symmetries:
       Occupied  (A) (B) (A) (B) (B) (A) (A) (A) (B) (A) (B) (A)
                 (B) (A) (A) (B) (B) (A) (A) (B) (B) (A) (B) (A)
                 (B)
       Virtual   (A) (B) (B) (A) (B) (A) (A) (B) (A) (B) (B) (A)
                 (B) (A) (A) (B) (B) (B) (A) (A) (A) (B) (B) (A)
                 (A) (B) (B) (A) (B) (A) (B) (A) (A) (B) (B) (A)
                 (A) (B) (B) (B) (B) (A) (A) (A) (B) (A) (A) (A)
                 (B) (B) (B) (A) (B) (A) (B) (B) (A) (A) (B) (A)
                 (A) (B) (B) (A) (B) (B) (A) (A) (B) (B) (A) (A)
                 (A) (B) (A) (B) (A) (B) (B) (A) (A) (A) (A) (B)
                 (A) (A) (B) (B) (A) (B) (A) (B) (B) (A) (B) (B)
                 (B) (A) (A) (B) (A) (A) (B) (B) (A) (B) (A) (A)
                 (B) (B) (A) (A) (B) (B) (B) (A) (A) (A) (B) (A)
                 (B) (B) (A) (B) (B) (A) (B) (B) (A) (A) (A) (A)
                 (B) (A) (B) (A) (B) (A) (B) (B) (A) (A) (B) (A)
                 (B) (A) (B) (A)
 The electronic state is 1-A.
 Alpha  occ. eigenvalues --  -10.19213 -10.19212 -10.19132 -10.19114 -10.19110
 Alpha  occ. eigenvalues --  -10.19091 -10.18466  -0.94884  -0.78806  -0.73430
 Alpha  occ. eigenvalues --   -0.63585  -0.56807  -0.55131  -0.53640  -0.51754
 Alpha  occ. eigenvalues --   -0.44190  -0.43266  -0.43206  -0.39636  -0.35217
 Alpha  occ. eigenvalues --   -0.34422  -0.31437  -0.28245  -0.27176  -0.22523
 Alpha virt. eigenvalues --    0.00767   0.02006   0.02371   0.02600   0.04277
 Alpha virt. eigenvalues --    0.04485   0.04781   0.06621   0.07174   0.08425
 Alpha virt. eigenvalues --    0.10312   0.10556   0.11274   0.11327   0.11506
 Alpha virt. eigenvalues --    0.11569   0.12543   0.12754   0.14619   0.14967
 Alpha virt. eigenvalues --    0.16562   0.16985   0.18738   0.19007   0.19556
 Alpha virt. eigenvalues --    0.19570   0.19615   0.19723   0.20325   0.21539
 Alpha virt. eigenvalues --    0.22101   0.24074   0.25031   0.26885   0.28492
 Alpha virt. eigenvalues --    0.29464   0.29508   0.29786   0.34351   0.34740
 Alpha virt. eigenvalues --    0.35179   0.36099   0.36264   0.39226   0.40327
 Alpha virt. eigenvalues --    0.45829   0.60897   0.63706   0.64845   0.65821
 Alpha virt. eigenvalues --    0.67852   0.71005   0.75338   0.75930   0.76176
 Alpha virt. eigenvalues --    0.77777   0.77867   0.78937   0.79027   0.80214
 Alpha virt. eigenvalues --    0.80514   0.84793   0.88950   0.91544   0.93621
 Alpha virt. eigenvalues --    0.94867   0.95925   0.96010   1.00257   1.01657
 Alpha virt. eigenvalues --    1.04530   1.10630   1.11052   1.16003   1.20749
 Alpha virt. eigenvalues --    1.21453   1.22526   1.25979   1.33252   1.41720
 Alpha virt. eigenvalues --    1.46145   1.56171   1.58378   1.59231   1.62338
 Alpha virt. eigenvalues --    1.68057   1.69217   1.74044   1.74893   1.79998
 Alpha virt. eigenvalues --    1.85737   1.87038   1.95338   1.96631   1.99308
 Alpha virt. eigenvalues --    1.99586   2.01257   2.02065   2.05280   2.08458
 Alpha virt. eigenvalues --    2.19725   2.24724   2.26858   2.28059   2.34353
 Alpha virt. eigenvalues --    2.36153   2.38277   2.38535   2.40477   2.41364
 Alpha virt. eigenvalues --    2.41732   2.42826   2.44029   2.47743   2.47794
 Alpha virt. eigenvalues --    2.50740   2.58020   2.58693   2.60039   2.61033
 Alpha virt. eigenvalues --    2.63544   2.67223   2.67296   2.71731   2.76251
 Alpha virt. eigenvalues --    2.79249   2.84670   2.86397   2.86974   2.94383
 Alpha virt. eigenvalues --    3.01917   3.07124   3.11999   3.25565   3.29390
 Alpha virt. eigenvalues --    3.32084   3.39001   3.48066   3.49385   3.59970
 Alpha virt. eigenvalues --    3.79391   4.43994   4.51440   4.51621   4.55529
 Alpha virt. eigenvalues --    4.80290   4.83977   4.92161
          Condensed to atoms (all electrons):
               1          2          3          4          5          6
     1  C    8.682217  -1.436538   1.138552  -2.458767   0.112514   0.118690
     2  C   -1.436538   8.395542  -1.946181   1.138292   0.077077  -0.042015
     3  C    1.138552  -1.946181   8.395542  -1.436485  -0.042017   0.077072
     4  C   -2.458767   1.138292  -1.436485   8.682100   0.118710   0.112548
     5  H    0.112514   0.077077  -0.042017   0.118710   0.571085  -0.004160
     6  H    0.118690  -0.042015   0.077072   0.112548  -0.004160   0.571088
     7  C    0.071239  -0.093049  -0.093049   0.071303  -0.000256  -0.000261
     8  H    0.021577  -0.009883  -0.009902   0.021566  -0.000084  -0.000084
     9  H   -0.036807  -0.009902  -0.009883  -0.036820   0.000163   0.000163
    10  C   -1.247629  -1.436485   1.138292   1.090017   0.098593  -0.050367
    11  H    0.098579   0.077072  -0.042015  -0.050367  -0.003049  -0.000073
    12  C    1.089719   1.138552  -1.436538  -1.247629  -0.050375   0.098579
    13  H   -0.050375  -0.042017   0.077077   0.098593  -0.000073  -0.003049
    14  H    0.079464   0.169151   0.075565  -0.037344  -0.004157   0.000010
    15  H   -0.037351   0.075565   0.169151   0.079469   0.000010  -0.004157
               7          8          9         10         11         12
     1  C    0.071239   0.021577  -0.036807  -1.247629   0.098579   1.089719
     2  C   -0.093049  -0.009883  -0.009902  -1.436485   0.077072   1.138552
     3  C   -0.093049  -0.009902  -0.009883   1.138292  -0.042015  -1.436538
     4  C    0.071303   0.021566  -0.036820   1.090017  -0.050367  -1.247629
     5  H   -0.000256  -0.000084   0.000163   0.098593  -0.003049  -0.050375
     6  H   -0.000261  -0.000084   0.000163  -0.050367  -0.000073   0.098579
     7  C    5.552991   0.372006   0.372006   0.071303  -0.000261   0.071239
     8  H    0.372006   0.573755  -0.034873  -0.036820   0.000163  -0.036807
     9  H    0.372006  -0.034873   0.573755   0.021566  -0.000084   0.021577
    10  C    0.071303  -0.036820   0.021566   8.682100   0.112548  -2.458767
    11  H   -0.000261   0.000163  -0.000084   0.112548   0.571088   0.118690
    12  C    0.071239  -0.036807   0.021577  -2.458767   0.118690   8.682217
    13  H   -0.000256   0.000163  -0.000084   0.118710  -0.004160   0.112514
    14  H   -0.013574  -0.001088  -0.001089   0.079469  -0.004157  -0.037351
    15  H   -0.013574  -0.001089  -0.001088  -0.037344   0.000010   0.079464
              13         14         15
     1  C   -0.050375   0.079464  -0.037351
     2  C   -0.042017   0.169151   0.075565
     3  C    0.077077   0.075565   0.169151
     4  C    0.098593  -0.037344   0.079469
     5  H   -0.000073  -0.004157   0.000010
     6  H   -0.003049   0.000010  -0.004157
     7  C   -0.000256  -0.013574  -0.013574
     8  H    0.000163  -0.001088  -0.001089
     9  H   -0.000084  -0.001089  -0.001088
    10  C    0.118710   0.079469  -0.037344
    11  H   -0.004160  -0.004157   0.000010
    12  C    0.112514  -0.037351   0.079464
    13  H    0.571085   0.000010  -0.004157
    14  H    0.000010   0.559358  -0.000184
    15  H   -0.004157  -0.000184   0.559358
 Mulliken charges:
               1
     1  C   -0.145084
     2  C   -0.055179
     3  C   -0.055179
     4  C   -0.145186
     5  H    0.126019
     6  H    0.126015
     7  C   -0.367808
     8  H    0.141401
     9  H    0.141401
    10  C   -0.145186
    11  H    0.126015
    12  C   -0.145084
    13  H    0.126019
    14  H    0.135918
    15  H    0.135918
 Sum of Mulliken charges =   0.00000
 Mulliken charges with hydrogens summed into heavy atoms:
               1
     1  C   -0.019065
     2  C    0.080739
     3  C    0.080739
     4  C   -0.019171
     7  C   -0.085006
    10  C   -0.019171
    12  C   -0.019065
 Electronic spatial extent (au):  <R**2>=            514.2796
 Charge=              0.0000 electrons
 Dipole moment (field-independent basis, Debye):
    X=              0.0000    Y=              0.0000    Z=             -0.0364  Tot=              0.0364
 Quadrupole moment (field-independent basis, Debye-Ang):
   XX=            -42.5817   YY=            -39.7054   ZZ=            -42.3321
   XY=              0.0006   XZ=              0.0000   YZ=              0.0000
 Traceless Quadrupole moment (field-independent basis, Debye-Ang):
   XX=             -1.0420   YY=              1.8343   ZZ=             -0.7923
   XY=              0.0006   XZ=              0.0000   YZ=              0.0000
 Octapole moment (field-independent basis, Debye-Ang**2):
  XXX=              0.0000  YYY=              0.0000  ZZZ=              2.7677  XYY=              0.0000
  XXY=              0.0000  XXZ=             -3.4891  XZZ=              0.0000  YZZ=              0.0000
  YYZ=             -1.0889  XYZ=              0.0002
 Hexadecapole moment (field-independent basis, Debye-Ang**3):
 XXXX=           -165.3616 YYYY=           -265.7788 ZZZZ=           -288.9175 XXXY=              0.0004
 XXXZ=              0.0000 YYYX=              0.0040 YYYZ=              0.0000 ZZZX=              0.0000
 ZZZY=              0.0000 XXYY=            -73.3699 XXZZ=            -67.8210 YYZZ=            -91.4691
 XXYZ=              0.0000 YYXZ=              0.0000 ZZXY=              0.0037
 N-N= 2.971450331329D+02 E-N=-1.222159470100D+03  KE= 2.689224836091D+02
 Symmetry A    KE= 1.498875618473D+02
 Symmetry B    KE= 1.190349217618D+02
 D1PCM: C-PCM CHGder 1st derivatives, ID1Alg=3 FixD1E=F DoIter=F DoCFld=F I1PDM=0.
 Calling FoFJK, ICntrl=      2127 FMM=F ISym2X=1 I1Cent= 0 IOpClX= 0 NMat=1 NMatS=1 NMatT=0.
 ***** Axes restored to original set *****
 -------------------------------------------------------------------
 Center     Atomic                   Forces (Hartrees/Bohr)
 Number     Number              X              Y              Z
 -------------------------------------------------------------------
      1        6           0.010418580    0.005182058   -0.006361796
      2        6          -0.000010277    0.009190770    0.007742282
      3        6           0.000010277   -0.009190770    0.007742282
      4        6           0.010400485   -0.005191955   -0.006417554
      5        1          -0.001629079   -0.002067472    0.001565932
      6        1          -0.001628823    0.002067240    0.001560935
      7        6           0.000000000    0.000000000    0.006678392
      8        1           0.002135668    0.000009555   -0.001083245
      9        1          -0.002135668   -0.000009555   -0.001083245
     10        6          -0.010400485    0.005191955   -0.006417554
     11        1           0.001628823   -0.002067240    0.001560935
     12        6          -0.010418580   -0.005182058   -0.006361796
     13        1           0.001629079    0.002067472    0.001565932
     14        1          -0.000008690   -0.003177323   -0.000345750
     15        1           0.000008690    0.003177323   -0.000345750
 -------------------------------------------------------------------
 Cartesian Forces:  Max     0.010418580 RMS     0.004960248

 GradGradGradGradGradGradGradGradGradGradGradGradGradGradGradGradGradGrad
 Berny optimization.
 FormGI is forming the generalized inverse of G from B-inverse, IUseBI=4.
 Internal  Forces:  Max     0.005904344 RMS     0.001741982
 Search for a local minimum.
 Step number   1 out of a maximum of  100
 All quantities printed in internal units (Hartrees-Bohrs-Radians)
 Mixed Optimization -- RFO/linear search
 Second derivative matrix not updated -- first step.
 ITU=  0
     Eigenvalues ---    0.01157   0.01173   0.01510   0.01701   0.01790
     Eigenvalues ---    0.01925   0.02044   0.02149   0.04685   0.05881
     Eigenvalues ---    0.06248   0.06536   0.06856   0.07157   0.07918
     Eigenvalues ---    0.08585   0.10424   0.10949   0.10966   0.15484
     Eigenvalues ---    0.15964   0.18977   0.19604   0.22292   0.22704
     Eigenvalues ---    0.26296   0.27058   0.28227   0.29645   0.29925
     Eigenvalues ---    0.31527   0.33613   0.33613   0.34744   0.34744
     Eigenvalues ---    0.34988   0.34988   0.34988   0.34988
 RFO step:  Lambda=-1.11044489D-03 EMin= 1.15713987D-02
 Linear search not attempted -- first point.
 Iteration  1 RMS(Cart)=  0.00455259 RMS(Int)=  0.00000982
 Iteration  2 RMS(Cart)=  0.00000743 RMS(Int)=  0.00000249
 Iteration  3 RMS(Cart)=  0.00000000 RMS(Int)=  0.00000249
 ClnCor:  largest displacement from symmetrization is 1.26D-11 for atom    11.
 Variable       Old X    -DE/DX   Delta X   Delta X   Delta X     New X
                                 (Linear)    (Quad)   (Total)
    R1        2.85106   0.00581   0.00000   0.01848   0.01848   2.86954
    R2        2.91572   0.00459   0.00000   0.01661   0.01661   2.93234
    R3        2.05695  -0.00304   0.00000  -0.00865  -0.00865   2.04829
    R4        2.84760   0.00590   0.00000   0.01857   0.01857   2.86617
    R5        2.86108   0.00380   0.00000   0.01163   0.01163   2.87271
    R6        2.85104   0.00581   0.00000   0.01849   0.01849   2.86953
    R7        2.06092  -0.00314   0.00000  -0.00900  -0.00900   2.05191
    R8        2.85104   0.00581   0.00000   0.01849   0.01849   2.86953
    R9        2.86108   0.00380   0.00000   0.01163   0.01163   2.87271
   R10        2.85106   0.00581   0.00000   0.01848   0.01848   2.86954
   R11        2.06092  -0.00314   0.00000  -0.00900  -0.00900   2.05191
   R12        2.05694  -0.00303   0.00000  -0.00865  -0.00865   2.04830
   R13        2.84760   0.00590   0.00000   0.01857   0.01857   2.86617
   R14        2.07988  -0.00237   0.00000  -0.00702  -0.00702   2.07286
   R15        2.07988  -0.00237   0.00000  -0.00702  -0.00702   2.07286
   R16        2.05694  -0.00303   0.00000  -0.00865  -0.00865   2.04830
   R17        2.91572   0.00459   0.00000   0.01661   0.01661   2.93234
   R18        2.05695  -0.00304   0.00000  -0.00865  -0.00865   2.04829
    A1        1.82260  -0.00013   0.00000  -0.00048  -0.00048   1.82212
    A2        2.17454   0.00022   0.00000   0.00020   0.00019   2.17474
    A3        2.21823  -0.00017   0.00000  -0.00134  -0.00134   2.21688
    A4        1.57084   0.00000   0.00000  -0.00009  -0.00009   1.57075
    A5        2.25800   0.00021   0.00000   0.00351   0.00351   2.26150
    A6        1.93107  -0.00010   0.00000  -0.00068  -0.00068   1.93039
    A7        2.07469   0.00030   0.00000   0.00299   0.00299   2.07768
    A8        1.93097  -0.00010   0.00000  -0.00046  -0.00046   1.93051
    A9        2.13139  -0.00026   0.00000  -0.00291  -0.00291   2.12848
   A10        2.07479   0.00030   0.00000   0.00287   0.00287   2.07766
   A11        1.93097  -0.00010   0.00000  -0.00046  -0.00046   1.93051
   A12        2.07479   0.00030   0.00000   0.00287   0.00287   2.07766
   A13        1.93107  -0.00010   0.00000  -0.00068  -0.00068   1.93039
   A14        2.13139  -0.00026   0.00000  -0.00291  -0.00291   2.12848
   A15        2.07469   0.00030   0.00000   0.00299   0.00299   2.07768
   A16        1.82270  -0.00014   0.00000  -0.00068  -0.00068   1.82202
   A17        2.21823  -0.00017   0.00000  -0.00131  -0.00132   2.21691
   A18        1.57075   0.00000   0.00000   0.00009   0.00009   1.57085
   A19        2.17453   0.00022   0.00000   0.00022   0.00022   2.17474
   A20        2.25794   0.00022   0.00000   0.00355   0.00355   2.26149
   A21        1.72009   0.00053   0.00000   0.00267   0.00267   1.72276
   A22        1.95930  -0.00010   0.00000   0.00036   0.00035   1.95966
   A23        1.95919  -0.00009   0.00000   0.00048   0.00048   1.95966
   A24        1.95919  -0.00009   0.00000   0.00048   0.00048   1.95966
   A25        1.95930  -0.00010   0.00000   0.00036   0.00035   1.95966
   A26        1.90278  -0.00010   0.00000  -0.00366  -0.00366   1.89912
   A27        2.25794   0.00022   0.00000   0.00355   0.00355   2.26149
   A28        1.57075   0.00000   0.00000   0.00009   0.00009   1.57085
   A29        2.17453   0.00022   0.00000   0.00022   0.00022   2.17474
   A30        1.82270  -0.00014   0.00000  -0.00068  -0.00068   1.82202
   A31        2.21823  -0.00017   0.00000  -0.00131  -0.00132   2.21691
   A32        1.82260  -0.00013   0.00000  -0.00048  -0.00048   1.82212
   A33        2.17454   0.00022   0.00000   0.00020   0.00019   2.17474
   A34        1.57084   0.00000   0.00000  -0.00009  -0.00009   1.57075
   A35        2.25800   0.00021   0.00000   0.00351   0.00351   2.26150
   A36        2.21823  -0.00017   0.00000  -0.00134  -0.00134   2.21688
    D1        0.36756  -0.00013   0.00000  -0.00036  -0.00036   0.36720
    D2        2.96683  -0.00032   0.00000  -0.00242  -0.00242   2.96441
    D3       -2.40851   0.00014   0.00000   0.00412   0.00412  -2.40439
    D4        0.19075  -0.00006   0.00000   0.00206   0.00206   0.19281
    D5        0.00019  -0.00001   0.00000  -0.00043  -0.00043  -0.00024
    D6       -2.76380   0.00017   0.00000   0.00416   0.00416  -2.75964
    D7        1.02919  -0.00001   0.00000  -0.00032  -0.00032   1.02887
    D8        2.76397  -0.00017   0.00000  -0.00462  -0.00462   2.75935
    D9       -0.00003   0.00000   0.00000  -0.00003  -0.00003  -0.00006
   D10       -2.49022  -0.00017   0.00000  -0.00452  -0.00451  -2.49473
   D11       -1.02884  -0.00001   0.00000  -0.00046  -0.00046  -1.02929
   D12        2.49035   0.00017   0.00000   0.00413   0.00413   2.49448
   D13        0.00017  -0.00001   0.00000  -0.00035  -0.00035  -0.00019
   D14       -2.46588   0.00007   0.00000  -0.00125  -0.00125  -2.46713
   D15       -0.00016   0.00001   0.00000   0.00034   0.00034   0.00018
   D16        0.00001   0.00000   0.00000   0.00001   0.00001   0.00002
   D17        2.46572  -0.00006   0.00000   0.00161   0.00161   2.46733
   D18       -0.56285   0.00000   0.00000   0.00000   0.00000  -0.56286
   D19       -2.62902  -0.00014   0.00000  -0.00215  -0.00215  -2.63118
   D20        1.50341   0.00014   0.00000   0.00205   0.00205   1.50546
   D21        0.56296   0.00000   0.00000  -0.00023  -0.00023   0.56273
   D22       -1.50322  -0.00015   0.00000  -0.00237  -0.00237  -1.50559
   D23        2.62922   0.00014   0.00000   0.00183   0.00183   2.63105
   D24       -3.14152   0.00000   0.00000  -0.00004  -0.00004  -3.14157
   D25        1.07549  -0.00014   0.00000  -0.00219  -0.00219   1.07330
   D26       -1.07526   0.00014   0.00000   0.00201   0.00201  -1.07325
   D27        2.40841  -0.00014   0.00000  -0.00378  -0.00379   2.40462
   D28       -0.36789   0.00014   0.00000   0.00108   0.00108  -0.36680
   D29       -0.19086   0.00006   0.00000  -0.00190  -0.00191  -0.19277
   D30       -2.96715   0.00033   0.00000   0.00296   0.00296  -2.96419
   D31       -0.36789   0.00014   0.00000   0.00108   0.00108  -0.36680
   D32        2.40841  -0.00014   0.00000  -0.00378  -0.00379   2.40462
   D33       -2.96715   0.00033   0.00000   0.00296   0.00296  -2.96419
   D34       -0.19086   0.00006   0.00000  -0.00190  -0.00191  -0.19277
   D35        0.56296   0.00000   0.00000  -0.00023  -0.00023   0.56273
   D36        2.62922   0.00014   0.00000   0.00183   0.00183   2.63105
   D37       -1.50322  -0.00015   0.00000  -0.00237  -0.00237  -1.50559
   D38       -0.56285   0.00000   0.00000   0.00000   0.00000  -0.56286
   D39        1.50341   0.00014   0.00000   0.00205   0.00205   1.50546
   D40       -2.62902  -0.00014   0.00000  -0.00215  -0.00215  -2.63118
   D41       -3.14152   0.00000   0.00000  -0.00004  -0.00004  -3.14157
   D42       -1.07526   0.00014   0.00000   0.00201   0.00201  -1.07325
   D43        1.07549  -0.00014   0.00000  -0.00219  -0.00219   1.07330
   D44        0.36756  -0.00013   0.00000  -0.00036  -0.00036   0.36720
   D45       -2.40851   0.00014   0.00000   0.00412   0.00412  -2.40439
   D46        2.96683  -0.00032   0.00000  -0.00242  -0.00242   2.96441
   D47        0.19075  -0.00006   0.00000   0.00206   0.00206   0.19281
   D48       -0.00016   0.00001   0.00000   0.00034   0.00034   0.00018
   D49        2.46572  -0.00006   0.00000   0.00161   0.00161   2.46733
   D50       -2.46588   0.00007   0.00000  -0.00125  -0.00125  -2.46713
   D51        0.00001   0.00000   0.00000   0.00001   0.00001   0.00002
   D52        1.02919  -0.00001   0.00000  -0.00032  -0.00032   1.02887
   D53        0.00017  -0.00001   0.00000  -0.00035  -0.00035  -0.00019
   D54       -2.49022  -0.00017   0.00000  -0.00452  -0.00451  -2.49473
   D55        0.00019  -0.00001   0.00000  -0.00043  -0.00043  -0.00024
   D56       -1.02884  -0.00001   0.00000  -0.00046  -0.00046  -1.02929
   D57        2.76397  -0.00017   0.00000  -0.00462  -0.00462   2.75935
   D58       -2.76380   0.00017   0.00000   0.00416   0.00416  -2.75964
   D59        2.49035   0.00017   0.00000   0.00413   0.00413   2.49448
   D60       -0.00003   0.00000   0.00000  -0.00003  -0.00003  -0.00006
         Item               Value     Threshold  Converged?
 Maximum Force            0.005904     0.000450     NO 
 RMS     Force            0.001742     0.000300     NO 
 Maximum Displacement     0.011530     0.001800     NO 
 RMS     Displacement     0.004549     0.001200     NO 
 Predicted change in Energy=-5.573761D-04
 GradGradGradGradGradGradGradGradGradGradGradGradGradGradGradGradGradGrad

                          Input orientation:                          
 ---------------------------------------------------------------------
 Center     Atomic      Atomic             Coordinates (Angstroms)
 Number     Number       Type             X           Y           Z
 ---------------------------------------------------------------------
      1          6           0        0.758372    0.775886   -0.711082
      2          6           0       -0.000118    1.153418    0.549075
      3          6           0        0.000118   -1.153418    0.549075
      4          6           0        0.758341   -0.775839   -0.711223
      5          1           0        1.448940    1.428507   -1.232680
      6          1           0        1.448840   -1.428415   -1.232969
      7          6           0        0.000000    0.000000    1.539303
      8          1           0       -0.891961   -0.000090    2.177750
      9          1           0        0.891961    0.000090    2.177750
     10          6           0       -0.758341    0.775839   -0.711223
     11          1           0       -1.448840    1.428415   -1.232969
     12          6           0       -0.758372   -0.775886   -0.711082
     13          1           0       -1.448940   -1.428507   -1.232680
     14          1           0       -0.000199    2.189555    0.873790
     15          1           0        0.000199   -2.189555    0.873790
 ---------------------------------------------------------------------
                    Distance matrix (angstroms):
                    1          2          3          4          5
     1  C    0.000000
     2  C    1.518497   0.000000
     3  C    2.425935   2.306836   0.000000
     4  C    1.551725   2.426035   1.518492   0.000000
     5  H    1.083911   2.313027   3.455441   2.368118   0.000000
     6  H    2.368134   3.455579   2.313028   1.083911   2.856922
     7  C    2.498272   1.520173   1.520173   2.498375   3.438597
     8  H    3.416297   2.185989   2.185990   3.416350   4.376269
     9  H    2.994170   2.185990   2.185989   2.994342   3.739202
    10  C    1.516712   1.518492   2.426035   2.169799   2.360081
    11  H    2.360073   2.313028   3.455579   3.162689   2.897780
    12  C    2.169910   2.425935   1.518497   1.516712   3.162853
    13  H    3.162853   3.455441   2.313027   2.360081   4.069427
    14  H    2.255152   1.085827   3.358706   3.446913   2.667660
    15  H    3.446808   3.358706   1.085827   2.255136   4.430173
                    6          7          8          9         10
     6  H    0.000000
     7  C    3.438750   0.000000
     8  H    4.376353   1.096908   0.000000
     9  H    3.739484   1.096908   1.783922   0.000000
    10  C    3.162689   2.498375   2.994342   3.416350   0.000000
    11  H    4.069156   3.438750   3.739484   4.376353   1.083911
    12  C    2.360073   2.498272   2.994170   3.416297   1.551725
    13  H    2.897780   3.438597   3.739202   4.376269   2.368118
    14  H    4.430334   2.288462   2.700018   2.700003   2.255136
    15  H    2.667644   2.288462   2.700003   2.700018   3.446913
                   11         12         13         14         15
    11  H    0.000000
    12  C    2.368134   0.000000
    13  H    2.856922   1.083911   0.000000
    14  H    2.667644   3.446808   4.430173   0.000000
    15  H    4.430334   2.255152   2.667660   4.379110   0.000000
 Stoichiometry    C7H8
 Framework group  C2[C2(C),X(C6H8)]
 Deg. of freedom    20
 Full point group                 C2      NOp   2
 Largest Abelian subgroup         C2      NOp   2
 Largest concise Abelian subgroup C2      NOp   2
                         Standard orientation:                         
 ---------------------------------------------------------------------
 Center     Atomic      Atomic             Coordinates (Angstroms)
 Number     Number       Type             X           Y           Z
 ---------------------------------------------------------------------
      1          6           0        0.000000    1.084955   -0.709659
      2          6           0       -0.806311    0.824764    0.550498
      3          6           0        0.806311   -0.824764    0.550498
      4          6           0        1.084617   -0.024756   -0.709800
      5          1           0        0.037673    2.034365   -1.231256
      6          1           0        2.034559   -0.008782   -1.231545
      7          6           0        0.000000    0.000000    1.540727
      8          1           0       -0.637807   -0.623535    2.179173
      9          1           0        0.637807    0.623535    2.179173
     10          6           0       -1.084617    0.024756   -0.709800
     11          1           0       -2.034559    0.008782   -1.231545
     12          6           0        0.000000   -1.084955   -0.709659
     13          1           0       -0.037673   -2.034365   -1.231256
     14          1           0       -1.530618    1.565682    0.875213
     15          1           0        1.530618   -1.565682    0.875213
 ---------------------------------------------------------------------
 Rotational constants (GHZ):      4.4013805      4.3423464      3.2424411
 Standard basis: 6-31+G(d,p) (6D, 7F)
 There are    88 symmetry adapted cartesian basis functions of A   symmetry.
 There are    85 symmetry adapted cartesian basis functions of B   symmetry.
 There are    88 symmetry adapted basis functions of A   symmetry.
 There are    85 symmetry adapted basis functions of B   symmetry.
   173 basis functions,   280 primitive gaussians,   173 cartesian basis functions
    25 alpha electrons       25 beta electrons
       nuclear repulsion energy       295.8916539319 Hartrees.
 NAtoms=   15 NActive=   15 NUniq=    8 SFac= 3.52D+00 NAtFMM=   60 NAOKFM=F Big=F
 Integral buffers will be    131072 words long.
 Raffenetti 2 integral format.
 Two-electron integral symmetry is turned on.
 Nuclear repulsion after empirical dispersion term =      295.8833825362 Hartrees.
 ------------------------------------------------------------------------------
 Polarizable Continuum Model (PCM)
 =================================
 Model                : C-PCM.
 Atomic radii         : UFF (Universal Force Field).
 Polarization charges : Total charges.
 Charge compensation  : None.
 Solution method      : On-the-fly selection.
 Cavity type          : Scaled VdW (van der Waals Surface) (Alpha=1.100).
 Cavity algorithm     : GePol (No added spheres)
                        Default sphere list used, NSphG=   15.
                        Lebedev-Laikov grids with approx.  5.0 points / Ang**2.
                        Smoothing algorithm: Karplus/York (Gamma=1.0000).
                        Polarization charges: spherical gaussians, with
                                              point-specific exponents (IZeta= 3).
                        Self-potential: point-specific (ISelfS= 7).
                        Self-field    : sphere-specific E.n sum rule (ISelfD= 2).
 1st derivatives      : Analytical E(r).r(x)/FMM algorithm (CHGder, D1EAlg=3).
                        Cavity 1st derivative terms included.
 Solvent              : Toluene, Eps=   2.374100 Eps(inf)=   2.238315
 ------------------------------------------------------------------------------
 Spheres list:
 ISph  on   Nord     Re0    Alpha      Xe            Ye            Ze
    1   C      1    1.9255  1.100      0.000000      1.084955     -0.709659
    2   C      2    1.9255  1.100     -0.806311      0.824764      0.550498
    3   C      3    1.9255  1.100      0.806311     -0.824764      0.550498
    4   C      4    1.9255  1.100      1.084617     -0.024756     -0.709800
    5   H      5    1.4430  1.100      0.037673      2.034365     -1.231256
    6   H      6    1.4430  1.100      2.034559     -0.008782     -1.231545
    7   C      7    1.9255  1.100      0.000000      0.000000      1.540727
    8   H      8    1.4430  1.100     -0.637807     -0.623535      2.179173
    9   H      9    1.4430  1.100      0.637807      0.623535      2.179173
   10   C     10    1.9255  1.100     -1.084617      0.024756     -0.709800
   11   H     11    1.4430  1.100     -2.034559      0.008782     -1.231545
   12   C     12    1.9255  1.100      0.000000     -1.084955     -0.709659
   13   H     13    1.4430  1.100     -0.037673     -2.034365     -1.231256
   14   H     14    1.4430  1.100     -1.530618      1.565682      0.875213
   15   H     15    1.4430  1.100      1.530618     -1.565682      0.875213
 ------------------------------------------------------------------------------
 One-electron integrals computed using PRISM.
 NBasis=   173 RedAO= T EigKep=  1.27D-05  NBF=    88    85
 NBsUse=   173 1.00D-06 EigRej= -1.00D+00 NBFU=    88    85
 Initial guess from the checkpoint file:  "b3lyp_m062x_quadricyclane_cycloaddition_PM6_toluene.chk"
 B after Tr=     0.000000    0.000000    0.000000
         Rot=    0.926049    0.000000    0.000000   -0.377402 Ang= -44.35 deg.
 Initial guess orbital symmetries:
       Occupied  (A) (B) (A) (B) (B) (A) (A) (A) (B) (A) (B) (A)
                 (B) (A) (A) (B) (B) (A) (A) (B) (B) (A) (B) (A)
                 (B)
       Virtual   (A) (A) (A) (A) (A) (A) (A) (A) (A) (A) (A) (A)
                 (A) (A) (A) (A) (A) (A) (A) (A) (A) (A) (A) (A)
                 (A) (A) (A) (A) (A) (A) (A) (A) (A) (A) (A) (A)
                 (A) (A) (A) (A) (A) (A) (A) (A) (A) (A) (A) (A)
                 (A) (A) (A) (A) (A) (A) (A) (A) (A) (A) (A) (A)
                 (A) (A) (A) (A) (A) (A) (A) (A) (A) (A) (A) (A)
                 (A) (A) (A) (B) (B) (B) (B) (B) (B) (B) (B) (B)
                 (B) (B) (B) (B) (B) (B) (B) (B) (B) (B) (B) (B)
                 (B) (B) (B) (B) (B) (B) (B) (B) (B) (B) (B) (B)
                 (B) (B) (B) (B) (B) (B) (B) (B) (B) (B) (B) (B)
                 (B) (B) (B) (B) (B) (B) (B) (B) (B) (B) (B) (B)
                 (B) (B) (B) (B) (B) (B) (B) (B) (B) (B) (B) (B)
                 (B) (B) (B) (B)
 Requested convergence on RMS density matrix=1.00D-08 within 128 cycles.
 Requested convergence on MAX density matrix=1.00D-06.
 Requested convergence on             energy=1.00D-06.
 No special actions if energy rises.
 Inv3:  Mode=1 IEnd=     4113723.
 Iteration    1 A*A^-1 deviation from unit magnitude is 4.22D-15 for   1168.
 Iteration    1 A*A^-1 deviation from orthogonality  is 2.83D-15 for   1171   1013.
 Iteration    1 A^-1*A deviation from unit magnitude is 4.22D-15 for   1168.
 Iteration    1 A^-1*A deviation from orthogonality  is 3.14D-15 for   1161   1009.
 Error on total polarization charges =  0.00837
 SCF Done:  E(RB3LYP) =  -271.474439896     A.U. after    9 cycles
            NFock=  9  Conv=0.72D-08     -V/T= 2.0098
 D1PCM: C-PCM CHGder 1st derivatives, ID1Alg=3 FixD1E=F DoIter=F DoCFld=F I1PDM=0.
 Calling FoFJK, ICntrl=      2127 FMM=F ISym2X=1 I1Cent= 0 IOpClX= 0 NMat=1 NMatS=1 NMatT=0.
 ***** Axes restored to original set *****
 -------------------------------------------------------------------
 Center     Atomic                   Forces (Hartrees/Bohr)
 Number     Number              X              Y              Z
 -------------------------------------------------------------------
      1        6           0.001296593   -0.000324443   -0.000767351
      2        6           0.000019666    0.000603749    0.001591771
      3        6          -0.000019666   -0.000603749    0.001591771
      4        6           0.001312868    0.000362492   -0.000707129
      5        1           0.000071367   -0.000096295   -0.000004386
      6        1           0.000071527    0.000096967    0.000001984
      7        6           0.000000000    0.000000000   -0.000143407
      8        1          -0.000012123    0.000000813   -0.000180565
      9        1           0.000012123   -0.000000813   -0.000180565
     10        6          -0.001312868   -0.000362492   -0.000707129
     11        1          -0.000071527   -0.000096967    0.000001984
     12        6          -0.001296593    0.000324443   -0.000767351
     13        1          -0.000071367    0.000096295   -0.000004386
     14        1           0.000006116   -0.000070264    0.000137380
     15        1          -0.000006116    0.000070264    0.000137380
 -------------------------------------------------------------------
 Cartesian Forces:  Max     0.001591771 RMS     0.000585936

 GradGradGradGradGradGradGradGradGradGradGradGradGradGradGradGradGradGrad
 Berny optimization.
 Using GEDIIS/GDIIS optimizer.
 FormGI is forming the generalized inverse of G from B-inverse, IUseBI=4.
 Internal  Forces:  Max     0.000941763 RMS     0.000218947
 Search for a local minimum.
 Step number   2 out of a maximum of  100
 All quantities printed in internal units (Hartrees-Bohrs-Radians)
 Mixed Optimization -- En-DIIS/RFO-DIIS
 Update second derivatives using D2CorX and points    1    2
 DE= -6.20D-04 DEPred=-5.57D-04 R= 1.11D+00
 TightC=F SS=  1.41D+00  RLast= 6.24D-02 DXNew= 5.0454D-01 1.8728D-01
 Trust test= 1.11D+00 RLast= 6.24D-02 DXMaxT set to 3.00D-01
 ITU=  1  0
 Use linear search instead of GDIIS.
     Eigenvalues ---    0.01158   0.01171   0.01513   0.01706   0.01794
     Eigenvalues ---    0.01927   0.02047   0.02152   0.04666   0.05880
     Eigenvalues ---    0.06276   0.06537   0.06852   0.07171   0.07913
     Eigenvalues ---    0.08552   0.10464   0.10856   0.10959   0.15544
     Eigenvalues ---    0.15974   0.19062   0.19614   0.22286   0.22712
     Eigenvalues ---    0.26311   0.26790   0.27856   0.28259   0.29942
     Eigenvalues ---    0.30664   0.33613   0.33658   0.34744   0.34809
     Eigenvalues ---    0.34988   0.34988   0.34988   0.35605
 RFO step:  Lambda=-1.18389448D-05 EMin= 1.15831223D-02
 Quartic linear search produced a step of  0.08894.
 Iteration  1 RMS(Cart)=  0.00093264 RMS(Int)=  0.00000041
 Iteration  2 RMS(Cart)=  0.00000030 RMS(Int)=  0.00000028
 ClnCor:  largest displacement from symmetrization is 1.26D-10 for atom    15.
 Variable       Old X    -DE/DX   Delta X   Delta X   Delta X     New X
                                 (Linear)    (Quad)   (Total)
    R1        2.86954   0.00089   0.00164   0.00154   0.00318   2.87273
    R2        2.93234  -0.00017   0.00148  -0.00203  -0.00055   2.93178
    R3        2.04829  -0.00001  -0.00077   0.00070  -0.00007   2.04823
    R4        2.86617   0.00094   0.00165   0.00158   0.00323   2.86940
    R5        2.87271  -0.00017   0.00103  -0.00169  -0.00065   2.87206
    R6        2.86953   0.00090   0.00164   0.00159   0.00323   2.87277
    R7        2.05191  -0.00003  -0.00080   0.00068  -0.00012   2.05180
    R8        2.86953   0.00090   0.00164   0.00159   0.00323   2.87277
    R9        2.87271  -0.00017   0.00103  -0.00169  -0.00065   2.87206
   R10        2.86954   0.00089   0.00164   0.00154   0.00318   2.87273
   R11        2.05191  -0.00003  -0.00080   0.00068  -0.00012   2.05180
   R12        2.04830  -0.00001  -0.00077   0.00069  -0.00008   2.04822
   R13        2.86617   0.00094   0.00165   0.00158   0.00323   2.86940
   R14        2.07286  -0.00010  -0.00062   0.00029  -0.00033   2.07252
   R15        2.07286  -0.00010  -0.00062   0.00029  -0.00033   2.07252
   R16        2.04830  -0.00001  -0.00077   0.00069  -0.00008   2.04822
   R17        2.93234  -0.00017   0.00148  -0.00203  -0.00055   2.93178
   R18        2.04829  -0.00001  -0.00077   0.00070  -0.00007   2.04823
    A1        1.82212  -0.00002  -0.00004  -0.00011  -0.00015   1.82197
    A2        2.17474   0.00007   0.00002   0.00048   0.00050   2.17524
    A3        2.21688  -0.00007  -0.00012  -0.00052  -0.00064   2.21624
    A4        1.57075  -0.00001  -0.00001   0.00012   0.00011   1.57085
    A5        2.26150   0.00008   0.00031   0.00035   0.00066   2.26217
    A6        1.93039  -0.00009  -0.00006  -0.00025  -0.00031   1.93008
    A7        2.07768   0.00009   0.00027   0.00058   0.00085   2.07853
    A8        1.93051  -0.00010  -0.00004  -0.00066  -0.00070   1.92981
    A9        2.12848  -0.00001  -0.00026  -0.00027  -0.00053   2.12795
   A10        2.07766   0.00010   0.00026   0.00073   0.00099   2.07865
   A11        1.93051  -0.00010  -0.00004  -0.00066  -0.00070   1.92981
   A12        2.07766   0.00010   0.00026   0.00073   0.00099   2.07865
   A13        1.93039  -0.00009  -0.00006  -0.00025  -0.00031   1.93008
   A14        2.12848  -0.00001  -0.00026  -0.00027  -0.00053   2.12795
   A15        2.07768   0.00009   0.00027   0.00058   0.00085   2.07853
   A16        1.82202  -0.00001  -0.00006   0.00025   0.00019   1.82221
   A17        2.21691  -0.00008  -0.00012  -0.00059  -0.00071   2.21620
   A18        1.57085   0.00001   0.00001  -0.00012  -0.00011   1.57074
   A19        2.17474   0.00007   0.00002   0.00042   0.00043   2.17518
   A20        2.26149   0.00007   0.00032   0.00031   0.00062   2.26211
   A21        1.72276   0.00025   0.00024   0.00091   0.00114   1.72390
   A22        1.95966  -0.00010   0.00003  -0.00074  -0.00071   1.95895
   A23        1.95966  -0.00010   0.00004  -0.00072  -0.00068   1.95898
   A24        1.95966  -0.00010   0.00004  -0.00072  -0.00068   1.95898
   A25        1.95966  -0.00010   0.00003  -0.00074  -0.00071   1.95895
   A26        1.89912   0.00013  -0.00033   0.00180   0.00147   1.90059
   A27        2.26149   0.00007   0.00032   0.00031   0.00062   2.26211
   A28        1.57085   0.00001   0.00001  -0.00012  -0.00011   1.57074
   A29        2.17474   0.00007   0.00002   0.00042   0.00043   2.17518
   A30        1.82202  -0.00001  -0.00006   0.00025   0.00019   1.82221
   A31        2.21691  -0.00008  -0.00012  -0.00059  -0.00071   2.21620
   A32        1.82212  -0.00002  -0.00004  -0.00011  -0.00015   1.82197
   A33        2.17474   0.00007   0.00002   0.00048   0.00050   2.17524
   A34        1.57075  -0.00001  -0.00001   0.00012   0.00011   1.57085
   A35        2.26150   0.00008   0.00031   0.00035   0.00066   2.26217
   A36        2.21688  -0.00007  -0.00012  -0.00052  -0.00064   2.21624
    D1        0.36720  -0.00007  -0.00003  -0.00086  -0.00090   0.36630
    D2        2.96441  -0.00009  -0.00022  -0.00086  -0.00108   2.96333
    D3       -2.40439   0.00001   0.00037  -0.00034   0.00002  -2.40437
    D4        0.19281  -0.00002   0.00018  -0.00034  -0.00016   0.19266
    D5       -0.00024   0.00001  -0.00004   0.00073   0.00069   0.00045
    D6       -2.75964   0.00004   0.00037   0.00039   0.00076  -2.75888
    D7        1.02887   0.00000  -0.00003   0.00063   0.00061   1.02948
    D8        2.75935  -0.00003  -0.00041   0.00048   0.00007   2.75942
    D9       -0.00006   0.00000   0.00000   0.00015   0.00014   0.00009
   D10       -2.49473  -0.00004  -0.00040   0.00039  -0.00001  -2.49474
   D11       -1.02929   0.00002  -0.00004   0.00066   0.00062  -1.02867
   D12        2.49448   0.00005   0.00037   0.00033   0.00070   2.49518
   D13       -0.00019   0.00001  -0.00003   0.00057   0.00054   0.00035
   D14       -2.46713   0.00004  -0.00011   0.00025   0.00014  -2.46699
   D15        0.00018  -0.00001   0.00003  -0.00056  -0.00053  -0.00035
   D16        0.00002   0.00000   0.00000  -0.00010  -0.00010  -0.00008
   D17        2.46733  -0.00005   0.00014  -0.00091  -0.00077   2.46656
   D18       -0.56286   0.00001   0.00000   0.00029   0.00029  -0.56257
   D19       -2.63118   0.00003  -0.00019   0.00092   0.00073  -2.63045
   D20        1.50546   0.00000   0.00018  -0.00035  -0.00017   1.50530
   D21        0.56273  -0.00001  -0.00002   0.00008   0.00006   0.56279
   D22       -1.50559   0.00000  -0.00021   0.00071   0.00050  -1.50509
   D23        2.63105  -0.00003   0.00016  -0.00056  -0.00039   2.63065
   D24       -3.14157   0.00000   0.00000  -0.00002  -0.00003   3.14159
   D25        1.07330   0.00001  -0.00019   0.00060   0.00041   1.07371
   D26       -1.07325  -0.00001   0.00018  -0.00066  -0.00048  -1.07373
   D27        2.40462  -0.00001  -0.00034  -0.00031  -0.00064   2.40398
   D28       -0.36680   0.00006   0.00010  -0.00035  -0.00025  -0.36705
   D29       -0.19277   0.00001  -0.00017   0.00014  -0.00002  -0.19279
   D30       -2.96419   0.00009   0.00026   0.00010   0.00037  -2.96382
   D31       -0.36680   0.00006   0.00010  -0.00035  -0.00025  -0.36705
   D32        2.40462  -0.00001  -0.00034  -0.00031  -0.00064   2.40398
   D33       -2.96419   0.00009   0.00026   0.00010   0.00037  -2.96382
   D34       -0.19277   0.00001  -0.00017   0.00014  -0.00002  -0.19279
   D35        0.56273  -0.00001  -0.00002   0.00008   0.00006   0.56279
   D36        2.63105  -0.00003   0.00016  -0.00056  -0.00039   2.63065
   D37       -1.50559   0.00000  -0.00021   0.00071   0.00050  -1.50509
   D38       -0.56286   0.00001   0.00000   0.00029   0.00029  -0.56257
   D39        1.50546   0.00000   0.00018  -0.00035  -0.00017   1.50530
   D40       -2.63118   0.00003  -0.00019   0.00092   0.00073  -2.63045
   D41       -3.14157   0.00000   0.00000  -0.00002  -0.00003   3.14159
   D42       -1.07325  -0.00001   0.00018  -0.00066  -0.00048  -1.07373
   D43        1.07330   0.00001  -0.00019   0.00060   0.00041   1.07371
   D44        0.36720  -0.00007  -0.00003  -0.00086  -0.00090   0.36630
   D45       -2.40439   0.00001   0.00037  -0.00034   0.00002  -2.40437
   D46        2.96441  -0.00009  -0.00022  -0.00086  -0.00108   2.96333
   D47        0.19281  -0.00002   0.00018  -0.00034  -0.00016   0.19266
   D48        0.00018  -0.00001   0.00003  -0.00056  -0.00053  -0.00035
   D49        2.46733  -0.00005   0.00014  -0.00091  -0.00077   2.46656
   D50       -2.46713   0.00004  -0.00011   0.00025   0.00014  -2.46699
   D51        0.00002   0.00000   0.00000  -0.00010  -0.00010  -0.00008
   D52        1.02887   0.00000  -0.00003   0.00063   0.00061   1.02948
   D53       -0.00019   0.00001  -0.00003   0.00057   0.00054   0.00035
   D54       -2.49473  -0.00004  -0.00040   0.00039  -0.00001  -2.49474
   D55       -0.00024   0.00001  -0.00004   0.00073   0.00069   0.00045
   D56       -1.02929   0.00002  -0.00004   0.00066   0.00062  -1.02867
   D57        2.75935  -0.00003  -0.00041   0.00048   0.00007   2.75942
   D58       -2.75964   0.00004   0.00037   0.00039   0.00076  -2.75888
   D59        2.49448   0.00005   0.00037   0.00033   0.00070   2.49518
   D60       -0.00006   0.00000   0.00000   0.00015   0.00014   0.00009
         Item               Value     Threshold  Converged?
 Maximum Force            0.000942     0.000450     NO 
 RMS     Force            0.000219     0.000300     YES
 Maximum Displacement     0.003768     0.001800     NO 
 RMS     Displacement     0.000933     0.001200     YES
 Predicted change in Energy=-1.075407D-05
 GradGradGradGradGradGradGradGradGradGradGradGradGradGradGradGradGradGrad

                          Input orientation:                          
 ---------------------------------------------------------------------
 Center     Atomic      Atomic             Coordinates (Angstroms)
 Number     Number       Type             X           Y           Z
 ---------------------------------------------------------------------
      1          6           0        0.759097    0.775786   -0.711809
      2          6           0        0.000097    1.153722    0.549949
      3          6           0       -0.000097   -1.153722    0.549949
      4          6           0        0.759325   -0.775648   -0.711541
      5          1           0        1.450017    1.427806   -1.233620
      6          1           0        1.450498   -1.427611   -1.233078
      7          6           0        0.000000    0.000000    1.539293
      8          1           0       -0.892286    0.000094    2.176980
      9          1           0        0.892286   -0.000094    2.176980
     10          6           0       -0.759325    0.775648   -0.711541
     11          1           0       -1.450498    1.427611   -1.233078
     12          6           0       -0.759097   -0.775786   -0.711809
     13          1           0       -1.450017   -1.427806   -1.233620
     14          1           0        0.000184    2.189443    0.875784
     15          1           0       -0.000184   -2.189443    0.875784
 ---------------------------------------------------------------------
                    Distance matrix (angstroms):
                    1          2          3          4          5
     1  C    0.000000
     2  C    1.520181   0.000000
     3  C    2.427223   2.307444   0.000000
     4  C    1.551434   2.426984   1.520204   0.000000
     5  H    1.083876   2.314845   3.456622   2.367452   0.000000
     6  H    2.367428   3.456317   2.314827   1.083871   2.855417
     7  C    2.499107   1.519828   1.519828   2.498891   3.439509
     8  H    3.416705   2.185049   2.185068   3.416599   4.376864
     9  H    2.994133   2.185068   2.185049   2.993780   3.739272
    10  C    1.518423   1.520204   2.426984   2.170903   2.362005
    11  H    2.361971   2.314827   3.456317   3.163806   2.900515
    12  C    2.170780   2.427223   1.520181   1.518423   3.163587
    13  H    3.163587   3.456622   2.314845   2.362005   4.069977
    14  H    2.257173   1.085765   3.359006   3.447849   2.670523
    15  H    3.448121   3.359006   1.085765   2.257270   4.431383
                    6          7          8          9         10
     6  H    0.000000
     7  C    3.439194   0.000000
     8  H    4.376697   1.096731   0.000000
     9  H    3.738703   1.096731   1.784572   0.000000
    10  C    3.163806   2.498891   2.993780   3.416599   0.000000
    11  H    4.070389   3.439194   3.738703   4.376697   1.083871
    12  C    2.361971   2.499107   2.994133   3.416705   1.551434
    13  H    2.900515   3.439509   3.739272   4.376864   2.367452
    14  H    4.431003   2.287773   2.698678   2.698709   2.257270
    15  H    2.670611   2.287773   2.698709   2.698678   3.447849
                   11         12         13         14         15
    11  H    0.000000
    12  C    2.367428   0.000000
    13  H    2.855417   1.083876   0.000000
    14  H    2.670611   3.448121   4.431383   0.000000
    15  H    4.431003   2.257173   2.670523   4.378886   0.000000
 Stoichiometry    C7H8
 Framework group  C2[C2(C),X(C6H8)]
 Deg. of freedom    20
 Full point group                 C2      NOp   2
 Largest Abelian subgroup         C2      NOp   2
 Largest concise Abelian subgroup C2      NOp   2
                         Standard orientation:                         
 ---------------------------------------------------------------------
 Center     Atomic      Atomic             Coordinates (Angstroms)
 Number     Number       Type             X           Y           Z
 ---------------------------------------------------------------------
      1          6           0        0.759032    0.775850   -0.710351
      2          6           0        0.000000    1.153722    0.551407
      3          6           0        0.000000   -1.153722    0.551407
      4          6           0        0.759391   -0.775584   -0.710082
      5          1           0        1.449897    1.427928   -1.232161
      6          1           0        1.450618   -1.427489   -1.231619
      7          6           0        0.000000    0.000000    1.540751
      8          1           0       -0.892286    0.000018    2.178439
      9          1           0        0.892286   -0.000018    2.178439
     10          6           0       -0.759391    0.775584   -0.710082
     11          1           0       -1.450618    1.427489   -1.231619
     12          6           0       -0.759032   -0.775850   -0.710351
     13          1           0       -1.449897   -1.427928   -1.232161
     14          1           0       -0.000001    2.189443    0.877242
     15          1           0        0.000001   -2.189443    0.877242
 ---------------------------------------------------------------------
 Rotational constants (GHZ):      4.3958998      4.3395215      3.2411923
 Standard basis: 6-31+G(d,p) (6D, 7F)
 There are    88 symmetry adapted cartesian basis functions of A   symmetry.
 There are    85 symmetry adapted cartesian basis functions of B   symmetry.
 There are    88 symmetry adapted basis functions of A   symmetry.
 There are    85 symmetry adapted basis functions of B   symmetry.
   173 basis functions,   280 primitive gaussians,   173 cartesian basis functions
    25 alpha electrons       25 beta electrons
       nuclear repulsion energy       295.7723259374 Hartrees.
 NAtoms=   15 NActive=   15 NUniq=    8 SFac= 3.52D+00 NAtFMM=   60 NAOKFM=F Big=F
 Integral buffers will be    131072 words long.
 Raffenetti 2 integral format.
 Two-electron integral symmetry is turned on.
 Nuclear repulsion after empirical dispersion term =      295.7640514285 Hartrees.
 ------------------------------------------------------------------------------
 Polarizable Continuum Model (PCM)
 =================================
 Model                : C-PCM.
 Atomic radii         : UFF (Universal Force Field).
 Polarization charges : Total charges.
 Charge compensation  : None.
 Solution method      : On-the-fly selection.
 Cavity type          : Scaled VdW (van der Waals Surface) (Alpha=1.100).
 Cavity algorithm     : GePol (No added spheres)
                        Default sphere list used, NSphG=   15.
                        Lebedev-Laikov grids with approx.  5.0 points / Ang**2.
                        Smoothing algorithm: Karplus/York (Gamma=1.0000).
                        Polarization charges: spherical gaussians, with
                                              point-specific exponents (IZeta= 3).
                        Self-potential: point-specific (ISelfS= 7).
                        Self-field    : sphere-specific E.n sum rule (ISelfD= 2).
 1st derivatives      : Analytical E(r).r(x)/FMM algorithm (CHGder, D1EAlg=3).
                        Cavity 1st derivative terms included.
 Solvent              : Toluene, Eps=   2.374100 Eps(inf)=   2.238315
 ------------------------------------------------------------------------------
 Spheres list:
 ISph  on   Nord     Re0    Alpha      Xe            Ye            Ze
    1   C      1    1.9255  1.100      0.759032      0.775850     -0.710351
    2   C      2    1.9255  1.100      0.000000      1.153722      0.551407
    3   C      3    1.9255  1.100      0.000000     -1.153722      0.551407
    4   C      4    1.9255  1.100      0.759391     -0.775584     -0.710082
    5   H      5    1.4430  1.100      1.449897      1.427928     -1.232161
    6   H      6    1.4430  1.100      1.450618     -1.427489     -1.231619
    7   C      7    1.9255  1.100      0.000000      0.000000      1.540751
    8   H      8    1.4430  1.100     -0.892286      0.000018      2.178439
    9   H      9    1.4430  1.100      0.892286     -0.000018      2.178439
   10   C     10    1.9255  1.100     -0.759391      0.775584     -0.710082
   11   H     11    1.4430  1.100     -1.450618      1.427489     -1.231619
   12   C     12    1.9255  1.100     -0.759032     -0.775850     -0.710351
   13   H     13    1.4430  1.100     -1.449897     -1.427928     -1.232161
   14   H     14    1.4430  1.100     -0.000001      2.189443      0.877242
   15   H     15    1.4430  1.100      0.000001     -2.189443      0.877242
 ------------------------------------------------------------------------------
 One-electron integrals computed using PRISM.
 NBasis=   173 RedAO= T EigKep=  1.28D-05  NBF=    88    85
 NBsUse=   173 1.00D-06 EigRej= -1.00D+00 NBFU=    88    85
 Initial guess from the checkpoint file:  "b3lyp_m062x_quadricyclane_cycloaddition_PM6_toluene.chk"
 B after Tr=     0.000000    0.000000    0.000000
         Rot=    0.926065    0.000000    0.000000    0.377364 Ang=  44.34 deg.
 Initial guess orbital symmetries:
       Occupied  (A) (B) (A) (B) (B) (A) (A) (A) (B) (A) (B) (A)
[...]
 ! D9    D(5,1,4,6)              0.0049         -DE/DX =    0.0                 !
 ! D10   D(5,1,4,12)          -142.9381         -DE/DX =    0.0                 !
 ! D11   D(10,1,4,3)           -58.9386         -DE/DX =    0.0                 !
 ! D12   D(10,1,4,6)           142.9633         -DE/DX =    0.0                 !
 ! D13   D(10,1,4,12)            0.0203         -DE/DX =    0.0                 !
 ! D14   D(4,1,10,11)         -141.348          -DE/DX =    0.0                 !
 ! D15   D(4,1,10,12)           -0.0199         -DE/DX =    0.0                 !
 ! D16   D(5,1,10,11)           -0.0045         -DE/DX =    0.0                 !
 ! D17   D(5,1,10,12)          141.3237         -DE/DX =    0.0                 !
 ! D18   D(1,2,7,3)            -32.2327         -DE/DX =    0.0                 !
 ! D19   D(1,2,7,8)           -150.7137         -DE/DX =    0.0                 !
 ! D20   D(1,2,7,9)             86.2471         -DE/DX =    0.0                 !
 ! D21   D(10,2,7,3)            32.2456         -DE/DX =    0.0                 !
 ! D22   D(10,2,7,8)           -86.2354         -DE/DX =    0.0                 !
 ! D23   D(10,2,7,9)           150.7254         -DE/DX =    0.0                 !
 ! D24   D(14,2,7,3)          -180.0            -DE/DX =    0.0                 !
 ! D25   D(14,2,7,8)            61.5189         -DE/DX =    0.0                 !
 ! D26   D(14,2,7,9)           -61.5202         -DE/DX =    0.0                 !
 ! D27   D(7,2,10,11)          137.7378         -DE/DX =    0.0                 !
 ! D28   D(7,2,10,12)          -21.0306         -DE/DX =    0.0                 !
 ! D29   D(14,2,10,11)         -11.0461         -DE/DX =    0.0                 !
 ! D30   D(14,2,10,12)        -169.8145         -DE/DX =    0.0                 !
 ! D31   D(7,3,4,1)            -21.0306         -DE/DX =    0.0                 !
 ! D32   D(7,3,4,6)            137.7378         -DE/DX =    0.0                 !
 ! D33   D(15,3,4,1)          -169.8145         -DE/DX =    0.0                 !
 ! D34   D(15,3,4,6)           -11.0461         -DE/DX =    0.0                 !
 ! D35   D(4,3,7,2)             32.2456         -DE/DX =    0.0                 !
 ! D36   D(4,3,7,8)            150.7254         -DE/DX =    0.0                 !
 ! D37   D(4,3,7,9)            -86.2354         -DE/DX =    0.0                 !
 ! D38   D(12,3,7,2)           -32.2327         -DE/DX =    0.0                 !
 ! D39   D(12,3,7,8)            86.2471         -DE/DX =    0.0                 !
 ! D40   D(12,3,7,9)          -150.7137         -DE/DX =    0.0                 !
 ! D41   D(15,3,7,2)          -180.0            -DE/DX =    0.0                 !
 ! D42   D(15,3,7,8)           -61.5202         -DE/DX =    0.0                 !
 ! D43   D(15,3,7,9)            61.5189         -DE/DX =    0.0                 !
 ! D44   D(7,3,12,10)           20.9877         -DE/DX =    0.0                 !
 ! D45   D(7,3,12,13)         -137.7602         -DE/DX =    0.0                 !
 ! D46   D(15,3,12,10)         169.7864         -DE/DX =    0.0                 !
 ! D47   D(15,3,12,13)          11.0385         -DE/DX =    0.0                 !
 ! D48   D(1,4,12,10)           -0.0199         -DE/DX =    0.0                 !
 ! D49   D(1,4,12,13)          141.3237         -DE/DX =    0.0                 !
 ! D50   D(6,4,12,10)         -141.348          -DE/DX =    0.0                 !
 ! D51   D(6,4,12,13)           -0.0045         -DE/DX =    0.0                 !
 ! D52   D(1,10,12,3)           58.9847         -DE/DX =    0.0                 !
 ! D53   D(1,10,12,4)            0.0203         -DE/DX =    0.0                 !
 ! D54   D(1,10,12,13)        -142.9381         -DE/DX =    0.0                 !
 ! D55   D(2,10,12,3)            0.0258         -DE/DX =    0.0                 !
 ! D56   D(2,10,12,4)          -58.9386         -DE/DX =    0.0                 !
 ! D57   D(2,10,12,13)         158.1031         -DE/DX =    0.0                 !
 ! D58   D(11,10,12,3)        -158.0723         -DE/DX =    0.0                 !
 ! D59   D(11,10,12,4)         142.9633         -DE/DX =    0.0                 !
 ! D60   D(11,10,12,13)          0.0049         -DE/DX =    0.0                 !
 --------------------------------------------------------------------------------
 GradGradGradGradGradGradGradGradGradGradGradGradGradGradGradGradGradGrad

 1\1\GINC-D10S10B2\Freq\RB3LYP\6-31+G(d,p)\C7H8\CHMKSH\17-Sep-2020\0\\#
 N Geom=AllCheck Guess=TCheck SCRF=Check GenChk RB3LYP/6-31+G(d,p) Freq
 \\Title Card Required\\0,1\C,0.759097082,0.7757856207,-0.7118094877\C,
 0.0000970965,1.1537222162,0.5499489424\C,-0.0000970965,-1.1537222162,0
 .5499489424\C,0.7593254001,-0.7756480757,-0.7115407094\H,1.4500168952,
 1.4278056912,-1.2336198317\H,1.4504976408,-1.4276112413,-1.2330777663\
 C,0.,0.,1.5392928871\H,-0.8922862248,0.0000935901,2.176980153\H,0.8922
 862248,-0.0000935901,2.176980153\C,-0.7593254001,0.7756480757,-0.71154
 07094\H,-1.4504976408,1.4276112413,-1.2330777663\C,-0.759097082,-0.775
 7856207,-0.7118094877\H,-1.4500168952,-1.4278056912,-1.2336198317\H,0.
 0001836258,2.1894430466,0.8757837561\H,-0.0001836258,-2.1894430466,0.8
 757837561\\Version=ES64L-G09RevD.01\State=1-A\HF=-271.4744343\RMSD=3.7
 20e-10\RMSF=9.037e-05\ZeroPoint=0.1277586\Thermal=0.1323956\Dipole=0.,
 0.,-0.0048422\DipoleDeriv=-0.1379546,0.0587244,0.0948838,0.1227864,0.0
 744694,0.0159129,0.1038864,0.0475266,-0.0011771,0.120862,0.0000677,-0.
 0000608,0.000045,0.0174752,-0.0251534,-0.0000792,-0.0932504,-0.0635624
 ,0.120862,0.0000677,0.0000608,0.000045,0.0174752,0.0251534,0.0000792,0
 .0932504,-0.0635624,-0.1381606,-0.0588134,0.0947762,-0.1228834,0.07427
 73,-0.0159176,0.1036302,-0.0474969,-0.0012363,-0.0084442,-0.0652864,0.
 1008841,-0.0916053,-0.0372018,0.0633683,0.1089301,0.0450815,0.0554102,
 -0.0084883,0.0653336,0.1008828,0.0916568,-0.0372172,-0.0633234,0.10896
 91,-0.0450342,0.0554257,0.2541837,-0.0001015,0.,-0.000064,-0.0282138,0
 .,0.,0.,0.0906754,-0.1017391,0.0000325,0.1683681,0.0000304,0.0593757,-
 0.0000157,0.0975374,-0.0000135,-0.1016595,-0.1017391,0.0000325,-0.1683
 681,0.0000304,0.0593757,0.0000157,-0.0975374,0.0000135,-0.1016595,-0.1
 381606,-0.0588134,-0.0947762,-0.1228834,0.0742773,0.0159176,-0.1036302
 ,0.0474969,-0.0012363,-0.0084883,0.0653336,-0.1008828,0.0916568,-0.037
 2172,0.0633234,-0.1089691,0.0450342,0.0554257,-0.1379546,0.0587244,-0.
 0948838,0.1227864,0.0744694,-0.0159129,-0.1038864,-0.0475266,-0.001177
 1,-0.0084442,-0.0652864,-0.1008841,-0.0916053,-0.0372018,-0.0633683,-0
 .1089301,-0.0450815,0.0554102,0.146833,-0.0000077,-0.0000185,0.000002,
 -0.1370718,-0.0643615,-0.0000118,-0.0506594,0.0114618,0.146833,-0.0000
 077,0.0000185,0.000002,-0.1370718,0.0643615,0.0000118,0.0506594,0.0114
 617\Polar=76.2669038,0.0000626,79.5190062,0.,0.,83.3527012\PG=C02 [C2(
 C1),X(C6H8)]\NImag=0\\0.51193998,0.12480809,0.50013718,-0.19880988,-0.
 09893209,0.35571009,-0.05943461,0.00719646,0.04999598,0.23200833,0.015
 49815,-0.07456674,-0.01582203,0.00000867,0.69081280,0.10165967,-0.0214
 3300,-0.13862507,0.00000910,0.07706439,0.50153158,-0.00187768,-0.01329
 495,0.00595667,0.00254687,-0.00000337,-0.00000162,0.23200833,-0.004453
 91,-0.01954263,0.02573098,-0.00000337,-0.05083001,-0.00391626,0.000008
 67,0.69081280,-0.00324350,0.01540397,-0.00046145,0.00000162,0.00391626
 ,0.01004822,-0.00000910,-0.07706439,0.50153158,-0.03623812,-0.01298605
 ,0.02147273,-0.00188366,0.00445163,-0.00323309,-0.05947911,-0.01548772
 ,0.10167789,0.51206054,0.01302211,-0.16731784,0.00312220,0.01330080,-0
 .01956779,-0.01542057,-0.00718654,-0.07456495,0.02143925,-0.12485150,0
 .50011706,0.02147700,-0.00309762,-0.06520880,0.00597205,-0.02574062,-0
 .00046880,0.05001105,0.01581232,-0.13855233,-0.19879237,0.09889124,0.3
 5560276,-0.16194716,-0.11196225,0.09859317,-0.00498089,0.00200909,-0.0
 0072056,-0.00024807,0.00205070,-0.00131087,0.00448102,0.00128980,-0.00
 732787,0.16632171,-0.11373646,-0.16105719,0.09099820,0.00784193,0.0063
 3435,-0.00446285,-0.00016532,-0.00295319,-0.00145491,-0.01371620,-0.00
 189173,0.01268357,0.12102476,0.15908080,0.09739712,0.08961122,-0.10353
 523,0.01249810,0.01818913,-0.00587662,0.00004249,0.00002677,-0.0021658
 4,-0.00341337,-0.00343319,-0.00043204,-0.10418200,-0.09286456,0.107159
 07,0.00447679,-0.00129047,-0.00732491,-0.00024910,-0.00205041,-0.00131
 011,-0.00498557,-0.00200358,-0.00071906,-0.16203407,0.11199983,0.09857
 788,0.00053728,0.00051197,0.00055697,0.16641927,0.01371918,-0.00188870
 ,-0.01268193,0.00016695,-0.00295323,0.00145194,-0.00784405,0.00633062,
 0.00446103,0.11377689,-0.16104466,-0.09093829,-0.00051144,0.00092946,0
 .00047130,-0.12106661,0.15906912,-0.00341739,0.00343133,-0.00043332,0.
 00004161,-0.00002828,-0.00216646,0.01250093,-0.01818831,-0.00587464,0.
 09739483,-0.08955911,-0.10346790,0.00055708,-0.00047084,0.00052789,-0.
 10417237,0.09280507,0.10708658,-0.00349163,-0.01499595,0.02119696,-0.0
 6777285,-0.00000190,0.00001108,-0.06777285,-0.00000190,-0.00001108,-0.
 00349600,0.01499613,0.02121625,0.00058232,0.00178596,0.00395395,0.0005
 8156,-0.00178469,0.00395428,0.59766434,-0.00131886,0.00270298,0.005190
 68,-0.00000108,-0.14237873,0.05701849,-0.00000108,-0.14237873,-0.05701
 849,0.00132056,0.00269693,-0.00520099,0.00059687,-0.00092072,-0.000578
 08,-0.00059677,-0.00092062,0.00057687,-0.00003735,0.38497453,0.0026167
 4,0.00613234,-0.02405755,0.00000575,0.05278409,-0.11758166,-0.00000575
 ,-0.05278409,-0.11758165,0.00262881,-0.00613485,-0.02407762,-0.0010374
 6,-0.00027567,-0.00081228,-0.00103640,0.00027479,-0.00081259,0.,0.,0.5
 7335688,0.00102907,0.00021939,-0.00142824,0.00062417,-0.00026925,-0.00
 133424,0.00062927,0.00027045,-0.00133496,0.00103021,-0.00021938,-0.001
 42738,0.00012953,-0.00010437,-0.00005325,0.00012943,0.00010438,-0.0000
 5319,-0.22352780,0.00001811,0.12000066,0.23796471,-0.00053543,-0.00512
 501,0.00219324,-0.02253837,0.00150125,0.01684478,0.02253962,0.00149837
 ,-0.01684007,0.00053474,-0.00512458,-0.00219553,0.00017465,0.00063684,
 0.00115932,-0.00017446,0.00063646,-0.00115939,0.00001870,-0.04409840,-
 0.00001256,-0.00002201,0.04713841,0.00160866,0.00164563,-0.00191666,0.
 01380710,-0.00154212,-0.01065310,0.01380873,0.00153808,-0.01065354,0.0
 0160887,-0.00164705,-0.00191841,-0.00028296,-0.00021125,-0.00097757,-0
 .00028273,0.00021110,-0.00097821,0.11798376,-0.00001100,-0.13114394,-0
 .13261670,0.00001480,0.14401465,0.00114847,-0.00013811,-0.00117444,0.0
 0062927,0.00027045,0.00133496,0.00062417,-0.00026925,0.00133424,0.0011
 4955,0.00013852,-0.00117414,0.00007562,-0.00013083,-0.00023894,0.00007
 560,0.00013081,-0.00023912,-0.22352780,0.00001811,-0.12000066,-0.02039
 234,0.00000229,-0.01470865,0.23796471,-0.00090863,0.00115503,-0.001210
 71,0.02253962,0.00149837,0.01684007,-0.02253837,0.00150125,-0.01684478
 ,0.00090916,0.00115561,0.00121319,-0.00014556,0.00009966,0.00018020,0.
 00014551,0.00009971,-0.00018037,0.00001870,-0.04409840,0.00001256,0.00
 000229,-0.00006808,0.00000205,-0.00002201,0.04713841,0.00015367,-0.000
 56342,0.00098962,-0.01380873,-0.00153808,-0.01065354,-0.01380710,0.001
 54212,-0.01065310,0.00015417,0.00056386,0.00099100,0.00005329,0.000061
 56,0.00004074,0.00005323,-0.00006169,0.00004066,-0.11798376,0.00001100
 ,-0.13114394,0.01470865,-0.00000205,0.01149458,0.13261670,-0.00001480,
 0.14401465,-0.20314107,0.01527514,0.03012214,-0.05947911,-0.01548772,-
 0.10167789,-0.00188366,0.00445163,0.00323309,-0.04379693,0.02536625,-0
 .00864465,-0.00624339,0.00233984,-0.00313507,-0.00259144,0.00229643,-0
 .00271389,-0.00349600,0.00132056,-0.00262881,0.00114955,0.00090916,-0.
 00015417,0.00103021,0.00053474,-0.00160887,0.51206054,-0.01530966,-0.0
 2594478,0.01796608,-0.00718654,-0.07456495,-0.02143925,0.01330080,-0.0
 1956779,0.01542057,0.02536625,-0.04557010,0.01243354,-0.01285883,0.000
 42024,-0.01077044,0.00126256,-0.00217825,0.00173731,0.01499612,0.00269
 693,0.00613485,0.00013852,0.00115561,-0.00056386,-0.00021938,-0.005124
 58,0.00164705,-0.12485150,0.50011706,-0.03006962,0.01795624,-0.0301595
 4,-0.05001105,-0.01581232,-0.13855233,-0.00597205,0.02574062,-0.000468
 80,0.00864465,-0.01243354,0.01046274,0.01528957,-0.00507936,0.00403486
 ,0.00121505,0.00063345,0.00016220,-0.02121625,0.00520099,-0.02407762,0
 .00117414,-0.00121319,0.00099100,0.00142738,0.00219553,-0.00191841,0.1
 9879237,-0.09889124,0.35560276,-0.00624461,0.01285600,-0.01528820,-0.0
 0498557,-0.00200358,0.00071906,-0.00024910,-0.00205041,0.00131011,-0.0
 0259144,0.00126256,-0.00121505,0.00271541,-0.00020633,0.00166914,0.000
 04532,0.00070358,-0.00045016,0.00058156,-0.00059677,0.00103640,0.00007
 560,0.00014551,-0.00005323,0.00012943,-0.00017446,0.00028273,-0.162034
 07,0.11199983,-0.09857788,0.16641927,-0.00234374,0.00042200,-0.0050839
 5,-0.00784405,0.00633062,-0.00446103,0.00016695,-0.00295323,-0.0014519
 4,0.00229643,-0.00217825,-0.00063345,0.00020752,0.00100038,0.00048547,
 0.00070358,-0.00020172,0.00072788,-0.00178469,-0.00092062,-0.00027479,
 0.00013081,0.00009971,0.00006169,0.00010438,0.00063646,-0.00021110,0.1
 1377689,-0.16104466,0.09093829,-0.12106661,0.15906912,0.00313850,-0.01
 077660,0.00403947,-0.01250093,0.01818831,-0.00587464,-0.00004161,0.000
 02828,-0.00216646,0.00271389,-0.00173731,0.00016220,-0.00167043,0.0004
 8520,0.00011436,0.00045016,-0.00072788,0.00035285,-0.00395428,-0.00057
 687,-0.00081259,0.00023912,0.00018037,0.00004066,0.00005319,0.00115939
 ,-0.00097821,-0.09739483,0.08955911,-0.10346790,0.10417237,-0.09280507
 ,0.10708658,-0.04380253,-0.02537592,-0.00864743,-0.00187768,-0.0044539
 1,0.00324350,-0.05943461,0.01549815,-0.10165967,-0.20314107,-0.0153096
 6,0.03006962,-0.00259323,-0.00229637,-0.00271073,-0.00624461,-0.002343
 74,-0.00313850,-0.00349163,-0.00131886,-0.00261674,0.00114847,-0.00090
 863,-0.00015367,0.00102907,-0.00053543,-0.00160866,-0.03623812,0.01302
 211,-0.02147700,0.00447679,0.01371918,0.00341739,0.51193998,-0.0253759
 2,-0.04560705,-0.01244989,-0.01329495,-0.01954263,-0.01540397,0.007196
 46,-0.07456674,0.02143300,0.01527514,-0.02594478,-0.01795624,-0.001261
 72,-0.00217722,-0.00173380,0.01285600,0.00042200,0.01077660,-0.0149959
 5,0.00270298,-0.00613234,-0.00013811,0.00115503,0.00056342,0.00021939,
 -0.00512501,-0.00164563,-0.01298605,-0.16731784,0.00309762,-0.00129047
 ,-0.00188870,-0.00343133,0.12480809,0.50013718,0.00864743,0.01244989,0
 .01046818,-0.00595667,-0.02573098,-0.00046145,-0.04999598,0.01582203,-
 0.13862507,-0.03012214,-0.01796608,-0.03015954,0.00121564,-0.00063406,
 0.00016132,0.01528820,0.00508395,0.00403947,-0.02119696,-0.00519068,-0
 .02405755,0.00117444,0.00121071,0.00098962,0.00142824,-0.00219324,-0.0
 0191666,-0.02147273,-0.00312220,-0.06520880,0.00732491,0.01268193,-0.0
 0043332,0.19880988,0.09893209,0.35571009,-0.00259323,-0.00126172,-0.00
 121564,-0.00024807,0.00205070,0.00131087,-0.00498089,0.00200909,0.0007
 2056,-0.00624339,-0.01285883,-0.01528957,0.00004572,-0.00070381,-0.000
 44964,0.00271541,0.00020752,0.00167043,0.00058232,0.00059687,0.0010374
 6,0.00007562,-0.00014556,-0.00005329,0.00012953,0.00017465,0.00028296,
 0.00448102,0.00128980,0.00732787,0.00053728,-0.00051144,-0.00055708,-0
 .16194716,-0.11196225,-0.09859317,0.16632171,-0.00229637,-0.00217722,0
 .00063406,-0.00016532,-0.00295319,0.00145491,0.00784193,0.00633435,0.0
 0446285,0.00233984,0.00042024,0.00507936,-0.00070381,-0.00020226,-0.00
 072742,-0.00020633,0.00100038,-0.00048520,0.00178596,-0.00092072,0.000
 27567,-0.00013083,0.00009966,-0.00006156,-0.00010437,0.00063684,0.0002
 1125,-0.01371620,-0.00189173,-0.01268357,0.00051197,0.00092946,0.00047
 084,-0.11373646,-0.16105719,-0.09099820,0.12102476,0.15908080,0.002710
 73,0.00173380,0.00016132,-0.00004249,-0.00002677,-0.00216584,-0.012498
 10,-0.01818913,-0.00587662,0.00313507,0.01077044,0.00403486,0.00044964
 ,0.00072742,0.00035199,-0.00166914,-0.00048547,0.00011436,-0.00395395,
 0.00057808,-0.00081228,0.00023894,-0.00018020,0.00004074,0.00005325,-0
 .00115932,-0.00097757,0.00341337,0.00343319,-0.00043204,-0.00055697,-0
 .00047130,0.00052789,-0.09739712,-0.08961122,-0.10353523,0.10418200,0.
 09286456,0.10715907,0.00105891,0.02280957,0.00300602,-0.03293592,-0.00
 001876,-0.00001090,-0.00196119,0.00000019,-0.00000016,-0.00088123,0.00
 186225,0.00354498,0.00029222,-0.00121925,-0.00219439,0.00083125,0.0012
 2549,0.00025998,-0.00170777,-0.00000016,0.00000184,-0.00003267,0.00012
 292,-0.00025577,-0.00003283,-0.00012314,0.00025594,0.00106370,-0.02281
 233,-0.00300221,0.00029289,0.00121930,0.00219451,-0.00088257,-0.001859
 23,-0.00354507,0.00083192,-0.00122551,-0.00025962,0.03338807,-0.001076
 28,-0.00104289,0.00094591,-0.00002100,-0.31620318,-0.08247259,0.000000
 23,-0.00291695,0.00166507,-0.00030703,-0.00014824,0.00059879,-0.000007
 40,0.00061316,-0.00016677,-0.00009795,0.00008679,-0.00015102,0.0000004
 3,-0.00956870,-0.00977393,-0.00040767,0.00024749,0.00024043,0.00040765
 ,0.00024723,0.00024035,0.00107787,-0.00103692,0.00094927,0.00000716,0.
 00061264,-0.00016744,0.00030771,-0.00014713,0.00060075,0.00009761,0.00
 008740,-0.00015083,0.00001863,0.32987704,-0.00292943,-0.01421700,-0.00
 441567,-0.00001087,-0.07997420,-0.07498791,0.00000056,0.00392677,-0.00
 351240,-0.00093757,-0.00065877,-0.00255715,0.00082824,0.00023687,0.001
 45072,-0.00045451,-0.00026140,-0.00004139,0.00000035,0.01822591,0.0118
 0720,0.00035588,-0.00087900,0.00033515,-0.00035612,-0.00087877,0.00033
 502,0.00293236,-0.01420350,-0.00441098,-0.00082774,0.00023599,0.001450
 51,0.00093971,-0.00065530,-0.00255539,0.00045447,-0.00026067,-0.000041
 38,0.00000475,0.08850254,0.07578664,-0.00088257,-0.00185923,0.00354507
 ,-0.00196119,0.00000019,0.00000016,-0.03293592,-0.00001876,0.00001090,
 0.00106370,-0.02281233,0.00300221,0.00083192,-0.00122551,0.00025962,0.
 00029289,0.00121930,-0.00219451,-0.00170777,-0.00000016,-0.00000184,-0
 .00003283,-0.00012314,-0.00025594,-0.00003267,0.00012292,0.00025577,-0
 .00088123,0.00186225,-0.00354498,0.00083125,0.00122549,-0.00025998,0.0
 0105891,0.02280957,-0.00300602,0.00029222,-0.00121925,0.00219439,0.000
 67522,0.00000004,-0.00000008,0.03338807,0.00030771,-0.00014713,-0.0006
 0075,0.00000023,-0.00291695,-0.00166507,-0.00002100,-0.31620318,0.0824
 7259,0.00107787,-0.00103692,-0.00094927,0.00009761,0.00008740,0.000150
 83,0.00000716,0.00061264,0.00016744,0.00000043,-0.00956870,0.00977393,
 0.00040765,0.00024723,-0.00024035,-0.00040767,0.00024749,-0.00024043,-
 0.00030703,-0.00014824,-0.00059879,-0.00009795,0.00008679,0.00015102,-
 0.00107628,-0.00104289,-0.00094591,-0.00000740,0.00061316,0.00016677,0
 .00000004,-0.00070774,0.00086053,0.00001863,0.32987704,-0.00093971,0.0
 0065530,-0.00255539,-0.00000056,-0.00392677,-0.00351240,0.00001087,0.0
 7997420,-0.07498791,-0.00293236,0.01420350,-0.00441098,-0.00045447,0.0
 0026067,-0.00004138,0.00082774,-0.00023599,0.00145051,-0.00000035,-0.0
 1822591,0.01180720,0.00035612,0.00087877,0.00033502,-0.00035588,0.0008
 7900,0.00033515,0.00093757,0.00065877,-0.00255715,0.00045451,0.0002614
 0,-0.00004139,0.00292943,0.01421700,-0.00441567,-0.00082824,-0.0002368
 7,0.00145072,0.00000008,-0.00086053,0.00135703,-0.00000475,-0.08850254
 ,0.07578664\\-0.00015671,0.00006975,0.00005880,0.00002574,-0.00002952,
 -0.00027934,-0.00002574,0.00002952,-0.00027934,-0.00012461,-0.00004014
 ,0.00016767,-0.00003503,0.00001941,-0.00000370,-0.00003118,-0.00001612
 ,0.00000648,0.,0.,0.00019505,0.00002920,-0.00000448,0.00000654,-0.0000
 2920,0.00000448,0.00000654,0.00012461,0.00004014,0.00016767,0.00003118
 ,0.00001612,0.00000648,0.00015671,-0.00006975,0.00005880,0.00003503,-0
 .00001941,-0.00000370,0.00001455,0.00000920,-0.00005396,-0.00001455,-0
 .00000920,-0.00005396\\\@


 A BIRD IN THE HAND IS SAFER THAN ONE OVERHEAD.

                       -- NEWTON'S SEVENTH LAW
 Job cpu time:       0 days  0 hours  5 minutes 45.0 seconds.
 File lengths (MBytes):  RWF=     49 Int=      0 D2E=      0 Chk=      8 Scr=      1
 Normal termination of Gaussian 09 at Thu Sep 17 15:28:50 2020.
