 Entering Gaussian System, Link 0=g09
 Input=b3lyp_product_step1_cycloaddition_m062x_toluene_3_radical_2.com
 Output=b3lyp_product_step1_cycloaddition_m062x_toluene_3_radical_2.log
 Initial command:
 /apps/applications/gaussian/G09.D01/2/default/g09/l1.exe "/local/2608467.1.40core-192G.q/Gau-324728.inp" -scrdir="/local/2608467.1.40core-192G.q/"
 Entering Link 1 = /apps/applications/gaussian/G09.D01/2/default/g09/l1.exe PID=    324729.
  
 Copyright (c) 1988,1990,1992,1993,1995,1998,2003,2009,2013,
            Gaussian, Inc.  All Rights Reserved.
  
 This is part of the Gaussian(R) 09 program.  It is based on
 the Gaussian(R) 03 system (copyright 2003, Gaussian, Inc.),
 the Gaussian(R) 98 system (copyright 1998, Gaussian, Inc.),
 the Gaussian(R) 94 system (copyright 1995, Gaussian, Inc.),
 the Gaussian 92(TM) system (copyright 1992, Gaussian, Inc.),
 the Gaussian 90(TM) system (copyright 1990, Gaussian, Inc.),
 the Gaussian 88(TM) system (copyright 1988, Gaussian, Inc.),
 the Gaussian 86(TM) system (copyright 1986, Carnegie Mellon
 University), and the Gaussian 82(TM) system (copyright 1983,
 Carnegie Mellon University). Gaussian is a federally registered
 trademark of Gaussian, Inc.
  
 This software contains proprietary and confidential information,
 including trade secrets, belonging to Gaussian, Inc.
  
 This software is provided under written license and may be
 used, copied, transmitted, or stored only in accord with that
 written license.
  
 The following legend is applicable only to US Government
 contracts under FAR:
  
                    RESTRICTED RIGHTS LEGEND
  
 Use, reproduction and disclosure by the US Government is
 subject to restrictions as set forth in subparagraphs (a)
 and (c) of the Commercial Computer Software - Restricted
 Rights clause in FAR 52.227-19.
  
 Gaussian, Inc.
 340 Quinnipiac St., Bldg. 40, Wallingford CT 06492
  
  
 ---------------------------------------------------------------
 Warning -- This program may not be used in any manner that
 competes with the business of Gaussian, Inc. or will provide
 assistance to any competitor of Gaussian, Inc.  The licensee
 of this program is prohibited from giving any competitor of
 Gaussian, Inc. access to this program.  By using this program,
 the user acknowledges that Gaussian, Inc. is engaged in the
 business of creating and licensing software in the field of
 computational chemistry and represents and warrants to the
 licensee that it is not a competitor of Gaussian, Inc. and that
 it will not use this program in any manner prohibited above.
 ---------------------------------------------------------------
  

 Cite this work as:
 Gaussian 09, Revision D.01,
 M. J. Frisch, G. W. Trucks, H. B. Schlegel, G. E. Scuseria, 
 M. A. Robb, J. R. Cheeseman, G. Scalmani, V. Barone, B. Mennucci, 
 G. A. Petersson, H. Nakatsuji, M. Caricato, X. Li, H. P. Hratchian, 
 A. F. Izmaylov, J. Bloino, G. Zheng, J. L. Sonnenberg, M. Hada, 
 M. Ehara, K. Toyota, R. Fukuda, J. Hasegawa, M. Ishida, T. Nakajima, 
 Y. Honda, O. Kitao, H. Nakai, T. Vreven, J. A. Montgomery, Jr., 
 J. E. Peralta, F. Ogliaro, M. Bearpark, J. J. Heyd, E. Brothers, 
 K. N. Kudin, V. N. Staroverov, T. Keith, R. Kobayashi, J. Normand, 
 K. Raghavachari, A. Rendell, J. C. Burant, S. S. Iyengar, J. Tomasi, 
 M. Cossi, N. Rega, J. M. Millam, M. Klene, J. E. Knox, J. B. Cross, 
 V. Bakken, C. Adamo, J. Jaramillo, R. Gomperts, R. E. Stratmann, 
 O. Yazyev, A. J. Austin, R. Cammi, C. Pomelli, J. W. Ochterski, 
 R. L. Martin, K. Morokuma, V. G. Zakrzewski, G. A. Voth, 
 P. Salvador, J. J. Dannenberg, S. Dapprich, A. D. Daniels, 
 O. Farkas, J. B. Foresman, J. V. Ortiz, J. Cioslowski, 
 and D. J. Fox, Gaussian, Inc., Wallingford CT, 2013.
 
 ******************************************
 Gaussian 09:  ES64L-G09RevD.01 24-Apr-2013
                12-Jul-2021 
 ******************************************
 %nprocshared=4
 Will use up to    4 processors via shared memory.
 %chk=product_cycloaddition_m062x_toluene_2.chk
 ----------------------------------------------------------------------
 # opt freq b3lyp/6-31+g(d,p) scrf=(cpcm,solvent=toluene) geom=connecti
 vity empiricaldispersion=gd3
 ----------------------------------------------------------------------
 1/14=-1,18=20,19=15,26=3,38=1,57=2/1,3;
 2/9=110,12=2,17=6,18=5,40=1/2;
 3/5=1,6=6,7=111,11=2,16=1,25=1,30=1,70=2101,71=1,72=13,74=-5,124=31/1,2,3;
 4//1;
 5/5=2,38=5,53=13/2;
 6/7=2,8=2,9=2,10=2,28=1/1;
 7//1,2,3,16;
 1/14=-1,18=20,19=15,26=3/3(2);
 2/9=110/2;
 99//99;
 2/9=110/2;
 3/5=1,6=6,7=111,11=2,16=1,25=1,30=1,70=2105,71=1,72=13,74=-5,124=31/1,2,3;
 4/5=5,16=3,69=1/1;
 5/5=2,38=5,53=13/2;
 7//1,2,3,16;
 1/14=-1,18=20,19=15,26=3/3(-5);
 2/9=110/2;
 6/7=2,8=2,9=2,10=2,19=2,28=1/1;
 99/9=1/99;
 -------------------
 Title Card Required
 -------------------
 Symbolic Z-matrix:
 Charge =  0 Multiplicity = 3
 C                     0.35107   0.71581  -0.57151 
 C                     0.69112   1.8769    0.41036 
 C                    -1.60656   1.73729   0.46248 
 C                    -1.10666   1.08109  -0.79405 
 H                     0.94211   0.78555  -1.4903 
 H                    -1.75078   0.54617  -1.48626 
 C                    -0.44864   1.74402   1.45519 
 H                    -0.47742   2.61099   2.13011 
 H                    -0.3963    0.82169   2.05287 
 C                     0.21248   3.048    -0.40648 
 H                     0.54887   4.0787   -0.30835 
 C                    -1.16043   2.60102  -0.71621 
 H                    -1.87668   3.15979  -1.31518 
 H                     1.7197    1.89121   0.78286 
 H                    -2.65077   1.66232   0.76289 
 N                    -0.19923  -1.28586   0.80199 
 N                     0.62437  -0.61249   0.02562 
 C                    -1.55098  -1.36351   0.48933 
 C                     1.97348  -1.04316   0.12496 
 O                     2.31946  -2.03825   0.688 
 O                    -2.42832  -1.23745   1.30202 
 O                     2.78081  -0.19828  -0.51018 
 O                    -1.75074  -1.74194  -0.78121 
 C                    -3.10907  -1.94557  -1.14702 
 H                    -3.09884  -2.29174  -2.18487 
 H                    -3.57417  -2.69598  -0.49487 
 H                    -3.67363  -1.00571  -1.06197 
 C                     4.15931  -0.55724  -0.51079 
 H                     4.67449   0.2216   -1.07959 
 H                     4.54028  -0.59928   0.51751 
 H                     4.29674  -1.53741  -0.98482 
 

 GradGradGradGradGradGradGradGradGradGradGradGradGradGradGradGradGradGrad
 Berny optimization.
 Initialization pass.
                           ----------------------------
                           !    Initial Parameters    !
                           ! (Angstroms and Degrees)  !
 --------------------------                            --------------------------
 ! Name  Definition              Value          Derivative Info.                !
 --------------------------------------------------------------------------------
 ! R1    R(1,2)                  1.5582         estimate D2E/DX2                !
 ! R2    R(1,4)                  1.5192         estimate D2E/DX2                !
 ! R3    R(1,5)                  1.0947         estimate D2E/DX2                !
 ! R4    R(1,17)                 1.4818         estimate D2E/DX2                !
 ! R5    R(2,7)                  1.5519         estimate D2E/DX2                !
 ! R6    R(2,10)                 1.5059         estimate D2E/DX2                !
 ! R7    R(2,14)                 1.094          estimate D2E/DX2                !
 ! R8    R(3,4)                  1.5031         estimate D2E/DX2                !
 ! R9    R(3,7)                  1.5252         estimate D2E/DX2                !
 ! R10   R(3,12)                 1.5279         estimate D2E/DX2                !
 ! R11   R(3,15)                 1.0892         estimate D2E/DX2                !
 ! R12   R(4,6)                  1.0864         estimate D2E/DX2                !
 ! R13   R(4,12)                 1.5229         estimate D2E/DX2                !
 ! R14   R(7,8)                  1.0991         estimate D2E/DX2                !
 ! R15   R(7,9)                  1.1003         estimate D2E/DX2                !
 ! R16   R(10,11)                1.0886         estimate D2E/DX2                !
 ! R17   R(10,12)                1.4767         estimate D2E/DX2                !
 ! R18   R(12,13)                1.0881         estimate D2E/DX2                !
 ! R19   R(16,17)                1.317          estimate D2E/DX2                !
 ! R20   R(16,18)                1.3896         estimate D2E/DX2                !
 ! R21   R(17,19)                1.4197         estimate D2E/DX2                !
 ! R22   R(18,21)                1.2025         estimate D2E/DX2                !
 ! R23   R(18,23)                1.3407         estimate D2E/DX2                !
 ! R24   R(19,20)                1.1945         estimate D2E/DX2                !
 ! R25   R(19,22)                1.33           estimate D2E/DX2                !
 ! R26   R(22,28)                1.4245         estimate D2E/DX2                !
 ! R27   R(23,24)                1.4214         estimate D2E/DX2                !
 ! R28   R(24,25)                1.0941         estimate D2E/DX2                !
 ! R29   R(24,26)                1.0976         estimate D2E/DX2                !
 ! R30   R(24,27)                1.0997         estimate D2E/DX2                !
 ! R31   R(28,29)                1.0934         estimate D2E/DX2                !
 ! R32   R(28,30)                1.0974         estimate D2E/DX2                !
 ! R33   R(28,31)                1.0974         estimate D2E/DX2                !
 ! A1    A(2,1,4)               97.0392         estimate D2E/DX2                !
 ! A2    A(2,1,5)              111.3208         estimate D2E/DX2                !
 ! A3    A(2,1,17)             111.9503         estimate D2E/DX2                !
 ! A4    A(4,1,5)              112.3212         estimate D2E/DX2                !
 ! A5    A(4,1,17)             116.8435         estimate D2E/DX2                !
 ! A6    A(5,1,17)             107.2027         estimate D2E/DX2                !
 ! A7    A(1,2,7)              101.5469         estimate D2E/DX2                !
 ! A8    A(1,2,10)              99.6904         estimate D2E/DX2                !
 ! A9    A(1,2,14)             115.4345         estimate D2E/DX2                !
 ! A10   A(7,2,10)             101.4402         estimate D2E/DX2                !
 ! A11   A(7,2,14)             117.5405         estimate D2E/DX2                !
 ! A12   A(10,2,14)            118.2505         estimate D2E/DX2                !
 ! A13   A(4,3,7)              107.0697         estimate D2E/DX2                !
 ! A14   A(4,3,15)             121.2896         estimate D2E/DX2                !
 ! A15   A(7,3,12)             106.1379         estimate D2E/DX2                !
 ! A16   A(7,3,15)             123.2741         estimate D2E/DX2                !
 ! A17   A(12,3,15)            122.1166         estimate D2E/DX2                !
 ! A18   A(1,4,3)              107.5553         estimate D2E/DX2                !
 ! A19   A(1,4,6)              122.9477         estimate D2E/DX2                !
 ! A20   A(1,4,12)             105.4484         estimate D2E/DX2                !
 ! A21   A(3,4,6)              123.3962         estimate D2E/DX2                !
 ! A22   A(6,4,12)             120.2042         estimate D2E/DX2                !
 ! A23   A(2,7,3)               96.8773         estimate D2E/DX2                !
 ! A24   A(2,7,8)              111.4149         estimate D2E/DX2                !
 ! A25   A(2,7,9)              113.7377         estimate D2E/DX2                !
 ! A26   A(3,7,8)              112.5372         estimate D2E/DX2                !
 ! A27   A(3,7,9)              112.7036         estimate D2E/DX2                !
 ! A28   A(8,7,9)              109.2026         estimate D2E/DX2                !
 ! A29   A(2,10,11)            126.0982         estimate D2E/DX2                !
 ! A30   A(2,10,12)            100.0134         estimate D2E/DX2                !
 ! A31   A(11,10,12)           126.3545         estimate D2E/DX2                !
 ! A32   A(3,12,10)            106.3065         estimate D2E/DX2                !
 ! A33   A(3,12,13)            121.5175         estimate D2E/DX2                !
 ! A34   A(4,12,10)            106.2605         estimate D2E/DX2                !
 ! A35   A(4,12,13)            120.5062         estimate D2E/DX2                !
 ! A36   A(10,12,13)           124.8902         estimate D2E/DX2                !
 ! A37   A(17,16,18)           120.2818         estimate D2E/DX2                !
 ! A38   A(1,17,16)            125.4892         estimate D2E/DX2                !
 ! A39   A(1,17,19)            118.3864         estimate D2E/DX2                !
 ! A40   A(16,17,19)           113.4485         estimate D2E/DX2                !
 ! A41   A(16,18,21)           123.49           estimate D2E/DX2                !
 ! A42   A(16,18,23)           111.9589         estimate D2E/DX2                !
 ! A43   A(21,18,23)           124.1488         estimate D2E/DX2                !
 ! A44   A(17,19,20)           124.1201         estimate D2E/DX2                !
 ! A45   A(17,19,22)           110.531          estimate D2E/DX2                !
 ! A46   A(20,19,22)           125.3413         estimate D2E/DX2                !
 ! A47   A(19,22,28)           115.3114         estimate D2E/DX2                !
 ! A48   A(18,23,24)           115.2599         estimate D2E/DX2                !
 ! A49   A(23,24,25)           106.2913         estimate D2E/DX2                !
 ! A50   A(23,24,26)           110.4861         estimate D2E/DX2                !
 ! A51   A(23,24,27)           110.3807         estimate D2E/DX2                !
 ! A52   A(25,24,26)           110.5645         estimate D2E/DX2                !
 ! A53   A(25,24,27)           110.3997         estimate D2E/DX2                !
 ! A54   A(26,24,27)           108.7131         estimate D2E/DX2                !
 ! A55   A(22,28,29)           106.0622         estimate D2E/DX2                !
 ! A56   A(22,28,30)           110.1942         estimate D2E/DX2                !
 ! A57   A(22,28,31)           110.2698         estimate D2E/DX2                !
 ! A58   A(29,28,30)           110.5588         estimate D2E/DX2                !
 ! A59   A(29,28,31)           110.6401         estimate D2E/DX2                !
 ! A60   A(30,28,31)           109.091          estimate D2E/DX2                !
 ! D1    D(4,1,2,7)             51.1438         estimate D2E/DX2                !
 ! D2    D(4,1,2,10)           -52.758          estimate D2E/DX2                !
 ! D3    D(4,1,2,14)           179.4409         estimate D2E/DX2                !
 ! D4    D(5,1,2,7)            168.4659         estimate D2E/DX2                !
 ! D5    D(5,1,2,10)            64.5641         estimate D2E/DX2                !
 ! D6    D(5,1,2,14)           -63.237          estimate D2E/DX2                !
 ! D7    D(17,1,2,7)           -71.5609         estimate D2E/DX2                !
 ! D8    D(17,1,2,10)         -175.4627         estimate D2E/DX2                !
 ! D9    D(17,1,2,14)           56.7362         estimate D2E/DX2                !
 ! D10   D(2,1,4,3)            -30.3609         estimate D2E/DX2                !
 ! D11   D(2,1,4,6)            176.3869         estimate D2E/DX2                !
 ! D12   D(2,1,4,12)            33.1532         estimate D2E/DX2                !
 ! D13   D(5,1,4,3)           -146.8944         estimate D2E/DX2                !
 ! D14   D(5,1,4,6)             59.8534         estimate D2E/DX2                !
 ! D15   D(5,1,4,12)           -83.3804         estimate D2E/DX2                !
 ! D16   D(17,1,4,3)            88.6267         estimate D2E/DX2                !
 ! D17   D(17,1,4,6)           -64.6255         estimate D2E/DX2                !
 ! D18   D(17,1,4,12)          152.1407         estimate D2E/DX2                !
 ! D19   D(2,1,17,16)           84.6046         estimate D2E/DX2                !
 ! D20   D(2,1,17,19)          -75.584          estimate D2E/DX2                !
 ! D21   D(4,1,17,16)          -26.0079         estimate D2E/DX2                !
 ! D22   D(4,1,17,19)          173.8035         estimate D2E/DX2                !
 ! D23   D(5,1,17,16)         -153.0419         estimate D2E/DX2                !
 ! D24   D(5,1,17,19)           46.7694         estimate D2E/DX2                !
 ! D25   D(1,2,7,3)            -51.6839         estimate D2E/DX2                !
 ! D26   D(1,2,7,8)           -169.1997         estimate D2E/DX2                !
 ! D27   D(1,2,7,9)             66.8534         estimate D2E/DX2                !
 ! D28   D(10,2,7,3)            50.8272         estimate D2E/DX2                !
 ! D29   D(10,2,7,8)           -66.6886         estimate D2E/DX2                !
 ! D30   D(10,2,7,9)           169.3644         estimate D2E/DX2                !
 ! D31   D(14,2,7,3)          -178.6188         estimate D2E/DX2                !
 ! D32   D(14,2,7,8)            63.8653         estimate D2E/DX2                !
 ! D33   D(14,2,7,9)           -60.0816         estimate D2E/DX2                !
 ! D34   D(1,2,10,11)         -156.5287         estimate D2E/DX2                !
 ! D35   D(1,2,10,12)           52.5768         estimate D2E/DX2                !
 ! D36   D(7,2,10,11)           99.4821         estimate D2E/DX2                !
 ! D37   D(7,2,10,12)          -51.4124         estimate D2E/DX2                !
 ! D38   D(14,2,10,11)         -30.6293         estimate D2E/DX2                !
 ! D39   D(14,2,10,12)         178.4763         estimate D2E/DX2                !
 ! D40   D(7,3,4,1)             -0.9871         estimate D2E/DX2                !
 ! D41   D(7,3,4,6)            152.1169         estimate D2E/DX2                !
 ! D42   D(15,3,4,1)          -150.1056         estimate D2E/DX2                !
 ! D43   D(15,3,4,6)             2.9984         estimate D2E/DX2                !
 ! D44   D(4,3,7,2)             32.003          estimate D2E/DX2                !
 ! D45   D(4,3,7,8)            148.6329         estimate D2E/DX2                !
 ! D46   D(4,3,7,9)            -87.3367         estimate D2E/DX2                !
 ! D47   D(12,3,7,2)           -31.2249         estimate D2E/DX2                !
 ! D48   D(12,3,7,8)            85.4049         estimate D2E/DX2                !
 ! D49   D(12,3,7,9)          -150.5646         estimate D2E/DX2                !
 ! D50   D(15,3,7,2)          -179.6396         estimate D2E/DX2                !
 ! D51   D(15,3,7,8)           -63.0098         estimate D2E/DX2                !
 ! D52   D(15,3,7,9)            61.0206         estimate D2E/DX2                !
 ! D53   D(7,3,12,10)            1.286          estimate D2E/DX2                !
 ! D54   D(7,3,12,13)         -150.1768         estimate D2E/DX2                !
 ! D55   D(15,3,12,10)         150.1535         estimate D2E/DX2                !
 ! D56   D(15,3,12,13)          -1.3093         estimate D2E/DX2                !
 ! D57   D(1,4,12,10)           -2.1878         estimate D2E/DX2                !
 ! D58   D(1,4,12,13)          147.5152         estimate D2E/DX2                !
 ! D59   D(6,4,12,10)         -146.6536         estimate D2E/DX2                !
 ! D60   D(6,4,12,13)            3.0494         estimate D2E/DX2                !
 ! D61   D(2,10,12,3)           30.5329         estimate D2E/DX2                !
 ! D62   D(2,10,12,4)          -31.2346         estimate D2E/DX2                !
 ! D63   D(2,10,12,13)        -179.236          estimate D2E/DX2                !
 ! D64   D(11,10,12,3)        -120.2569         estimate D2E/DX2                !
 ! D65   D(11,10,12,4)         177.9757         estimate D2E/DX2                !
 ! D66   D(11,10,12,13)         29.9743         estimate D2E/DX2                !
 ! D67   D(18,16,17,1)          43.1782         estimate D2E/DX2                !
 ! D68   D(18,16,17,19)       -155.7882         estimate D2E/DX2                !
 ! D69   D(17,16,18,21)       -136.5458         estimate D2E/DX2                !
 ! D70   D(17,16,18,23)         50.4733         estimate D2E/DX2                !
 ! D71   D(1,17,19,20)         173.3666         estimate D2E/DX2                !
 ! D72   D(1,17,19,22)          -7.5951         estimate D2E/DX2                !
 ! D73   D(16,17,19,20)         10.8724         estimate D2E/DX2                !
 ! D74   D(16,17,19,22)       -170.0893         estimate D2E/DX2                !
 ! D75   D(16,18,23,24)        175.2927         estimate D2E/DX2                !
 ! D76   D(21,18,23,24)          2.3664         estimate D2E/DX2                !
 ! D77   D(17,19,22,28)       -178.0893         estimate D2E/DX2                !
 ! D78   D(20,19,22,28)          0.9348         estimate D2E/DX2                !
 ! D79   D(19,22,28,29)        179.1066         estimate D2E/DX2                !
 ! D80   D(19,22,28,30)        -61.2058         estimate D2E/DX2                !
 ! D81   D(19,22,28,31)         59.2808         estimate D2E/DX2                !
 ! D82   D(18,23,24,25)       -177.4009         estimate D2E/DX2                !
 ! D83   D(18,23,24,26)        -57.4107         estimate D2E/DX2                !
 ! D84   D(18,23,24,27)         62.865          estimate D2E/DX2                !
 --------------------------------------------------------------------------------
 Trust Radius=3.00D-01 FncErr=1.00D-07 GrdErr=1.00D-06
 Number of steps in this run=    186 maximum allowed number of steps=    186.
 GradGradGradGradGradGradGradGradGradGradGradGradGradGradGradGradGradGrad

                          Input orientation:                          
 ---------------------------------------------------------------------
 Center     Atomic      Atomic             Coordinates (Angstroms)
 Number     Number       Type             X           Y           Z
 ---------------------------------------------------------------------
      1          6           0        0.351069    0.715809   -0.571509
      2          6           0        0.691118    1.876900    0.410363
      3          6           0       -1.606556    1.737294    0.462483
      4          6           0       -1.106662    1.081090   -0.794054
      5          1           0        0.942105    0.785550   -1.490298
      6          1           0       -1.750778    0.546171   -1.486256
      7          6           0       -0.448641    1.744021    1.455191
      8          1           0       -0.477416    2.610987    2.130107
      9          1           0       -0.396301    0.821691    2.052867
     10          6           0        0.212479    3.048003   -0.406476
     11          1           0        0.548873    4.078699   -0.308350
     12          6           0       -1.160430    2.601019   -0.716210
     13          1           0       -1.876682    3.159791   -1.315178
     14          1           0        1.719701    1.891211    0.782860
     15          1           0       -2.650773    1.662317    0.762888
     16          7           0       -0.199232   -1.285861    0.801992
     17          7           0        0.624370   -0.612490    0.025615
     18          6           0       -1.550978   -1.363508    0.489333
     19          6           0        1.973483   -1.043157    0.124961
     20          8           0        2.319458   -2.038247    0.688001
     21          8           0       -2.428322   -1.237454    1.302017
     22          8           0        2.780813   -0.198281   -0.510179
     23          8           0       -1.750736   -1.741939   -0.781208
     24          6           0       -3.109073   -1.945574   -1.147017
     25          1           0       -3.098845   -2.291736   -2.184867
     26          1           0       -3.574171   -2.695975   -0.494874
     27          1           0       -3.673628   -1.005705   -1.061972
     28          6           0        4.159314   -0.557244   -0.510788
     29          1           0        4.674488    0.221601   -1.079594
     30          1           0        4.540285   -0.599277    0.517512
     31          1           0        4.296736   -1.537410   -0.984820
 ---------------------------------------------------------------------
                    Distance matrix (angstroms):
                    1          2          3          4          5
     1  C    0.000000
     2  C    1.558152   0.000000
     3  C    2.438210   2.302501   0.000000
     4  C    1.519189   2.305634   1.503124   0.000000
     5  H    1.094697   2.206026   3.348857   2.183929   0.000000
     6  H    2.298543   3.366134   2.288484   1.086355   2.703505
     7  C    2.409205   1.551893   1.525215   2.435482   3.395401
     8  H    3.402472   2.204966   2.195283   3.359651   4.295881
     9  H    2.730773   2.234673   2.198265   2.945651   3.787698
    10  C    2.342130   1.505923   2.404566   2.399812   2.612607
    11  H    3.378966   2.320496   3.274482   3.458665   3.520861
    12  C    2.420658   2.285114   1.527863   1.522871   2.883712
    13  H    3.389538   3.349164   2.292716   2.277169   3.689613
    14  H    2.255890   1.094048   3.345193   3.336358   2.644691
    15  H    3.418706   3.367277   1.089153   2.268518   4.330628
    16  N    2.489180   3.308951   3.351909   2.995538   3.293628
    17  N    1.481765   2.519831   3.269460   2.556666   2.086496
    18  C    3.011101   3.941253   3.101416   2.796526   3.840944
    19  C    2.492240   3.201976   4.545493   3.852831   2.648957
    20  O    3.611889   4.249347   5.451528   4.864674   3.823077
    21  O    3.879478   4.497238   3.198319   3.393515   4.821758
    22  O    2.596724   3.085547   4.893008   4.102418   2.304214
    23  O    3.240692   4.525316   3.697650   2.895598   3.760638
    24  C    4.403039   5.610543   4.290870   3.646221   4.897849
    25  H    4.852850   6.202948   5.046630   4.156815   5.126538
    26  H    5.201313   6.318491   4.943877   4.521541   5.788664
    27  H    4.404810   5.433985   3.757764   3.319007   4.969613
    28  C    4.015854   4.336123   6.281514   5.522217   3.621183
    29  H    4.381135   4.563685   6.642804   5.851662   3.797025
    30  H    4.523820   4.578102   6.576188   6.035880   4.346947
    31  H    4.562468   5.157958   6.904146   6.007466   4.111593
                    6          7          8          9         10
     6  H    0.000000
     7  C    3.432567   0.000000
     8  H    4.354652   1.099077   0.000000
     9  H    3.799462   1.100295   1.792798   0.000000
    10  C    3.358492   2.367119   2.664806   3.372751   0.000000
    11  H    4.376598   3.091251   3.025479   4.132409   1.088634
    12  C    2.272418   2.440506   2.927136   3.379007   1.476689
    13  H    2.622237   3.423251   3.758872   4.359125   2.280971
    14  H    4.359156   2.274951   2.675906   2.689657   2.241519
    15  H    2.667287   2.309836   2.737288   2.730081   3.389063
    16  N    3.316582   3.109511   4.126342   2.458719   4.517995
    17  N    3.044598   2.957733   4.004201   2.684845   3.708850
    18  C    2.754949   3.435806   4.431849   2.924553   4.834634
    19  C    4.357993   3.924864   4.835316   3.579156   4.485661
    20  O    5.288991   4.749369   5.614049   4.173422   5.613126
    21  O    3.378587   3.582149   4.393434   2.988806   5.315818
    22  O    4.694918   4.250246   5.047688   4.207565   4.140707
    23  O    2.394272   4.341526   5.389347   4.054463   5.190201
    24  C    2.858119   5.240467   6.198984   5.025549   6.042923
    25  H    3.218549   6.046564   7.037584   5.912323   6.529958
    26  H    3.849560   5.769338   6.681636   5.381804   6.880394
    27  H    2.507127   4.929264   5.786674   4.876727   5.653676
    28  C    6.090833   5.513088   6.205746   5.406239   5.346606
    29  H    6.446298   5.915179   6.523301   5.990436   5.324581
    30  H    6.701090   5.591035   6.171190   5.361562   5.734659
    31  H    6.416009   6.264188   7.050142   6.067742   6.167791
                   11         12         13         14         15
    11  H    0.000000
    12  C    2.295998   0.000000
    13  H    2.782339   1.088120   0.000000
    14  H    2.710476   3.323581   4.352589   0.000000
    15  H    4.150203   2.300003   2.675818   4.376509   0.000000
    16  N    5.529107   4.282134   5.201929   3.711665   3.834493
    17  N    4.703667   3.749994   4.720497   2.835787   4.055229
    18  C    5.887554   4.162131   4.880838   4.623494   3.231099
    19  C    5.333918   4.879446   5.878992   3.017905   5.395395
    20  O    6.445519   5.966927   6.974232   3.976097   6.197014
    21  O    6.302258   4.518259   5.146822   5.221510   2.957840
    22  O    4.828545   4.838587   5.798011   2.676544   5.880872
    23  O    6.276275   4.383374   4.932336   5.262131   3.844900
    24  C    7.097591   4.965311   5.254695   6.462384   4.107877
    25  H    7.576913   5.463832   5.654130   7.037246   4.952228
    26  H    7.932874   5.825228   6.151777   7.120390   4.629183
    27  H    6.651964   4.409555   4.543620   6.394023   3.390382
    28  C    5.879476   6.190032   7.134188   3.690551   7.275025
    29  H    5.700239   6.311889   7.183752   3.871317   7.689594
    30  H    6.204585   6.652978   7.659426   3.772086   7.542303
    31  H    6.785630   6.854153   7.764272   4.639099   7.846057
                   16         17         18         19         20
    16  N    0.000000
    17  N    1.317008   0.000000
    18  C    1.389605   2.347595   0.000000
    19  C    2.288660   1.419665   3.557698   0.000000
    20  O    2.631136   2.311896   3.933830   1.194536   0.000000
    21  O    2.284997   3.367300   1.202530   4.560603   4.853834
    22  O    3.432971   2.260286   4.595780   1.330038   2.243649
    23  O    2.263116   2.750954   1.340667   3.896055   4.337379
    24  C    3.563851   4.134099   2.333260   5.316452   5.731041
    25  H    4.282624   4.644182   3.226274   5.711634   6.138048
    26  H    3.880786   4.715884   2.614850   5.821724   6.047037
    27  H    3.952756   4.450871   2.653340   5.770622   6.328162
    28  C    4.609902   3.575837   5.853011   2.327691   2.648686
    29  H    5.437458   4.280263   6.612906   3.216519   3.711802
    30  H    4.797431   3.946711   6.139082   2.634312   2.651749
    31  H    4.844554   3.919532   6.033169   2.621718   2.637953
                   21         22         23         24         25
    21  O    0.000000
    22  O    5.612399   0.000000
    23  O    2.247989   4.794922   0.000000
    24  C    2.638678   6.176516   1.421395   0.000000
    25  H    3.703981   6.462005   2.022358   1.094105   0.000000
    26  H    2.582454   6.828216   2.077760   1.097592   1.801505
    27  H    2.681965   6.528110   2.078072   1.099686   1.801428
    28  C    6.866287   1.424472   6.033682   7.427092   7.647998
    29  H    7.632223   2.021519   6.725179   8.079914   8.243979
    30  H    7.041605   2.076701   6.524515   7.943290   8.277897
    31  H    7.109571   2.077636   6.054354   7.418822   7.530188
                   26         27         28         29         30
    26  H    0.000000
    27  H    1.785638   0.000000
    28  C    8.023790   7.865107   0.000000
    29  H    8.768952   8.437869   1.093409   0.000000
    30  H    8.441887   8.374265   1.097409   1.800722   0.000000
    31  H    7.970790   7.988452   1.097414   1.801610   1.787851
                   31
    31  H    0.000000
 Stoichiometry    C11H14N2O4(3)
 Framework group  C1[X(C11H14N2O4)]
 Deg. of freedom    87
 Full point group                 C1      NOp   1
 Largest Abelian subgroup         C1      NOp   1
 Largest concise Abelian subgroup C1      NOp   1
                         Standard orientation:                         
 ---------------------------------------------------------------------
 Center     Atomic      Atomic             Coordinates (Angstroms)
 Number     Number       Type             X           Y           Z
 ---------------------------------------------------------------------
      1          6           0        0.351069    0.715809   -0.571509
      2          6           0        0.691118    1.876900    0.410363
      3          6           0       -1.606556    1.737294    0.462483
      4          6           0       -1.106662    1.081090   -0.794054
      5          1           0        0.942105    0.785550   -1.490298
      6          1           0       -1.750778    0.546171   -1.486256
      7          6           0       -0.448641    1.744021    1.455191
      8          1           0       -0.477416    2.610987    2.130107
      9          1           0       -0.396301    0.821691    2.052867
     10          6           0        0.212479    3.048003   -0.406476
     11          1           0        0.548872    4.078699   -0.308350
     12          6           0       -1.160430    2.601019   -0.716210
     13          1           0       -1.876682    3.159791   -1.315178
     14          1           0        1.719701    1.891211    0.782860
     15          1           0       -2.650773    1.662317    0.762888
     16          7           0       -0.199232   -1.285861    0.801992
     17          7           0        0.624370   -0.612490    0.025615
     18          6           0       -1.550978   -1.363508    0.489333
     19          6           0        1.973483   -1.043157    0.124961
     20          8           0        2.319458   -2.038247    0.688001
     21          8           0       -2.428322   -1.237454    1.302017
     22          8           0        2.780813   -0.198281   -0.510179
     23          8           0       -1.750736   -1.741939   -0.781208
     24          6           0       -3.109073   -1.945574   -1.147017
     25          1           0       -3.098845   -2.291736   -2.184867
     26          1           0       -3.574171   -2.695976   -0.494874
     27          1           0       -3.673628   -1.005706   -1.061972
     28          6           0        4.159314   -0.557244   -0.510788
     29          1           0        4.674488    0.221602   -1.079594
     30          1           0        4.540285   -0.599276    0.517512
     31          1           0        4.296736   -1.537410   -0.984820
 ---------------------------------------------------------------------
 Rotational constants (GHZ):      0.6375418      0.4593998      0.3188173
 Standard basis: 6-31+G(d,p) (6D, 7F)
 There are   393 symmetry adapted cartesian basis functions of A   symmetry.
 There are   393 symmetry adapted basis functions of A   symmetry.
   393 basis functions,   642 primitive gaussians,   393 cartesian basis functions
    64 alpha electrons       62 beta electrons
       nuclear repulsion energy      1322.2557970247 Hartrees.
 NAtoms=   31 NActive=   31 NUniq=   31 SFac= 1.00D+00 NAtFMM=   60 NAOKFM=F Big=F
 Integral buffers will be    131072 words long.
 Raffenetti 2 integral format.
 Two-electron integral symmetry is turned on.
 Nuclear repulsion after empirical dispersion term =     1322.2214275069 Hartrees.
 ------------------------------------------------------------------------------
 Polarizable Continuum Model (PCM)
 =================================
 Model                : C-PCM.
 Atomic radii         : UFF (Universal Force Field).
 Polarization charges : Total charges.
 Charge compensation  : None.
 Solution method      : On-the-fly selection.
 Cavity type          : Scaled VdW (van der Waals Surface) (Alpha=1.100).
 Cavity algorithm     : GePol (No added spheres)
                        Default sphere list used, NSphG=   31.
                        Lebedev-Laikov grids with approx.  5.0 points / Ang**2.
                        Smoothing algorithm: Karplus/York (Gamma=1.0000).
                        Polarization charges: spherical gaussians, with
                                              point-specific exponents (IZeta= 3).
                        Self-potential: point-specific (ISelfS= 7).
                        Self-field    : sphere-specific E.n sum rule (ISelfD= 2).
 1st derivatives      : Analytical E(r).r(x)/FMM algorithm (CHGder, D1EAlg=3).
                        Cavity 1st derivative terms included.
 Solvent              : Toluene, Eps=   2.374100 Eps(inf)=   2.238315
 ------------------------------------------------------------------------------
 One-electron integrals computed using PRISM.
 NBasis=   393 RedAO= T EigKep=  5.33D-06  NBF=   393
 NBsUse=   393 1.00D-06 EigRej= -1.00D+00 NBFU=   393
 ExpMin= 4.38D-02 ExpMax= 5.48D+03 ExpMxC= 8.25D+02 IAcc=2 IRadAn=         4 AccDes= 0.00D+00
 Harris functional with IExCor=  402 and IRadAn=       4 diagonalized for initial guess.
 HarFok:  IExCor=  402 AccDes= 0.00D+00 IRadAn=         4 IDoV= 1 UseB2=F ITyADJ=14
 ICtDFT=  3500011 ScaDFX=  1.000000  1.000000  1.000000  1.000000
 FoFCou: FMM=F IPFlag=           0 FMFlag=      100000 FMFlg1=           0
         NFxFlg=           0 DoJE=T BraDBF=F KetDBF=T FulRan=T
         wScrn=  0.000000 ICntrl=     500 IOpCl=  0 I1Cent=   200000004 NGrid=           0
         NMat0=    1 NMatS0=      1 NMatT0=    0 NMatD0=    1 NMtDS0=    0 NMtDT0=    0
 Petite list used in FoFCou.
 Initial guess <Sx>= 0.0000 <Sy>= 0.0000 <Sz>= 1.0000 <S**2>= 2.0000 S= 1.0000
 Requested convergence on RMS density matrix=1.00D-08 within 128 cycles.
 Requested convergence on MAX density matrix=1.00D-06.
 Requested convergence on             energy=1.00D-06.
 No special actions if energy rises.
 Inv3:  Mode=1 IEnd=    14999088.
 Iteration    1 A*A^-1 deviation from unit magnitude is 5.55D-15 for   2215.
 Iteration    1 A*A^-1 deviation from orthogonality  is 3.29D-15 for   1525   1211.
 Iteration    1 A^-1*A deviation from unit magnitude is 5.55D-15 for   2215.
 Iteration    1 A^-1*A deviation from orthogonality  is 2.26D-15 for   1594    550.
 Error on total polarization charges =  0.00967
 SCF Done:  E(UB3LYP) =  -837.924691904     A.U. after   18 cycles
            NFock= 18  Conv=0.63D-08     -V/T= 2.0088
 <Sx>= 0.0000 <Sy>= 0.0000 <Sz>= 1.0000 <S**2>= 2.0080 S= 1.0027
 <L.S>= 0.000000000000E+00
 Annihilation of the first spin contaminant:
 S**2 before annihilation     2.0080,   after     2.0000

 **********************************************************************

            Population analysis using the SCF density.

 **********************************************************************

 Orbital symmetries:
 Alpha Orbitals:
       Occupied  (A) (A) (A) (A) (A) (A) (A) (A) (A) (A) (A) (A)
                 (A) (A) (A) (A) (A) (A) (A) (A) (A) (A) (A) (A)
                 (A) (A) (A) (A) (A) (A) (A) (A) (A) (A) (A) (A)
                 (A) (A) (A) (A) (A) (A) (A) (A) (A) (A) (A) (A)
                 (A) (A) (A) (A) (A) (A) (A) (A) (A) (A) (A) (A)
                 (A) (A) (A) (A)
       Virtual   (A) (A) (A) (A) (A) (A) (A) (A) (A) (A) (A) (A)
                 (A) (A) (A) (A) (A) (A) (A) (A) (A) (A) (A) (A)
                 (A) (A) (A) (A) (A) (A) (A) (A) (A) (A) (A) (A)
                 (A) (A) (A) (A) (A) (A) (A) (A) (A) (A) (A) (A)
                 (A) (A) (A) (A) (A) (A) (A) (A) (A) (A) (A) (A)
                 (A) (A) (A) (A) (A) (A) (A) (A) (A) (A) (A) (A)
                 (A) (A) (A) (A) (A) (A) (A) (A) (A) (A) (A) (A)
                 (A) (A) (A) (A) (A) (A) (A) (A) (A) (A) (A) (A)
                 (A) (A) (A) (A) (A) (A) (A) (A) (A) (A) (A) (A)
                 (A) (A) (A) (A) (A) (A) (A) (A) (A) (A) (A) (A)
                 (A) (A) (A) (A) (A) (A) (A) (A) (A) (A) (A) (A)
                 (A) (A) (A) (A) (A) (A) (A) (A) (A) (A) (A) (A)
                 (A) (A) (A) (A) (A) (A) (A) (A) (A) (A) (A) (A)
                 (A) (A) (A) (A) (A) (A) (A) (A) (A) (A) (A) (A)
                 (A) (A) (A) (A) (A) (A) (A) (A) (A) (A) (A) (A)
                 (A) (A) (A) (A) (A) (A) (A) (A) (A) (A) (A) (A)
                 (A) (A) (A) (A) (A) (A) (A) (A) (A) (A) (A) (A)
                 (A) (A) (A) (A) (A) (A) (A) (A) (A) (A) (A) (A)
                 (A) (A) (A) (A) (A) (A) (A) (A) (A) (A) (A) (A)
                 (A) (A) (A) (A) (A) (A) (A) (A) (A) (A) (A) (A)
                 (A) (A) (A) (A) (A) (A) (A) (A) (A) (A) (A) (A)
                 (A) (A) (A) (A) (A) (A) (A) (A) (A) (A) (A) (A)
                 (A) (A) (A) (A) (A) (A) (A) (A) (A) (A) (A) (A)
                 (A) (A) (A) (A) (A) (A) (A) (A) (A) (A) (A) (A)
                 (A) (A) (A) (A) (A) (A) (A) (A) (A) (A) (A) (A)
                 (A) (A) (A) (A) (A) (A) (A) (A) (A) (A) (A) (A)
                 (A) (A) (A) (A) (A) (A) (A) (A) (A) (A) (A) (A)
                 (A) (A) (A) (A) (A)
 Beta  Orbitals:
       Occupied  (A) (A) (A) (A) (A) (A) (A) (A) (A) (A) (A) (A)
                 (A) (A) (A) (A) (A) (A) (A) (A) (A) (A) (A) (A)
                 (A) (A) (A) (A) (A) (A) (A) (A) (A) (A) (A) (A)
                 (A) (A) (A) (A) (A) (A) (A) (A) (A) (A) (A) (A)
                 (A) (A) (A) (A) (A) (A) (A) (A) (A) (A) (A) (A)
                 (A) (A)
       Virtual   (A) (A) (A) (A) (A) (A) (A) (A) (A) (A) (A) (A)
                 (A) (A) (A) (A) (A) (A) (A) (A) (A) (A) (A) (A)
                 (A) (A) (A) (A) (A) (A) (A) (A) (A) (A) (A) (A)
                 (A) (A) (A) (A) (A) (A) (A) (A) (A) (A) (A) (A)
                 (A) (A) (A) (A) (A) (A) (A) (A) (A) (A) (A) (A)
                 (A) (A) (A) (A) (A) (A) (A) (A) (A) (A) (A) (A)
                 (A) (A) (A) (A) (A) (A) (A) (A) (A) (A) (A) (A)
                 (A) (A) (A) (A) (A) (A) (A) (A) (A) (A) (A) (A)
                 (A) (A) (A) (A) (A) (A) (A) (A) (A) (A) (A) (A)
                 (A) (A) (A) (A) (A) (A) (A) (A) (A) (A) (A) (A)
                 (A) (A) (A) (A) (A) (A) (A) (A) (A) (A) (A) (A)
                 (A) (A) (A) (A) (A) (A) (A) (A) (A) (A) (A) (A)
                 (A) (A) (A) (A) (A) (A) (A) (A) (A) (A) (A) (A)
                 (A) (A) (A) (A) (A) (A) (A) (A) (A) (A) (A) (A)
                 (A) (A) (A) (A) (A) (A) (A) (A) (A) (A) (A) (A)
                 (A) (A) (A) (A) (A) (A) (A) (A) (A) (A) (A) (A)
                 (A) (A) (A) (A) (A) (A) (A) (A) (A) (A) (A) (A)
                 (A) (A) (A) (A) (A) (A) (A) (A) (A) (A) (A) (A)
                 (A) (A) (A) (A) (A) (A) (A) (A) (A) (A) (A) (A)
                 (A) (A) (A) (A) (A) (A) (A) (A) (A) (A) (A) (A)
                 (A) (A) (A) (A) (A) (A) (A) (A) (A) (A) (A) (A)
                 (A) (A) (A) (A) (A) (A) (A) (A) (A) (A) (A) (A)
                 (A) (A) (A) (A) (A) (A) (A) (A) (A) (A) (A) (A)
                 (A) (A) (A) (A) (A) (A) (A) (A) (A) (A) (A) (A)
                 (A) (A) (A) (A) (A) (A) (A) (A) (A) (A) (A) (A)
                 (A) (A) (A) (A) (A) (A) (A) (A) (A) (A) (A) (A)
                 (A) (A) (A) (A) (A) (A) (A) (A) (A) (A) (A) (A)
                 (A) (A) (A) (A) (A) (A) (A)
 The electronic state is 3-A.
 Alpha  occ. eigenvalues --  -19.22476 -19.21089 -19.16131 -19.15036 -14.45074
 Alpha  occ. eigenvalues --  -14.39377 -10.36258 -10.34877 -10.25625 -10.25231
 Alpha  occ. eigenvalues --  -10.24864 -10.21164 -10.21072 -10.20972 -10.20916
 Alpha  occ. eigenvalues --  -10.20759 -10.19706  -1.15468  -1.13591  -1.06564
 Alpha  occ. eigenvalues --   -1.04422  -1.03839  -0.94418  -0.85991  -0.77641
 Alpha  occ. eigenvalues --   -0.75359  -0.74885  -0.72269  -0.71302  -0.62749
 Alpha  occ. eigenvalues --   -0.61097  -0.57734  -0.57311  -0.56637  -0.55647
 Alpha  occ. eigenvalues --   -0.55282  -0.52532  -0.51905  -0.49873  -0.49498
 Alpha  occ. eigenvalues --   -0.49388  -0.47724  -0.45571  -0.44970  -0.44288
 Alpha  occ. eigenvalues --   -0.43851  -0.42244  -0.40882  -0.39605  -0.39088
 Alpha  occ. eigenvalues --   -0.38232  -0.37559  -0.37423  -0.36078  -0.35510
 Alpha  occ. eigenvalues --   -0.33067  -0.32587  -0.32007  -0.31195  -0.30562
 Alpha  occ. eigenvalues --   -0.29860  -0.29157  -0.23077  -0.19779
 Alpha virt. eigenvalues --   -0.00384   0.00416   0.00931   0.01464   0.01853
 Alpha virt. eigenvalues --    0.02315   0.02512   0.02938   0.03649   0.03837
 Alpha virt. eigenvalues --    0.04465   0.04731   0.05089   0.05935   0.06593
 Alpha virt. eigenvalues --    0.07171   0.07851   0.08544   0.08952   0.09295
 Alpha virt. eigenvalues --    0.09682   0.10264   0.10829   0.11181   0.11547
 Alpha virt. eigenvalues --    0.12022   0.12319   0.12569   0.12720   0.13630
 Alpha virt. eigenvalues --    0.13924   0.14301   0.14712   0.15249   0.15399
 Alpha virt. eigenvalues --    0.16255   0.16488   0.16932   0.17467   0.17732
 Alpha virt. eigenvalues --    0.18008   0.18414   0.18666   0.19140   0.19562
 Alpha virt. eigenvalues --    0.20170   0.20227   0.20648   0.21147   0.21260
 Alpha virt. eigenvalues --    0.21676   0.22047   0.22837   0.22934   0.23199
 Alpha virt. eigenvalues --    0.23793   0.24004   0.24253   0.25227   0.25421
 Alpha virt. eigenvalues --    0.25630   0.26413   0.27265   0.27697   0.28382
 Alpha virt. eigenvalues --    0.28691   0.29026   0.29259   0.30096   0.30330
 Alpha virt. eigenvalues --    0.31027   0.31236   0.31796   0.32345   0.32601
 Alpha virt. eigenvalues --    0.32943   0.33502   0.34061   0.34262   0.34717
 Alpha virt. eigenvalues --    0.35105   0.35847   0.36101   0.37508   0.37693
 Alpha virt. eigenvalues --    0.38367   0.38511   0.39070   0.39618   0.40537
 Alpha virt. eigenvalues --    0.41279   0.41878   0.42545   0.43413   0.43754
 Alpha virt. eigenvalues --    0.45051   0.46199   0.46864   0.48434   0.50699
 Alpha virt. eigenvalues --    0.51558   0.53748   0.55674   0.65259   0.65705
 Alpha virt. eigenvalues --    0.66418   0.68847   0.69565   0.71175   0.72203
 Alpha virt. eigenvalues --    0.72726   0.74112   0.74681   0.75240   0.76454
 Alpha virt. eigenvalues --    0.76957   0.77438   0.77616   0.78608   0.80304
 Alpha virt. eigenvalues --    0.80841   0.81451   0.81709   0.83256   0.83944
 Alpha virt. eigenvalues --    0.84831   0.86131   0.87341   0.88050   0.88658
 Alpha virt. eigenvalues --    0.90774   0.91555   0.92650   0.93933   0.94725
 Alpha virt. eigenvalues --    0.96847   0.97542   0.97769   0.99547   1.00431
 Alpha virt. eigenvalues --    1.01851   1.02040   1.03666   1.04752   1.05426
 Alpha virt. eigenvalues --    1.06745   1.08494   1.09347   1.09861   1.12238
 Alpha virt. eigenvalues --    1.13785   1.14619   1.16330   1.18105   1.18812
 Alpha virt. eigenvalues --    1.19800   1.21584   1.22424   1.23834   1.24669
 Alpha virt. eigenvalues --    1.25995   1.26687   1.27596   1.29605   1.29962
 Alpha virt. eigenvalues --    1.31209   1.31801   1.32221   1.33762   1.35534
 Alpha virt. eigenvalues --    1.35717   1.36682   1.37088   1.39109   1.39681
 Alpha virt. eigenvalues --    1.41071   1.43376   1.45214   1.47099   1.48833
 Alpha virt. eigenvalues --    1.49504   1.50142   1.51223   1.54717   1.55943
 Alpha virt. eigenvalues --    1.57250   1.59609   1.63031   1.65108   1.67543
 Alpha virt. eigenvalues --    1.69181   1.70051   1.71431   1.72909   1.73543
 Alpha virt. eigenvalues --    1.76207   1.77404   1.77720   1.79165   1.80502
 Alpha virt. eigenvalues --    1.81623   1.82395   1.84576   1.87411   1.87672
 Alpha virt. eigenvalues --    1.88253   1.89266   1.91158   1.91767   1.92331
 Alpha virt. eigenvalues --    1.93259   1.95119   1.95661   1.96960   1.98050
 Alpha virt. eigenvalues --    1.98938   2.00155   2.00216   2.01289   2.01763
 Alpha virt. eigenvalues --    2.02036   2.03422   2.06079   2.06430   2.07050
 Alpha virt. eigenvalues --    2.08618   2.09360   2.09788   2.10775   2.12776
 Alpha virt. eigenvalues --    2.13450   2.14891   2.15953   2.17116   2.17925
 Alpha virt. eigenvalues --    2.19082   2.19905   2.21618   2.23484   2.26747
 Alpha virt. eigenvalues --    2.32517   2.35837   2.37714   2.39740   2.40958
 Alpha virt. eigenvalues --    2.42661   2.43250   2.44391   2.45635   2.46820
 Alpha virt. eigenvalues --    2.47254   2.47646   2.49700   2.51008   2.51116
 Alpha virt. eigenvalues --    2.52096   2.53547   2.54868   2.56098   2.57673
 Alpha virt. eigenvalues --    2.60021   2.60231   2.62157   2.63589   2.64521
 Alpha virt. eigenvalues --    2.66407   2.67902   2.68367   2.69879   2.70054
 Alpha virt. eigenvalues --    2.71270   2.73031   2.73480   2.75714   2.76461
 Alpha virt. eigenvalues --    2.77288   2.79178   2.80805   2.81910   2.83627
 Alpha virt. eigenvalues --    2.84866   2.85720   2.86401   2.86895   2.89293
 Alpha virt. eigenvalues --    2.92139   2.96591   2.98857   3.01086   3.03585
 Alpha virt. eigenvalues --    3.03652   3.08013   3.12007   3.16860   3.21861
 Alpha virt. eigenvalues --    3.22128   3.24254   3.24794   3.29055   3.31758
 Alpha virt. eigenvalues --    3.33129   3.34127   3.36058   3.40829   3.42371
 Alpha virt. eigenvalues --    3.45107   3.45759   3.47231   3.48492   3.51363
 Alpha virt. eigenvalues --    3.59138   3.64738   4.28903   4.31073   4.39319
 Alpha virt. eigenvalues --    4.44934   4.49294   4.55459   4.56094   4.60581
 Alpha virt. eigenvalues --    4.62997   4.64541   4.67973   4.69175   4.76996
 Alpha virt. eigenvalues --    4.80955   4.83797   4.85749   5.02474
  Beta  occ. eigenvalues --  -19.22422 -19.21007 -19.16005 -19.14934 -14.44501
  Beta  occ. eigenvalues --  -14.38079 -10.36255 -10.34892 -10.25628 -10.25180
  Beta  occ. eigenvalues --  -10.24854 -10.21086 -10.21079 -10.21043 -10.20742
  Beta  occ. eigenvalues --  -10.19609 -10.19460  -1.15170  -1.13295  -1.05907
  Beta  occ. eigenvalues --   -1.03809  -1.03180  -0.93800  -0.84350  -0.77135
  Beta  occ. eigenvalues --   -0.75139  -0.74398  -0.70996  -0.70573  -0.62214
  Beta  occ. eigenvalues --   -0.60501  -0.57452  -0.56819  -0.56338  -0.55137
  Beta  occ. eigenvalues --   -0.54656  -0.51720  -0.51290  -0.49430  -0.49325
  Beta  occ. eigenvalues --   -0.49020  -0.47100  -0.45385  -0.44679  -0.43582
  Beta  occ. eigenvalues --   -0.43129  -0.41584  -0.40346  -0.39062  -0.38188
  Beta  occ. eigenvalues --   -0.37950  -0.37379  -0.36504  -0.35429  -0.33732
  Beta  occ. eigenvalues --   -0.32392  -0.32047  -0.31562  -0.30593  -0.29874
  Beta  occ. eigenvalues --   -0.29294  -0.28047
  Beta virt. eigenvalues --   -0.11560  -0.06730  -0.00322   0.00597   0.01289
  Beta virt. eigenvalues --    0.01555   0.02349   0.02596   0.02877   0.03276
  Beta virt. eigenvalues --    0.03736   0.03927   0.04535   0.04808   0.05285
  Beta virt. eigenvalues --    0.05950   0.06707   0.07250   0.07901   0.08871
  Beta virt. eigenvalues --    0.09058   0.09351   0.09718   0.10383   0.10948
  Beta virt. eigenvalues --    0.11340   0.11638   0.12237   0.12419   0.12798
  Beta virt. eigenvalues --    0.12954   0.13806   0.14055   0.14360   0.14890
  Beta virt. eigenvalues --    0.15363   0.15584   0.16383   0.16575   0.17057
  Beta virt. eigenvalues --    0.17543   0.17862   0.18300   0.18520   0.18961
  Beta virt. eigenvalues --    0.19333   0.20204   0.20310   0.20524   0.20744
  Beta virt. eigenvalues --    0.21398   0.21487   0.21842   0.22277   0.22977
  Beta virt. eigenvalues --    0.23163   0.23374   0.24041   0.24328   0.24533
  Beta virt. eigenvalues --    0.25582   0.25724   0.25815   0.26584   0.27750
  Beta virt. eigenvalues --    0.27943   0.28579   0.28877   0.29268   0.29573
  Beta virt. eigenvalues --    0.30277   0.30412   0.31351   0.31390   0.32068
  Beta virt. eigenvalues --    0.32656   0.32849   0.33088   0.33690   0.34267
  Beta virt. eigenvalues --    0.34398   0.34912   0.35192   0.35925   0.36344
  Beta virt. eigenvalues --    0.37711   0.37988   0.38604   0.38740   0.39400
  Beta virt. eigenvalues --    0.39899   0.40838   0.41644   0.42212   0.42952
  Beta virt. eigenvalues --    0.43756   0.44106   0.45489   0.46419   0.47022
  Beta virt. eigenvalues --    0.48624   0.50817   0.51669   0.54053   0.56086
  Beta virt. eigenvalues --    0.65522   0.66419   0.66896   0.69214   0.69662
  Beta virt. eigenvalues --    0.71729   0.72490   0.73461   0.74379   0.75483
  Beta virt. eigenvalues --    0.75655   0.76948   0.77169   0.77723   0.78296
  Beta virt. eigenvalues --    0.79295   0.80665   0.81068   0.81739   0.82159
  Beta virt. eigenvalues --    0.83462   0.84256   0.85143   0.86511   0.87555
  Beta virt. eigenvalues --    0.88451   0.88900   0.90928   0.92066   0.93615
  Beta virt. eigenvalues --    0.94290   0.94925   0.97165   0.97827   0.97984
  Beta virt. eigenvalues --    0.99755   1.01415   1.02101   1.02748   1.04482
  Beta virt. eigenvalues --    1.05561   1.06200   1.07011   1.08803   1.09594
  Beta virt. eigenvalues --    1.10302   1.13005   1.14018   1.14991   1.16657
  Beta virt. eigenvalues --    1.18394   1.19217   1.20190   1.21988   1.22641
  Beta virt. eigenvalues --    1.24130   1.25022   1.26260   1.27107   1.28057
  Beta virt. eigenvalues --    1.30023   1.30584   1.31421   1.32166   1.32630
  Beta virt. eigenvalues --    1.34015   1.35736   1.36046   1.37348   1.37533
  Beta virt. eigenvalues --    1.39468   1.40153   1.41639   1.43965   1.45563
  Beta virt. eigenvalues --    1.47580   1.49124   1.50054   1.50768   1.51576
  Beta virt. eigenvalues --    1.55124   1.56281   1.57460   1.60309   1.63368
  Beta virt. eigenvalues --    1.65410   1.68318   1.69630   1.70970   1.72091
  Beta virt. eigenvalues --    1.73271   1.74233   1.76668   1.77840   1.78138
  Beta virt. eigenvalues --    1.79561   1.81064   1.81939   1.82940   1.84800
  Beta virt. eigenvalues --    1.87963   1.88226   1.88686   1.90003   1.91599
  Beta virt. eigenvalues --    1.92101   1.92795   1.93488   1.95526   1.95964
  Beta virt. eigenvalues --    1.97343   1.98668   1.99458   2.00598   2.00748
  Beta virt. eigenvalues --    2.01495   2.02083   2.02269   2.03781   2.06374
  Beta virt. eigenvalues --    2.07189   2.07545   2.08956   2.09924   2.10532
  Beta virt. eigenvalues --    2.11054   2.13111   2.13864   2.15271   2.16872
  Beta virt. eigenvalues --    2.17829   2.18292   2.19454   2.20846   2.22735
  Beta virt. eigenvalues --    2.24214   2.27232   2.33282   2.36212   2.38144
  Beta virt. eigenvalues --    2.40451   2.41354   2.42991   2.43650   2.44790
  Beta virt. eigenvalues --    2.45918   2.47034   2.47609   2.47944   2.49929
  Beta virt. eigenvalues --    2.51310   2.51650   2.53127   2.54117   2.55320
  Beta virt. eigenvalues --    2.56453   2.58286   2.60172   2.60446   2.62672
  Beta virt. eigenvalues --    2.64388   2.64952   2.66729   2.68291   2.68724
  Beta virt. eigenvalues --    2.70306   2.70500   2.71813   2.73465   2.73786
  Beta virt. eigenvalues --    2.75961   2.76911   2.77468   2.79478   2.81151
  Beta virt. eigenvalues --    2.82258   2.83954   2.84946   2.85917   2.86736
  Beta virt. eigenvalues --    2.87199   2.89889   2.92542   2.96880   2.99062
  Beta virt. eigenvalues --    3.01390   3.03841   3.04126   3.08375   3.12535
  Beta virt. eigenvalues --    3.17090   3.22069   3.22282   3.24304   3.24844
  Beta virt. eigenvalues --    3.29331   3.31910   3.33305   3.34357   3.36442
  Beta virt. eigenvalues --    3.40854   3.42399   3.45164   3.45795   3.47329
  Beta virt. eigenvalues --    3.48604   3.51504   3.59295   3.65240   4.29949
  Beta virt. eigenvalues --    4.32551   4.39603   4.45092   4.51146   4.55643
  Beta virt. eigenvalues --    4.56216   4.60684   4.63314   4.64626   4.68361
  Beta virt. eigenvalues --    4.69509   4.77622   4.81262   4.84051   4.85993
  Beta virt. eigenvalues --    5.02640
          Condensed to atoms (all electrons):
               1          2          3          4          5          6
     1  C   17.599028  -3.066522   3.355324  -8.085323   0.160482   0.159960
     2  C   -3.066522   9.003837  -0.910717   0.428955   0.012502  -0.014067
     3  C    3.355324  -0.910717   9.914002  -3.875231  -0.003958   0.100286
     4  C   -8.085323   0.428955  -3.875231  15.998439   0.074661   0.120006
     5  H    0.160482   0.012502  -0.003958   0.074661   0.545494  -0.002879
     6  H    0.159960  -0.014067   0.100286   0.120006  -0.002879   0.524844
     7  C   -1.354030  -0.062696  -1.408715   1.678212   0.021790  -0.028075
     8  H    0.027977  -0.079933  -0.057539   0.018127  -0.000123  -0.000097
     9  H   -0.089825   0.038126  -0.011781  -0.086256  -0.000117   0.000170
    10  C   -0.130238  -1.082240   0.291609   1.352818   0.044021  -0.008167
    11  H    0.007959  -0.017104  -0.035609   0.017748  -0.000046  -0.000037
    12  C    0.885683   0.500892  -0.914012  -2.850858  -0.049292   0.017443
    13  H   -0.029815  -0.003242   0.081544   0.117669   0.000159  -0.003151
    14  H    0.084348   0.212410   0.006539  -0.015151  -0.002208  -0.000091
    15  H   -0.049354   0.034319   0.118685   0.062842  -0.000086  -0.002989
    16  N   -2.303440   0.547632  -0.253991   1.302537   0.012757  -0.016879
    17  N   -0.044309   0.037830  -0.306768  -0.125737   0.002674   0.000683
    18  C   -0.223676   0.157566   0.023739   0.038455   0.007218  -0.020649
    19  C   -0.815742   0.116778  -0.115695   0.068035   0.011089  -0.003724
    20  O    0.136856  -0.048953   0.003455   0.026146  -0.000583   0.000022
    21  O    0.030898   0.015664   0.023232  -0.064899  -0.000242  -0.000313
    22  O    0.182307  -0.131542  -0.001598   0.024880  -0.010547   0.000321
    23  O    0.025030   0.047378  -0.016954  -0.027753  -0.002296   0.004075
    24  C   -0.053206  -0.004287   0.010089   0.080560  -0.001093   0.006048
    25  H   -0.003481  -0.000018  -0.003737   0.009729  -0.000001  -0.000227
    26  H   -0.000040   0.000389  -0.000422  -0.001706   0.000000  -0.000023
    27  H   -0.002823  -0.000399   0.008317  -0.002507   0.000000   0.001302
    28  C    0.001572   0.018493   0.002376  -0.037023   0.000922   0.000089
    29  H   -0.000587   0.000001   0.000107  -0.002060  -0.000010   0.000000
    30  H   -0.006531   0.002455  -0.000044   0.001379  -0.000003   0.000000
    31  H    0.009474  -0.002554  -0.000001  -0.000447  -0.000042   0.000000
               7          8          9         10         11         12
     1  C   -1.354030   0.027977  -0.089825  -0.130238   0.007959   0.885683
     2  C   -0.062696  -0.079933   0.038126  -1.082240  -0.017104   0.500892
     3  C   -1.408715  -0.057539  -0.011781   0.291609  -0.035609  -0.914012
     4  C    1.678212   0.018127  -0.086256   1.352818   0.017748  -2.850858
     5  H    0.021790  -0.000123  -0.000117   0.044021  -0.000046  -0.049292
     6  H   -0.028075  -0.000097   0.000170  -0.008167  -0.000037   0.017443
     7  C    6.362144   0.410042   0.387804   0.048064   0.024945   0.018719
     8  H    0.410042   0.554204  -0.025937   0.024261   0.000365  -0.018342
     9  H    0.387804  -0.025937   0.534328  -0.043030  -0.000069   0.073978
    10  C    0.048064   0.024261  -0.043030   7.004469   0.334220  -1.389858
    11  H    0.024945   0.000365  -0.000069   0.334220   0.550580  -0.013692
    12  C    0.018719  -0.018342   0.073978  -1.389858  -0.013692   9.493915
    13  H   -0.011151   0.000071  -0.000087   0.061313  -0.002373   0.108005
    14  H    0.012423  -0.001652  -0.001291   0.004708  -0.002107   0.026634
    15  H    0.074415  -0.001330  -0.001184  -0.039345   0.000026   0.118756
    16  N    0.022618   0.000821  -0.000377   0.000163  -0.000196  -0.093227
    17  N    0.293309  -0.006003   0.043272  -0.100704   0.000222   0.123269
    18  C   -0.116133   0.004829  -0.013027  -0.010786  -0.000300  -0.022260
    19  C    0.123782  -0.001116   0.018393  -0.140221   0.000488   0.079424
    20  O    0.005531   0.000008  -0.000424   0.008766  -0.000004  -0.007714
    21  O   -0.055599  -0.000121   0.001147  -0.008069   0.000004   0.018610
    22  O    0.007498   0.000224  -0.000190   0.032251  -0.000012  -0.010120
    23  O   -0.034308   0.000085   0.000423  -0.018213   0.000003   0.073992
    24  C   -0.003099  -0.000280  -0.000104   0.009396   0.000016  -0.034367
    25  H    0.000361   0.000000   0.000000  -0.000230   0.000000   0.002733
    26  H   -0.000127   0.000000   0.000000  -0.000121   0.000000   0.000456
    27  H   -0.001286   0.000000  -0.000001   0.001237   0.000000  -0.007676
    28  C   -0.006340   0.000036  -0.000265   0.000585  -0.000107   0.000614
    29  H   -0.000179   0.000000   0.000000  -0.001629   0.000000   0.000392
    30  H   -0.000051   0.000000   0.000000   0.000429   0.000000  -0.000191
    31  H   -0.000076   0.000000   0.000000   0.000516   0.000000  -0.000132
              13         14         15         16         17         18
     1  C   -0.029815   0.084348  -0.049354  -2.303440  -0.044309  -0.223676
     2  C   -0.003242   0.212410   0.034319   0.547632   0.037830   0.157566
     3  C    0.081544   0.006539   0.118685  -0.253991  -0.306768   0.023739
     4  C    0.117669  -0.015151   0.062842   1.302537  -0.125737   0.038455
     5  H    0.000159  -0.002208  -0.000086   0.012757   0.002674   0.007218
     6  H   -0.003151  -0.000091  -0.002989  -0.016879   0.000683  -0.020649
     7  C   -0.011151   0.012423   0.074415   0.022618   0.293309  -0.116133
     8  H    0.000071  -0.001652  -0.001330   0.000821  -0.006003   0.004829
     9  H   -0.000087  -0.001291  -0.001184  -0.000377   0.043272  -0.013027
    10  C    0.061313   0.004708  -0.039345   0.000163  -0.100704  -0.010786
    11  H   -0.002373  -0.002107   0.000026  -0.000196   0.000222  -0.000300
    12  C    0.108005   0.026634   0.118756  -0.093227   0.123269  -0.022260
    13  H    0.539401  -0.000098  -0.003410  -0.000199   0.000004   0.001770
    14  H   -0.000098   0.550188  -0.000093  -0.005377  -0.010961  -0.003569
    15  H   -0.003410  -0.000093   0.530950   0.001616   0.001619   0.000729
    16  N   -0.000199  -0.005377   0.001616  10.271707  -1.802651   0.077326
    17  N    0.000004  -0.010961   0.001619  -1.802651   9.140152   0.106283
    18  C    0.001770  -0.003569   0.000729   0.077326   0.106283   5.396039
    19  C    0.000137  -0.000748   0.000298  -0.131299   0.092501  -0.111984
    20  O    0.000001   0.000540  -0.000006  -0.141955  -0.024816  -0.034823
    21  O   -0.000051  -0.000024   0.000449  -0.124027   0.032233   0.630801
    22  O   -0.000002  -0.001211  -0.000008  -0.123425  -0.178623  -0.026510
    23  O   -0.000147  -0.000064  -0.000381   0.027743  -0.171342   0.214372
    24  C    0.000019   0.000085  -0.000964   0.114897  -0.088751  -0.274670
    25  H    0.000000   0.000000   0.000001  -0.000743  -0.000884   0.006783
    26  H    0.000000   0.000000   0.000002  -0.001862   0.000139  -0.007686
    27  H    0.000002   0.000000   0.000026   0.004143  -0.002314  -0.030152
    28  C   -0.000017   0.000615  -0.000010   0.009855  -0.015100  -0.006358
    29  H    0.000000  -0.000014   0.000000  -0.000184  -0.002174   0.000040
    30  H    0.000000   0.000032   0.000000   0.001081  -0.000107  -0.000070
    31  H    0.000000  -0.000005   0.000000  -0.002151  -0.003583  -0.000327
              19         20         21         22         23         24
     1  C   -0.815742   0.136856   0.030898   0.182307   0.025030  -0.053206
     2  C    0.116778  -0.048953   0.015664  -0.131542   0.047378  -0.004287
     3  C   -0.115695   0.003455   0.023232  -0.001598  -0.016954   0.010089
     4  C    0.068035   0.026146  -0.064899   0.024880  -0.027753   0.080560
     5  H    0.011089  -0.000583  -0.000242  -0.010547  -0.002296  -0.001093
     6  H   -0.003724   0.000022  -0.000313   0.000321   0.004075   0.006048
     7  C    0.123782   0.005531  -0.055599   0.007498  -0.034308  -0.003099
     8  H   -0.001116   0.000008  -0.000121   0.000224   0.000085  -0.000280
     9  H    0.018393  -0.000424   0.001147  -0.000190   0.000423  -0.000104
    10  C   -0.140221   0.008766  -0.008069   0.032251  -0.018213   0.009396
    11  H    0.000488  -0.000004   0.000004  -0.000012   0.000003   0.000016
    12  C    0.079424  -0.007714   0.018610  -0.010120   0.073992  -0.034367
    13  H    0.000137   0.000001  -0.000051  -0.000002  -0.000147   0.000019
    14  H   -0.000748   0.000540  -0.000024  -0.001211  -0.000064   0.000085
    15  H    0.000298  -0.000006   0.000449  -0.000008  -0.000381  -0.000964
    16  N   -0.131299  -0.141955  -0.124027  -0.123425   0.027743   0.114897
    17  N    0.092501  -0.024816   0.032233  -0.178623  -0.171342  -0.088751
    18  C   -0.111984  -0.034823   0.630801  -0.026510   0.214372  -0.274670
    19  C    5.443070   0.459683   0.001114   0.319914  -0.047491  -0.010602
    20  O    0.459683   8.240948   0.000163  -0.121042  -0.005441  -0.000057
    21  O    0.001114   0.000163   8.133449   0.000404  -0.183481  -0.052589
    22  O    0.319914  -0.121042   0.000404   8.399866  -0.009356  -0.002245
    23  O   -0.047491  -0.005441  -0.183481  -0.009356   8.499791   0.053222
    24  C   -0.010602  -0.000057  -0.052589  -0.002245   0.053222   5.106080
    25  H    0.000047  -0.000005   0.000522  -0.000003  -0.060706   0.410042
    26  H   -0.000117  -0.000001   0.004558  -0.000002  -0.040784   0.410445
    27  H   -0.000267   0.000002   0.000018   0.000000  -0.038294   0.431648
    28  C   -0.105559  -0.044362  -0.000032   0.023402   0.000768  -0.000303
    29  H    0.015084   0.000165   0.000000  -0.064551  -0.000001  -0.000002
    30  H   -0.015422   0.003470   0.000000  -0.043038   0.000001  -0.000001
    31  H   -0.023537   0.004246   0.000000  -0.039940   0.000000   0.000008
              25         26         27         28         29         30
     1  C   -0.003481  -0.000040  -0.002823   0.001572  -0.000587  -0.006531
     2  C   -0.000018   0.000389  -0.000399   0.018493   0.000001   0.002455
     3  C   -0.003737  -0.000422   0.008317   0.002376   0.000107  -0.000044
     4  C    0.009729  -0.001706  -0.002507  -0.037023  -0.002060   0.001379
     5  H   -0.000001   0.000000   0.000000   0.000922  -0.000010  -0.000003
     6  H   -0.000227  -0.000023   0.001302   0.000089   0.000000   0.000000
     7  C    0.000361  -0.000127  -0.001286  -0.006340  -0.000179  -0.000051
     8  H    0.000000   0.000000   0.000000   0.000036   0.000000   0.000000
     9  H    0.000000   0.000000  -0.000001  -0.000265   0.000000   0.000000
    10  C   -0.000230  -0.000121   0.001237   0.000585  -0.001629   0.000429
    11  H    0.000000   0.000000   0.000000  -0.000107   0.000000   0.000000
    12  C    0.002733   0.000456  -0.007676   0.000614   0.000392  -0.000191
    13  H    0.000000   0.000000   0.000002  -0.000017   0.000000   0.000000
    14  H    0.000000   0.000000   0.000000   0.000615  -0.000014   0.000032
    15  H    0.000001   0.000002   0.000026  -0.000010   0.000000   0.000000
    16  N   -0.000743  -0.001862   0.004143   0.009855  -0.000184   0.001081
    17  N   -0.000884   0.000139  -0.002314  -0.015100  -0.002174  -0.000107
    18  C    0.006783  -0.007686  -0.030152  -0.006358   0.000040  -0.000070
    19  C    0.000047  -0.000117  -0.000267  -0.105559   0.015084  -0.015422
    20  O   -0.000005  -0.000001   0.000002  -0.044362   0.000165   0.003470
    21  O    0.000522   0.004558   0.000018  -0.000032   0.000000   0.000000
    22  O   -0.000003  -0.000002   0.000000   0.023402  -0.064551  -0.043038
    23  O   -0.060706  -0.040784  -0.038294   0.000768  -0.000001   0.000001
    24  C    0.410042   0.410445   0.431648  -0.000303  -0.000002  -0.000001
    25  H    0.540966  -0.026324  -0.030476  -0.000006   0.000000   0.000000
    26  H   -0.026324   0.527395  -0.033087   0.000000   0.000000   0.000000
    27  H   -0.030476  -0.033087   0.544521   0.000000   0.000000   0.000000
    28  C   -0.000006   0.000000   0.000000   5.062185   0.414829   0.420439
    29  H    0.000000   0.000000   0.000000   0.414829   0.532770  -0.027875
    30  H    0.000000   0.000000   0.000000   0.420439  -0.027875   0.526880
    31  H    0.000000   0.000000   0.000000   0.421347  -0.026898  -0.031432
              31
     1  C    0.009474
     2  C   -0.002554
     3  C   -0.000001
     4  C   -0.000447
     5  H   -0.000042
     6  H    0.000000
     7  C   -0.000076
     8  H    0.000000
     9  H    0.000000
    10  C    0.000516
    11  H    0.000000
    12  C   -0.000132
    13  H    0.000000
    14  H   -0.000005
    15  H    0.000000
    16  N   -0.002151
    17  N   -0.003583
    18  C   -0.000327
    19  C   -0.023537
    20  O    0.004246
    21  O    0.000000
    22  O   -0.039940
    23  O    0.000000
    24  C    0.000008
    25  H    0.000000
    26  H    0.000000
    27  H    0.000000
    28  C    0.421347
    29  H   -0.026898
    30  H   -0.031432
    31  H    0.526494
          Atomic-Atomic Spin Densities.
               1          2          3          4          5          6
     1  C    1.138337  -0.215462   1.079785  -1.238505   0.028233   0.018628
     2  C   -0.215462   0.000733  -0.286186   0.298604  -0.008158  -0.002723
     3  C    1.079785  -0.286186   1.330555  -1.317699   0.005536   0.017373
     4  C   -1.238505   0.298604  -1.317699   1.486677  -0.010347  -0.025547
     5  H    0.028233  -0.008158   0.005536  -0.010347   0.001835  -0.000048
     6  H    0.018628  -0.002723   0.017373  -0.025547  -0.000048   0.000791
     7  C   -0.436772   0.134219  -0.386318   0.421432  -0.004220  -0.003172
     8  H   -0.002460  -0.000187  -0.004623   0.001961  -0.000009   0.000006
     9  H   -0.023686  -0.001180  -0.020979   0.023231   0.000002  -0.000038
    10  C    0.363553  -0.237708   0.090894  -0.323463   0.008957   0.002519
    11  H   -0.025912   0.008605  -0.018521   0.023408  -0.000088  -0.000003
    12  C   -0.282447   0.126937  -0.109673   0.344901  -0.003451  -0.007360
    13  H   -0.001923   0.000161  -0.012127   0.005534   0.000002  -0.000102
    14  H   -0.017151   0.012395  -0.007083   0.010632  -0.000035  -0.000004
    15  H   -0.021525   0.002485  -0.042527   0.036358  -0.000003  -0.000280
    16  N   -0.157363   0.002376  -0.104048   0.100001  -0.004110  -0.000139
    17  N   -0.015114   0.034780  -0.050271   0.059978  -0.006525   0.000306
    18  C    0.022030   0.000270  -0.012893  -0.003152  -0.000122  -0.000523
    19  C   -0.117536   0.030268  -0.076688   0.100340  -0.005121  -0.000605
    20  O   -0.000589  -0.000557  -0.000246  -0.000074  -0.000003   0.000001
    21  O   -0.018936   0.001989   0.003910   0.013705   0.000080  -0.000653
    22  O   -0.021549   0.003592  -0.009130   0.015528  -0.000409  -0.000023
    23  O    0.019675  -0.003965   0.012075  -0.017264   0.000583   0.000177
    24  C    0.013430  -0.001397   0.012975  -0.015046   0.000108   0.000407
    25  H   -0.000152  -0.000005  -0.000135   0.000042  -0.000001   0.000030
    26  H   -0.000504   0.000036  -0.000226   0.000852   0.000000  -0.000015
    27  H    0.000541  -0.000076   0.000459  -0.001135  -0.000001   0.000135
    28  C   -0.014721   0.003541  -0.001658   0.003901  -0.000187  -0.000008
    29  H   -0.000268   0.000083  -0.000013   0.000037   0.000000   0.000000
    30  H    0.000388  -0.000147   0.000028  -0.000014   0.000005   0.000000
    31  H   -0.000471   0.000139  -0.000029   0.000041  -0.000010   0.000000
               7          8          9         10         11         12
     1  C   -0.436772  -0.002460  -0.023686   0.363553  -0.025912  -0.282447
     2  C    0.134219  -0.000187  -0.001180  -0.237708   0.008605   0.126937
     3  C   -0.386318  -0.004623  -0.020979   0.090894  -0.018521  -0.109673
     4  C    0.421432   0.001961   0.023231  -0.323463   0.023408   0.344901
     5  H   -0.004220  -0.000009   0.000002   0.008957  -0.000088  -0.003451
     6  H   -0.003172   0.000006  -0.000038   0.002519  -0.000003  -0.007360
     7  C    0.203381   0.002971   0.016974  -0.057244   0.005429   0.020790
     8  H    0.002971   0.001900  -0.000214   0.001877   0.000076  -0.000777
     9  H    0.016974  -0.000214   0.001728  -0.002244   0.000033   0.004221
    10  C   -0.057244   0.001877  -0.002244   1.471721   0.014503  -0.131198
    11  H    0.005429   0.000076   0.000033   0.014503  -0.031342  -0.015111
    12  C    0.020790  -0.000777   0.004221  -0.131198  -0.015111  -0.149848
    13  H    0.002236  -0.000001   0.000001  -0.004169   0.000284   0.010730
    14  H    0.002779   0.000058   0.000179  -0.007697   0.000486  -0.000070
    15  H    0.014058   0.000115   0.000348   0.002140   0.000033   0.002564
    16  N    0.075953   0.001478  -0.000150  -0.030739   0.000358   0.021533
    17  N   -0.008435  -0.001107  -0.000369  -0.035534   0.000857   0.017231
    18  C    0.000674  -0.000100  -0.000419   0.000322  -0.000018   0.004728
    19  C    0.040739   0.000359   0.002102  -0.032175   0.000720   0.013145
    20  O    0.001065   0.000011  -0.000073  -0.000022   0.000001  -0.000288
    21  O   -0.003897  -0.000138   0.000805  -0.000150  -0.000001   0.002460
    22  O    0.008673   0.000059   0.000050  -0.003501   0.000127  -0.001059
    23  O   -0.003788  -0.000018  -0.000181   0.000721  -0.000005  -0.000172
    24  C   -0.004400  -0.000002  -0.000078   0.000806  -0.000009  -0.001065
    25  H    0.000070   0.000000   0.000000  -0.000012   0.000000  -0.000046
    26  H    0.000001   0.000000   0.000000  -0.000009   0.000000   0.000133
    27  H    0.000062   0.000000   0.000000   0.000009   0.000000  -0.000375
    28  C    0.001548   0.000006   0.000019  -0.002555   0.000039   0.000175
    29  H    0.000012   0.000000   0.000000  -0.000055   0.000000  -0.000001
    30  H   -0.000097   0.000000   0.000000   0.000022   0.000000   0.000003
    31  H    0.000063   0.000000   0.000000  -0.000029   0.000000  -0.000002
              13         14         15         16         17         18
     1  C   -0.001923  -0.017151  -0.021525  -0.157363  -0.015114   0.022030
     2  C    0.000161   0.012395   0.002485   0.002376   0.034780   0.000270
     3  C   -0.012127  -0.007083  -0.042527  -0.104048  -0.050271  -0.012893
     4  C    0.005534   0.010632   0.036358   0.100001   0.059978  -0.003152
     5  H    0.000002  -0.000035  -0.000003  -0.004110  -0.006525  -0.000122
     6  H   -0.000102  -0.000004  -0.000280  -0.000139   0.000306  -0.000523
     7  C    0.002236   0.002779   0.014058   0.075953  -0.008435   0.000674
     8  H   -0.000001   0.000058   0.000115   0.001478  -0.001107  -0.000100
     9  H    0.000001   0.000179   0.000348  -0.000150  -0.000369  -0.000419
    10  C   -0.004169  -0.007697   0.002140  -0.030739  -0.035534   0.000322
    11  H    0.000284   0.000486   0.000033   0.000358   0.000857  -0.000018
    12  C    0.010730  -0.000070   0.002564   0.021533   0.017231   0.004728
    13  H    0.000964   0.000005   0.000174  -0.000016   0.000011   0.000057
    14  H    0.000005   0.000858   0.000006   0.000449   0.002493  -0.000059
    15  H    0.000174   0.000006   0.002929   0.001027   0.000791   0.001162
    16  N   -0.000016   0.000449   0.001027   0.971343  -0.253613  -0.018588
    17  N    0.000011   0.002493   0.000791  -0.253613   0.468680   0.002453
    18  C    0.000057  -0.000059   0.001162  -0.018588   0.002453   0.019741
    19  C    0.000017   0.002088   0.000703   0.058391  -0.008703  -0.010234
    20  O    0.000000  -0.000006   0.000000   0.008645  -0.011078  -0.000172
    21  O    0.000008   0.000011  -0.000164  -0.034097   0.008651   0.007561
    22  O    0.000000   0.000628   0.000012   0.008266  -0.012244  -0.001054
    23  O   -0.000005  -0.000003  -0.000445  -0.014462   0.006001  -0.017994
    24  C   -0.000047  -0.000010  -0.000404  -0.001067  -0.001756  -0.002252
    25  H    0.000000   0.000000   0.000000   0.000041   0.000254  -0.000485
    26  H    0.000000   0.000000   0.000001   0.000231  -0.000331   0.000106
    27  H    0.000000   0.000000  -0.000005  -0.000114   0.000389   0.000376
    28  C    0.000001   0.000073   0.000001   0.003572   0.002308  -0.000128
    29  H    0.000000   0.000001   0.000000   0.000009   0.000003  -0.000002
    30  H    0.000000   0.000000   0.000000  -0.000230   0.000977   0.000012
    31  H    0.000000   0.000000   0.000000   0.000187  -0.000671  -0.000024
              19         20         21         22         23         24
     1  C   -0.117536  -0.000589  -0.018936  -0.021549   0.019675   0.013430
     2  C    0.030268  -0.000557   0.001989   0.003592  -0.003965  -0.001397
     3  C   -0.076688  -0.000246   0.003910  -0.009130   0.012075   0.012975
     4  C    0.100340  -0.000074   0.013705   0.015528  -0.017264  -0.015046
     5  H   -0.005121  -0.000003   0.000080  -0.000409   0.000583   0.000108
     6  H   -0.000605   0.000001  -0.000653  -0.000023   0.000177   0.000407
     7  C    0.040739   0.001065  -0.003897   0.008673  -0.003788  -0.004400
     8  H    0.000359   0.000011  -0.000138   0.000059  -0.000018  -0.000002
     9  H    0.002102  -0.000073   0.000805   0.000050  -0.000181  -0.000078
    10  C   -0.032175  -0.000022  -0.000150  -0.003501   0.000721   0.000806
    11  H    0.000720   0.000001  -0.000001   0.000127  -0.000005  -0.000009
    12  C    0.013145  -0.000288   0.002460  -0.001059  -0.000172  -0.001065
    13  H    0.000017   0.000000   0.000008   0.000000  -0.000005  -0.000047
    14  H    0.002088  -0.000006   0.000011   0.000628  -0.000003  -0.000010
    15  H    0.000703   0.000000  -0.000164   0.000012  -0.000445  -0.000404
    16  N    0.058391   0.008645  -0.034097   0.008266  -0.014462  -0.001067
    17  N   -0.008703  -0.011078   0.008651  -0.012244   0.006001  -0.001756
    18  C   -0.010234  -0.000172   0.007561  -0.001054  -0.017994  -0.002252
    19  C    0.015882  -0.012282  -0.000021   0.005151   0.000700  -0.001557
    20  O   -0.012282   0.063464  -0.000147   0.004674   0.000223   0.000072
    21  O   -0.000021  -0.000147   0.055401  -0.000171  -0.002410   0.000013
    22  O    0.005151   0.004674  -0.000171   0.025715  -0.000085  -0.000089
    23  O    0.000700   0.000223  -0.002410  -0.000085   0.041648  -0.003262
    24  C   -0.001557   0.000072   0.000013  -0.000089  -0.003262   0.009037
    25  H    0.000067  -0.000001  -0.000046   0.000001   0.000815  -0.000692
    26  H   -0.000014   0.000001  -0.000120   0.000000  -0.002052   0.001587
    27  H    0.000021   0.000000  -0.000279   0.000001   0.000926  -0.000737
    28  C    0.004657  -0.001318  -0.000036  -0.002279   0.000055  -0.000016
    29  H    0.000236   0.000013   0.000000  -0.000047   0.000000   0.000000
    30  H   -0.000194  -0.000432   0.000000  -0.000524   0.000001   0.000000
    31  H    0.000640  -0.000477   0.000000  -0.000649  -0.000003  -0.000001
              25         26         27         28         29         30
     1  C   -0.000152  -0.000504   0.000541  -0.014721  -0.000268   0.000388
     2  C   -0.000005   0.000036  -0.000076   0.003541   0.000083  -0.000147
     3  C   -0.000135  -0.000226   0.000459  -0.001658  -0.000013   0.000028
     4  C    0.000042   0.000852  -0.001135   0.003901   0.000037  -0.000014
     5  H   -0.000001   0.000000  -0.000001  -0.000187   0.000000   0.000005
     6  H    0.000030  -0.000015   0.000135  -0.000008   0.000000   0.000000
     7  C    0.000070   0.000001   0.000062   0.001548   0.000012  -0.000097
     8  H    0.000000   0.000000   0.000000   0.000006   0.000000   0.000000
     9  H    0.000000   0.000000   0.000000   0.000019   0.000000   0.000000
    10  C   -0.000012  -0.000009   0.000009  -0.002555  -0.000055   0.000022
    11  H    0.000000   0.000000   0.000000   0.000039   0.000000   0.000000
    12  C   -0.000046   0.000133  -0.000375   0.000175  -0.000001   0.000003
    13  H    0.000000   0.000000   0.000000   0.000001   0.000000   0.000000
    14  H    0.000000   0.000000   0.000000   0.000073   0.000001   0.000000
    15  H    0.000000   0.000001  -0.000005   0.000001   0.000000   0.000000
    16  N    0.000041   0.000231  -0.000114   0.003572   0.000009  -0.000230
    17  N    0.000254  -0.000331   0.000389   0.002308   0.000003   0.000977
    18  C   -0.000485   0.000106   0.000376  -0.000128  -0.000002   0.000012
    19  C    0.000067  -0.000014   0.000021   0.004657   0.000236  -0.000194
    20  O   -0.000001   0.000001   0.000000  -0.001318   0.000013  -0.000432
    21  O   -0.000046  -0.000120  -0.000279  -0.000036   0.000000   0.000000
[...]
 9,0.00000951,0.00001994,-0.00001893,-0.00002503,-0.00001511,0.00000275
 ,-0.00001485,0.00000372,-0.00002630,-0.00003056,0.00002633,0.00000358,
 -0.00001683,-0.00000227,-0.00000313,0.00000149,-0.00000214,-0.00000311
 ,0.00000854,-0.00000230,-0.00042341,-0.00002994,-0.00070180,-0.0003093
 7,-0.00002487,0.00009615,-0.00023319,0.00050219,0.00259007,0.00058089,
 -0.00018111,0.00002173,-0.00017074,0.00014347,-0.00005461,-0.00062690,
 -0.00034689,-0.00029980,-0.00023034,-0.00006909,0.00009026,-0.00442631
 ,-0.00361013,-0.01072176,0.02813613,-0.06512726,-0.30896993,-0.0253731
 2,0.07318386,0.33083531,0.00006160,0.00035476,0.00000628,0.00005320,0.
 00000682,0.00005322,0.00002112,0.00008332,0.00003072,-0.00000364,-0.00
 031076,0.00000090,0.00001655,-0.00004039,0.00001041,-0.00020327,-0.000
 00214,-0.00005596,-0.00000069,0.00001208,-0.00002475,0.00000513,-0.000
 01491,-0.00000171,0.00000456,0.00000897,0.00002468,0.00000587,-0.00002
 982,-0.00000391,-0.00000458,-0.00001216,0.00000142,-0.00003924,-0.0000
 3932,0.00003286,0.00000243,-0.00003076,-0.00000793,-0.00000141,0.00000
 129,-0.00000203,-0.00000325,-0.00001264,-0.00002276,-0.00106115,0.0005
 8105,-0.00073645,0.00016300,0.00001621,-0.00029489,-0.00009326,0.00047
 549,0.00806309,0.00057540,-0.00016944,0.00001182,-0.00020124,0.0001517
 6,-0.00003557,0.00143806,-0.00013576,-0.00205736,-0.00023374,-0.000062
 29,0.00008209,-0.02791232,-0.02984911,0.00718579,-0.07629871,-0.064066
 68,0.04678076,0.00063517,-0.00157544,0.00215645,0.09400390,0.00006090,
 -0.00002917,-0.00004204,-0.00003631,0.00002582,-0.00000760,-0.00002617
 ,0.00005246,0.00000457,0.00002686,0.00010727,0.00008960,0.00000773,0.0
 0000101,0.00000024,0.00016867,0.00022720,-0.00007345,0.00000936,-0.000
 02895,0.00000002,-0.00001090,-0.00000681,-0.00001083,-0.00000440,0.000
 01008,-0.00000145,0.00002502,-0.00000338,-0.00000396,-0.00000978,-0.00
 000748,-0.00000435,-0.00004059,-0.00000405,0.00000976,0.00000038,0.000
 00003,0.00000012,-0.00000624,-0.00001196,-0.00001036,-0.00000274,-0.00
 000336,0.00000568,-0.00033191,-0.00023057,-0.00030379,0.00010822,-0.00
 000594,-0.00018961,-0.00192491,0.00083533,0.00450323,0.00014014,-0.000
 00463,0.00002923,-0.00005533,0.00003321,-0.00002178,0.00219358,0.00040
 048,-0.00056805,-0.00005405,-0.00000273,0.00001631,-0.00859774,-0.0027
 5885,-0.00326346,-0.06874624,-0.20990534,0.11281981,0.00446931,0.00876
 079,-0.00498575,0.08074045,0.22048051,0.00003861,0.00005031,0.00003671
 ,-0.00000681,0.00001825,0.00001004,0.00000977,0.00002316,0.00000114,-0
 .00006548,-0.00003224,0.00001540,0.00000783,-0.00002335,0.00000462,0.0
 0004687,-0.00001664,-0.00003645,-0.00000183,0.00000528,-0.00000534,0.0
 0000345,-0.00000032,0.00000084,-0.00000677,0.00000262,0.00000522,0.000
 00034,-0.00000311,-0.00000927,-0.00000024,-0.00000113,0.00000365,0.000
 01485,-0.00000471,0.00001921,0.00000372,-0.00001039,-0.00000763,0.0000
 0148,-0.00000361,-0.00000202,0.00000628,-0.00001178,-0.00000275,-0.000
 16408,0.00092487,-0.00063423,0.00021624,0.00005540,0.00004725,-0.00233
 488,-0.00195638,0.00277443,0.00010275,-0.00000602,-0.00006220,-0.00003
 039,0.00000474,0.00000957,0.00035767,0.00000113,-0.00070782,-0.0000252
 8,-0.00002785,0.00002117,-0.00710986,-0.01296639,0.00678047,0.05235126
 ,0.11783757,-0.13360275,0.00903810,0.02353372,-0.01266115,-0.05145176,
 -0.12283084,0.13506685,-0.00017538,0.00046485,-0.00011599,0.00016292,-
 0.00004663,0.00016781,0.00006510,-0.00003487,-0.00000711,-0.00015710,-
 0.00021479,-0.00020602,0.00003740,-0.00005250,0.00002498,-0.00063239,-
 0.00040932,0.00027961,-0.00002584,0.00006230,-0.00002703,0.00003376,-0
 .00001277,0.00001488,0.00000203,0.00000049,0.00003938,-0.00007750,-0.0
 0000633,-0.00005058,0.00003215,-0.00001073,0.00002616,0.00014299,-0.00
 001231,0.00003815,0.00000822,-0.00002305,-0.00001183,0.00001317,0.0000
 2537,0.00001595,0.00001097,-0.00002053,-0.00001964,-0.00082047,-0.0008
 6929,-0.00076949,-0.00048783,0.00003968,-0.00003904,-0.00041545,0.0032
 2303,0.00814179,0.00090046,-0.00021193,0.00006648,-0.00021192,0.000168
 29,-0.00009428,0.00182457,-0.00036581,-0.00187591,-0.00030809,-0.00013
 347,0.00012265,-0.03532878,0.01859158,-0.00729728,-0.13127889,0.119562
 42,0.01807871,0.00074210,0.00191185,0.00093097,0.00902417,-0.00812449,
 -0.00100474,0.15686373,-0.00006033,-0.00001338,-0.00002580,-0.00000430
 ,0.00001888,0.00001296,0.00001297,-0.00009170,-0.00003537,-0.00018456,
 0.00028632,-0.00019408,0.00002584,-0.00001127,0.00001272,0.00006022,0.
 00003159,0.00018892,-0.00001308,0.00001802,0.00000957,0.00001150,0.000
 00334,0.00000544,0.00000269,-0.00000369,0.00000309,-0.00003277,0.00003
 884,-0.00000264,0.00002218,0.00000066,0.00000592,0.00014539,0.00001781
 ,0.00002753,0.00000340,0.00000712,-0.00000352,0.00000249,-0.00000280,0
 .00000401,-0.00001486,0.00001215,0.00001198,-0.00031302,-0.00050475,0.
 00024036,-0.00023803,-0.00009930,0.00002223,0.00068535,0.00107431,-0.0
 0169086,0.00008712,-0.00007871,0.00003259,-0.00000639,0.00004430,-0.00
 001455,-0.00130594,-0.00005385,-0.00005735,-0.00001260,0.00000535,-0.0
 0000158,-0.00706114,0.01315908,0.00192947,0.12554142,-0.23072149,-0.02
 571770,0.00220672,-0.00405964,0.00055810,0.01393381,-0.01792781,-0.004
 56525,-0.13348812,0.23885489,-0.00002601,0.00000035,-0.00006939,-0.000
 00239,0.00000507,0.00002476,-0.00004025,-0.00002295,-0.00002845,0.0000
 5618,0.00010802,0.00007919,0.00002126,-0.00001124,0.00000381,0.0000887
 5,0.00000062,0.00014500,0.00000264,-0.00000469,-0.00001581,-0.00000014
 ,-0.00000425,-0.00000485,-0.00001232,0.00000498,-0.00000031,0.00000836
 ,0.00000887,-0.00003285,0.00000142,-0.00000459,0.00000781,0.00002288,0
 .00000609,-0.00000649,-0.00000005,0.00001034,0.00000494,-0.00000136,-0
 .00000678,-0.00000880,0.00000362,-0.00003409,-0.00001846,-0.00021628,-
 0.00062734,-0.00025245,-0.00018946,0.00001159,0.00007932,-0.00283503,0
 .00196316,0.00275157,0.00027071,-0.00008565,0.00006245,-0.00006001,0.0
 0008025,-0.00004957,0.00146216,0.00003950,-0.00016777,-0.00007233,-0.0
 0001982,0.00001810,-0.01119662,0.00820731,-0.00107124,0.02162136,-0.02
 916504,-0.05539539,0.01725281,-0.02453937,-0.00015566,-0.00974698,0.01
 484041,0.00293511,-0.01642847,0.02924490,0.05116948,-0.00049269,0.0011
 9907,-0.00086808,-0.00010451,-0.00010403,0.00020906,0.00025070,0.00019
 054,-0.00004840,-0.00010544,-0.00028782,-0.00040373,-0.00040913,0.0001
 8043,-0.00052122,0.00017148,-0.00002460,-0.00005880,0.00005638,-0.0001
 0553,0.00009834,0.00010399,-0.00016096,-0.00008503,-0.00000922,0.00004
 400,0.00014171,0.00001442,0.00014211,-0.00018479,0.00008477,-0.0001890
 3,0.00000687,0.00010772,-0.00015173,0.00029287,0.00008968,-0.00008541,
 -0.00001543,0.00026233,0.00060511,0.00041419,0.00008026,-0.00005550,-0
 .00002312,0.00251095,-0.00042635,0.00039335,0.00715974,-0.00066817,0.0
 0060817,-0.00357520,-0.00046741,-0.00119040,-0.05508787,-0.01862756,0.
 02152574,0.00119885,0.01364982,-0.01018831,0.00175490,0.00032123,-0.00
 042241,-0.17071788,0.02528028,0.00161950,0.00109260,0.00047155,0.00119
 093,-0.00057442,-0.00021388,-0.00022330,0.00006686,0.00001599,0.000080
 94,0.00008359,0.00003017,0.00000739,0.00010464,-0.00000262,0.00002927,
 0.43398787,0.00003978,-0.00065819,0.00064934,0.00009277,0.00002902,-0.
 00000434,0.00005834,-0.00001633,-0.00002480,0.00005026,0.00023685,-0.0
 0013203,0.00028391,-0.00012376,-0.00022075,0.00001126,-0.00001355,0.00
 000129,0.00000843,-0.00004317,-0.00001911,0.00000318,0.00001547,-0.000
 00649,0.00000036,-0.00001271,-0.00002535,0.00003223,0.00003562,0.00000
 124,0.00000087,0.00000119,-0.00001103,-0.00008155,0.00001320,-0.000007
 84,-0.00000567,0.00002085,0.00000801,0.00011112,-0.00001171,-0.0000230
 5,-0.00000323,-0.00001852,-0.00000548,-0.00226939,0.00040423,0.0004654
 8,-0.00239186,-0.00188634,0.00429319,0.00077840,0.00008944,0.00035715,
 -0.02500730,0.00905657,-0.00285617,-0.00307348,-0.00334684,0.00011205,
 -0.00048083,-0.00008169,0.00010237,0.04975122,-0.08661606,0.00860996,-
 0.00026237,-0.00014451,-0.00026444,0.00011074,0.00003840,0.00002710,-0
 .00002432,-0.00000248,-0.00002057,-0.00002227,-0.00000523,0.00000177,-
 0.00001944,-0.00000487,-0.00000774,0.05313246,0.60463571,-0.00039742,0
 .00035908,-0.00058802,0.00002574,-0.00011498,-0.00010743,-0.00012312,-
 0.00002242,-0.00000695,-0.00006699,-0.00003754,0.00034573,-0.00000412,
 -0.00020189,0.00048047,-0.00002855,0.00001483,-0.00000949,-0.00000674,
 0.00000903,0.00000432,-0.00000479,-0.00000708,0.00001198,0.00001829,0.
 00000576,-0.00000326,0.00000580,-0.00001446,-0.00004328,-0.00001846,0.
 00002896,0.00002200,0.00002682,-0.00000859,-0.00005096,-0.00001062,0.0
 0001315,0.00000180,0.00007448,-0.00011150,0.00002191,-0.00000686,0.000
 04516,0.00001499,0.00082511,0.00057698,0.00125164,0.00094742,0.0041184
 0,0.00040405,0.00032546,-0.00010599,-0.00032661,0.02583180,-0.00427269
 ,-0.00322689,0.00126788,-0.00279929,-0.00237513,0.00019460,0.00001900,
 -0.00004244,-0.01436540,0.01294582,-0.06732955,-0.00007906,-0.00004341
 ,-0.00003461,0.00000820,0.00002199,0.00000485,-0.00000530,0.00000102,-
 0.00000455,0.00000045,-0.00000099,0.,-0.00000297,-0.00000258,-0.000005
 61,-0.00797347,-0.01609729,0.60658163,0.00008340,-0.00037760,0.0002976
 1,-0.00002867,0.00000960,-0.00007863,0.00001921,-0.00003986,-0.0000188
 2,0.00003392,0.00008230,0.00000082,0.00002121,-0.00000260,-0.00001163,
 -0.00001339,-0.00000339,0.00001268,0.00000911,-0.00000651,0.00002405,-
 0.00000913,0.00001865,0.00000134,0.00000180,-0.00000215,-0.00003084,0.
 00001171,0.00001066,0.00000183,-0.00001564,0.00002897,0.00000439,-0.00
 001886,0.00003545,-0.00004315,-0.00000389,0.00001613,0.00000663,-0.000
 00683,-0.00004534,0.00001095,-0.00000061,0.00000323,0.00000058,-0.0009
 7482,0.00010156,-0.00021791,-0.00089870,-0.00124939,0.00110368,0.00056
 046,0.00010202,0.00032935,-0.00399432,0.00570907,-0.00304840,0.0015538
 3,-0.00099627,0.00049531,-0.00034773,-0.00005830,0.00006493,-0.0319702
 9,-0.02365196,0.02147282,-0.00017129,-0.00007151,-0.00020474,0.0000784
 6,0.00002604,0.00002461,-0.00001347,-0.00000426,-0.00001293,-0.0000122
 9,-0.00000193,-0.00000153,-0.00001763,-0.00000094,-0.00000306,-0.09533
 599,-0.08115539,0.06222899,0.12041062,-0.00004097,0.00002360,-0.000008
 74,0.00000957,0.00000542,0.00000756,-0.00001600,-0.00000241,0.00000553
 ,-0.00000018,0.00000331,0.00001209,-0.00001966,0.00001036,0.00003385,-
 0.00000664,-0.00000097,0.00000235,-0.00000546,0.00000141,-0.00001101,-
 0.00000158,0.00000298,0.00000146,0.00000118,-0.00000050,-0.00000233,-0
 .00000424,-0.00000566,0.00000707,0.00000137,0.00000082,-0.00000034,-0.
 00000263,0.00000357,-0.00000668,-0.00000517,0.00000206,-0.00000007,-0.
 00000913,-0.00001299,-0.00002492,-0.00000424,0.00000158,-0.00000035,0.
 00008791,0.00005629,0.00005113,0.00015114,0.00052625,-0.00030308,0.000
 13627,0.00002017,-0.00001927,0.00317258,-0.00149609,0.00053159,-0.0014
 8880,0.00093818,-0.00001649,-0.00001969,-0.00000547,0.00000803,0.00907
 057,0.00866650,-0.00724270,-0.00004046,-0.00001441,-0.00004317,0.00002
 084,0.00000514,0.00000968,-0.00000245,-0.00000148,-0.00000253,-0.00000
 206,-0.00000133,-0.00000061,-0.00000356,0.00000067,-0.00000085,-0.0927
 2605,-0.19486836,0.11194944,0.09212988,0.19978892,-0.00000356,0.000076
 00,-0.00001113,0.00004924,0.00000374,0.00003725,0.,0.00001494,0.000008
 26,-0.00001070,-0.00003348,-0.00003254,0.00000056,0.00000585,-0.000027
 83,0.00000010,0.00000078,-0.00000271,-0.00000499,0.00000221,-0.0000238
 2,0.00000477,-0.00000768,-0.00000411,-0.00000248,0.00000161,0.00000838
 ,0.,-0.00000633,0.00000027,0.00000723,-0.00001278,0.00000096,-0.000001
 40,-0.00000669,0.00001766,-0.00000235,-0.00000582,-0.00000116,0.000014
 00,0.00001302,-0.00002002,-0.00000154,-0.00000502,-0.00000516,0.000073
 27,-0.00004106,0.00009968,0.00014664,0.00001814,0.00019519,-0.00015444
 ,-0.00004793,-0.00006709,-0.00149871,0.00008397,0.00031164,0.00083331,
 -0.00011129,0.00046313,0.00008370,0.00001318,-0.00002116,-0.00058406,-
 0.00155830,0.00144642,0.00003768,0.00001341,0.00004545,-0.00002451,-0.
 00000495,-0.00000937,0.00000130,0.00000051,0.00000270,0.00000343,0.000
 00094,0.00000064,0.00000453,-0.00000035,0.00000071,0.07005172,0.109964
 57,-0.13962831,-0.07505064,-0.11954084,0.14056943,0.00012302,-0.000255
 73,-0.00002716,-0.00006871,-0.00005962,-0.00010110,-0.00005945,-0.0000
 4988,-0.00000275,0.00000911,0.00002896,0.00015829,0.00006524,-0.000066
 39,0.00020378,-0.00002509,0.00000647,0.00000845,0.00000588,0.00002844,
 0.00001257,-0.00001889,0.00002367,0.00001615,-0.00000858,-0.00001458,-
 0.00002098,0.00002027,0.00001586,0.00001932,-0.00001341,0.00002877,0.0
 0000039,0.00001512,0.00000581,-0.00004825,-0.00000621,0.00001810,0.000
 00649,-0.00001528,-0.00003174,-0.00005254,-0.00000523,0.00002300,0.000
 01335,-0.00037997,0.00021536,0.00011935,-0.00092284,0.00035413,0.00075
 811,0.00061485,0.00002445,0.00016202,0.00283809,0.00600298,-0.00700522
 ,0.00084198,-0.00221957,0.00165573,-0.00025789,-0.00004328,0.00006108,
 -0.03208632,0.00108690,-0.02863356,-0.00017546,-0.00006875,-0.00017178
 ,0.00007738,0.00003674,0.00002410,-0.00001197,-0.00000192,-0.00001189,
 -0.00001168,-0.00000374,-0.00000095,-0.00001649,-0.00000134,-0.0000060
 3,-0.07345236,-0.00203401,-0.07485715,0.00747206,0.00141253,0.01331007
 ,0.09190684,0.00001389,0.00012418,0.00000770,0.00008809,0.00003062,0.0
 0004910,0.00001249,0.00002037,0.00000686,-0.00001526,-0.00005508,-0.00
 004851,-0.00002237,0.00000787,-0.00005733,0.00000485,0.00000091,-0.000
 00496,-0.00000666,-0.00000036,-0.00002377,0.00000997,-0.00001155,-0.00
 000673,0.00000151,0.00000729,0.00000824,-0.00001539,-0.00002393,-0.000
 00032,0.00000712,-0.00001320,0.00000192,-0.00000550,-0.00000335,0.0000
 1606,-0.00000209,-0.00000993,-0.00000435,0.00001616,-0.00000772,0.0000
 1308,-0.00000119,-0.00000822,-0.00000807,0.00013664,-0.00006855,-0.000
 01183,0.00033686,-0.00023433,0.00011132,-0.00020805,-0.00002685,-0.000
 06432,-0.00247669,0.00072990,-0.00029758,0.00105995,0.00005563,-0.0000
 8655,0.00009816,0.00000728,-0.00002208,0.00803716,0.00016317,0.0087755
 7,0.00005961,0.00002673,0.00006975,-0.00003016,-0.00000574,-0.00001227
 ,0.00000473,0.00000168,0.00000456,0.00000465,0.00000145,0.00000096,0.0
 0000567,-0.00000030,0.00000119,-0.00203033,-0.05144516,-0.00392132,0.0
 0796870,0.00211398,0.02090613,-0.00331459,0.04706666,0.00003406,-0.000
 03122,-0.00005777,-0.00000022,-0.00000053,-0.00000850,-0.00001653,0.00
 000156,0.00000153,0.00000988,0.00000203,0.00002602,0.00001860,-0.00001
 171,0.00003623,-0.00000400,0.00000136,0.00000092,0.00000083,0.00000878
 ,-0.00000416,-0.00000543,0.00000541,0.00000626,-0.00000026,-0.00000288
 ,0.00000114,0.00000269,-0.00000882,0.00001254,-0.00000293,0.00000655,-
 0.00000224,-0.00000306,-0.00000488,-0.00000180,-0.00000230,-0.00000008
 ,-0.00000129,-0.00003414,-0.00000928,-0.00001483,-0.00000243,0.0000014
 1,0.00000261,-0.00004448,-0.00006187,0.00002675,0.00004435,-0.00047993
 ,-0.00040148,-0.00000406,0.00000292,-0.00001380,0.00142764,0.00216398,
 0.00014020,0.00088431,-0.00081215,0.00040522,-0.00003207,-0.00000138,0
 .00001944,-0.00245141,0.00152557,0.00813781,-0.00001200,-0.00000082,0.
 00001167,0.00001331,0.00000052,0.00000338,0.00000124,0.00000012,0.0000
 0001,-0.00000180,-0.00000150,0.00000038,-0.00000013,0.00000129,0.00000
 046,-0.08423125,-0.00359218,-0.29754926,-0.00464155,-0.00217674,-0.012
 55531,0.09195725,0.00211452,0.31209065,0.00023363,-0.00022202,0.000098
 35,0.00002021,0.00005647,-0.00003226,-0.00005448,-0.00003134,0.0000096
 6,0.00002307,-0.00000082,0.00007548,0.00000687,0.00004313,0.00012051,-
 0.00003558,0.00000620,0.00001402,-0.00001320,0.00002696,-0.00001779,-0
 .00001922,0.00002640,0.00001349,-0.00000025,-0.00000564,-0.00002399,-0
 .00001954,-0.00003059,0.00004410,-0.00001579,0.00003398,-0.00000125,-0
 .00000662,0.00002994,-0.00005099,-0.00001470,0.00000919,0.00000115,-0.
 00009479,-0.00011584,-0.00008127,-0.00001356,0.00001131,0.00000350,-0.
 00024506,0.00000566,-0.00040813,-0.00121045,-0.00057698,-0.00049418,0.
 00055355,0.00012518,0.00035518,0.00348327,0.00783837,-0.00301469,0.000
 37200,-0.00221650,0.00116644,-0.00030618,-0.00006676,0.00003973,-0.023
 12014,0.03307287,0.01737517,-0.00014707,-0.00008495,-0.00022264,0.0000
 7599,0.00003531,0.00003535,-0.00001271,-0.00000288,-0.00001430,-0.0000
 1327,-0.00000333,-0.00000202,-0.00001462,-0.00000106,-0.00000464,-0.04
 931702,0.01236578,0.00616996,0.00357776,-0.01179487,-0.00728218,0.0035
 4599,-0.00973791,-0.00290411,0.06278192,-0.00005105,0.00004094,-0.0000
 7924,-0.00004150,-0.00000335,0.00000724,0.00003305,0.00000969,-0.00001
 057,-0.00001357,0.00000115,-0.00001957,-0.00003532,0.00000378,-0.00006
 225,0.00002266,-0.00000569,-0.00000457,0.00000978,-0.00000802,0.000030
 36,0.00000706,-0.00000764,-0.00000688,-0.00000328,0.00000072,0.0000041
 7,0.00000400,0.00001812,-0.00001880,0.00000262,-0.00000949,0.00000221,
 0.00001090,-0.00001130,0.00002042,0.00001128,-0.00000586,-0.00000161,0
 .00001488,0.00006686,0.00005740,0.00000968,-0.00000458,0.00000006,0.00
 023744,0.00002300,0.00009542,0.00024475,-0.00018701,-0.00045668,-0.000
 18414,-0.00004440,-0.00011507,-0.00251380,-0.00118607,0.00262277,-0.00
 054390,0.00101395,-0.00061279,0.00010073,0.00002164,-0.00001335,0.0100
 9569,-0.00273545,-0.00117610,0.00005290,0.00003669,0.00007808,-0.00003
 223,-0.00001386,-0.00001806,0.00000465,0.00000141,0.00000549,0.0000052
 9,0.00000195,0.00000085,0.00000439,0.00000022,0.00000174,0.02106419,-0
 .27527709,-0.10234662,0.00142516,-0.01576153,-0.00973647,-0.00114705,0
 .00155654,0.00135994,-0.02879526,0.29246472,-0.00006416,-0.00001975,0.
 00002110,-0.00002939,0.00001489,-0.00001283,0.00000565,-0.00000750,-0.
 00000456,0.00000178,0.00002979,-0.00001308,-0.00001293,0.00003091,-0.0
 0000186,-0.00000154,-0.00000239,0.00000308,0.00000105,-0.00000646,0.00
 000602,-0.00000114,0.00000257,0.00000011,-0.00000239,-0.00000253,-0.00
 000112,0.00000417,0.00000587,-0.00000303,-0.00000032,0.00000158,-0.000
 00061,-0.00000218,0.00000525,-0.00000390,0.00000028,0.00000368,0.00000
 259,-0.00000645,0.00001053,-0.00001158,0.00000123,-0.00000021,0.000001
 39,-0.00001516,0.00004165,-0.00001663,-0.00007303,0.00023138,-0.000212
 29,0.00004636,0.00001037,0.00000246,0.00103359,-0.00292463,0.00168675,
 -0.00141231,0.00095154,-0.00018989,-0.00001342,0.00000579,0.00000246,0
 .00201562,0.00324448,0.00200955,-0.00001390,-0.00000365,-0.00002082,0.
 00000597,-0.00000335,0.00000511,-0.00000149,-0.00000187,-0.00000102,-0
 .00000050,-0.00000009,-0.00000109,-0.00000153,0.00000055,0.00000039,0.
 00976769,-0.10127486,-0.09781299,-0.00271674,0.01678095,0.00920195,0.0
 0245286,-0.02751695,-0.01031276,-0.01096767,0.11039248,0.09567713\\0.0
 0000674,-0.00002719,-0.00003525,0.00000805,-0.00000402,0.00005129,-0.0
 0002718,0.00000107,0.00002958,-0.00002367,0.00000444,-0.00002834,-0.00
 000273,0.00000353,0.00001562,0.00000544,-0.00000676,0.00001517,0.00001
 785,-0.00000200,0.00000472,-0.00000267,-0.00000110,-0.00000110,-0.0000
 0074,0.00001511,-0.00000332,0.00000517,0.00002792,-0.00000323,0.000004
 82,-0.00001344,-0.00000847,0.00002520,-0.00000002,-0.00002174,-0.00001
 331,-0.00001936,0.00001213,-0.00000148,0.00000111,-0.00000961,0.000004
 07,0.00000679,-0.00000981,0.00002824,0.00007649,0.00001158,-0.00010566
 ,-0.00003255,-0.00000547,0.00003084,0.00000236,-0.00007987,0.00006106,
 -0.00000164,0.00000134,0.00000836,-0.00002561,0.00000633,-0.00001969,0
 .00000239,0.00003895,0.00005582,-0.00000774,0.00000802,-0.00005372,-0.
 00001235,0.00000022,0.00005893,0.00001569,0.00000967,-0.00000847,-0.00
 000058,0.00000588,-0.00000874,-0.00000041,-0.00000218,-0.00000368,-0.0
 0000461,0.00000076,-0.00007001,0.00001893,-0.00000859,0.00000392,-0.00
 001030,0.00000233,0.00000874,-0.00000247,-0.00000097,0.00000848,-0.000
 00366,0.00000436\\\@


 EDUCATION WITHOUT COMMON SENSE IS A LOAD OF BOOKS ON THE BACK OF AN ASS.
 Job cpu time:       0 days  3 hours 34 minutes 47.8 seconds.
 File lengths (MBytes):  RWF=    909 Int=      0 D2E=      0 Chk=     28 Scr=      1
 Normal termination of Gaussian 09 at Mon Jul 12 15:36:11 2021.
