 Entering Gaussian System, Link 0=g09
 Input=b3lyp_m062x_dmad_cycloaddition_PM6_toluene.com
 Output=b3lyp_m062x_dmad_cycloaddition_PM6_toluene.log
 Initial command:
 /apps/applications/gaussian/G09.D01/2/default/g09/l1.exe "/local/746234.1.40core-192G.q/Gau-329104.inp" -scrdir="/local/746234.1.40core-192G.q/"
 Entering Link 1 = /apps/applications/gaussian/G09.D01/2/default/g09/l1.exe PID=    329105.
  
 Copyright (c) 1988,1990,1992,1993,1995,1998,2003,2009,2013,
            Gaussian, Inc.  All Rights Reserved.
  
 This is part of the Gaussian(R) 09 program.  It is based on
 the Gaussian(R) 03 system (copyright 2003, Gaussian, Inc.),
 the Gaussian(R) 98 system (copyright 1998, Gaussian, Inc.),
 the Gaussian(R) 94 system (copyright 1995, Gaussian, Inc.),
 the Gaussian 92(TM) system (copyright 1992, Gaussian, Inc.),
 the Gaussian 90(TM) system (copyright 1990, Gaussian, Inc.),
 the Gaussian 88(TM) system (copyright 1988, Gaussian, Inc.),
 the Gaussian 86(TM) system (copyright 1986, Carnegie Mellon
 University), and the Gaussian 82(TM) system (copyright 1983,
 Carnegie Mellon University). Gaussian is a federally registered
 trademark of Gaussian, Inc.
  
 This software contains proprietary and confidential information,
 including trade secrets, belonging to Gaussian, Inc.
  
 This software is provided under written license and may be
 used, copied, transmitted, or stored only in accord with that
 written license.
  
 The following legend is applicable only to US Government
 contracts under FAR:
  
                    RESTRICTED RIGHTS LEGEND
  
 Use, reproduction and disclosure by the US Government is
 subject to restrictions as set forth in subparagraphs (a)
 and (c) of the Commercial Computer Software - Restricted
 Rights clause in FAR 52.227-19.
  
 Gaussian, Inc.
 340 Quinnipiac St., Bldg. 40, Wallingford CT 06492
  
  
 ---------------------------------------------------------------
 Warning -- This program may not be used in any manner that
 competes with the business of Gaussian, Inc. or will provide
 assistance to any competitor of Gaussian, Inc.  The licensee
 of this program is prohibited from giving any competitor of
 Gaussian, Inc. access to this program.  By using this program,
 the user acknowledges that Gaussian, Inc. is engaged in the
 business of creating and licensing software in the field of
 computational chemistry and represents and warrants to the
 licensee that it is not a competitor of Gaussian, Inc. and that
 it will not use this program in any manner prohibited above.
 ---------------------------------------------------------------
  

 Cite this work as:
 Gaussian 09, Revision D.01,
 M. J. Frisch, G. W. Trucks, H. B. Schlegel, G. E. Scuseria, 
 M. A. Robb, J. R. Cheeseman, G. Scalmani, V. Barone, B. Mennucci, 
 G. A. Petersson, H. Nakatsuji, M. Caricato, X. Li, H. P. Hratchian, 
 A. F. Izmaylov, J. Bloino, G. Zheng, J. L. Sonnenberg, M. Hada, 
 M. Ehara, K. Toyota, R. Fukuda, J. Hasegawa, M. Ishida, T. Nakajima, 
 Y. Honda, O. Kitao, H. Nakai, T. Vreven, J. A. Montgomery, Jr., 
 J. E. Peralta, F. Ogliaro, M. Bearpark, J. J. Heyd, E. Brothers, 
 K. N. Kudin, V. N. Staroverov, T. Keith, R. Kobayashi, J. Normand, 
 K. Raghavachari, A. Rendell, J. C. Burant, S. S. Iyengar, J. Tomasi, 
 M. Cossi, N. Rega, J. M. Millam, M. Klene, J. E. Knox, J. B. Cross, 
 V. Bakken, C. Adamo, J. Jaramillo, R. Gomperts, R. E. Stratmann, 
 O. Yazyev, A. J. Austin, R. Cammi, C. Pomelli, J. W. Ochterski, 
 R. L. Martin, K. Morokuma, V. G. Zakrzewski, G. A. Voth, 
 P. Salvador, J. J. Dannenberg, S. Dapprich, A. D. Daniels, 
 O. Farkas, J. B. Foresman, J. V. Ortiz, J. Cioslowski, 
 and D. J. Fox, Gaussian, Inc., Wallingford CT, 2013.
 
 ******************************************
 Gaussian 09:  ES64L-G09RevD.01 24-Apr-2013
                17-Sep-2020 
 ******************************************
 %nprocshared=4
 Will use up to    4 processors via shared memory.
 %chk=b3lyp_m062x_dmad_cycloaddition_PM6_toluene.chk
 ----------------------------------------------------------------------
 # opt freq b3lyp/6-31+g(d,p) scrf=(cpcm,solvent=toluene) geom=connecti
 vity empiricaldispersion=gd3
 ----------------------------------------------------------------------
 1/14=-1,18=20,19=15,26=3,38=1,57=2/1,3;
 2/9=110,12=2,17=6,18=5,40=1/2;
 3/5=1,6=6,7=111,11=2,16=1,25=1,30=1,70=2101,71=1,72=13,74=-5,124=31/1,2,3;
 4//1;
 5/5=2,38=5,53=13/2;
 6/7=2,8=2,9=2,10=2,28=1/1;
 7//1,2,3,16;
 1/14=-1,18=20,19=15,26=3/3(2);
 2/9=110/2;
 99//99;
 2/9=110/2;
 3/5=1,6=6,7=111,11=2,16=1,25=1,30=1,70=2105,71=1,72=13,74=-5,124=31/1,2,3;
 4/5=5,16=3,69=1/1;
 5/5=2,38=5,53=13/2;
 7//1,2,3,16;
 1/14=-1,18=20,19=15,26=3/3(-5);
 2/9=110/2;
 6/7=2,8=2,9=2,10=2,19=2,28=1/1;
 99/9=1/99;
 -------------------
 Title Card Required
 -------------------
 Symbolic Z-matrix:
 Charge =  0 Multiplicity = 1
 N                     0.30942  -0.29966   0.43784 
 N                    -0.3094    0.29968  -0.43772 
 C                     1.70366  -0.48324   0.11461 
 C                    -1.70364   0.48323  -0.1145 
 O                    -2.15828   1.56866   0.08213 
 O                     2.15831  -1.5687   -0.08184 
 O                    -2.34998  -0.66126  -0.14399 
 O                     2.34996   0.66128   0.14381 
 C                     3.75851   0.58378  -0.08525 
 H                     4.14059   1.60119   0.03065 
 H                     4.22117  -0.09148   0.64552 
 H                     3.95243   0.21097  -1.09881 
 C                    -3.75855  -0.58376   0.08498 
 H                    -4.14067  -1.60112  -0.03128 
 H                    -3.95253  -0.21127   1.09864 
 H                    -4.22111   0.09176  -0.6456 
 

 GradGradGradGradGradGradGradGradGradGradGradGradGradGradGradGradGradGrad
 Berny optimization.
 Initialization pass.
                           ----------------------------
                           !    Initial Parameters    !
                           ! (Angstroms and Degrees)  !
 --------------------------                            --------------------------
 ! Name  Definition              Value          Derivative Info.                !
 --------------------------------------------------------------------------------
 ! R1    R(1,2)                  1.2283         estimate D2E/DX2                !
 ! R2    R(1,3)                  1.4429         estimate D2E/DX2                !
 ! R3    R(2,4)                  1.4429         estimate D2E/DX2                !
 ! R4    R(3,6)                  1.1931         estimate D2E/DX2                !
 ! R5    R(3,8)                  1.3147         estimate D2E/DX2                !
 ! R6    R(4,5)                  1.1931         estimate D2E/DX2                !
 ! R7    R(4,7)                  1.3147         estimate D2E/DX2                !
 ! R8    R(7,13)                 1.4292         estimate D2E/DX2                !
 ! R9    R(8,9)                  1.4292         estimate D2E/DX2                !
 ! R10   R(9,10)                 1.093          estimate D2E/DX2                !
 ! R11   R(9,11)                 1.0973         estimate D2E/DX2                !
 ! R12   R(9,12)                 1.0972         estimate D2E/DX2                !
 ! R13   R(13,14)                1.093          estimate D2E/DX2                !
 ! R14   R(13,15)                1.0972         estimate D2E/DX2                !
 ! R15   R(13,16)                1.0973         estimate D2E/DX2                !
 ! A1    A(2,1,3)              112.9046         estimate D2E/DX2                !
 ! A2    A(1,2,4)              112.9043         estimate D2E/DX2                !
 ! A3    A(1,3,6)              121.3882         estimate D2E/DX2                !
 ! A4    A(1,3,8)              111.0552         estimate D2E/DX2                !
 ! A5    A(6,3,8)              127.4681         estimate D2E/DX2                !
 ! A6    A(2,4,5)              121.3879         estimate D2E/DX2                !
 ! A7    A(2,4,7)              111.0552         estimate D2E/DX2                !
 ! A8    A(5,4,7)              127.4683         estimate D2E/DX2                !
 ! A9    A(4,7,13)             115.7046         estimate D2E/DX2                !
 ! A10   A(3,8,9)              115.7049         estimate D2E/DX2                !
 ! A11   A(8,9,10)             106.085          estimate D2E/DX2                !
 ! A12   A(8,9,11)             110.0103         estimate D2E/DX2                !
 ! A13   A(8,9,12)             109.9178         estimate D2E/DX2                !
 ! A14   A(10,9,11)            110.7835         estimate D2E/DX2                !
 ! A15   A(10,9,12)            110.6381         estimate D2E/DX2                !
 ! A16   A(11,9,12)            109.3648         estimate D2E/DX2                !
 ! A17   A(7,13,14)            106.085          estimate D2E/DX2                !
 ! A18   A(7,13,15)            109.9179         estimate D2E/DX2                !
 ! A19   A(7,13,16)            110.0102         estimate D2E/DX2                !
 ! A20   A(14,13,15)           110.6379         estimate D2E/DX2                !
 ! A21   A(14,13,16)           110.7837         estimate D2E/DX2                !
 ! A22   A(15,13,16)           109.3648         estimate D2E/DX2                !
 ! D1    D(3,1,2,4)            179.9986         estimate D2E/DX2                !
 ! D2    D(2,1,3,6)           -113.6795         estimate D2E/DX2                !
 ! D3    D(2,1,3,8)             69.497          estimate D2E/DX2                !
 ! D4    D(1,2,4,5)            113.6699         estimate D2E/DX2                !
 ! D5    D(1,2,4,7)            -69.5105         estimate D2E/DX2                !
 ! D6    D(1,3,8,9)            176.4747         estimate D2E/DX2                !
 ! D7    D(6,3,8,9)             -0.1084         estimate D2E/DX2                !
 ! D8    D(2,4,7,13)          -176.4723         estimate D2E/DX2                !
 ! D9    D(5,4,7,13)             0.1068         estimate D2E/DX2                !
 ! D10   D(4,7,13,14)          176.7863         estimate D2E/DX2                !
 ! D11   D(4,7,13,15)          -63.5674         estimate D2E/DX2                !
 ! D12   D(4,7,13,16)           56.9163         estimate D2E/DX2                !
 ! D13   D(3,8,9,10)          -176.7924         estimate D2E/DX2                !
 ! D14   D(3,8,9,11)           -56.9226         estimate D2E/DX2                !
 ! D15   D(3,8,9,12)            63.5611         estimate D2E/DX2                !
 --------------------------------------------------------------------------------
 Trust Radius=3.00D-01 FncErr=1.00D-07 GrdErr=1.00D-06
 Number of steps in this run=     62 maximum allowed number of steps=    100.
 GradGradGradGradGradGradGradGradGradGradGradGradGradGradGradGradGradGrad

                          Input orientation:                          
 ---------------------------------------------------------------------
 Center     Atomic      Atomic             Coordinates (Angstroms)
 Number     Number       Type             X           Y           Z
 ---------------------------------------------------------------------
      1          7           0        0.309422   -0.299659    0.437844
      2          7           0       -0.309404    0.299678   -0.437717
      3          6           0        1.703657   -0.483239    0.114613
      4          6           0       -1.703642    0.483225   -0.114495
      5          8           0       -2.158277    1.568657    0.082131
      6          8           0        2.158312   -1.568696   -0.081836
      7          8           0       -2.349981   -0.661264   -0.143994
      8          8           0        2.349960    0.661277    0.143812
      9          6           0        3.758512    0.583778   -0.085250
     10          1           0        4.140586    1.601194    0.030648
     11          1           0        4.221171   -0.091477    0.645516
     12          1           0        3.952433    0.210970   -1.098806
     13          6           0       -3.758548   -0.583760    0.084980
     14          1           0       -4.140670   -1.601117   -0.031278
     15          1           0       -3.952531   -0.211273    1.098643
     16          1           0       -4.221108    0.091761   -0.645602
 ---------------------------------------------------------------------
                    Distance matrix (angstroms):
                    1          2          3          4          5
     1  N    0.000000
     2  N    1.228315   0.000000
     3  C    1.442938   2.229449   0.000000
     4  C    2.229442   1.442935   3.549117   0.000000
     5  O    3.115554   2.301930   4.373313   1.193112   0.000000
     6  O    2.301938   3.115621   1.193114   4.373344   5.338802
     7  O    2.746219   2.274563   4.065778   1.314716   2.249540
     8  O    2.274565   2.746115   1.314716   4.065724   4.599059
     9  C    3.598654   4.093029   2.323984   5.463158   6.000533
    10  H    4.296146   4.660013   3.207886   5.951968   6.299157
    11  H    3.922786   4.674666   2.602540   6.000942   6.615951
    12  H    3.986673   4.313718   2.647887   5.747536   6.370142
    13  C    4.093117   3.598648   5.463210   2.323981   2.682121
    14  H    4.660170   4.296139   5.952066   3.207883   3.740349
    15  H    4.313781   3.986709   5.747586   2.647930   2.724114
    16  H    4.674694   3.922738   6.000949   2.602490   2.639335
                    6          7          8          9         10
     6  O    0.000000
     7  O    4.599131   0.000000
     8  O    2.249539   4.890950   0.000000
     9  C    2.682125   6.234362   1.429159   0.000000
    10  H    3.740356   6.875804   2.025486   1.092954   0.000000
    11  H    2.639433   6.642893   2.078407   1.097288   1.802690
    12  H    2.724024   6.433730   2.077209   1.097218   1.801053
    13  C    6.000597   1.429160   6.234376   7.609094   8.195932
    14  H    6.299268   2.025487   6.875853   8.195960   8.879067
    15  H    6.370128   2.077211   6.433851   7.841804   8.362069
    16  H    6.616037   2.078406   6.642775   8.014388   8.523710
                   11         12         13         14         15
    11  H    0.000000
    12  H    1.790629   0.000000
    13  C    8.014515   7.841695   0.000000
    14  H    8.523934   8.361913   1.092954   0.000000
    15  H    8.187129   8.215566   1.097219   1.801051   0.000000
    16  H    8.542402   8.186964   1.097288   1.802692   1.790629
                   16
    16  H    0.000000
 Stoichiometry    C4H6N2O4
 Framework group  C1[X(C4H6N2O4)]
 Deg. of freedom    42
 Full point group                 C1      NOp   1
 Largest Abelian subgroup         C1      NOp   1
 Largest concise Abelian subgroup C1      NOp   1
                         Standard orientation:                         
 ---------------------------------------------------------------------
 Center     Atomic      Atomic             Coordinates (Angstroms)
 Number     Number       Type             X           Y           Z
 ---------------------------------------------------------------------
      1          7           0        0.309422    0.299659   -0.437844
      2          7           0       -0.309404   -0.299678    0.437717
      3          6           0        1.703657    0.483239   -0.114613
      4          6           0       -1.703642   -0.483225    0.114495
      5          8           0       -2.158277   -1.568657   -0.082131
      6          8           0        2.158312    1.568696    0.081836
      7          8           0       -2.349981    0.661264    0.143994
      8          8           0        2.349960   -0.661277   -0.143812
      9          6           0        3.758512   -0.583778    0.085250
     10          1           0        4.140586   -1.601194   -0.030648
     11          1           0        4.221171    0.091477   -0.645516
     12          1           0        3.952433   -0.210970    1.098806
     13          6           0       -3.758548    0.583760   -0.084980
     14          1           0       -4.140670    1.601117    0.031278
     15          1           0       -3.952531    0.211273   -1.098643
     16          1           0       -4.221108   -0.091761    0.645602
 ---------------------------------------------------------------------
 Rotational constants (GHZ):      4.0754109      0.5950598      0.5301328
 Standard basis: 6-31+G(d,p) (6D, 7F)
 There are   220 symmetry adapted cartesian basis functions of A   symmetry.
 There are   220 symmetry adapted basis functions of A   symmetry.
   220 basis functions,   362 primitive gaussians,   220 cartesian basis functions
    38 alpha electrons       38 beta electrons
       nuclear repulsion energy       524.4410974693 Hartrees.
 NAtoms=   16 NActive=   16 NUniq=   16 SFac= 1.00D+00 NAtFMM=   60 NAOKFM=F Big=F
 Integral buffers will be    131072 words long.
 Raffenetti 2 integral format.
 Two-electron integral symmetry is turned on.
 Nuclear repulsion after empirical dispersion term =      524.4311506826 Hartrees.
 ------------------------------------------------------------------------------
 Polarizable Continuum Model (PCM)
 =================================
 Model                : C-PCM.
 Atomic radii         : UFF (Universal Force Field).
 Polarization charges : Total charges.
 Charge compensation  : None.
 Solution method      : On-the-fly selection.
 Cavity type          : Scaled VdW (van der Waals Surface) (Alpha=1.100).
 Cavity algorithm     : GePol (No added spheres)
                        Default sphere list used, NSphG=   16.
                        Lebedev-Laikov grids with approx.  5.0 points / Ang**2.
                        Smoothing algorithm: Karplus/York (Gamma=1.0000).
                        Polarization charges: spherical gaussians, with
                                              point-specific exponents (IZeta= 3).
                        Self-potential: point-specific (ISelfS= 7).
                        Self-field    : sphere-specific E.n sum rule (ISelfD= 2).
 1st derivatives      : Analytical E(r).r(x)/FMM algorithm (CHGder, D1EAlg=3).
                        Cavity 1st derivative terms included.
 Solvent              : Toluene, Eps=   2.374100 Eps(inf)=   2.238315
 ------------------------------------------------------------------------------
 Spheres list:
 ISph  on   Nord     Re0    Alpha      Xe            Ye            Ze
    1   N      1    1.8300  1.100      0.309422      0.299659     -0.437844
    2   N      2    1.8300  1.100     -0.309404     -0.299678      0.437717
    3   C      3    1.9255  1.100      1.703657      0.483239     -0.114613
    4   C      4    1.9255  1.100     -1.703642     -0.483225      0.114495
    5   O      5    1.7500  1.100     -2.158277     -1.568657     -0.082131
    6   O      6    1.7500  1.100      2.158312      1.568696      0.081836
    7   O      7    1.7500  1.100     -2.349981      0.661264      0.143994
    8   O      8    1.7500  1.100      2.349960     -0.661277     -0.143812
    9   C      9    1.9255  1.100      3.758512     -0.583778      0.085250
   10   H     10    1.4430  1.100      4.140586     -1.601194     -0.030648
   11   H     11    1.4430  1.100      4.221171      0.091477     -0.645516
   12   H     12    1.4430  1.100      3.952433     -0.210970      1.098806
   13   C     13    1.9255  1.100     -3.758548      0.583760     -0.084980
   14   H     14    1.4430  1.100     -4.140670      1.601117      0.031278
   15   H     15    1.4430  1.100     -3.952531      0.211273     -1.098643
   16   H     16    1.4430  1.100     -4.221108     -0.091761      0.645602
 ------------------------------------------------------------------------------
 One-electron integrals computed using PRISM.
 NBasis=   220 RedAO= T EigKep=  6.94D-05  NBF=   220
 NBsUse=   220 1.00D-06 EigRej= -1.00D+00 NBFU=   220
 ExpMin= 4.38D-02 ExpMax= 5.48D+03 ExpMxC= 8.25D+02 IAcc=2 IRadAn=         4 AccDes= 0.00D+00
 Harris functional with IExCor=  402 and IRadAn=       4 diagonalized for initial guess.
 HarFok:  IExCor=  402 AccDes= 0.00D+00 IRadAn=         4 IDoV= 1 UseB2=F ITyADJ=14
 ICtDFT=  3500011 ScaDFX=  1.000000  1.000000  1.000000  1.000000
 FoFCou: FMM=F IPFlag=           0 FMFlag=      100000 FMFlg1=           0
         NFxFlg=           0 DoJE=T BraDBF=F KetDBF=T FulRan=T
         wScrn=  0.000000 ICntrl=     500 IOpCl=  0 I1Cent=   200000004 NGrid=           0
         NMat0=    1 NMatS0=      1 NMatT0=    0 NMatD0=    1 NMtDS0=    0 NMtDT0=    0
 Petite list used in FoFCou.
 Requested convergence on RMS density matrix=1.00D-08 within 128 cycles.
 Requested convergence on MAX density matrix=1.00D-06.
 Requested convergence on             energy=1.00D-06.
 No special actions if energy rises.
 Inv3:  Mode=1 IEnd=     7338288.
 Iteration    1 A*A^-1 deviation from unit magnitude is 4.11D-15 for    368.
 Iteration    1 A*A^-1 deviation from orthogonality  is 2.13D-15 for    671    251.
 Iteration    1 A^-1*A deviation from unit magnitude is 4.11D-15 for    368.
 Iteration    1 A^-1*A deviation from orthogonality  is 1.19D-15 for   1472    225.
 Error on total polarization charges =  0.00717
 SCF Done:  E(RB3LYP) =  -566.425340506     A.U. after   14 cycles
            NFock= 14  Conv=0.20D-08     -V/T= 2.0086

 **********************************************************************

            Population analysis using the SCF density.

 **********************************************************************

 Orbital symmetries:
       Occupied  (A) (A) (A) (A) (A) (A) (A) (A) (A) (A) (A) (A)
                 (A) (A) (A) (A) (A) (A) (A) (A) (A) (A) (A) (A)
                 (A) (A) (A) (A) (A) (A) (A) (A) (A) (A) (A) (A)
                 (A) (A)
       Virtual   (A) (A) (A) (A) (A) (A) (A) (A) (A) (A) (A) (A)
                 (A) (A) (A) (A) (A) (A) (A) (A) (A) (A) (A) (A)
                 (A) (A) (A) (A) (A) (A) (A) (A) (A) (A) (A) (A)
                 (A) (A) (A) (A) (A) (A) (A) (A) (A) (A) (A) (A)
                 (A) (A) (A) (A) (A) (A) (A) (A) (A) (A) (A) (A)
                 (A) (A) (A) (A) (A) (A) (A) (A) (A) (A) (A) (A)
                 (A) (A) (A) (A) (A) (A) (A) (A) (A) (A) (A) (A)
                 (A) (A) (A) (A) (A) (A) (A) (A) (A) (A) (A) (A)
                 (A) (A) (A) (A) (A) (A) (A) (A) (A) (A) (A) (A)
                 (A) (A) (A) (A) (A) (A) (A) (A) (A) (A) (A) (A)
                 (A) (A) (A) (A) (A) (A) (A) (A) (A) (A) (A) (A)
                 (A) (A) (A) (A) (A) (A) (A) (A) (A) (A) (A) (A)
                 (A) (A) (A) (A) (A) (A) (A) (A) (A) (A) (A) (A)
                 (A) (A) (A) (A) (A) (A) (A) (A) (A) (A) (A) (A)
                 (A) (A) (A) (A) (A) (A) (A) (A) (A) (A) (A) (A)
                 (A) (A)
 The electronic state is 1-A.
 Alpha  occ. eigenvalues --  -19.23725 -19.23725 -19.18205 -19.18205 -14.44627
 Alpha  occ. eigenvalues --  -14.44570 -10.37145 -10.37145 -10.26117 -10.26117
 Alpha  occ. eigenvalues --   -1.17250  -1.15985  -1.08950  -1.07048  -1.06798
 Alpha  occ. eigenvalues --   -0.83006  -0.76169  -0.72642  -0.62821  -0.59078
 Alpha  occ. eigenvalues --   -0.58094  -0.54331  -0.52170  -0.51511  -0.51058
 Alpha  occ. eigenvalues --   -0.48641  -0.46353  -0.46188  -0.43414  -0.42571
 Alpha  occ. eigenvalues --   -0.40921  -0.39236  -0.39119  -0.34200  -0.34007
 Alpha  occ. eigenvalues --   -0.33899  -0.33015  -0.27671
 Alpha virt. eigenvalues --   -0.10684  -0.01440  -0.01079   0.00794   0.01135
 Alpha virt. eigenvalues --    0.02617   0.03430   0.03717   0.04014   0.05043
 Alpha virt. eigenvalues --    0.05315   0.07635   0.07925   0.08609   0.09460
 Alpha virt. eigenvalues --    0.09748   0.11813   0.12511   0.14039   0.14985
 Alpha virt. eigenvalues --    0.15084   0.15320   0.15423   0.17457   0.18264
 Alpha virt. eigenvalues --    0.18748   0.19047   0.20954   0.21248   0.21990
 Alpha virt. eigenvalues --    0.22688   0.23397   0.24792   0.24977   0.25172
 Alpha virt. eigenvalues --    0.25843   0.26110   0.26719   0.27088   0.28126
 Alpha virt. eigenvalues --    0.29348   0.29685   0.30630   0.30826   0.32258
 Alpha virt. eigenvalues --    0.32398   0.34509   0.34543   0.36098   0.36366
 Alpha virt. eigenvalues --    0.37543   0.38310   0.39385   0.42439   0.45705
 Alpha virt. eigenvalues --    0.46372   0.50367   0.53719   0.63971   0.64933
 Alpha virt. eigenvalues --    0.67682   0.70052   0.70292   0.72553   0.75064
 Alpha virt. eigenvalues --    0.76346   0.76717   0.80604   0.81326   0.83611
 Alpha virt. eigenvalues --    0.86536   0.87230   0.88068   0.89863   0.91941
 Alpha virt. eigenvalues --    0.94067   0.94908   0.98101   0.98456   1.01701
 Alpha virt. eigenvalues --    1.04787   1.05047   1.11454   1.15004   1.15221
 Alpha virt. eigenvalues --    1.16931   1.19053   1.19642   1.21901   1.23502
 Alpha virt. eigenvalues --    1.26027   1.26997   1.28510   1.28705   1.31271
 Alpha virt. eigenvalues --    1.32120   1.33295   1.35028   1.36185   1.41486
 Alpha virt. eigenvalues --    1.42197   1.44376   1.46606   1.47147   1.50876
 Alpha virt. eigenvalues --    1.52930   1.58221   1.58791   1.63132   1.65870
 Alpha virt. eigenvalues --    1.66092   1.71116   1.73011   1.75500   1.82104
 Alpha virt. eigenvalues --    1.83758   1.84814   1.85741   1.89937   1.90391
 Alpha virt. eigenvalues --    1.90800   1.90965   1.93183   1.96195   1.96387
 Alpha virt. eigenvalues --    1.97858   1.98907   2.00445   2.00799   2.03686
 Alpha virt. eigenvalues --    2.04571   2.07126   2.09415   2.11163   2.13953
 Alpha virt. eigenvalues --    2.19612   2.20931   2.31627   2.37854   2.40230
 Alpha virt. eigenvalues --    2.42150   2.44040   2.48199   2.48334   2.50354
 Alpha virt. eigenvalues --    2.58140   2.58311   2.63063   2.65805   2.70225
 Alpha virt. eigenvalues --    2.72083   2.72945   2.74946   2.75392   2.83348
 Alpha virt. eigenvalues --    2.83434   2.83784   2.88416   2.95048   3.00193
 Alpha virt. eigenvalues --    3.05497   3.07339   3.11392   3.18680   3.19963
 Alpha virt. eigenvalues --    3.22910   3.22992   3.25884   3.39539   3.39628
 Alpha virt. eigenvalues --    3.43462   3.43496   4.02454   4.09807   4.30294
 Alpha virt. eigenvalues --    4.32033   4.37928   4.47723   4.51214   4.54333
 Alpha virt. eigenvalues --    4.57495   4.65142
          Condensed to atoms (all electrons):
               1          2          3          4          5          6
     1  N    6.793282   0.330933   0.126221  -0.060087  -0.027708   0.003556
     2  N    0.330933   6.793141  -0.060092   0.126182   0.003586  -0.027695
     3  C    0.126221  -0.060092   4.824886  -0.030609  -0.001039   0.490085
     4  C   -0.060087   0.126182  -0.030609   4.824873   0.490096  -0.001039
     5  O   -0.027708   0.003586  -0.001039   0.490096   8.177895  -0.000250
     6  O    0.003556  -0.027695   0.490085  -0.001039  -0.000250   8.177918
     7  O    0.006193  -0.053326  -0.017294   0.222766  -0.168718  -0.000795
     8  O   -0.053363   0.006223   0.222740  -0.017296  -0.000795  -0.168714
     9  C    0.007827   0.001062  -0.107473  -0.002867   0.000471  -0.022252
    10  H   -0.002545   0.000775   0.010317  -0.000183   0.000003   0.000081
    11  H   -0.001564   0.000758  -0.013182   0.000078  -0.000001   0.004376
    12  H    0.002774  -0.001654  -0.014295  -0.000174   0.000001   0.003583
    13  C    0.001066   0.007832  -0.002867  -0.107482  -0.022253   0.000471
    14  H    0.000776  -0.002546  -0.000183   0.010316   0.000081   0.000003
    15  H   -0.001654   0.002774  -0.000174  -0.014294   0.003582   0.000001
    16  H    0.000758  -0.001563   0.000078  -0.013182   0.004376  -0.000001
               7          8          9         10         11         12
     1  N    0.006193  -0.053363   0.007827  -0.002545  -0.001564   0.002774
     2  N   -0.053326   0.006223   0.001062   0.000775   0.000758  -0.001654
     3  C   -0.017294   0.222740  -0.107473   0.010317  -0.013182  -0.014295
     4  C    0.222766  -0.017296  -0.002867  -0.000183   0.000078  -0.000174
     5  O   -0.168718  -0.000795   0.000471   0.000003  -0.000001   0.000001
     6  O   -0.000795  -0.168714  -0.022252   0.000081   0.004376   0.003583
     7  O    8.358319   0.000977   0.000526   0.000000   0.000000   0.000001
     8  O    0.000977   8.358354   0.084865  -0.055535  -0.037432  -0.037785
     9  C    0.000526   0.084865   5.006375   0.409536   0.411032   0.411744
    10  H    0.000000  -0.055535   0.409536   0.520854  -0.026058  -0.026987
    11  H    0.000000  -0.037432   0.411032  -0.026058   0.520267  -0.031572
    12  H    0.000001  -0.037785   0.411744  -0.026987  -0.031572   0.521039
    13  C    0.084870   0.000526  -0.000102   0.000000   0.000001  -0.000003
    14  H   -0.055534   0.000000   0.000000   0.000000   0.000000   0.000000
    15  H   -0.037784   0.000001  -0.000003   0.000000   0.000000   0.000000
    16  H   -0.037433   0.000000   0.000001   0.000000   0.000000   0.000000
              13         14         15         16
     1  N    0.001066   0.000776  -0.001654   0.000758
     2  N    0.007832  -0.002546   0.002774  -0.001563
     3  C   -0.002867  -0.000183  -0.000174   0.000078
     4  C   -0.107482   0.010316  -0.014294  -0.013182
     5  O   -0.022253   0.000081   0.003582   0.004376
     6  O    0.000471   0.000003   0.000001  -0.000001
     7  O    0.084870  -0.055534  -0.037784  -0.037433
     8  O    0.000526   0.000000   0.000001   0.000000
     9  C   -0.000102   0.000000  -0.000003   0.000001
    10  H    0.000000   0.000000   0.000000   0.000000
    11  H    0.000001   0.000000   0.000000   0.000000
    12  H   -0.000003   0.000000   0.000000   0.000000
    13  C    5.006377   0.409536   0.411742   0.411032
    14  H    0.409536   0.520854  -0.026988  -0.026058
    15  H    0.411742  -0.026988   0.521039  -0.031572
    16  H    0.411032  -0.026058  -0.031572   0.520265
 Mulliken charges:
               1
     1  N   -0.126464
     2  N   -0.126387
     3  C    0.572882
     4  C    0.572901
     5  O   -0.459328
     6  O   -0.459329
     7  O   -0.302766
     8  O   -0.302764
     9  C   -0.200740
    10  H    0.169742
    11  H    0.173298
    12  H    0.173330
    13  C   -0.200747
    14  H    0.169742
    15  H    0.173331
    16  H    0.173300
 Sum of Mulliken charges =   0.00000
 Mulliken charges with hydrogens summed into heavy atoms:
               1
     1  N   -0.126464
     2  N   -0.126387
     3  C    0.572882
     4  C    0.572901
     5  O   -0.459328
     6  O   -0.459329
     7  O   -0.302766
     8  O   -0.302764
     9  C    0.315630
    13  C    0.315626
 Electronic spatial extent (au):  <R**2>=           2030.7763
 Charge=              0.0000 electrons
 Dipole moment (field-independent basis, Debye):
    X=             -0.0001    Y=             -0.0001    Z=              0.0006  Tot=              0.0006
 Quadrupole moment (field-independent basis, Debye-Ang):
   XX=            -32.2632   YY=            -67.3373   ZZ=            -56.7976
   XY=            -12.7007   XZ=             -0.2216   YZ=             -0.4546
 Traceless Quadrupole moment (field-independent basis, Debye-Ang):
   XX=             19.8695   YY=            -15.2046   ZZ=             -4.6649
   XY=            -12.7007   XZ=             -0.2216   YZ=             -0.4546
 Octapole moment (field-independent basis, Debye-Ang**2):
  XXX=             -0.0027  YYY=             -0.0012  ZZZ=              0.0000  XYY=             -0.0008
  XXY=             -0.0009  XXZ=              0.0064  XZZ=              0.0010  YZZ=              0.0003
  YYZ=              0.0028  XYZ=              0.0016
 Hexadecapole moment (field-independent basis, Debye-Ang**3):
 XXXX=          -1665.1330 YYYY=           -340.4892 ZZZZ=            -84.1794 XXXY=           -136.9200
 XXXZ=              1.9771 YYYX=            -49.1762 YYYZ=              0.7362 ZZZX=              2.0502
 ZZZY=              2.0533 XXYY=           -435.6839 XXZZ=           -357.3936 YYZZ=            -68.3683
 XXYZ=             -9.9805 YYXZ=             -4.3529 ZZXY=              5.4512
 N-N= 5.244311506826D+02 E-N=-2.373956869171D+03  KE= 5.615931773961D+02
 D1PCM: C-PCM CHGder 1st derivatives, ID1Alg=3 FixD1E=F DoIter=F DoCFld=F I1PDM=0.
 Calling FoFJK, ICntrl=      2127 FMM=F ISym2X=0 I1Cent= 0 IOpClX= 0 NMat=1 NMatS=1 NMatT=0.
 ***** Axes restored to original set *****
 -------------------------------------------------------------------
 Center     Atomic                   Forces (Hartrees/Bohr)
 Number     Number              X              Y              Z
 -------------------------------------------------------------------
      1        7           0.006589480   -0.008693992    0.015322736
      2        7          -0.006589804    0.008688010   -0.015320856
      3        6          -0.009212258    0.014812341    0.001712112
      4        6           0.009212253   -0.014808837   -0.001721511
      5        8          -0.008015500    0.026657927    0.003947497
      6        8           0.008013616   -0.026656490   -0.003939120
      7        8           0.005126843   -0.011741222   -0.002745646
      8        8          -0.005124310    0.011742690    0.002745975
      9        6           0.015268677   -0.000988136   -0.002344496
     10        1          -0.001621947   -0.002624892   -0.000141438
     11        1          -0.000642759    0.002252605   -0.001914926
     12        1          -0.000221398    0.001334075    0.002730502
     13        6          -0.015269186    0.000987790    0.002343933
     14        1           0.001622120    0.002624804    0.000142331
     15        1           0.000222027   -0.001333160   -0.002731284
     16        1           0.000642143   -0.002253514    0.001914189
 -------------------------------------------------------------------
 Cartesian Forces:  Max     0.026657927 RMS     0.008875406

 GradGradGradGradGradGradGradGradGradGradGradGradGradGradGradGradGradGrad
 Berny optimization.
 FormGI is forming the generalized inverse of G from B-inverse, IUseBI=4.
 Internal  Forces:  Max     0.027956895 RMS     0.007579250
 Search for a local minimum.
 Step number   1 out of a maximum of   62
 All quantities printed in internal units (Hartrees-Bohrs-Radians)
 Mixed Optimization -- RFO/linear search
 Second derivative matrix not updated -- first step.
 ITU=  0
     Eigenvalues ---    0.01124   0.01124   0.01306   0.01306   0.02056
     Eigenvalues ---    0.02056   0.02820   0.02820   0.03566   0.10309
     Eigenvalues ---    0.10309   0.10656   0.10656   0.16000   0.16000
     Eigenvalues ---    0.16000   0.16000   0.16000   0.16000   0.24982
     Eigenvalues ---    0.24982   0.25000   0.25000   0.25000   0.25000
     Eigenvalues ---    0.25000   0.25000   0.33984   0.33984   0.33992
     Eigenvalues ---    0.33992   0.34473   0.34473   0.39185   0.39186
     Eigenvalues ---    0.41110   0.41110   0.63266   0.63267   0.91792
     Eigenvalues ---    1.08361   1.08361
 RFO step:  Lambda=-4.53298939D-03 EMin= 1.12378803D-02
 Linear search not attempted -- first point.
 Iteration  1 RMS(Cart)=  0.05779453 RMS(Int)=  0.00074318
 Iteration  2 RMS(Cart)=  0.00102796 RMS(Int)=  0.00023109
 Iteration  3 RMS(Cart)=  0.00000251 RMS(Int)=  0.00023109
 Iteration  4 RMS(Cart)=  0.00000000 RMS(Int)=  0.00023109
 Variable       Old X    -DE/DX   Delta X   Delta X   Delta X     New X
                                 (Linear)    (Quad)   (Total)
    R1        2.32118   0.02097   0.00000   0.02273   0.02273   2.34391
    R2        2.72676   0.00651   0.00000   0.01644   0.01644   2.74319
    R3        2.72675   0.00651   0.00000   0.01644   0.01644   2.74319
    R4        2.25466   0.02795   0.00000   0.02569   0.02569   2.28035
    R5        2.48445   0.01400   0.00000   0.02196   0.02196   2.50642
    R6        2.25466   0.02796   0.00000   0.02569   0.02569   2.28035
    R7        2.48445   0.01399   0.00000   0.02196   0.02196   2.50642
    R8        2.70072   0.01287   0.00000   0.03095   0.03095   2.73167
    R9        2.70072   0.01287   0.00000   0.03095   0.03095   2.73167
   R10        2.06538  -0.00302   0.00000  -0.00866  -0.00866   2.05673
   R11        2.07357  -0.00293   0.00000  -0.00852  -0.00852   2.06506
   R12        2.07344  -0.00302   0.00000  -0.00876  -0.00876   2.06469
   R13        2.06538  -0.00302   0.00000  -0.00866  -0.00866   2.05673
   R14        2.07344  -0.00302   0.00000  -0.00876  -0.00876   2.06469
   R15        2.07357  -0.00293   0.00000  -0.00852  -0.00852   2.06505
    A1        1.97056   0.00302   0.00000   0.01185   0.01185   1.98240
    A2        1.97055   0.00302   0.00000   0.01186   0.01186   1.98241
    A3        2.11862  -0.00349   0.00000  -0.01470  -0.01528   2.10334
    A4        1.93828   0.00023   0.00000  -0.00008  -0.00068   1.93760
    A5        2.22474   0.00318   0.00000   0.01144   0.01082   2.23556
    A6        2.11862  -0.00349   0.00000  -0.01468  -0.01525   2.10336
    A7        1.93828   0.00023   0.00000  -0.00010  -0.00069   1.93759
    A8        2.22474   0.00318   0.00000   0.01145   0.01083   2.23557
    A9        2.01943   0.00466   0.00000   0.01831   0.01831   2.03774
   A10        2.01943   0.00466   0.00000   0.01830   0.01830   2.03774
   A11        1.85153  -0.00145   0.00000  -0.01005  -0.01005   1.84149
   A12        1.92004   0.00112   0.00000   0.00742   0.00740   1.92745
   A13        1.91843   0.00064   0.00000   0.00455   0.00453   1.92295
   A14        1.93354  -0.00028   0.00000  -0.00292  -0.00292   1.93062
   A15        1.93100  -0.00007   0.00000  -0.00167  -0.00167   1.92933
   A16        1.90878   0.00003   0.00000   0.00253   0.00249   1.91126
   A17        1.85153  -0.00145   0.00000  -0.01005  -0.01005   1.84149
   A18        1.91843   0.00064   0.00000   0.00454   0.00452   1.92295
   A19        1.92004   0.00112   0.00000   0.00742   0.00741   1.92745
   A20        1.93099  -0.00007   0.00000  -0.00167  -0.00167   1.92933
   A21        1.93354  -0.00028   0.00000  -0.00292  -0.00292   1.93062
   A22        1.90878   0.00003   0.00000   0.00253   0.00249   1.91127
    D1        3.14157   0.00000   0.00000   0.00008   0.00008  -3.14154
    D2       -1.98408   0.00008   0.00000   0.01871   0.01903  -1.96505
    D3        1.21295   0.00145   0.00000   0.07821   0.07788   1.29084
    D4        1.98391  -0.00008   0.00000  -0.01879  -0.01911   1.96480
    D5       -1.21319  -0.00145   0.00000  -0.07806  -0.07774  -1.29092
    D6        3.08007  -0.00119   0.00000  -0.04214  -0.04237   3.03770
    D7       -0.00189   0.00056   0.00000   0.02293   0.02316   0.02127
    D8       -3.08002   0.00119   0.00000   0.04201   0.04224  -3.03778
    D9        0.00186  -0.00056   0.00000  -0.02280  -0.02303  -0.02117
   D10        3.08550   0.00005   0.00000   0.00287   0.00286   3.08837
   D11       -1.10946  -0.00053   0.00000  -0.00251  -0.00254  -1.11200
   D12        0.99338   0.00063   0.00000   0.00822   0.00826   1.00163
   D13       -3.08561  -0.00005   0.00000  -0.00286  -0.00285  -3.08846
   D14       -0.99349  -0.00063   0.00000  -0.00821  -0.00825  -1.00173
   D15        1.10935   0.00053   0.00000   0.00252   0.00255   1.11190
         Item               Value     Threshold  Converged?
 Maximum Force            0.027957     0.000450     NO 
 RMS     Force            0.007579     0.000300     NO 
 Maximum Displacement     0.165678     0.001800     NO 
 RMS     Displacement     0.058128     0.001200     NO 
 Predicted change in Energy=-2.322503D-03
 GradGradGradGradGradGradGradGradGradGradGradGradGradGradGradGradGradGrad

                          Input orientation:                          
 ---------------------------------------------------------------------
 Center     Atomic      Atomic             Coordinates (Angstroms)
 Number     Number       Type             X           Y           Z
 ---------------------------------------------------------------------
      1          7           0        0.333394   -0.277041    0.443456
      2          7           0       -0.333410    0.276934   -0.443640
      3          6           0        1.725390   -0.477734    0.083849
      4          6           0       -1.725387    0.477696   -0.084010
      5          8           0       -2.160451    1.590653    0.083887
      6          8           0        2.160547   -1.590690   -0.083816
      7          8           0       -2.396132   -0.665914   -0.121815
      8          8           0        2.396076    0.665914    0.121597
      9          6           0        3.824594    0.589688   -0.086023
     10          1           0        4.191146    1.607164    0.036194
     11          1           0        4.282245   -0.075251    0.650579
     12          1           0        4.040106    0.222825   -1.092356
     13          6           0       -3.824631   -0.589638    0.085926
     14          1           0       -4.191255   -1.607068   -0.036456
     15          1           0       -4.040043   -0.222956    1.092347
     16          1           0       -4.282297    0.075472   -0.650512
 ---------------------------------------------------------------------
                    Distance matrix (angstroms):
                    1          2          3          4          5
     1  N    0.000000
     2  N    1.240345   0.000000
     3  C    1.451636   2.255311   0.000000
     4  C    2.255311   1.451633   3.584534   0.000000
     5  O    3.136373   2.311324   4.402043   1.206708   0.000000
     6  O    2.311314   3.136449   1.206708   4.402124   5.368434
     7  O    2.814439   2.290710   4.130938   1.326338   2.278148
     8  O    2.290723   2.814408   1.326339   4.130878   4.649570
     9  C    3.635938   4.185058   2.361123   5.551111   6.070549
    10  H    4.312579   4.740397   3.229399   6.024575   6.351797
    11  H    3.959424   4.756640   2.649657   6.077583   6.678675
    12  H    4.043303   4.421697   2.689266   5.858552   6.457663
    13  C    4.185060   3.635933   5.551150   2.361124   2.742840
    14  H    4.740437   4.312566   6.024663   3.229398   3.789997
    15  H    4.421644   4.043299   5.858514   2.689305   2.799828
    16  H    4.756641   3.959430   6.077633   2.649622   2.708754
                    6          7          8          9         10
     6  O    0.000000
     7  O    4.649728   0.000000
     8  O    2.278142   4.979786   0.000000
     9  C    2.742828   6.346279   1.445539   0.000000
    10  H    3.789987   6.970228   2.028675   1.088373   0.000000
    11  H    2.708781   6.748792   2.094465   1.092780   1.793401
    12  H    2.799774   6.569396   2.091135   1.092585   1.792438
    13  C    6.070690   1.445540   6.346249   7.741513   8.311504
    14  H    6.352000   2.028676   6.970248   8.311560   8.977818
    15  H    6.457659   2.091134   6.569327   7.993839   8.498074
    16  H    6.678882   2.094467   6.748736   8.142773   8.638106
                   11         12         13         14         15
    11  H    0.000000
    12  H    1.784741   0.000000
    13  C    8.142780   7.993907   0.000000
    14  H    8.638211   8.498161   1.088373   0.000000
    15  H    8.335313   8.382151   1.092585   1.792437   0.000000
    16  H    8.664117   8.335426   1.092780   1.793403   1.784742
                   16
    16  H    0.000000
 Stoichiometry    C4H6N2O4
 Framework group  C1[X(C4H6N2O4)]
 Deg. of freedom    42
 Full point group                 C1      NOp   1
 Largest Abelian subgroup         C1      NOp   1
 Largest concise Abelian subgroup C1      NOp   1
                         Standard orientation:                         
 ---------------------------------------------------------------------
 Center     Atomic      Atomic             Coordinates (Angstroms)
 Number     Number       Type             X           Y           Z
 ---------------------------------------------------------------------
      1          7           0        0.331480    0.276576   -0.445228
      2          7           0       -0.331493   -0.276489    0.445301
      3          6           0        1.723963    0.481743   -0.090060
      4          6           0       -1.723957   -0.481726    0.090111
      5          8           0       -2.156722   -1.596234   -0.073383
      6          8           0        2.156820    1.596250    0.073201
      7          8           0       -2.397429    0.660327    0.126492
      8          8           0        2.397375   -0.660347   -0.126384
      9          6           0        3.826269   -0.579993    0.077053
     10          1           0        4.195003   -1.596907   -0.043258
     11          1           0        4.280231    0.083953   -0.662720
     12          1           0        4.043654   -0.209703    1.081728
     13          6           0       -3.826304    0.579922   -0.077067
     14          1           0       -4.195110    1.596791    0.043410
     15          1           0       -4.043588    0.209814   -1.081830
     16          1           0       -4.280280   -0.084194    0.662544
 ---------------------------------------------------------------------
 Rotational constants (GHZ):      4.0101184      0.5783070      0.5155353
 Standard basis: 6-31+G(d,p) (6D, 7F)
 There are   220 symmetry adapted cartesian basis functions of A   symmetry.
 There are   220 symmetry adapted basis functions of A   symmetry.
   220 basis functions,   362 primitive gaussians,   220 cartesian basis functions
    38 alpha electrons       38 beta electrons
       nuclear repulsion energy       518.5846166804 Hartrees.
 NAtoms=   16 NActive=   16 NUniq=   16 SFac= 1.00D+00 NAtFMM=   60 NAOKFM=F Big=F
 Integral buffers will be    131072 words long.
 Raffenetti 2 integral format.
 Two-electron integral symmetry is turned on.
 Nuclear repulsion after empirical dispersion term =      518.5747501293 Hartrees.
 ------------------------------------------------------------------------------
 Polarizable Continuum Model (PCM)
 =================================
 Model                : C-PCM.
 Atomic radii         : UFF (Universal Force Field).
 Polarization charges : Total charges.
 Charge compensation  : None.
 Solution method      : On-the-fly selection.
 Cavity type          : Scaled VdW (van der Waals Surface) (Alpha=1.100).
 Cavity algorithm     : GePol (No added spheres)
                        Default sphere list used, NSphG=   16.
                        Lebedev-Laikov grids with approx.  5.0 points / Ang**2.
                        Smoothing algorithm: Karplus/York (Gamma=1.0000).
                        Polarization charges: spherical gaussians, with
                                              point-specific exponents (IZeta= 3).
                        Self-potential: point-specific (ISelfS= 7).
                        Self-field    : sphere-specific E.n sum rule (ISelfD= 2).
 1st derivatives      : Analytical E(r).r(x)/FMM algorithm (CHGder, D1EAlg=3).
                        Cavity 1st derivative terms included.
 Solvent              : Toluene, Eps=   2.374100 Eps(inf)=   2.238315
 ------------------------------------------------------------------------------
 Spheres list:
 ISph  on   Nord     Re0    Alpha      Xe            Ye            Ze
    1   N      1    1.8300  1.100      0.331480      0.276576     -0.445228
    2   N      2    1.8300  1.100     -0.331493     -0.276489      0.445301
    3   C      3    1.9255  1.100      1.723963      0.481743     -0.090060
    4   C      4    1.9255  1.100     -1.723957     -0.481726      0.090111
    5   O      5    1.7500  1.100     -2.156722     -1.596234     -0.073383
    6   O      6    1.7500  1.100      2.156820      1.596250      0.073201
    7   O      7    1.7500  1.100     -2.397429      0.660327      0.126492
    8   O      8    1.7500  1.100      2.397375     -0.660347     -0.126384
    9   C      9    1.9255  1.100      3.826269     -0.579993      0.077053
   10   H     10    1.4430  1.100      4.195003     -1.596907     -0.043258
   11   H     11    1.4430  1.100      4.280231      0.083953     -0.662720
   12   H     12    1.4430  1.100      4.043654     -0.209703      1.081728
   13   C     13    1.9255  1.100     -3.826304      0.579922     -0.077067
   14   H     14    1.4430  1.100     -4.195110      1.596791      0.043410
   15   H     15    1.4430  1.100     -4.043588      0.209814     -1.081830
   16   H     16    1.4430  1.100     -4.280280     -0.084194      0.662544
 ------------------------------------------------------------------------------
 One-electron integrals computed using PRISM.
 NBasis=   220 RedAO= T EigKep=  6.95D-05  NBF=   220
 NBsUse=   220 1.00D-06 EigRej= -1.00D+00 NBFU=   220
 Initial guess from the checkpoint file:  "b3lyp_m062x_dmad_cycloaddition_PM6_toluene.chk"
 B after Tr=     0.000000    0.000000    0.000000
         Rot=    0.999994    0.002892    0.000171   -0.001878 Ang=   0.40 deg.
 ExpMin= 4.38D-02 ExpMax= 5.48D+03 ExpMxC= 8.25D+02 IAcc=2 IRadAn=         4 AccDes= 0.00D+00
 Harris functional with IExCor=  402 and IRadAn=       4 diagonalized for initial guess.
 HarFok:  IExCor=  402 AccDes= 0.00D+00 IRadAn=         4 IDoV= 1 UseB2=F ITyADJ=14
 ICtDFT=  3500011 ScaDFX=  1.000000  1.000000  1.000000  1.000000
 FoFCou: FMM=F IPFlag=           0 FMFlag=      100000 FMFlg1=           0
         NFxFlg=           0 DoJE=T BraDBF=F KetDBF=T FulRan=T
         wScrn=  0.000000 ICntrl=     500 IOpCl=  0 I1Cent=   200000004 NGrid=           0
         NMat0=    1 NMatS0=      1 NMatT0=    0 NMatD0=    1 NMtDS0=    0 NMtDT0=    0
 Petite list used in FoFCou.
 Requested convergence on RMS density matrix=1.00D-08 within 128 cycles.
 Requested convergence on MAX density matrix=1.00D-06.
 Requested convergence on             energy=1.00D-06.
 No special actions if energy rises.
 Inv3:  Mode=1 IEnd=     7404123.
 Iteration    1 A*A^-1 deviation from unit magnitude is 4.22D-15 for    362.
 Iteration    1 A*A^-1 deviation from orthogonality  is 2.46D-15 for   1512   1091.
 Iteration    1 A^-1*A deviation from unit magnitude is 4.44D-15 for    362.
 Iteration    1 A^-1*A deviation from orthogonality  is 1.46D-15 for   1532   1160.
 Error on total polarization charges =  0.00716
 SCF Done:  E(RB3LYP) =  -566.427357648     A.U. after   11 cycles
            NFock= 11  Conv=0.85D-08     -V/T= 2.0091
 D1PCM: C-PCM CHGder 1st derivatives, ID1Alg=3 FixD1E=F DoIter=F DoCFld=F I1PDM=0.
 Calling FoFJK, ICntrl=      2127 FMM=F ISym2X=0 I1Cent= 0 IOpClX= 0 NMat=1 NMatS=1 NMatT=0.
 ***** Axes restored to original set *****
 -------------------------------------------------------------------
 Center     Atomic                   Forces (Hartrees/Bohr)
 Number     Number              X              Y              Z
 -------------------------------------------------------------------
      1        7           0.000545604    0.000840319    0.000302629
      2        7          -0.000546239   -0.000831885   -0.000309317
      3        6           0.000627269    0.002284115    0.005250942
      4        6          -0.000624476   -0.002292391   -0.005227127
      5        8          -0.000772087    0.002088434    0.002749392
      6        8           0.000773521   -0.002090733   -0.002759204
      7        8           0.004644264   -0.000704365    0.000797829
      8        8          -0.004647902    0.000706771   -0.000805059
      9        6           0.005233572   -0.001638165   -0.001117427
     10        1          -0.000881658    0.000243078    0.000146694
     11        1          -0.001218638    0.000031208    0.000327346
     12        1          -0.001006053    0.000114804    0.000106465
     13        6          -0.005233301    0.001637888    0.001117938
     14        1           0.000881465   -0.000243014   -0.000146973
     15        1           0.001006360   -0.000114603   -0.000106555
     16        1           0.001218301   -0.000031462   -0.000327572
 -------------------------------------------------------------------
 Cartesian Forces:  Max     0.005250942 RMS     0.002084177

 GradGradGradGradGradGradGradGradGradGradGradGradGradGradGradGradGradGrad
 Berny optimization.
 Using GEDIIS/GDIIS optimizer.
 FormGI is forming the generalized inverse of G from B-inverse, IUseBI=4.
 Internal  Forces:  Max     0.003379745 RMS     0.001448374
 Search for a local minimum.
 Step number   2 out of a maximum of   62
 All quantities printed in internal units (Hartrees-Bohrs-Radians)
 Mixed Optimization -- RFO/linear search
 Update second derivatives using D2CorX and points    1    2
 DE= -2.02D-03 DEPred=-2.32D-03 R= 8.69D-01
 TightC=F SS=  1.41D+00  RLast= 1.59D-01 DXNew= 5.0454D-01 4.7807D-01
 Trust test= 8.69D-01 RLast= 1.59D-01 DXMaxT set to 4.78D-01
 ITU=  1  0
 Use linear search instead of GDIIS.
     Eigenvalues ---    0.01087   0.01124   0.01306   0.01306   0.02144
     Eigenvalues ---    0.02615   0.02820   0.02834   0.03566   0.10240
     Eigenvalues ---    0.10241   0.10698   0.10699   0.15802   0.16000
     Eigenvalues ---    0.16000   0.16000   0.16000   0.16170   0.24648
     Eigenvalues ---    0.24922   0.24997   0.25000   0.25000   0.25000
     Eigenvalues ---    0.25000   0.26959   0.33676   0.33984   0.33988
     Eigenvalues ---    0.33992   0.34450   0.34473   0.38328   0.39185
     Eigenvalues ---    0.39966   0.41110   0.63267   0.65042   0.89650
     Eigenvalues ---    1.01192   1.08361
 RFO step:  Lambda=-1.39418639D-03 EMin= 1.08729878D-02
 Quartic linear search produced a step of -0.08759.
 Iteration  1 RMS(Cart)=  0.03560636 RMS(Int)=  0.00172222
 Iteration  2 RMS(Cart)=  0.00319760 RMS(Int)=  0.00102663
 Iteration  3 RMS(Cart)=  0.00000138 RMS(Int)=  0.00102663
 Iteration  4 RMS(Cart)=  0.00000000 RMS(Int)=  0.00102663
 Variable       Old X    -DE/DX   Delta X   Delta X   Delta X     New X
                                 (Linear)    (Quad)   (Total)
    R1        2.34391   0.00052  -0.00199   0.00968   0.00769   2.35160
    R2        2.74319  -0.00131  -0.00144   0.00355   0.00211   2.74530
    R3        2.74319  -0.00131  -0.00144   0.00355   0.00211   2.74530
    R4        2.28035   0.00259  -0.00225   0.01255   0.01030   2.29064
    R5        2.50642  -0.00178  -0.00192   0.00628   0.00436   2.51077
    R6        2.28035   0.00259  -0.00225   0.01255   0.01030   2.29064
    R7        2.50642  -0.00178  -0.00192   0.00628   0.00436   2.51077
    R8        2.73167   0.00224  -0.00271   0.01742   0.01470   2.74638
    R9        2.73167   0.00224  -0.00271   0.01742   0.01470   2.74638
   R10        2.05673  -0.00005   0.00076  -0.00361  -0.00286   2.05387
   R11        2.06506  -0.00031   0.00075  -0.00424  -0.00350   2.06156
   R12        2.06469  -0.00034   0.00077  -0.00442  -0.00365   2.06103
   R13        2.05673  -0.00005   0.00076  -0.00361  -0.00286   2.05387
   R14        2.06469  -0.00034   0.00077  -0.00442  -0.00365   2.06103
   R15        2.06505  -0.00031   0.00075  -0.00424  -0.00350   2.06156
    A1        1.98240  -0.00151  -0.00104  -0.00077  -0.00181   1.98060
    A2        1.98241  -0.00152  -0.00104  -0.00079  -0.00182   1.98058
    A3        2.10334   0.00079   0.00134   0.00175   0.00006   2.10341
    A4        1.93760  -0.00045   0.00006   0.00324   0.00027   1.93787
    A5        2.23556   0.00010  -0.00095   0.01013   0.00615   2.24171
    A6        2.10336   0.00078   0.00134   0.00171   0.00005   2.10341
    A7        1.93759  -0.00045   0.00006   0.00322   0.00028   1.93787
    A8        2.23557   0.00010  -0.00095   0.01010   0.00614   2.24171
    A9        2.03774  -0.00338  -0.00160  -0.00496  -0.00657   2.03117
   A10        2.03774  -0.00338  -0.00160  -0.00497  -0.00657   2.03116
   A11        1.84149  -0.00094   0.00088  -0.00930  -0.00845   1.83304
   A12        1.92745  -0.00143  -0.00065  -0.00524  -0.00591   1.92153
   A13        1.92295  -0.00092  -0.00040  -0.00337  -0.00378   1.91918
   A14        1.93062   0.00103   0.00026   0.00455   0.00477   1.93539
   A15        1.92933   0.00094   0.00015   0.00487   0.00499   1.93432
   A16        1.91126   0.00122  -0.00022   0.00784   0.00761   1.91888
   A17        1.84149  -0.00094   0.00088  -0.00930  -0.00844   1.83304
   A18        1.92295  -0.00092  -0.00040  -0.00337  -0.00378   1.91917
   A19        1.92745  -0.00143  -0.00065  -0.00524  -0.00591   1.92154
   A20        1.92933   0.00094   0.00015   0.00487   0.00499   1.93432
   A21        1.93062   0.00103   0.00026   0.00454   0.00477   1.93539
   A22        1.91127   0.00122  -0.00022   0.00784   0.00761   1.91888
    D1       -3.14154   0.00000  -0.00001  -0.00008  -0.00009   3.14156
    D2       -1.96505   0.00233  -0.00167   0.11446   0.11258  -1.85248
    D3        1.29084  -0.00139  -0.00682  -0.01492  -0.02153   1.26931
    D4        1.96480  -0.00232   0.00167  -0.11414  -0.11225   1.85255
    D5       -1.29092   0.00138   0.00681   0.01466   0.02126  -1.26967
    D6        3.03770   0.00196   0.00371   0.06383   0.06768   3.10538
    D7        0.02127  -0.00216  -0.00203  -0.07710  -0.07927  -0.05801
    D8       -3.03778  -0.00195  -0.00370  -0.06350  -0.06734  -3.10512
    D9       -0.02117   0.00215   0.00202   0.07679   0.07895   0.05778
   D10        3.08837  -0.00006  -0.00025   0.00042   0.00017   3.08854
   D11       -1.11200   0.00004   0.00022  -0.00094  -0.00071  -1.11271
   D12        1.00163   0.00002  -0.00072   0.00323   0.00248   1.00412
   D13       -3.08846   0.00006   0.00025  -0.00040  -0.00016  -3.08862
   D14       -1.00173  -0.00002   0.00072  -0.00321  -0.00247  -1.00420
   D15        1.11190  -0.00004  -0.00022   0.00096   0.00072   1.11262
         Item               Value     Threshold  Converged?
 Maximum Force            0.003380     0.000450     NO 
 RMS     Force            0.001448     0.000300     NO 
 Maximum Displacement     0.121076     0.001800     NO 
 RMS     Displacement     0.036427     0.001200     NO 
 Predicted change in Energy=-7.597498D-04
 GradGradGradGradGradGradGradGradGradGradGradGradGradGradGradGradGradGrad

                          Input orientation:                          
 ---------------------------------------------------------------------
 Center     Atomic      Atomic             Coordinates (Angstroms)
 Number     Number       Type             X           Y           Z
 ---------------------------------------------------------------------
      1          7           0        0.318736   -0.271916    0.460236
      2          7           0       -0.318668    0.271936   -0.459823
      3          6           0        1.722208   -0.479795    0.147920
      4          6           0       -1.722143    0.479770   -0.147507
      5          8           0       -2.138660    1.589699    0.105263
      6          8           0        2.138672   -1.589733   -0.104904
      7          8           0       -2.389639   -0.668902   -0.164706
      8          8           0        2.389651    0.668916    0.164661
      9          6           0        3.818720    0.589065   -0.087379
     10          1           0        4.181665    1.607560    0.023104
     11          1           0        4.291105   -0.073226    0.639500
     12          1           0        3.998522    0.220798   -1.098106
     13          6           0       -3.818774   -0.589046    0.086963
     14          1           0       -4.181751   -1.607484   -0.023944
     15          1           0       -3.998827   -0.221094    1.097761
     16          1           0       -4.290923    0.073506   -0.639830
 ---------------------------------------------------------------------
                    Distance matrix (angstroms):
                    1          2          3          4          5
     1  N    0.000000
     2  N    1.244414   0.000000
     3  C    1.452752   2.258235   0.000000
     4  C    2.258223   1.452749   3.587701   0.000000
     5  O    3.103291   2.316936   4.380746   1.212156   0.000000
     6  O    2.316936   3.103272   1.212157   4.380702   5.333717
     7  O    2.807748   2.293729   4.128049   1.328643   2.288483
     8  O    2.293734   2.807590   1.328644   4.127963   4.621360
     9  C    3.645690   4.166205   2.364992   5.542267   6.043902
    10  H    4.318070   4.719121   3.228243   6.012984   6.320885
    11  H    3.981372   4.751595   2.646919   6.089691   6.662778
    12  H    4.026416   4.364419   2.687939   5.804888   6.402109
    13  C    4.166401   3.645684   5.542395   2.364996   2.751372
    14  H    4.719381   4.318057   6.013148   3.228244   3.796431
    15  H    4.364673   4.026502   5.805116   2.687971   2.779252
    16  H    4.751675   3.981280   6.089700   2.646897   2.736100
                    6          7          8          9         10
     6  O    0.000000
     7  O    4.621375   0.000000
     8  O    2.288482   4.973917   0.000000
     9  C    2.751368   6.334996   1.453320   0.000000
    10  H    3.796430   6.956981   2.027907   1.086861   0.000000
    11  H    2.736219   6.755288   2.095656   1.090930   1.793589
    12  H    2.779121   6.517009   2.093767   1.090651   1.792697
    13  C    6.043952   1.453321   6.335065   7.729790   8.296757
    14  H    6.320966   2.027909   6.957074   8.296769   8.960214
    15  H    6.402224   2.093762   6.517318   7.948267   8.450995
    16  H    6.662748   2.095661   6.755130   8.144772   8.635830
                   11         12         13         14         15
    11  H    0.000000
    12  H    1.786430   0.000000
    13  C    8.145029   7.947978   0.000000
    14  H    8.636167   8.450639   1.086861   0.000000
    15  H    8.303905   8.305101   1.090651   1.792696   0.000000
    16  H    8.678100   8.303410   1.090930   1.793589   1.786430
                   16
    16  H    0.000000
 Stoichiometry    C4H6N2O4
 Framework group  C1[X(C4H6N2O4)]
 Deg. of freedom    42
 Full point group                 C1      NOp   1
 Largest Abelian subgroup         C1      NOp   1
 Largest concise Abelian subgroup C1      NOp   1
                         Standard orientation:                         
 ---------------------------------------------------------------------
 Center     Atomic      Atomic             Coordinates (Angstroms)
 Number     Number       Type             X           Y           Z
 ---------------------------------------------------------------------
      1          7           0        0.318373    0.267034   -0.463279
      2          7           0       -0.318318   -0.267058    0.462969
      3          6           0        1.720553    0.484495   -0.151683
      4          6           0       -1.720501   -0.484474    0.151372
      5          8           0       -2.132331   -1.599268   -0.087276
      6          8           0        2.132329    1.599299    0.087018
      7          8           0       -2.392467    0.661717    0.152364
      8          8           0        2.392465   -0.661729   -0.152216
      9          6           0        3.820829   -0.572982    0.100843
     10          1           0        4.187884   -1.591430    0.004404
     11          1           0        4.291750    0.081454   -0.634055
     12          1           0        3.997665   -0.190659    1.106864
     13          6           0       -3.820898    0.572970   -0.100326
     14          1           0       -4.187985    1.591367   -0.003461
     15          1           0       -3.997985    0.190960   -1.106421
     16          1           0       -4.291582   -0.081728    0.634491
 ---------------------------------------------------------------------
 Rotational constants (GHZ):      3.9694967      0.5816727      0.5188392
 Standard basis: 6-31+G(d,p) (6D, 7F)
 There are   220 symmetry adapted cartesian basis functions of A   symmetry.
 There are   220 symmetry adapted basis functions of A   symmetry.
   220 basis functions,   362 primitive gaussians,   220 cartesian basis functions
    38 alpha electrons       38 beta electrons
       nuclear repulsion energy       518.3299117669 Hartrees.
 NAtoms=   16 NActive=   16 NUniq=   16 SFac= 1.00D+00 NAtFMM=   60 NAOKFM=F Big=F
 Integral buffers will be    131072 words long.
 Raffenetti 2 integral format.
 Two-electron integral symmetry is turned on.
 Nuclear repulsion after empirical dispersion term =      518.3199672196 Hartrees.
 ------------------------------------------------------------------------------
 Polarizable Continuum Model (PCM)
 =================================
 Model                : C-PCM.
 Atomic radii         : UFF (Universal Force Field).
 Polarization charges : Total charges.
 Charge compensation  : None.
 Solution method      : On-the-fly selection.
 Cavity type          : Scaled VdW (van der Waals Surface) (Alpha=1.100).
 Cavity algorithm     : GePol (No added spheres)
                        Default sphere list used, NSphG=   16.
                        Lebedev-Laikov grids with approx.  5.0 points / Ang**2.
                        Smoothing algorithm: Karplus/York (Gamma=1.0000).
                        Polarization charges: spherical gaussians, with
                                              point-specific exponents (IZeta= 3).
                        Self-potential: point-specific (ISelfS= 7).
                        Self-field    : sphere-specific E.n sum rule (ISelfD= 2).
 1st derivatives      : Analytical E(r).r(x)/FMM algorithm (CHGder, D1EAlg=3).
                        Cavity 1st derivative terms included.
 Solvent              : Toluene, Eps=   2.374100 Eps(inf)=   2.238315
 ------------------------------------------------------------------------------
 Spheres list:
 ISph  on   Nord     Re0    Alpha      Xe            Ye            Ze
    1   N      1    1.8300  1.100      0.318373      0.267034     -0.463279
    2   N      2    1.8300  1.100     -0.318318     -0.267058      0.462969
    3   C      3    1.9255  1.100      1.720553      0.484495     -0.151683
    4   C      4    1.9255  1.100     -1.720501     -0.484474      0.151372
    5   O      5    1.7500  1.100     -2.132331     -1.599268     -0.087276
    6   O      6    1.7500  1.100      2.132329      1.599299      0.087018
    7   O      7    1.7500  1.100     -2.392467      0.661717      0.152364
    8   O      8    1.7500  1.100      2.392465     -0.661729     -0.152216
    9   C      9    1.9255  1.100      3.820829     -0.572982      0.100843
   10   H     10    1.4430  1.100      4.187884     -1.591430      0.004404
   11   H     11    1.4430  1.100      4.291750      0.081454     -0.634055
   12   H     12    1.4430  1.100      3.997665     -0.190659      1.106864
   13   C     13    1.9255  1.100     -3.820898      0.572970     -0.100326
   14   H     14    1.4430  1.100     -4.187985      1.591367     -0.003461
   15   H     15    1.4430  1.100     -3.997985      0.190960     -1.106421
   16   H     16    1.4430  1.100     -4.291582     -0.081728      0.634491
 ------------------------------------------------------------------------------
 One-electron integrals computed using PRISM.
 NBasis=   220 RedAO= T EigKep=  6.98D-05  NBF=   220
 NBsUse=   220 1.00D-06 EigRej= -1.00D+00 NBFU=   220
 Initial guess from the checkpoint file:  "b3lyp_m062x_dmad_cycloaddition_PM6_toluene.chk"
 B after Tr=     0.000000    0.000000    0.000000
         Rot=    0.999998    0.001704    0.000107   -0.001035 Ang=   0.23 deg.
 ExpMin= 4.38D-02 ExpMax= 5.48D+03 ExpMxC= 8.25D+02 IAcc=2 IRadAn=         4 AccDes= 0.00D+00
 Harris functional with IExCor=  402 and IRadAn=       4 diagonalized for initial guess.
 HarFok:  IExCor=  402 AccDes= 0.00D+00 IRadAn=         4 IDoV= 1 UseB2=F ITyADJ=14
 ICtDFT=  3500011 ScaDFX=  1.000000  1.000000  1.000000  1.000000
 FoFCou: FMM=F IPFlag=           0 FMFlag=      100000 FMFlg1=           0
         NFxFlg=           0 DoJE=T BraDBF=F KetDBF=T FulRan=T
         wScrn=  0.000000 ICntrl=     500 IOpCl=  0 I1Cent=   200000004 NGrid=           0
         NMat0=    1 NMatS0=      1 NMatT0=    0 NMatD0=    1 NMtDS0=    0 NMtDT0=    0
 Petite list used in FoFCou.
 Requested convergence on RMS density matrix=1.00D-08 within 128 cycles.
 Requested convergence on MAX density matrix=1.00D-06.
 Requested convergence on             energy=1.00D-06.
 No special actions if energy rises.
 Inv3:  Mode=1 IEnd=     7375872.
 Iteration    1 A*A^-1 deviation from unit magnitude is 5.66D-15 for   1564.
 Iteration    1 A*A^-1 deviation from orthogonality  is 1.61D-15 for   1526    828.
 Iteration    1 A^-1*A deviation from unit magnitude is 5.66D-15 for   1564.
 Iteration    1 A^-1*A deviation from orthogonality  is 1.28D-15 for   1564   1538.
 Error on total polarization charges =  0.00715
 SCF Done:  E(RB3LYP) =  -566.426535225     A.U. after   11 cycles
            NFock= 11  Conv=0.56D-08     -V/T= 2.0093
 D1PCM: C-PCM CHGder 1st derivatives, ID1Alg=3 FixD1E=F DoIter=F DoCFld=F I1PDM=0.
 Calling FoFJK, ICntrl=      2127 FMM=F ISym2X=0 I1Cent= 0 IOpClX= 0 NMat=1 NMatS=1 NMatT=0.
 ***** Axes restored to original set *****
 -------------------------------------------------------------------
 Center     Atomic                   Forces (Hartrees/Bohr)
 Number     Number              X              Y              Z
 -------------------------------------------------------------------
      1        7          -0.003660195    0.001316995    0.002248222
      2        7           0.003664133   -0.001325061   -0.002228395
      3        6          -0.001456478    0.001114884   -0.015761096
      4        6           0.001440191   -0.001102270    0.015698556
      5        8           0.000654337   -0.005926486   -0.006452008
      6        8          -0.000650270    0.005923956    0.006474903
      7        8           0.001521477    0.004571050   -0.003950664
      8        8          -0.001514584   -0.004573609    0.003968007
      9        6           0.000385711   -0.000678477    0.000316778
     10        1           0.000094148    0.000882805    0.000188305
     11        1          -0.000173052   -0.000400166    0.000622796
     12        1          -0.000751203   -0.000381884   -0.000732894
     13        6          -0.000384571    0.000678845   -0.000314344
     14        1          -0.000093824   -0.000882889   -0.000188265
     15        1           0.000749821    0.000381367    0.000733067
     16        1           0.000174358    0.000400940   -0.000622968
 -------------------------------------------------------------------
 Cartesian Forces:  Max     0.015761096 RMS     0.004033588

 GradGradGradGradGradGradGradGradGradGradGradGradGradGradGradGradGradGrad
 Berny optimization.
 Using GEDIIS/GDIIS optimizer.
 FormGI is forming the generalized inverse of G from B-inverse, IUseBI=4.
 Internal  Forces:  Max     0.007349175 RMS     0.003180012
 Search for a local minimum.
 Step number   3 out of a maximum of   62
 All quantities printed in internal units (Hartrees-Bohrs-Radians)
 Mixed Optimization -- RFO/linear search
 Update second derivatives using D2CorX and points    1    3    2
 DE=  8.22D-04 DEPred=-7.60D-04 R=-1.08D+00
 Trust test=-1.08D+00 RLast= 2.22D-01 DXMaxT set to 2.39D-01
 ITU= -1  1  0
 Use linear search instead of GDIIS.
 Energy rises -- skip Quadratic/GDIIS search.
 Quartic linear search produced a step of -0.68462.
 Iteration  1 RMS(Cart)=  0.02563244 RMS(Int)=  0.00068622
 Iteration  2 RMS(Cart)=  0.00148922 RMS(Int)=  0.00022465
 Iteration  3 RMS(Cart)=  0.00000033 RMS(Int)=  0.00022465
 Variable       Old X    -DE/DX   Delta X   Delta X   Delta X     New X
                                 (Linear)    (Quad)   (Total)
    R1        2.35160  -0.00735  -0.00526   0.00000  -0.00526   2.34634
    R2        2.74530  -0.00314  -0.00144   0.00000  -0.00144   2.74386
    R3        2.74530  -0.00314  -0.00144   0.00000  -0.00144   2.74385
    R4        2.29064  -0.00700  -0.00705   0.00000  -0.00705   2.28359
    R5        2.51077  -0.00538  -0.00298   0.00000  -0.00298   2.50779
    R6        2.29064  -0.00699  -0.00705   0.00000  -0.00705   2.28359
    R7        2.51077  -0.00538  -0.00298   0.00000  -0.00298   2.50779
    R8        2.74638  -0.00047  -0.01007   0.00000  -0.01007   2.73631
    R9        2.74638  -0.00047  -0.01007   0.00000  -0.01007   2.73631
   R10        2.05387   0.00088   0.00196   0.00000   0.00196   2.05583
   R11        2.06156   0.00058   0.00239   0.00000   0.00239   2.06395
   R12        2.06103   0.00068   0.00250   0.00000   0.00250   2.06353
   R13        2.05387   0.00088   0.00196   0.00000   0.00196   2.05583
   R14        2.06103   0.00068   0.00250   0.00000   0.00250   2.06353
   R15        2.06156   0.00058   0.00239   0.00000   0.00239   2.06395
    A1        1.98060  -0.00567   0.00124   0.00000   0.00124   1.98183
    A2        1.98058  -0.00565   0.00125   0.00000   0.00125   1.98183
    A3        2.10341   0.00054  -0.00004   0.00000   0.00062   2.10403
    A4        1.93787   0.00080  -0.00019   0.00000   0.00048   1.93835
    A5        2.24171  -0.00114  -0.00421   0.00000  -0.00355   2.23816
    A6        2.10341   0.00054  -0.00003   0.00000   0.00063   2.10404
    A7        1.93787   0.00079  -0.00019   0.00000   0.00046   1.93833
    A8        2.24171  -0.00114  -0.00421   0.00000  -0.00355   2.23816
    A9        2.03117  -0.00246   0.00450   0.00000   0.00450   2.03567
   A10        2.03116  -0.00246   0.00450   0.00000   0.00450   2.03566
   A11        1.83304   0.00001   0.00578   0.00000   0.00579   1.83883
   A12        1.92153  -0.00050   0.00405   0.00000   0.00405   1.92559
   A13        1.91918  -0.00121   0.00259   0.00000   0.00259   1.92177
   A14        1.93539   0.00038  -0.00327   0.00000  -0.00326   1.93213
   A15        1.93432   0.00061  -0.00342   0.00000  -0.00341   1.93091
   A16        1.91888   0.00064  -0.00521   0.00000  -0.00521   1.91367
   A17        1.83304   0.00001   0.00578   0.00000   0.00579   1.83883
   A18        1.91917  -0.00121   0.00259   0.00000   0.00259   1.92176
   A19        1.92154  -0.00050   0.00404   0.00000   0.00405   1.92559
   A20        1.93432   0.00061  -0.00342   0.00000  -0.00341   1.93091
   A21        1.93539   0.00038  -0.00326   0.00000  -0.00326   1.93213
   A22        1.91888   0.00064  -0.00521   0.00000  -0.00521   1.91367
    D1        3.14156   0.00000   0.00006   0.00000   0.00006  -3.14156
    D2       -1.85248  -0.00475  -0.07707   0.00000  -0.07706  -1.92954
    D3        1.26931   0.00493   0.01474   0.00000   0.01473   1.28403
    D4        1.85255   0.00472   0.07685   0.00000   0.07684   1.92939
    D5       -1.26967  -0.00491  -0.01455   0.00000  -0.01454  -1.28421
    D6        3.10538  -0.00552  -0.04633   0.00000  -0.04639   3.05898
    D7       -0.05801   0.00515   0.05427   0.00000   0.05433  -0.00368
    D8       -3.10512   0.00550   0.04610   0.00000   0.04616  -3.05896
    D9        0.05778  -0.00513  -0.05405   0.00000  -0.05410   0.00368
   D10        3.08854   0.00007  -0.00012   0.00000  -0.00012   3.08842
   D11       -1.11271   0.00018   0.00048   0.00000   0.00048  -1.11222
   D12        1.00412  -0.00012  -0.00170   0.00000  -0.00170   1.00242
   D13       -3.08862  -0.00008   0.00011   0.00000   0.00011  -3.08851
   D14       -1.00420   0.00012   0.00169   0.00000   0.00169  -1.00251
   D15        1.11262  -0.00018  -0.00050   0.00000  -0.00049   1.11213
         Item               Value     Threshold  Converged?
 Maximum Force            0.007349     0.000450     NO 
 RMS     Force            0.003180     0.000300     NO 
 Maximum Displacement     0.082865     0.001800     NO 
 RMS     Displacement     0.025149     0.001200     NO 
 Predicted change in Energy=-2.166741D-04
 GradGradGradGradGradGradGradGradGradGradGradGradGradGradGradGradGradGrad

                          Input orientation:                          
 ---------------------------------------------------------------------
 Center     Atomic      Atomic             Coordinates (Angstroms)
 Number     Number       Type             X           Y           Z
 ---------------------------------------------------------------------
      1          7           0        0.328896   -0.275410    0.448786
      2          7           0       -0.328891    0.275345   -0.448780
      3          6           0        1.724747   -0.477994    0.104069
      4          6           0       -1.724729    0.477963   -0.104048
      5          8           0       -2.154107    1.590619    0.090697
      6          8           0        2.154176   -1.590655   -0.090534
      7          8           0       -2.394691   -0.667146   -0.135325
      8          8           0        2.394655    0.667152    0.135161
      9          6           0        3.823488    0.589569   -0.086426
     10          1           0        4.189100    1.607317    0.032047
     11          1           0        4.285700   -0.074597    0.647152
     12          1           0        4.027705    0.222218   -1.094274
     13          6           0       -3.823528   -0.589530    0.086229
     14          1           0       -4.189196   -1.607228   -0.032493
     15          1           0       -4.027756   -0.222403    1.094156
     16          1           0       -4.285676    0.074836   -0.647209
 ---------------------------------------------------------------------
                    Distance matrix (angstroms):
                    1          2          3          4          5
     1  N    0.000000
     2  N    1.241629   0.000000
     3  C    1.451988   2.256234   0.000000
     4  C    2.256230   1.451985   3.585534   0.000000
     5  O    3.126595   2.313524   4.396004   1.208426   0.000000
     6  O    2.313521   3.126646   1.208426   4.396051   5.358605
     7  O    2.812929   2.292177   4.130721   1.327065   2.281769
     8  O    2.292192   2.812864   1.327066   4.130659   4.641768
     9  C    3.639617   4.179986   2.362349   5.549368   6.063425
    10  H    4.315032   4.734721   3.229047   6.022237   6.343500
    11  H    3.966859   4.755836   2.648801   6.082342   6.674856
    12  H    4.038546   4.404477   2.688855   5.842641   6.441388
    13  C    4.180042   3.639607   5.549425   2.362351   2.745912
    14  H    4.734821   4.315013   6.022337   3.229046   3.792491
    15  H    4.404513   4.038566   5.842678   2.688892   2.793660
    16  H    4.755855   3.966829   6.082370   2.648770   2.717662
                    6          7          8          9         10
     6  O    0.000000
     7  O    4.641881   0.000000
     8  O    2.281767   4.979092   0.000000
     9  C    2.745906   6.344090   1.447993   0.000000
    10  H    3.792488   6.967603   2.028441   1.087896   0.000000
    11  H    2.717721   6.752111   2.094845   1.092197   1.793467
    12  H    2.793585   6.554215   2.091968   1.091975   1.792525
    13  C    6.063534   1.447994   6.344088   7.739312   8.308506
    14  H    6.343659   2.028442   6.967641   8.308546   8.974035
    15  H    6.441419   2.091966   6.554262   7.980922   8.484849
    16  H    6.674986   2.094848   6.752020   8.144813   8.638965
                   11         12         13         14         15
    11  H    0.000000
    12  H    1.785280   0.000000
    13  C    8.144899   7.980877   0.000000
    14  H    8.639140   8.484794   1.087896   0.000000
    15  H    8.326777   8.359269   1.091975   1.792524   0.000000
    16  H    8.669844   8.326698   1.092197   1.793467   1.785280
                   16
    16  H    0.000000
 Stoichiometry    C4H6N2O4
 Framework group  C1[X(C4H6N2O4)]
 Deg. of freedom    42
 Full point group                 C1      NOp   1
 Largest Abelian subgroup         C1      NOp   1
 Largest concise Abelian subgroup C1      NOp   1
                         Standard orientation:                         
 ---------------------------------------------------------------------
 Center     Atomic      Atomic             Coordinates (Angstroms)
 Number     Number       Type             X           Y           Z
 ---------------------------------------------------------------------
      1          7           0        0.327444    0.273591   -0.450973
      2          7           0       -0.327439   -0.273540    0.450924
      3          6           0        1.723181    0.482400   -0.109526
[...]
   A12        1.91574   0.00000   0.00000  -0.00010  -0.00010   1.91564
   A13        1.91429   0.00000   0.00000   0.00010   0.00010   1.91439
   A14        1.93889   0.00000   0.00000  -0.00004  -0.00004   1.93885
   A15        1.93779   0.00000   0.00000   0.00006   0.00006   1.93785
   A16        1.92255   0.00000   0.00000   0.00003   0.00003   1.92258
   A17        1.83263   0.00000   0.00000  -0.00005  -0.00005   1.83258
   A18        1.91429   0.00000   0.00000   0.00010   0.00010   1.91439
   A19        1.91574   0.00000   0.00000  -0.00010  -0.00010   1.91564
   A20        1.93779   0.00000   0.00000   0.00006   0.00006   1.93785
   A21        1.93889   0.00000   0.00000  -0.00004  -0.00004   1.93885
   A22        1.92255   0.00000   0.00000   0.00003   0.00003   1.92258
    D1       -3.14153  -0.00001   0.00000  -0.00006  -0.00006   3.14159
    D2       -1.76514   0.00000   0.00000  -0.00072  -0.00072  -1.76586
    D3        1.45604   0.00000   0.00000  -0.00075  -0.00075   1.45528
    D4        1.76512   0.00000   0.00000   0.00074   0.00074   1.76587
    D5       -1.45603   0.00000   0.00000   0.00075   0.00075  -1.45528
    D6        3.04987   0.00000   0.00000   0.00028   0.00028   3.05014
    D7       -0.00501   0.00000   0.00000   0.00024   0.00024  -0.00477
    D8       -3.04988   0.00000   0.00000  -0.00026  -0.00026  -3.05014
    D9        0.00503   0.00000   0.00000  -0.00025  -0.00025   0.00477
   D10        3.10101   0.00001   0.00000   0.00342   0.00342   3.10444
   D11       -1.09886   0.00001   0.00000   0.00352   0.00352  -1.09534
   D12        1.01568   0.00001   0.00000   0.00355   0.00355   1.01922
   D13       -3.10102  -0.00001   0.00000  -0.00341  -0.00341  -3.10444
   D14       -1.01568  -0.00001   0.00000  -0.00354  -0.00354  -1.01922
   D15        1.09885  -0.00001   0.00000  -0.00351  -0.00351   1.09535
         Item               Value     Threshold  Converged?
 Maximum Force            0.000020     0.000450     YES
 RMS     Force            0.000007     0.000300     YES
 Maximum Displacement     0.004555     0.001800     NO 
 RMS     Displacement     0.001715     0.001200     NO 
 Predicted change in Energy=-8.703206D-08
 GradGradGradGradGradGradGradGradGradGradGradGradGradGradGradGradGradGrad

 1\1\GINC-D10S10B2\Freq\RB3LYP\6-31+G(d,p)\C4H6N2O4\CHMKSH\17-Sep-2020\
 0\\#N Geom=AllCheck Guess=TCheck SCRF=Check GenChk RB3LYP/6-31+G(d,p) 
 Freq\\Title Card Required\\0,1\N,0.3467647878,-0.2015112648,0.47320292
 62\N,-0.3467789503,0.2013877333,-0.473381474\C,1.7292321185,-0.4320656
 624,0.1044559615\C,-1.7292286548,0.4320228362,-0.1046152195\O,-2.14061
 56106,1.5476388149,0.1106712926\O,2.1406742838,-1.5476582826,-0.110843
 5761\O,-2.4153827859,-0.6993075371,-0.1492667096\O,2.4153395146,0.6992
 917007,0.1491680792\C,3.8462806683,0.5859356713,-0.0846130167\H,4.2318
 825349,1.5964578984,0.0335535521\H,4.2876770593,-0.0912351473,0.649093
 5111\H,4.0253347387,0.2141043104,-1.0950365705\C,-3.8463109112,-0.5858
 832301,0.084559137\H,-4.2319594755,-1.5963921165,-0.0335689932\H,-4.02
 53144306,-0.2140189603,1.0949795413\H,-4.2877028869,0.0912882358,-0.64
 91494415\\Version=ES64L-G09RevD.01\State=1-A\HF=-566.4278649\RMSD=3.26
 9e-09\RMSF=1.113e-05\ZeroPoint=0.1136181\Thermal=0.1247383\Dipole=-0.0
 000475,0.0000475,0.0000493\DipoleDeriv=-0.4927871,0.0557605,0.1066044,
 0.0351865,-0.1989971,-0.038226,0.0745366,-0.0335136,-0.0949873,-0.4927
 712,0.0557474,0.1066042,0.0351923,-0.1989897,-0.0382251,0.0745104,-0.0
 335209,-0.0950013,2.1414576,-0.0050683,-0.0948725,0.5187592,2.160956,0
 .1797338,-0.1342681,0.2364454,0.4557832,2.1414859,-0.0050406,-0.094892
 3,0.518772,2.1609407,0.1796642,-0.1343111,0.2363902,0.4557752,-0.97253
 71,0.3105402,0.0202573,0.079865,-1.2584426,-0.1002599,0.0680005,-0.149
 1815,-0.4106426,-0.9725585,0.3105682,0.0202652,0.079883,-1.2584309,-0.
 1002932,0.0679909,-0.1491916,-0.4106519,-1.6021926,-0.4161833,0.035569
 1,-0.6675893,-1.0684617,-0.0326896,0.0741183,-0.046929,-0.3073818,-1.6
 021648,-0.4161952,0.0355265,-0.6676022,-1.0685023,-0.032728,0.0740577,
 -0.0469672,-0.3073816,0.9986055,0.1432997,-0.0562501,0.0112425,0.29564
 6,-0.0121355,-0.1088856,-0.0229507,0.3160736,-0.00101,-0.0197313,0.006
 635,-0.0842353,-0.0479136,-0.0159128,0.0035775,-0.024725,0.1036086,-0.
 0398392,-0.027602,0.0069298,0.0711751,0.0376649,0.0797229,-0.0362456,0
 .0758856,-0.00268,-0.0317153,-0.0410176,-0.0248359,0.0355969,0.0795696
 ,-0.0601633,0.0592455,-0.0349767,-0.0597605,0.998592,0.1432702,-0.0562
 741,0.0112112,0.2956378,-0.0121329,-0.1089085,-0.0229494,0.3160797,-0.
 0010136,-0.0197353,0.0066376,-0.0842395,-0.0479108,-0.0159065,0.003581
 6,-0.0247205,0.1036093,-0.0317137,-0.041016,-0.0248393,0.0356017,0.079
 5667,-0.0601672,0.0592423,-0.0349817,-0.0597604,-0.0398378,-0.0275967,
 0.006935,0.0711808,0.0376669,0.0797193,-0.0362425,0.0758865,-0.0026822
 \Polar=119.5949802,-2.7428753,86.6978877,0.9191858,0.611958,62.7977642
 \PG=C01 [X(C4H6N2O4)]\NImag=0\\0.51650616,-0.14883212,0.15185794,0.223
 20924,-0.16152986,0.49070417,-0.25128768,0.12879393,-0.25282477,0.5165
 0273,0.12879344,-0.03346717,0.17233098,-0.14883810,0.15186126,-0.25282
 567,0.17232700,-0.43285784,0.22320625,-0.16153260,0.49070435,-0.142445
 68,0.00994311,0.01866803,-0.05224855,0.00545251,-0.01100280,0.59856214
 ,-0.01628473,-0.05755858,0.00509052,0.02135652,-0.03703897,-0.00189811
 ,-0.10906300,0.93763311,0.05271191,0.00150256,-0.09867072,-0.05108561,
 -0.00036624,0.00869674,-0.05805496,0.09895756,0.26131463,-0.05224834,0
 .00545105,-0.01100358,-0.14244344,0.00994820,0.01866905,-0.01463990,0.
 00794450,0.00397667,0.59854778,0.02135764,-0.03703827,-0.00190094,-0.0
 1627892,-0.05755986,0.00509183,0.00794310,0.02644137,0.00760509,-0.109
 04218,0.93764844,-0.05108481,-0.00036587,0.00869620,0.05271428,0.00150
 160,-0.09867017,0.00397640,0.00760493,-0.00300306,-0.05805778,0.098944
 62,0.26131305,-0.00068003,0.01016980,0.00331117,-0.02101182,0.04241668
 ,0.01323456,0.00564523,-0.00720824,-0.00448296,-0.18289865,0.21025077,
 0.04794604,0.17593829,-0.00421439,-0.00230860,-0.00180895,0.03646737,-
 0.01917790,-0.01534558,-0.00258358,0.00161194,0.00235786,0.20375477,-0
 .62525592,-0.10310793,-0.23323143,0.74188687,0.00699141,-0.00186522,-0
 .00102265,0.00920136,-0.01474027,0.01691558,-0.00157431,0.00089444,0.0
 0150753,0.04249987,-0.10379939,-0.10164236,-0.05701283,0.13424122,0.06
 007420,-0.02101591,0.04241750,0.01323668,-0.00067986,0.01017013,0.0033
 1013,-0.18292148,0.21027441,0.04795396,0.00564478,-0.00720856,-0.00448
 314,-0.00166994,0.00098565,0.00061691,0.17596405,0.03646812,-0.0191742
 0,-0.01534617,-0.00421467,-0.00230807,-0.00180816,0.20377877,-0.625234
 41,-0.10311275,-0.00258308,0.00161150,0.00235769,0.00098561,-0.0000297
 7,-0.00048377,-0.23326192,0.74186230,0.00920221,-0.01473977,0.01691666
 ,0.00699163,-0.00186534,-0.00102280,0.04250747,-0.10380386,-0.10164443
 ,-0.00157406,0.00089446,0.00150751,0.00061686,-0.00048378,-0.00023315,
 -0.05702211,0.13424988,0.06007655,-0.00456842,-0.00992982,0.00090367,-
 0.04770227,-0.03533389,0.00453520,0.01033307,0.00493724,-0.00168457,-0
 .17266749,-0.10066250,0.00507328,0.02462470,-0.01561074,-0.00265351,-0
 .00569553,0.00293299,0.00145674,0.44921066,0.00038944,0.00061673,-0.00
 038023,-0.01565299,0.00145149,0.00498901,0.00297776,-0.00206228,-0.001
 75230,-0.07468178,-0.24432907,-0.01186577,-0.02051926,-0.09976869,-0.0
 1577912,-0.00115983,0.00115113,0.00042803,0.11128583,0.41581879,0.0024
 0242,0.00185489,-0.00117924,0.00905719,0.00355949,0.01073710,-0.000883
 61,-0.00104521,0.00026631,0.00480880,-0.00729616,-0.06836105,-0.002654
 84,-0.01432745,0.02864341,0.00065041,-0.00028328,-0.00013802,-0.044743
 18,0.02639433,0.08638225,-0.04769982,-0.03533522,0.00453124,-0.0045685
 3,-0.00993028,0.00090436,-0.17265904,-0.10065806,0.00506726,0.01033349
 ,0.00493690,-0.00168475,-0.00569542,0.00293335,0.00145681,0.02462661,-
 0.01560507,-0.00265362,-0.00333746,-0.00156317,0.00025684,0.44920091,-
 0.01565536,0.00144914,0.00498846,0.00038940,0.00061621,-0.00038029,-0.
 07467667,-0.24433292,-0.01187373,0.00297815,-0.00206221,-0.00175229,-0
 .00116001,0.00115135,0.00042810,-0.02051373,-0.09976962,-0.01578380,-0
 .00156325,-0.00002261,0.00024213,0.11128547,0.41582316,0.00905548,0.00
 355859,0.01073761,0.00240222,0.00185460,-0.00117943,0.00480277,-0.0073
 0546,-0.06836104,-0.00088329,-0.00104499,0.00026622,0.00065017,-0.0002
 8318,-0.00013796,-0.00265504,-0.01433157,0.02864231,0.00025671,0.00024
 208,-0.00004008,-0.04472865,0.02640667,0.08638050,0.00429078,-0.000177
 65,-0.00022009,0.00165583,0.00011903,0.00018041,-0.04627010,-0.0347898
 1,0.00171462,-0.00337465,0.00006345,0.00050367,0.00146590,-0.00071522,
 -0.00029172,0.00110859,0.01846672,0.00206710,0.00166561,0.00060130,-0.
 00010809,-0.16323699,0.00901984,0.01709783,0.41216660,-0.00108390,-0.0
 0336243,-0.00117790,-0.00112611,-0.00105326,-0.00038797,-0.04202218,-0
 .00271395,0.00649027,0.00040640,0.00104475,-0.00003234,-0.00045907,0.0
 0018993,0.00011740,-0.00162015,0.00073808,0.00089582,0.00002831,-0.000
 12246,0.00000211,0.03468893,-0.08069254,-0.00703535,0.02286189,0.63134
 022,-0.00197576,-0.00126618,0.00754564,0.00237563,-0.00010011,-0.00038
 011,0.00082433,0.00532849,-0.00146438,0.00035521,-0.00050448,0.0000319
 5,0.00004270,-0.00000298,-0.00006161,-0.00139425,-0.00218259,-0.004439
 28,-0.00022068,0.00001746,-0.00000827,0.02040525,-0.00306895,-0.066955
 46,0.03080592,0.00114235,0.59465141,-0.00071204,-0.00127609,0.00007651
 ,-0.00032075,-0.00045012,-0.00012360,-0.00564849,0.00522909,0.00139991
 ,0.00064879,0.00027501,-0.00007377,-0.00036595,0.00022217,0.00009009,0
 .00193006,-0.00115918,-0.00037830,-0.00019976,-0.00008633,0.00001013,-
 0.02859036,-0.03600059,-0.00143492,-0.07337496,-0.07913996,-0.01084643
 ,0.09578729,0.00009848,0.00020210,-0.00000898,-0.00006492,0.00009958,-
 0.00000884,0.00263015,0.00052100,-0.00035930,0.00014215,-0.00008217,-0
 .00003496,-0.00005187,0.00003444,0.00000713,-0.00124178,0.00042788,0.0
 0016391,-0.00008694,-0.00002231,0.00000859,0.00289110,0.00627012,0.000
 73147,-0.09320182,-0.30282212,-0.02957411,0.09686145,0.31581946,-0.000
 04938,0.00030571,0.00032039,0.00016548,0.00003184,-0.00000258,0.001496
 33,-0.00046054,-0.00032632,-0.00010298,-0.00010585,0.00001996,0.000072
 32,-0.00003021,-0.00002916,-0.00034690,0.00014874,0.00045976,0.0000246
 7,0.00002220,-0.00000061,0.00478272,0.00641829,0.00074672,-0.01320030,
 -0.03176002,-0.05648124,0.00935429,0.03240712,0.05089249,-0.00089995,-
 0.00033145,0.00136802,0.00046065,-0.00025342,0.00004396,0.00164289,0.0
 0977700,-0.00127625,0.00049620,-0.00001478,-0.00003140,-0.00018392,0.0
 0009491,0.00003524,0.00121792,-0.00298947,-0.00051948,-0.00021840,-0.0
 0007917,0.00001056,-0.03408230,0.01717536,-0.02007239,-0.08427811,0.05
 850702,-0.06593413,0.00704327,-0.00594267,0.00840761,0.10418027,-0.000
 00558,-0.00028871,0.00063355,0.00029548,0.00008683,-0.00003657,-0.0026
 1879,0.00080058,-0.00114923,-0.00013009,-0.00000181,0.00005588,0.00006
 753,-0.00004110,-0.00002437,0.00049131,0.00033196,0.00025247,0.0000749
 6,0.00002513,-0.00001380,0.00335083,0.00138612,-0.00256070,0.06524284,
 -0.15849685,0.11818330,0.01108125,-0.01393143,0.02017225,-0.07255824,0
 .16203248,0.00004017,-0.00004436,-0.00061017,-0.00011480,-0.00008616,0
 .00000937,-0.00057506,0.00102899,0.00141059,-0.00007186,0.00010706,0.0
 0003096,0.00001710,-0.00002785,-0.00000498,0.00121822,-0.00034235,-0.0
 0035511,0.00005081,-0.00000262,-0.00000471,0.00458736,-0.00679904,0.00
 856344,-0.07297789,0.11804951,-0.18229663,0.00281712,-0.00401612,0.004
 35472,0.07573921,-0.12706645,0.18589246,-0.00052718,-0.00020504,-0.001
 43956,-0.00050770,-0.00010334,0.00008289,0.00231736,0.00795993,0.00346
 619,0.00056215,0.00020141,-0.00010464,-0.00031286,0.00015020,0.0000778
 1,0.00088759,-0.00257091,-0.00060588,-0.00022529,-0.00010704,0.0000135
 4,-0.02531323,0.00839263,0.03558292,-0.05145176,0.00892362,0.02551511,
 0.00374924,-0.00205152,-0.01059532,0.00457503,-0.00527621,-0.01072513,
 0.06619558,-0.00004525,-0.00000406,-0.00047856,-0.00009031,-0.00005708
 ,0.00002158,-0.00205402,0.00086342,0.00167022,-0.00012560,0.00010891,0
 .00004139,0.00003735,-0.00003394,0.00000195,0.00107306,0.00024392,-0.0
 0031014,0.00007940,0.00000714,-0.00000863,0.00290953,0.00029631,-0.000
 22043,0.01248909,-0.08407581,-0.08796792,0.00443931,-0.00651229,-0.027
 14711,-0.00338548,0.00809415,0.01919400,-0.01531305,0.08106357,-0.0000
 3832,0.00032888,-0.00016275,-0.00006536,0.00008789,-0.00004388,-0.0002
 2532,-0.00381073,0.00021368,-0.00013970,-0.00007764,-0.00002236,0.0000
 6795,-0.00001424,-0.00000209,-0.00128498,0.00120961,0.00032784,0.00005
 094,0.00003389,0.00000476,0.00716948,0.00110354,0.00134599,0.03439048,
 -0.08630143,-0.29015186,-0.00088498,0.00068484,0.00004171,0.00223838,-
 0.00844910,-0.01698839,-0.04126324,0.09520753,0.30543554,0.00165587,0.
 00011888,0.00018027,0.00429058,-0.00017832,-0.00021982,-0.00337453,0.0
 0006345,0.00050358,-0.04627361,-0.03478765,0.00171740,0.00110930,0.018
 46669,0.00206648,0.00146587,-0.00071514,-0.00029169,-0.16323432,0.0090
 2355,0.01710048,0.00166557,0.00060133,-0.00010803,-0.00063503,0.000042
 68,0.00008924,0.00009347,0.00003111,-0.00001366,0.00008548,-0.00002680
 ,-0.00001425,0.00008933,-0.00002666,-0.00002327,0.41217134,-0.00112605
 ,-0.00105324,-0.00038811,-0.00108445,-0.00336248,-0.00117727,0.0004064
 6,0.00104475,-0.00003235,-0.04201998,-0.00270974,0.00649143,-0.0016203
 1,0.00073739,0.00089568,-0.00045913,0.00018992,0.00011741,0.03469261,-
 0.08069554,-0.00703661,0.00002824,-0.00012248,0.00000211,0.00004271,0.
 00002102,-0.00000368,0.00000031,-0.00000513,-0.00000187,-0.00000235,0.
 00000394,0.00000528,-0.00000545,0.00000662,-0.00000219,0.02287234,0.63
 133869,0.00237576,-0.00009995,-0.00038021,-0.00197607,-0.00126596,0.00
 754621,0.00035533,-0.00050455,0.00003192,0.00082780,0.00532948,-0.0014
 6482,-0.00139456,-0.00218316,-0.00443926,0.00004269,-0.00000298,-0.000
 06160,0.02040717,-0.00306945,-0.06695704,-0.00022075,0.00001743,-0.000
 00827,0.00008926,-0.00000368,0.00000113,-0.00001343,-0.00000371,0.0000
 0502,-0.00001696,0.00000475,0.00000016,-0.00001175,-0.00000164,0.00000
 353,0.03081166,0.00113907,0.59464948,-0.00032073,-0.00045010,-0.000123
 65,-0.00071211,-0.00127606,0.00007667,0.00064877,0.00027503,-0.0000737
 5,-0.00564804,0.00522952,0.00139984,0.00192991,-0.00115925,-0.00037832
 ,-0.00036596,0.00022214,0.00009009,-0.02859172,-0.03599922,-0.00143293
 ,-0.00019976,-0.00008634,0.00001012,0.00009347,0.00000031,-0.00001343,
 -0.00001333,-0.00000434,0.00000148,-0.00001333,0.00000376,0.00000301,-
 0.00001315,0.00000425,0.00000289,-0.07338311,-0.07915093,-0.01084510,0
 .09579631,-0.00006492,0.00009960,-0.00000883,0.00009853,0.00020216,-0.
 00000900,0.00014214,-0.00008218,-0.00003495,0.00263040,0.00052061,-0.0
 0035947,-0.00124183,0.00042800,0.00016398,-0.00005186,0.00003443,0.000
 00713,0.00289268,0.00627174,0.00073131,-0.00008693,-0.00002231,0.00000
 859,0.00003111,-0.00000513,-0.00000371,-0.00000434,-0.00000153,0.00000
 101,-0.00000380,0.00000130,0.00000043,-0.00000478,0.00000108,0.0000015
 2,-0.09321289,-0.30281632,-0.02956431,0.09687220,0.31581279,0.00016549
 ,0.00003186,-0.00000258,-0.00004933,0.00030575,0.00032038,-0.00010299,
 -0.00010586,0.00001996,0.00149642,-0.00046082,-0.00032636,-0.00034689,
 0.00014881,0.00045977,0.00007233,-0.00003022,-0.00002916,0.00478391,0.
 00641920,0.00074645,0.00002467,0.00002220,-0.00000061,-0.00001366,-0.0
 0000187,0.00000502,0.00000148,0.00000101,0.00000052,0.00000174,-0.0000
 0036,-0.00000092,0.00000189,-0.00000118,-0.00000046,-0.01319875,-0.031
 75063,-0.05647896,0.00935169,0.03239678,0.05089025,-0.00050774,-0.0001
 0336,0.00008291,-0.00052713,-0.00020502,-0.00143969,0.00056212,0.00020
 145,-0.00010462,0.00231784,0.00795993,0.00346595,0.00088745,-0.0025709
 7,-0.00060585,-0.00031287,0.00015018,0.00007781,-0.02531154,0.00839466
 ,0.03558389,-0.00022528,-0.00010705,0.00001353,0.00008933,-0.00000545,
 -0.00001175,-0.00001315,-0.00000478,0.00000189,-0.00001253,0.00000469,
 0.00000320,-0.00001258,0.00000488,0.00000196,-0.05144864,0.00891987,0.
 02550270,0.00374892,-0.00205219,-0.01059658,0.06619143,-0.00009028,-0.
 00005708,0.00002157,-0.00004524,-0.00000406,-0.00047851,-0.00012564,0.
 00010890,0.00004140,-0.00205399,0.00086319,0.00167013,0.00107300,0.000
 24396,-0.00031020,0.00003737,-0.00003395,0.00000195,0.00291075,0.00029
 584,-0.00022195,0.00007941,0.00000715,-0.00000863,-0.00002667,0.000006
 62,-0.00000164,0.00000425,0.00000108,-0.00000118,0.00000351,-0.0000013
 9,0.00000011,0.00000488,-0.00000054,-0.00000117,0.01248559,-0.08408113
 ,-0.08797465,0.00443791,-0.00651303,-0.02714662,-0.01531022,0.08106966
 ,-0.00006533,0.00008789,-0.00004388,-0.00003829,0.00032888,-0.00016269
 ,-0.00013972,-0.00007766,-0.00002236,-0.00022558,-0.00381101,0.0002136
 9,-0.00128495,0.00120975,0.00032786,0.00006797,-0.00001424,-0.00000209
 ,0.00717043,0.00110297,0.00134450,0.00005095,0.00003389,0.00000476,-0.
 00002328,-0.00000219,0.00000353,0.00000289,0.00000152,-0.00000046,0.00
 000309,-0.00000119,-0.00000070,0.00000196,-0.00000117,-0.00000056,0.03
 437813,-0.08630835,-0.29014942,-0.00088519,0.00068512,0.00004276,-0.04
 125046,0.09521545,0.30543342,0.00046069,-0.00025340,0.00004393,-0.0008
 9994,-0.00033144,0.00136810,0.00049620,-0.00001476,-0.00003139,0.00164
 308,0.00977686,-0.00127657,0.00121780,-0.00298952,-0.00051945,-0.00018
 392,0.00009490,0.00003523,-0.03408185,0.01717627,-0.02007159,-0.000218
 39,-0.00007918,0.00001055,0.00008547,-0.00000235,-0.00001695,-0.000013
 33,-0.00000380,0.00000174,-0.00001318,0.00000304,0.00000279,-0.0000125
 3,0.00000351,0.00000309,-0.08427758,0.05850610,-0.06593376,0.00704387,
 -0.00594351,0.00840858,0.00457436,-0.00338462,0.00223737,0.10417925,0.
 00029546,0.00008683,-0.00003656,-0.00000554,-0.00028869,0.00063346,-0.
 00013011,-0.00000180,0.00005589,-0.00261892,0.00080028,-0.00114904,0.0
 0049129,0.00033203,0.00025245,0.00006754,-0.00004111,-0.00002437,0.003
 35238,0.00138498,-0.00255977,0.00007498,0.00002513,-0.00001380,-0.0000
 2680,0.00000394,0.00000475,0.00000376,0.00000130,-0.00000036,0.0000030
 4,-0.00000119,-0.00000043,0.00000469,-0.00000139,-0.00000119,0.0652418
 5,-0.15849627,0.11818332,0.01108111,-0.01393121,0.02017195,-0.00527662
 ,0.00809479,-0.00844965,-0.07255811,0.16203238,-0.00011482,-0.00008616
 ,0.00000936,0.00004020,-0.00004435,-0.00061023,-0.00007188,0.00010706,
 0.00003096,-0.00057500,0.00102874,0.00141064,0.00121816,-0.00034232,-0
 .00035513,0.00001711,-0.00002785,-0.00000498,0.00458842,-0.00679968,0.
 00856424,0.00005082,-0.00000262,-0.00000471,-0.00001426,0.00000528,0.0
 0000016,0.00000301,0.00000043,-0.00000092,0.00000279,-0.00000043,-0.00
 000009,0.00000320,0.00000011,-0.00000070,-0.07297777,0.11805007,-0.182
 29787,0.00281659,-0.00401558,0.00435394,-0.01072489,0.01919395,-0.0169
 8837,0.07573832,-0.12706664,0.18589371\\-0.00001736,0.00000732,-0.0000
 1530,0.00001597,-0.00001603,0.00001490,0.00000923,0.00000758,0.0000105
 1,-0.00000842,-0.00000084,-0.00001259,-0.00000598,0.00001811,0.0000179
 3,0.00000334,-0.00001644,-0.00001604,-0.00001547,-0.00000215,0.0000166
 5,0.00001804,0.00000184,-0.00001604,-0.00001787,0.00000458,0.00001563,
 0.00000242,-0.00000240,0.00000972,-0.00000056,-0.00000801,-0.00000709,
 -0.00000093,0.00000923,-0.00000288,0.00001814,-0.00000396,-0.00001562,
 -0.00000213,0.00000233,-0.00000975,0.00000099,-0.00000923,0.00000288,0
 .00000060,0.00000807,0.00000711\\\@


 THOSE WHO ASPIRE NOT TO GUESS AND DIVINE,
 BUT TO DISCOVER AND KNOW, WHO PROPOSE NOT TO DEVISE 
 MIMIC AND FABULOUS WORLDS OF THEIR OWN, BUT TO 
 EXAMINE AND DISSECT THE NATURE OF THIS VERY WORLD 
 ITSELF, MUST GO TO THE FACTS THEMSELVES FOR EVERYTHING.

                               -- FRANCIS BACON, 1620
 Job cpu time:       0 days  0 hours 10 minutes 50.9 seconds.
 File lengths (MBytes):  RWF=    112 Int=      0 D2E=      0 Chk=     10 Scr=      1
 Normal termination of Gaussian 09 at Thu Sep 17 15:29:22 2020.
