 Entering Gaussian System, Link 0=g09
 Input=freq_b3lyp_m062x_TS_associated_cycloaddition_PM6_toluene_3.com
 Output=freq_b3lyp_m062x_TS_associated_cycloaddition_PM6_toluene_3.log
 Initial command:
 /apps/applications/gaussian/G09.D01/2/default/g09/l1.exe "/local/746253.1.40core-192G.q/Gau-331351.inp" -scrdir="/local/746253.1.40core-192G.q/"
 Entering Link 1 = /apps/applications/gaussian/G09.D01/2/default/g09/l1.exe PID=    331352.
  
 Copyright (c) 1988,1990,1992,1993,1995,1998,2003,2009,2013,
            Gaussian, Inc.  All Rights Reserved.
  
 This is part of the Gaussian(R) 09 program.  It is based on
 the Gaussian(R) 03 system (copyright 2003, Gaussian, Inc.),
 the Gaussian(R) 98 system (copyright 1998, Gaussian, Inc.),
 the Gaussian(R) 94 system (copyright 1995, Gaussian, Inc.),
 the Gaussian 92(TM) system (copyright 1992, Gaussian, Inc.),
 the Gaussian 90(TM) system (copyright 1990, Gaussian, Inc.),
 the Gaussian 88(TM) system (copyright 1988, Gaussian, Inc.),
 the Gaussian 86(TM) system (copyright 1986, Carnegie Mellon
 University), and the Gaussian 82(TM) system (copyright 1983,
 Carnegie Mellon University). Gaussian is a federally registered
 trademark of Gaussian, Inc.
  
 This software contains proprietary and confidential information,
 including trade secrets, belonging to Gaussian, Inc.
  
 This software is provided under written license and may be
 used, copied, transmitted, or stored only in accord with that
 written license.
  
 The following legend is applicable only to US Government
 contracts under FAR:
  
                    RESTRICTED RIGHTS LEGEND
  
 Use, reproduction and disclosure by the US Government is
 subject to restrictions as set forth in subparagraphs (a)
 and (c) of the Commercial Computer Software - Restricted
 Rights clause in FAR 52.227-19.
  
 Gaussian, Inc.
 340 Quinnipiac St., Bldg. 40, Wallingford CT 06492
  
  
 ---------------------------------------------------------------
 Warning -- This program may not be used in any manner that
 competes with the business of Gaussian, Inc. or will provide
 assistance to any competitor of Gaussian, Inc.  The licensee
 of this program is prohibited from giving any competitor of
 Gaussian, Inc. access to this program.  By using this program,
 the user acknowledges that Gaussian, Inc. is engaged in the
 business of creating and licensing software in the field of
 computational chemistry and represents and warrants to the
 licensee that it is not a competitor of Gaussian, Inc. and that
 it will not use this program in any manner prohibited above.
 ---------------------------------------------------------------
  

 Cite this work as:
 Gaussian 09, Revision D.01,
 M. J. Frisch, G. W. Trucks, H. B. Schlegel, G. E. Scuseria, 
 M. A. Robb, J. R. Cheeseman, G. Scalmani, V. Barone, B. Mennucci, 
 G. A. Petersson, H. Nakatsuji, M. Caricato, X. Li, H. P. Hratchian, 
 A. F. Izmaylov, J. Bloino, G. Zheng, J. L. Sonnenberg, M. Hada, 
 M. Ehara, K. Toyota, R. Fukuda, J. Hasegawa, M. Ishida, T. Nakajima, 
 Y. Honda, O. Kitao, H. Nakai, T. Vreven, J. A. Montgomery, Jr., 
 J. E. Peralta, F. Ogliaro, M. Bearpark, J. J. Heyd, E. Brothers, 
 K. N. Kudin, V. N. Staroverov, T. Keith, R. Kobayashi, J. Normand, 
 K. Raghavachari, A. Rendell, J. C. Burant, S. S. Iyengar, J. Tomasi, 
 M. Cossi, N. Rega, J. M. Millam, M. Klene, J. E. Knox, J. B. Cross, 
 V. Bakken, C. Adamo, J. Jaramillo, R. Gomperts, R. E. Stratmann, 
 O. Yazyev, A. J. Austin, R. Cammi, C. Pomelli, J. W. Ochterski, 
 R. L. Martin, K. Morokuma, V. G. Zakrzewski, G. A. Voth, 
 P. Salvador, J. J. Dannenberg, S. Dapprich, A. D. Daniels, 
 O. Farkas, J. B. Foresman, J. V. Ortiz, J. Cioslowski, 
 and D. J. Fox, Gaussian, Inc., Wallingford CT, 2013.
 
 ******************************************
 Gaussian 09:  ES64L-G09RevD.01 24-Apr-2013
                17-Sep-2020 
 ******************************************
 %nprocshared=4
 Will use up to    4 processors via shared memory.
 %chk=freq_b3lyp_m062x_TS_associated_cycloaddition_PM6_toluene_3.chk
 ----------------------------------------------------------------------
 # freq b3lyp/6-31+g(d,p) scrf=(cpcm,solvent=toluene) geom=connectivity
  empiricaldispersion=gd3
 ----------------------------------------------------------------------
 1/10=4,30=1,38=1,57=2/1,3;
 2/12=2,17=6,18=5,40=1/2;
 3/5=1,6=6,7=111,11=2,16=1,25=1,30=1,70=2101,71=2,72=13,74=-5,124=31,140=1/1,2,3;
 4//1;
 5/5=2,38=5,53=13,98=1/2;
 8/6=4,10=90,11=11/1;
 11/6=1,8=1,9=11,15=111,16=1/1,2,10;
 10/6=1/2;
 6/7=2,8=2,9=2,10=2,18=1,28=1/1;
 7/8=1,10=1,25=1/1,2,3,16;
 1/10=4,30=1/3;
 99//99;
 -------------------
 Title Card Required
 -------------------
 Symbolic Z-matrix:
 Charge =  0 Multiplicity = 1
 C                     0.48459   0.83217  -0.8622 
 C                     1.66233   1.42393  -0.05173 
 C                    -0.23295   2.32156   0.91439 
 C                    -0.70098   1.64523  -0.35286 
 H                     0.58106   0.49628  -1.88398 
 H                    -1.72928   1.45978  -0.62517 
 C                     1.09193   1.70266   1.34408 
 H                     1.72572   2.40251   1.89708 
 H                     0.94876   0.78929   1.92465 
 C                     1.26301   2.53009  -0.92229 
 H                     1.70589   2.77624  -1.87877 
 C                    -0.03188   3.04525  -0.39511 
 H                    -0.52861   3.9505   -0.71654 
 H                     2.62873   0.9511   -0.19082 
 H                    -0.97113   2.67443   1.62379 
 N                    -0.77292  -0.90091   0.86543 
 N                     0.04425  -1.0276   -0.1451 
 C                    -2.12592  -0.86278   0.50374 
 C                     1.34083  -1.47446   0.2565 
 O                     1.69215  -1.82121   1.36608 
 O                    -3.0027   -0.71903   1.34589 
 O                     2.12662  -1.54133  -0.83918 
 O                    -2.39717  -1.02406  -0.81782 
 C                    -3.79376  -1.02046  -1.16615 
 H                    -3.82345  -1.17123  -2.24545 
 H                    -4.32112  -1.82777  -0.65165 
 H                    -4.25541  -0.06544  -0.89907 
 C                     3.4521   -2.06351  -0.61855 
 H                     3.99533  -1.44356   0.09977 
 H                     3.39912  -3.08781  -0.2417 
 H                     3.93818  -2.03783  -1.59314 
 

 GradGradGradGradGradGradGradGradGradGradGradGradGradGradGradGradGradGrad
 Berny optimization.
 Initialization pass.
 Trust Radius=3.00D-01 FncErr=1.00D-07 GrdErr=1.00D-07
 Number of steps in this run=      2 maximum allowed number of steps=      2.
 GradGradGradGradGradGradGradGradGradGradGradGradGradGradGradGradGradGrad

                          Input orientation:                          
 ---------------------------------------------------------------------
 Center     Atomic      Atomic             Coordinates (Angstroms)
 Number     Number       Type             X           Y           Z
 ---------------------------------------------------------------------
      1          6           0        0.484586    0.832165   -0.862195
      2          6           0        1.662329    1.423933   -0.051734
      3          6           0       -0.232954    2.321558    0.914391
      4          6           0       -0.700980    1.645225   -0.352864
      5          1           0        0.581062    0.496277   -1.883979
      6          1           0       -1.729275    1.459775   -0.625166
      7          6           0        1.091933    1.702663    1.344078
      8          1           0        1.725715    2.402507    1.897079
      9          1           0        0.948756    0.789288    1.924646
     10          6           0        1.263014    2.530094   -0.922290
     11          1           0        1.705894    2.776238   -1.878769
     12          6           0       -0.031884    3.045254   -0.395108
     13          1           0       -0.528606    3.950497   -0.716536
     14          1           0        2.628730    0.951101   -0.190824
     15          1           0       -0.971134    2.674434    1.623791
     16          7           0       -0.772917   -0.900905    0.865428
     17          7           0        0.044251   -1.027600   -0.145095
     18          6           0       -2.125924   -0.862779    0.503740
     19          6           0        1.340826   -1.474458    0.256504
     20          8           0        1.692152   -1.821213    1.366077
     21          8           0       -3.002703   -0.719033    1.345885
     22          8           0        2.126616   -1.541326   -0.839179
     23          8           0       -2.397167   -1.024059   -0.817817
     24          6           0       -3.793761   -1.020464   -1.166154
     25          1           0       -3.823447   -1.171225   -2.245451
     26          1           0       -4.321123   -1.827767   -0.651649
     27          1           0       -4.255411   -0.065435   -0.899071
     28          6           0        3.452098   -2.063509   -0.618545
     29          1           0        3.995325   -1.443564    0.099766
     30          1           0        3.399123   -3.087814   -0.241704
     31          1           0        3.938182   -2.037830   -1.593135
 ---------------------------------------------------------------------
                    Distance matrix (angstroms):
                    1          2          3          4          5
     1  C    0.000000
     2  C    1.547293   0.000000
     3  C    2.426811   2.308945   0.000000
     4  C    1.525140   2.392672   1.510765   0.000000
     5  H    1.079894   2.320949   3.438771   2.303915   0.000000
     6  H    2.313279   3.439925   2.313414   1.079783   2.801891
     7  C    2.448321   1.533406   1.524135   2.469301   3.483778
     8  H    3.408807   2.181627   2.192855   3.394785   4.386382
     9  H    2.825557   2.195003   2.182866   2.939610   3.837536
    10  C    1.868830   1.463186   2.377983   2.228118   2.350812
    11  H    2.510864   2.273474   3.430395   3.066043   2.542341
    12  C    2.320059   2.370010   1.509620   1.552274   3.014917
    13  H    3.282037   3.409646   2.323957   2.340139   3.811289
    14  H    2.249942   1.084826   3.359894   3.405148   2.695660
    15  H    3.419532   3.362479   1.082903   2.244865   4.411137
    16  N    2.751277   3.489481   3.267755   2.823506   3.368177
    17  N    2.041287   2.938861   3.523665   2.782540   2.373623
    18  C    3.399026   4.459648   3.727194   3.009040   3.856943
    19  C    2.702803   2.932413   4.161651   3.777926   3.007109
    20  O    3.669309   3.541476   4.590491   4.549509   4.143446
    21  O    4.409424   5.320542   4.135564   3.711252   4.975176
    22  O    2.886218   3.102965   4.854323   4.287879   2.762638
    23  O    3.428124   4.801985   4.344826   3.196609   3.509697
    24  C    4.672139   6.081606   5.308213   4.163248   4.685601
    25  H    4.948345   6.452982   5.922480   4.611299   4.723444
    26  H    5.496763   6.836311   6.031791   5.025573   5.563383
    27  H    4.824377   6.160831   5.016626   3.982296   4.967599
    28  C    4.153363   3.960656   5.929445   5.574348   4.049281
    29  H    4.292971   3.699779   5.719974   5.639217   4.399479
    30  H    4.923999   4.838223   6.617390   6.262975   4.846054
    31  H    4.549557   4.420320   6.533783   6.051858   4.216224
                    6          7          8          9         10
     6  H    0.000000
     7  C    3.449077   0.000000
     8  H    4.380345   1.094199   0.000000
     9  H    3.758051   1.091702   1.790782   0.000000
    10  C    3.191811   2.418747   2.859932   3.351747   0.000000
    11  H    3.886513   3.451993   3.794351   4.357430   1.082396
    12  C    2.334054   2.467850   2.959121   3.381168   1.489990
    13  H    2.766523   3.453264   3.782753   4.376264   2.295600
    14  H    4.409037   2.298372   2.698398   2.706235   2.212112
    15  H    2.666080   2.297569   2.724266   2.707447   3.390395
    16  N    2.951153   3.238107   4.268489   2.634929   4.371808
    17  N    3.092393   3.281708   4.331677   2.898800   3.840130
    18  C    2.612665   4.200270   5.238188   3.768548   5.003004
    19  C    4.337348   3.367323   4.227349   2.839183   4.175170
    20  O    5.141604   3.574696   4.257100   2.771164   4.935044
    21  O    3.202166   4.757169   5.692606   4.268961   5.822180
    22  O    4.890839   4.044829   4.816809   3.802347   4.162833
    23  O    2.579268   4.927740   6.009174   4.690899   5.102925
    24  C    3.272057   6.130799   7.180859   5.943039   6.183600
    25  H    3.732699   6.730892   7.792645   6.633795   6.428266
    26  H    4.186444   6.763730   7.807399   6.423231   7.088497
    27  H    2.963554   6.062341   7.048621   5.982247   6.098387
    28  C    6.265796   4.858633   5.408702   4.568697   5.097601
    29  H    6.459563   4.458334   4.813910   4.194925   4.929511
    30  H    6.864989   5.548558   6.125219   5.072405   6.048723
    31  H    6.729805   5.542530   6.065740   5.413321   5.335962
                   11         12         13         14         15
    11  H    0.000000
    12  C    2.300759   0.000000
    13  H    2.778967   1.081441   0.000000
    14  H    2.651775   3.392061   4.386516   0.000000
    15  H    4.409622   2.257355   2.702091   4.384259   0.000000
    16  N    5.215027   4.208355   5.108659   4.014573   3.660253
    17  N    4.498429   4.081231   5.043427   3.255285   4.226703
    18  C    5.796691   4.523898   5.216141   5.136080   3.885863
    19  C    4.770858   4.768304   5.819942   2.782469   4.942463
    20  O    5.627235   5.454959   6.525464   3.314641   5.231668
    21  O    6.692249   5.101635   5.672675   6.071562   3.964861
    22  O    4.460842   5.088520   6.101259   2.623866   5.782293
    23  O    5.692362   4.725733   5.314883   5.436361   4.655520
    24  C    6.720787   5.592521   5.964382   6.788721   5.422480
    25  H    6.803715   5.964764   6.278980   7.096221   6.155958
    26  H    7.682943   6.496901   6.911999   7.498995   6.055565
    27  H    6.676232   5.269587   5.481798   6.994738   4.965701
    28  C    5.297220   6.187691   7.212758   3.154164   6.858656
    29  H    5.192574   6.050851   7.087185   2.772444   6.629199
    30  H    6.319344   7.029215   8.074054   4.112047   7.468783
    31  H    5.314127   6.560064   7.522013   3.551739   7.526980
                   16         17         18         19         20
    16  N    0.000000
    17  N    1.305746   0.000000
    18  C    1.401035   2.271082   0.000000
    19  C    2.273249   1.429010   3.528970   0.000000
    20  O    2.678466   2.372560   4.029879   1.214422   0.000000
    21  O    2.288201   3.406195   1.224178   4.541328   4.822538
    22  O    3.423904   2.254309   4.510871   1.349985   2.265005
    23  O    2.342364   2.532408   1.358711   3.915305   4.703975
    24  C    3.642406   3.971517   2.365394   5.347340   6.094968
    25  H    4.365361   4.403545   3.245732   5.746429   6.624760
    26  H    3.968673   4.466918   2.661771   5.745192   6.342770
    27  H    3.992397   4.470049   2.671769   5.885454   6.602057
    28  C    4.626508   3.593144   5.815119   2.360119   2.663614
    29  H    4.859717   3.980448   6.161996   2.659302   2.655328
    30  H    4.838825   3.938144   6.002717   2.662276   2.665143
    31  H    5.434297   4.275521   6.523114   3.238026   3.721359
                   21         22         23         24         25
    21  O    0.000000
    22  O    5.635653   0.000000
    23  O    2.267448   4.553310   0.000000
    24  C    2.650844   5.952233   1.439384   0.000000
    25  H    3.711575   6.125180   2.023381   1.090180   0.000000
    26  H    2.637739   6.456822   2.091690   1.092961   1.794139
    27  H    2.652602   6.550734   2.092518   1.093862   1.795022
    28  C    6.879757   1.441616   5.944247   7.341001   7.508432
    29  H    7.144939   2.093621   6.471622   7.902622   8.167460
    30  H    7.008205   2.089946   6.179641   7.540963   7.736526
    31  H    7.651990   2.024040   6.462623   7.810268   7.837053
                   26         27         28         29         30
    26  H    0.000000
    27  H    1.780828   0.000000
    28  C    7.776865   7.967226   0.000000
    29  H    8.359159   8.424462   1.093343   0.000000
    30  H    7.833133   8.255834   1.092710   1.782026   0.000000
    31  H    8.315446   8.456183   1.089386   1.795085   1.794273
                   31
    31  H    0.000000
 Stoichiometry    C11H14N2O4
 Framework group  C1[X(C11H14N2O4)]
 Deg. of freedom    87
 Full point group                 C1      NOp   1
 Largest Abelian subgroup         C1      NOp   1
 Largest concise Abelian subgroup C1      NOp   1
                         Standard orientation:                         
 ---------------------------------------------------------------------
 Center     Atomic      Atomic             Coordinates (Angstroms)
 Number     Number       Type             X           Y           Z
 ---------------------------------------------------------------------
      1          6           0        0.484586    0.832165   -0.862195
      2          6           0        1.662329    1.423933   -0.051734
      3          6           0       -0.232954    2.321558    0.914391
      4          6           0       -0.700980    1.645225   -0.352864
      5          1           0        0.581062    0.496277   -1.883979
      6          1           0       -1.729275    1.459775   -0.625166
      7          6           0        1.091933    1.702663    1.344078
      8          1           0        1.725715    2.402507    1.897079
      9          1           0        0.948756    0.789288    1.924646
     10          6           0        1.263014    2.530094   -0.922290
     11          1           0        1.705894    2.776238   -1.878769
     12          6           0       -0.031884    3.045254   -0.395108
     13          1           0       -0.528606    3.950497   -0.716536
     14          1           0        2.628730    0.951101   -0.190824
     15          1           0       -0.971134    2.674434    1.623791
     16          7           0       -0.772917   -0.900905    0.865428
     17          7           0        0.044251   -1.027600   -0.145095
     18          6           0       -2.125924   -0.862779    0.503740
     19          6           0        1.340826   -1.474458    0.256504
     20          8           0        1.692152   -1.821213    1.366077
     21          8           0       -3.002703   -0.719033    1.345885
     22          8           0        2.126616   -1.541326   -0.839179
     23          8           0       -2.397167   -1.024059   -0.817817
     24          6           0       -3.793761   -1.020464   -1.166154
     25          1           0       -3.823447   -1.171225   -2.245451
     26          1           0       -4.321123   -1.827767   -0.651649
     27          1           0       -4.255411   -0.065435   -0.899071
     28          6           0        3.452098   -2.063509   -0.618545
     29          1           0        3.995325   -1.443564    0.099766
     30          1           0        3.399123   -3.087814   -0.241704
     31          1           0        3.938182   -2.037830   -1.593135
 ---------------------------------------------------------------------
 Rotational constants (GHZ):      0.5933393      0.4428602      0.3161738
 Standard basis: 6-31+G(d,p) (6D, 7F)
 There are   393 symmetry adapted cartesian basis functions of A   symmetry.
 There are   393 symmetry adapted basis functions of A   symmetry.
   393 basis functions,   642 primitive gaussians,   393 cartesian basis functions
    63 alpha electrons       63 beta electrons
       nuclear repulsion energy      1299.9343710741 Hartrees.
 NAtoms=   31 NActive=   31 NUniq=   31 SFac= 1.00D+00 NAtFMM=   60 NAOKFM=F Big=F
 Integral buffers will be    131072 words long.
 Raffenetti 2 integral format.
 Two-electron integral symmetry is turned on.
 Nuclear repulsion after empirical dispersion term =     1299.9009894789 Hartrees.
 Force inversion solution in PCM.
 ------------------------------------------------------------------------------
 Polarizable Continuum Model (PCM)
 =================================
 Model                : C-PCM.
 Atomic radii         : UFF (Universal Force Field).
 Polarization charges : Total charges.
 Charge compensation  : None.
 Solution method      : Matrix inversion.
 Cavity type          : Scaled VdW (van der Waals Surface) (Alpha=1.100).
 Cavity algorithm     : GePol (No added spheres)
                        Default sphere list used, NSphG=   31.
                        Lebedev-Laikov grids with approx.  5.0 points / Ang**2.
                        Smoothing algorithm: Karplus/York (Gamma=1.0000).
                        Polarization charges: spherical gaussians, with
                                              point-specific exponents (IZeta= 3).
                        Self-potential: point-specific (ISelfS= 7).
                        Self-field    : sphere-specific E.n sum rule (ISelfD= 2).
 1st derivatives      : Analytical E(r).r(x)/FMM algorithm (CHGder, D1EAlg=3).
                        Cavity 1st derivative terms included.
 2nd derivatives      : Analytical E(r).r(xy)/FMM algorithm (CHGder, D2EAlg=3).
                        Cavity 2nd derivative terms included.
 Solvent              : Toluene, Eps=   2.374100 Eps(inf)=   2.238315
 ------------------------------------------------------------------------------
 One-electron integrals computed using PRISM.
 NBasis=   393 RedAO= T EigKep=  5.94D-06  NBF=   393
 NBsUse=   393 1.00D-06 EigRej= -1.00D+00 NBFU=   393
 ExpMin= 4.38D-02 ExpMax= 5.48D+03 ExpMxC= 8.25D+02 IAcc=2 IRadAn=         4 AccDes= 0.00D+00
 Harris functional with IExCor=  402 and IRadAn=       4 diagonalized for initial guess.
 HarFok:  IExCor=  402 AccDes= 0.00D+00 IRadAn=         4 IDoV= 1 UseB2=F ITyADJ=14
 ICtDFT=  3500011 ScaDFX=  1.000000  1.000000  1.000000  1.000000
 FoFCou: FMM=F IPFlag=           0 FMFlag=      100000 FMFlg1=           0
         NFxFlg=           0 DoJE=T BraDBF=F KetDBF=T FulRan=T
         wScrn=  0.000000 ICntrl=     500 IOpCl=  0 I1Cent=   200000004 NGrid=           0
         NMat0=    1 NMatS0=      1 NMatT0=    0 NMatD0=    1 NMtDS0=    0 NMtDT0=    0
 Petite list used in FoFCou.
 Requested convergence on RMS density matrix=1.00D-08 within 128 cycles.
 Requested convergence on MAX density matrix=1.00D-06.
 Requested convergence on             energy=1.00D-06.
 No special actions if energy rises.
 Inv3:  Mode=1 IEnd=    15718563.
 Iteration    1 A*A^-1 deviation from unit magnitude is 4.66D-15 for   1121.
 Iteration    1 A*A^-1 deviation from orthogonality  is 2.00D-15 for   1074    203.
 Iteration    1 A^-1*A deviation from unit magnitude is 4.66D-15 for   1121.
 Iteration    1 A^-1*A deviation from orthogonality  is 2.27D-15 for   2106    541.
 Error on total polarization charges =  0.00920
 SCF Done:  E(RB3LYP) =  -837.882051818     A.U. after   18 cycles
            NFock= 18  Conv=0.53D-08     -V/T= 2.0092
 DoSCS=F DFT=T ScalE2(SS,OS)=  1.000000  1.000000
 Range of M.O.s used for correlation:     1   393
 NBasis=   393 NAE=    63 NBE=    63 NFC=     0 NFV=     0
 NROrb=    393 NOA=    63 NOB=    63 NVA=   330 NVB=   330

 **** Warning!!: The largest alpha MO coefficient is  0.75865627D+02


 **** Warning!!: The smallest alpha delta epsilon is  0.92539125D-01

 PrsmSu:  requested number of processors reduced to:   3 ShMem   1 Linda.
 Symmetrizing basis deriv contribution to polar:
 IMax=3 JMax=2 DiffMx= 0.00D+00
 G2DrvN: will do    16 centers at a time, making    2 passes.
 Calling FoFCou, ICntrl=  3107 FMM=F I1Cent=   0 AccDes= 0.00D+00.
 Calling FoFCou, ICntrl=  3107 FMM=F I1Cent=   0 AccDes= 0.00D+00.
 NEqPCM:  Using equilibrium solvation (IEInf=0, Eps=   2.3741, EpsInf=   2.2383)
 G2PCM: DoFxE=T DoFxN=T DoGrad=T DoDP/DQ/DG/TGxP=FFFF NFrqRd=   0 IEInf=0 SqF1=F DoCFld=F IF1Alg=4.
 End of G2Drv F.D. properties file   721 does not exist.
 End of G2Drv F.D. properties file   722 does not exist.
 End of G2Drv F.D. properties file   788 does not exist.
          IDoAtm=1111111111111111111111111111111
 NEqPCM:  Using equilibrium solvation (IEInf=0, Eps=   2.3741, EpsInf=   2.2383)
          Differentiating once with respect to electric field.
                with respect to dipole field.
          Differentiating once with respect to nuclear coordinates.
          There are    96 degrees of freedom in the 1st order CPHF.  IDoFFX=6 NUNeed=     3.
     96 vectors produced by pass  0 Test12= 2.17D-14 1.04D-09 XBig12= 4.59D+02 1.35D+01.
 AX will form    48 AO Fock derivatives at one time.
     96 vectors produced by pass  1 Test12= 2.17D-14 1.04D-09 XBig12= 1.05D+02 1.64D+00.
     93 vectors produced by pass  2 Test12= 2.17D-14 1.04D-09 XBig12= 1.23D+00 1.09D-01.
     93 vectors produced by pass  3 Test12= 2.17D-14 1.04D-09 XBig12= 5.51D-03 6.29D-03.
     93 vectors produced by pass  4 Test12= 2.17D-14 1.04D-09 XBig12= 1.11D-05 2.73D-04.
     88 vectors produced by pass  5 Test12= 2.17D-14 1.04D-09 XBig12= 1.44D-08 9.97D-06.
     44 vectors produced by pass  6 Test12= 2.17D-14 1.04D-09 XBig12= 1.92D-11 2.75D-07.
      3 vectors produced by pass  7 Test12= 2.17D-14 1.04D-09 XBig12= 4.21D-13 6.92D-08.
      3 vectors produced by pass  8 Test12= 2.17D-14 1.04D-09 XBig12= 5.75D-15 7.21D-09.
      1 vectors produced by pass  9 Test12= 2.17D-14 1.04D-09 XBig12= 5.56D-16 2.73D-09.
 InvSVY:  IOpt=1 It=  1 EMax= 1.78D-14
 Solved reduced A of dimension   610 with    96 vectors.
 Isotropic polarizability for W=    0.000000      215.82 Bohr**3.
 End of Minotr F.D. properties file   721 does not exist.
 End of Minotr F.D. properties file   722 does not exist.
 End of Minotr F.D. properties file   788 does not exist.

 **********************************************************************

            Population analysis using the SCF density.

 **********************************************************************

 Orbital symmetries:
       Occupied  (A) (A) (A) (A) (A) (A) (A) (A) (A) (A) (A) (A)
                 (A) (A) (A) (A) (A) (A) (A) (A) (A) (A) (A) (A)
                 (A) (A) (A) (A) (A) (A) (A) (A) (A) (A) (A) (A)
                 (A) (A) (A) (A) (A) (A) (A) (A) (A) (A) (A) (A)
                 (A) (A) (A) (A) (A) (A) (A) (A) (A) (A) (A) (A)
                 (A) (A) (A)
       Virtual   (A) (A) (A) (A) (A) (A) (A) (A) (A) (A) (A) (A)
                 (A) (A) (A) (A) (A) (A) (A) (A) (A) (A) (A) (A)
                 (A) (A) (A) (A) (A) (A) (A) (A) (A) (A) (A) (A)
                 (A) (A) (A) (A) (A) (A) (A) (A) (A) (A) (A) (A)
                 (A) (A) (A) (A) (A) (A) (A) (A) (A) (A) (A) (A)
                 (A) (A) (A) (A) (A) (A) (A) (A) (A) (A) (A) (A)
                 (A) (A) (A) (A) (A) (A) (A) (A) (A) (A) (A) (A)
                 (A) (A) (A) (A) (A) (A) (A) (A) (A) (A) (A) (A)
                 (A) (A) (A) (A) (A) (A) (A) (A) (A) (A) (A) (A)
                 (A) (A) (A) (A) (A) (A) (A) (A) (A) (A) (A) (A)
                 (A) (A) (A) (A) (A) (A) (A) (A) (A) (A) (A) (A)
                 (A) (A) (A) (A) (A) (A) (A) (A) (A) (A) (A) (A)
                 (A) (A) (A) (A) (A) (A) (A) (A) (A) (A) (A) (A)
                 (A) (A) (A) (A) (A) (A) (A) (A) (A) (A) (A) (A)
                 (A) (A) (A) (A) (A) (A) (A) (A) (A) (A) (A) (A)
                 (A) (A) (A) (A) (A) (A) (A) (A) (A) (A) (A) (A)
                 (A) (A) (A) (A) (A) (A) (A) (A) (A) (A) (A) (A)
                 (A) (A) (A) (A) (A) (A) (A) (A) (A) (A) (A) (A)
                 (A) (A) (A) (A) (A) (A) (A) (A) (A) (A) (A) (A)
                 (A) (A) (A) (A) (A) (A) (A) (A) (A) (A) (A) (A)
                 (A) (A) (A) (A) (A) (A) (A) (A) (A) (A) (A) (A)
                 (A) (A) (A) (A) (A) (A) (A) (A) (A) (A) (A) (A)
                 (A) (A) (A) (A) (A) (A) (A) (A) (A) (A) (A) (A)
                 (A) (A) (A) (A) (A) (A) (A) (A) (A) (A) (A) (A)
                 (A) (A) (A) (A) (A) (A) (A) (A) (A) (A) (A) (A)
                 (A) (A) (A) (A) (A) (A) (A) (A) (A) (A) (A) (A)
                 (A) (A) (A) (A) (A) (A) (A) (A) (A) (A) (A) (A)
                 (A) (A) (A) (A) (A) (A)
 The electronic state is 1-A.
 Alpha  occ. eigenvalues --  -19.21035 -19.19556 -19.15441 -19.13565 -14.40065
 Alpha  occ. eigenvalues --  -14.36455 -10.34561 -10.32864 -10.25970 -10.25488
 Alpha  occ. eigenvalues --  -10.24928 -10.24222 -10.23930 -10.23424 -10.23348
 Alpha  occ. eigenvalues --  -10.22483 -10.20645  -1.12519  -1.10673  -1.03544
 Alpha  occ. eigenvalues --   -1.01272  -1.00224  -0.97536  -0.81530  -0.79766
 Alpha  occ. eigenvalues --   -0.75603  -0.73133  -0.71009  -0.69805  -0.60304
 Alpha  occ. eigenvalues --   -0.59488  -0.58009  -0.57290  -0.56609  -0.55574
 Alpha  occ. eigenvalues --   -0.53689  -0.50312  -0.49603  -0.48659  -0.47936
 Alpha  occ. eigenvalues --   -0.47336  -0.46599  -0.45908  -0.44625  -0.43006
 Alpha  occ. eigenvalues --   -0.42583  -0.42263  -0.41090  -0.40390  -0.40046
 Alpha  occ. eigenvalues --   -0.38091  -0.37314  -0.36460  -0.36108  -0.35652
 Alpha  occ. eigenvalues --   -0.32377  -0.32019  -0.31264  -0.30369  -0.29774
 Alpha  occ. eigenvalues --   -0.28334  -0.24929  -0.20740
 Alpha virt. eigenvalues --   -0.11487  -0.01741  -0.00355   0.00844   0.01598
 Alpha virt. eigenvalues --    0.01708   0.02360   0.02727   0.03185   0.03496
 Alpha virt. eigenvalues --    0.03992   0.04159   0.04278   0.05134   0.06054
 Alpha virt. eigenvalues --    0.06326   0.07192   0.07361   0.08185   0.08634
 Alpha virt. eigenvalues --    0.09204   0.09557   0.09862   0.10366   0.10521
 Alpha virt. eigenvalues --    0.10814   0.11275   0.11616   0.11726   0.12744
 Alpha virt. eigenvalues --    0.13215   0.13307   0.13886   0.14582   0.14838
 Alpha virt. eigenvalues --    0.14922   0.15657   0.15852   0.16411   0.16782
 Alpha virt. eigenvalues --    0.17338   0.17888   0.18049   0.18266   0.18668
 Alpha virt. eigenvalues --    0.18997   0.19267   0.20052   0.20422   0.20867
 Alpha virt. eigenvalues --    0.21008   0.21441   0.21757   0.22283   0.22861
 Alpha virt. eigenvalues --    0.23101   0.23320   0.23734   0.24391   0.25112
 Alpha virt. eigenvalues --    0.25272   0.25908   0.26418   0.26744   0.27012
 Alpha virt. eigenvalues --    0.28220   0.28548   0.28879   0.29813   0.30031
 Alpha virt. eigenvalues --    0.30233   0.30751   0.31421   0.31815   0.32232
 Alpha virt. eigenvalues --    0.32448   0.33215   0.33677   0.33750   0.34184
 Alpha virt. eigenvalues --    0.34928   0.35007   0.35402   0.35657   0.36709
 Alpha virt. eigenvalues --    0.37281   0.37604   0.37971   0.38881   0.40152
 Alpha virt. eigenvalues --    0.40782   0.41757   0.42458   0.43266   0.44225
 Alpha virt. eigenvalues --    0.44502   0.45020   0.45853   0.48679   0.49218
 Alpha virt. eigenvalues --    0.51106   0.53379   0.55194   0.58418   0.64454
 Alpha virt. eigenvalues --    0.65385   0.66331   0.67339   0.67740   0.69762
 Alpha virt. eigenvalues --    0.70242   0.72564   0.73237   0.74413   0.74901
 Alpha virt. eigenvalues --    0.76041   0.76699   0.77060   0.78292   0.78911
 Alpha virt. eigenvalues --    0.80173   0.80318   0.80635   0.81836   0.82989
 Alpha virt. eigenvalues --    0.83276   0.85416   0.87592   0.88790   0.89785
 Alpha virt. eigenvalues --    0.90563   0.91384   0.92721   0.93270   0.94961
 Alpha virt. eigenvalues --    0.95652   0.95964   0.96533   0.96834   0.98458
 Alpha virt. eigenvalues --    1.00409   1.01368   1.01795   1.03959   1.04860
 Alpha virt. eigenvalues --    1.06341   1.07291   1.07564   1.09526   1.09873
 Alpha virt. eigenvalues --    1.11295   1.12596   1.14134   1.15869   1.16516
 Alpha virt. eigenvalues --    1.18048   1.18751   1.21404   1.21876   1.23293
 Alpha virt. eigenvalues --    1.24760   1.25286   1.25844   1.26681   1.29516
 Alpha virt. eigenvalues --    1.29741   1.30476   1.32160   1.32934   1.34284
 Alpha virt. eigenvalues --    1.34706   1.35833   1.36687   1.37779   1.38867
 Alpha virt. eigenvalues --    1.40148   1.41734   1.43814   1.46266   1.46899
 Alpha virt. eigenvalues --    1.47518   1.49025   1.50133   1.50720   1.51852
 Alpha virt. eigenvalues --    1.54307   1.55193   1.56395   1.59429   1.61181
 Alpha virt. eigenvalues --    1.64885   1.67291   1.68740   1.70612   1.71559
 Alpha virt. eigenvalues --    1.73856   1.74697   1.76523   1.77623   1.79183
 Alpha virt. eigenvalues --    1.80347   1.82350   1.82675   1.83953   1.85770
 Alpha virt. eigenvalues --    1.87640   1.87975   1.88231   1.89666   1.90602
 Alpha virt. eigenvalues --    1.91905   1.93343   1.94296   1.94566   1.96621
 Alpha virt. eigenvalues --    1.96724   1.97660   1.98970   2.00046   2.00925
 Alpha virt. eigenvalues --    2.01565   2.02565   2.03159   2.04426   2.05470
 Alpha virt. eigenvalues --    2.06482   2.07178   2.08495   2.10653   2.11187
 Alpha virt. eigenvalues --    2.12031   2.13087   2.14476   2.15190   2.15837
 Alpha virt. eigenvalues --    2.17357   2.19456   2.20364   2.23583   2.26704
 Alpha virt. eigenvalues --    2.30746   2.32386   2.35636   2.36244   2.38934
 Alpha virt. eigenvalues --    2.39497   2.40486   2.40756   2.42203   2.43698
 Alpha virt. eigenvalues --    2.44981   2.46219   2.48014   2.49725   2.50475
 Alpha virt. eigenvalues --    2.51869   2.52084   2.53521   2.54097   2.54810
 Alpha virt. eigenvalues --    2.56812   2.58570   2.59156   2.59703   2.60496
 Alpha virt. eigenvalues --    2.61566   2.63276   2.64041   2.64674   2.65305
 Alpha virt. eigenvalues --    2.67893   2.69416   2.70117   2.73141   2.73858
 Alpha virt. eigenvalues --    2.75852   2.76653   2.78513   2.78889   2.80449
 Alpha virt. eigenvalues --    2.81454   2.82817   2.83661   2.83980   2.86370
 Alpha virt. eigenvalues --    2.86827   2.91497   2.91935   2.95069   2.98025
 Alpha virt. eigenvalues --    3.02139   3.06590   3.08501   3.09137   3.15043
 Alpha virt. eigenvalues --    3.18553   3.21666   3.25407   3.26296   3.29190
 Alpha virt. eigenvalues --    3.31196   3.31294   3.32834   3.35572   3.40994
 Alpha virt. eigenvalues --    3.42606   3.43121   3.45998   3.47150   3.50410
 Alpha virt. eigenvalues --    3.51521   3.62313   3.69355   4.27486   4.39224
 Alpha virt. eigenvalues --    4.42478   4.45486   4.48404   4.52868   4.57730
 Alpha virt. eigenvalues --    4.59201   4.60980   4.62421   4.64760   4.70030
 Alpha virt. eigenvalues --    4.71299   4.77249   4.80676   4.90129   4.98869
          Condensed to atoms (all electrons):
               1          2          3          4          5          6
     1  C   10.402506  -1.045564   1.508456  -4.922624   0.337467   0.131429
     2  C   -1.045564   8.045580  -0.286304   0.219095  -0.032269  -0.021925
     3  C    1.508456  -0.286304   7.579753  -2.670940  -0.018479   0.059515
     4  C   -4.922624   0.219095  -2.670940  14.293261   0.029058   0.122796
     5  H    0.337467  -0.032269  -0.018479   0.029058   0.500535  -0.003090
     6  H    0.131429  -0.021925   0.059515   0.122796  -0.003090   0.505290
     7  C   -0.420361  -0.445878  -0.642243   1.214083   0.011621  -0.006935
     8  H    0.006571  -0.075345  -0.035194  -0.004554  -0.000073  -0.000079
     9  H   -0.045838   0.002371   0.018415  -0.067472   0.000025   0.000095
    10  C   -1.772242  -0.910381  -0.609187   2.536643   0.040071  -0.045222
    11  H    0.116489   0.023346   0.012943  -0.080180  -0.002670   0.000017
    12  C    2.340413   0.189385   0.937700  -4.936984  -0.031680   0.083879
    13  H   -0.014131  -0.008982   0.012280   0.078461   0.000066  -0.002942
    14  H    0.065309   0.175945   0.035015  -0.025467  -0.001980  -0.000030
    15  H   -0.030471   0.016166   0.194908   0.041173  -0.000042  -0.002582
    16  N    0.231654   0.082995   0.032502  -0.176567   0.006076   0.011359
    17  N   -0.409864  -0.009171  -0.049894   0.344453  -0.027387  -0.012434
    18  C   -0.006021   0.094943  -0.105989   0.066767  -0.001293  -0.008453
    19  C   -0.134580  -0.076718   0.114823  -0.202759  -0.005975   0.006816
    20  O    0.002159   0.011649   0.015290  -0.027078  -0.000694  -0.000014
    21  O   -0.006040   0.004257  -0.021838  -0.002098  -0.000055  -0.000300
    22  O   -0.045081  -0.033313   0.013545   0.039628   0.001274  -0.000258
    23  O    0.039456   0.012622   0.004620  -0.029577   0.000401   0.002893
    24  C   -0.011218  -0.006973  -0.020079   0.038966   0.000473   0.002520
    25  H   -0.001340  -0.000123  -0.000420   0.002553  -0.000003  -0.000039
    26  H    0.000494   0.000160   0.000552  -0.003121   0.000000  -0.000002
    27  H    0.001054  -0.000470  -0.002239   0.003842  -0.000001   0.000361
    28  C   -0.001850   0.033432   0.004170  -0.004993   0.000802  -0.000030
    29  H    0.000137   0.002839  -0.000399   0.000792   0.000005   0.000000
    30  H   -0.000493  -0.001515   0.000068  -0.000294  -0.000004   0.000000
    31  H    0.000493   0.000947   0.000134  -0.000544   0.000005   0.000000
               7          8          9         10         11         12
     1  C   -0.420361   0.006571  -0.045838  -1.772242   0.116489   2.340413
     2  C   -0.445878  -0.075345   0.002371  -0.910381   0.023346   0.189385
     3  C   -0.642243  -0.035194   0.018415  -0.609187   0.012943   0.937700
     4  C    1.214083  -0.004554  -0.067472   2.536643  -0.080180  -4.936984
     5  H    0.011621  -0.000073   0.000025   0.040071  -0.002670  -0.031680
     6  H   -0.006935  -0.000079   0.000095  -0.045222   0.000017   0.083879
     7  C    6.055516   0.411738   0.368911   0.483715  -0.007009  -0.628275
     8  H    0.411738   0.547771  -0.023735   0.020762  -0.000026  -0.002118
     9  H    0.368911  -0.023735   0.493571   0.010887  -0.000087   0.030729
    10  C    0.483715   0.020762   0.010887   7.925401   0.184564  -1.670746
    11  H   -0.007009  -0.000026  -0.000087   0.184564   0.511185   0.067833
    12  C   -0.628275  -0.002118   0.030729  -1.670746   0.067833   9.522350
    13  H    0.005475   0.000090  -0.000076   0.038509  -0.002680   0.219536
    14  H   -0.005602  -0.001122  -0.000942   0.085620  -0.002881  -0.003958
    15  H    0.045187  -0.001454  -0.001516   0.002642  -0.000042   0.063181
    16  N   -0.135780  -0.000109  -0.027308  -0.085091   0.000306   0.243414
    17  N    0.142731  -0.002784   0.040735   0.023014   0.000190  -0.174098
    18  C    0.049082  -0.001201  -0.003793  -0.032603   0.000440  -0.098885
    19  C   -0.102808   0.002834   0.004797  -0.162769   0.003153   0.154010
    20  O   -0.062272   0.000578   0.000406  -0.009059  -0.000009   0.017909
    21  O    0.004610  -0.000033  -0.000345   0.002075   0.000001  -0.017520
    22  O   -0.013990   0.000630  -0.000872   0.072588  -0.000539  -0.023913
    23  O    0.004013  -0.000030  -0.000063   0.001251   0.000023  -0.014768
    24  C    0.004114   0.000011  -0.000297   0.000271   0.000000   0.006759
    25  H    0.000050   0.000000   0.000000   0.000005   0.000000   0.000915
    26  H    0.000005   0.000000   0.000000   0.000003   0.000000  -0.000403
    27  H    0.000163   0.000000   0.000000   0.000014   0.000000   0.000436
    28  C   -0.018240  -0.000110   0.000349   0.025560  -0.000038  -0.006266
    29  H   -0.000894  -0.000001  -0.000002  -0.000298   0.000000  -0.000027
    30  H    0.000060   0.000000   0.000001  -0.000172   0.000000   0.000127
    31  H   -0.000200   0.000000   0.000000  -0.000205   0.000000  -0.000100
              13         14         15         16         17         18
     1  C   -0.014131   0.065309  -0.030471   0.231654  -0.409864  -0.006021
     2  C   -0.008982   0.175945   0.016166   0.082995  -0.009171   0.094943
     3  C    0.012280   0.035015   0.194908   0.032502  -0.049894  -0.105989
     4  C    0.078461  -0.025467   0.041173  -0.176567   0.344453   0.066767
     5  H    0.000066  -0.001980  -0.000042   0.006076  -0.027387  -0.001293
     6  H   -0.002942  -0.000030  -0.002582   0.011359  -0.012434  -0.008453
     7  C    0.005475  -0.005602   0.045187  -0.135780   0.142731   0.049082
     8  H    0.000090  -0.001122  -0.001454  -0.000109  -0.002784  -0.001201
     9  H   -0.000076  -0.000942  -0.001516  -0.027308   0.040735  -0.003793
    10  C    0.038509   0.085620   0.002642  -0.085091   0.023014  -0.032603
    11  H   -0.002680  -0.002881  -0.000042   0.000306   0.000190   0.000440
    12  C    0.219536  -0.003958   0.063181   0.243414  -0.174098  -0.098885
    13  H    0.516581  -0.000026  -0.002476   0.000355  -0.000117  -0.001194
    14  H   -0.000026   0.524518  -0.000124   0.002472  -0.024276  -0.002688
    15  H   -0.002476  -0.000124   0.511985  -0.003107   0.000048   0.003133
    16  N    0.000355   0.002472  -0.003107   9.233099  -1.331988   0.003933
    17  N   -0.000117  -0.024276   0.000048  -1.331988   8.974416  -0.050209
    18  C   -0.001194  -0.002688   0.003133   0.003933  -0.050209   5.248391
    19  C    0.000646  -0.004592  -0.001132  -0.340816   0.133178  -0.185399
    20  O    0.000006   0.002958  -0.000090   0.028174  -0.148271  -0.031543
    21  O    0.000009  -0.000003   0.000324  -0.079784  -0.014006   0.597720
    22  O    0.000033   0.008838  -0.000049  -0.046973  -0.217067  -0.045978
    23  O   -0.000118  -0.000124   0.000105  -0.067484  -0.024138   0.273441
    24  C   -0.000033   0.000027  -0.000103   0.072097  -0.067337  -0.147364
    25  H    0.000000   0.000000   0.000000   0.001261  -0.004465   0.004301
    26  H    0.000000   0.000000   0.000000   0.001463  -0.002808  -0.004998
    27  H    0.000000   0.000000  -0.000002  -0.000287  -0.001647  -0.022088
    28  C   -0.000013   0.001431   0.000000   0.009297  -0.049611  -0.005768
    29  H    0.000000   0.000249   0.000000  -0.001412   0.004055   0.000110
    30  H    0.000000   0.000026   0.000000   0.001304  -0.003087  -0.000404
    31  H    0.000000  -0.000078   0.000000  -0.000489  -0.005119  -0.000026
              19         20         21         22         23         24
     1  C   -0.134580   0.002159  -0.006040  -0.045081   0.039456  -0.011218
     2  C   -0.076718   0.011649   0.004257  -0.033313   0.012622  -0.006973
     3  C    0.114823   0.015290  -0.021838   0.013545   0.004620  -0.020079
     4  C   -0.202759  -0.027078  -0.002098   0.039628  -0.029577   0.038966
     5  H   -0.005975  -0.000694  -0.000055   0.001274   0.000401   0.000473
     6  H    0.006816  -0.000014  -0.000300  -0.000258   0.002893   0.002520
     7  C   -0.102808  -0.062272   0.004610  -0.013990   0.004013   0.004114
     8  H    0.002834   0.000578  -0.000033   0.000630  -0.000030   0.000011
     9  H    0.004797   0.000406  -0.000345  -0.000872  -0.000063  -0.000297
    10  C   -0.162769  -0.009059   0.002075   0.072588   0.001251   0.000271
    11  H    0.003153  -0.000009   0.000001  -0.000539   0.000023   0.000000
    12  C    0.154010   0.017909  -0.017520  -0.023913  -0.014768   0.006759
    13  H    0.000646   0.000006   0.000009   0.000033  -0.000118  -0.000033
    14  H   -0.004592   0.002958  -0.000003   0.008838  -0.000124   0.000027
    15  H   -0.001132  -0.000090   0.000324  -0.000049   0.000105  -0.000103
    16  N   -0.340816   0.028174  -0.079784  -0.046973  -0.067484   0.072097
    17  N    0.133178  -0.148271  -0.014006  -0.217067  -0.024138  -0.067337
    18  C   -0.185399  -0.031543   0.597720  -0.045978   0.273441  -0.147364
    19  C    5.618101   0.698323  -0.003324   0.243894  -0.056648  -0.001193
    20  O    0.698323   8.119774   0.001573  -0.163761  -0.006906  -0.000866
    21  O   -0.003324   0.001573   8.212682   0.001243  -0.189641  -0.044746
    22  O    0.243894  -0.163761   0.001243   8.469712  -0.014882  -0.001596
    23  O   -0.056648  -0.006906  -0.189641  -0.014882   8.538957  -0.002941
    24  C   -0.001193  -0.000866  -0.044746  -0.001596  -0.002941   5.063869
    25  H   -0.000497  -0.000004   0.000180  -0.000010  -0.067829   0.421972
    26  H   -0.000241  -0.000003   0.002086  -0.000005  -0.040530   0.410779
    27  H    0.000123  -0.000001   0.002769  -0.000005  -0.043627   0.424852
    28  C   -0.202549  -0.048569  -0.000169   0.079082   0.000479  -0.000171
    29  H   -0.021051   0.000553   0.000000  -0.040209   0.000005  -0.000005
    30  H   -0.014505   0.004420   0.000000  -0.037179   0.000002   0.000011
    31  H    0.010490   0.000375   0.000000  -0.061481  -0.000007  -0.000002
              25         26         27         28         29         30
     1  C   -0.001340   0.000494   0.001054  -0.001850   0.000137  -0.000493
     2  C   -0.000123   0.000160  -0.000470   0.033432   0.002839  -0.001515
     3  C   -0.000420   0.000552  -0.002239   0.004170  -0.000399   0.000068
     4  C    0.002553  -0.003121   0.003842  -0.004993   0.000792  -0.000294
     5  H   -0.000003   0.000000  -0.000001   0.000802   0.000005  -0.000004
     6  H   -0.000039  -0.000002   0.000361  -0.000030   0.000000   0.000000
     7  C    0.000050   0.000005   0.000163  -0.018240  -0.000894   0.000060
     8  H    0.000000   0.000000   0.000000  -0.000110  -0.000001   0.000000
     9  H    0.000000   0.000000   0.000000   0.000349  -0.000002   0.000001
    10  C    0.000005   0.000003   0.000014   0.025560  -0.000298  -0.000172
    11  H    0.000000   0.000000   0.000000  -0.000038   0.000000   0.000000
    12  C    0.000915  -0.000403   0.000436  -0.006266  -0.000027   0.000127
    13  H    0.000000   0.000000   0.000000  -0.000013   0.000000   0.000000
    14  H    0.000000   0.000000   0.000000   0.001431   0.000249   0.000026
    15  H    0.000000   0.000000  -0.000002   0.000000   0.000000   0.000000
    16  N    0.001261   0.001463  -0.000287   0.009297  -0.001412   0.001304
    17  N   -0.004465  -0.002808  -0.001647  -0.049611   0.004055  -0.003087
    18  C    0.004301  -0.004998  -0.022088  -0.005768   0.000110  -0.000404
    19  C   -0.000497  -0.000241   0.000123  -0.202549  -0.021051  -0.014505
    20  O   -0.000004  -0.000003  -0.000001  -0.048569   0.000553   0.004420
    21  O    0.000180   0.002086   0.002769  -0.000169   0.000000   0.000000
    22  O   -0.000010  -0.000005  -0.000005   0.079082  -0.040209  -0.037179
    23  O   -0.067829  -0.040530  -0.043627   0.000479   0.000005   0.000002
    24  C    0.421972   0.410779   0.424852  -0.000171  -0.000005   0.000011
    25  H    0.550386  -0.028079  -0.030326  -0.000002   0.000000   0.000000
    26  H   -0.028079   0.533499  -0.032990   0.000003   0.000000   0.000000
    27  H   -0.030326  -0.032990   0.545352  -0.000001   0.000000   0.000000
    28  C   -0.000002   0.000003  -0.000001   5.070813   0.417982   0.417259
    29  H    0.000000   0.000000   0.000000   0.417982   0.539091  -0.032829
    30  H    0.000000   0.000000   0.000000   0.417259  -0.032829   0.525676
    31  H    0.000000   0.000000   0.000000   0.415226  -0.029589  -0.027741
              31
     1  C    0.000493
     2  C    0.000947
     3  C    0.000134
     4  C   -0.000544
     5  H    0.000005
     6  H    0.000000
     7  C   -0.000200
     8  H    0.000000
     9  H    0.000000
    10  C   -0.000205
    11  H    0.000000
    12  C   -0.000100
    13  H    0.000000
    14  H   -0.000078
    15  H    0.000000
    16  N   -0.000489
    17  N   -0.005119
    18  C   -0.000026
    19  C    0.010490
    20  O    0.000375
    21  O    0.000000
    22  O   -0.061481
    23  O   -0.000007
    24  C   -0.000002
    25  H    0.000000
    26  H    0.000000
    27  H    0.000000
    28  C    0.415226
    29  H   -0.029589
    30  H   -0.027741
    31  H    0.540111
 Mulliken charges:
               1
     1  C   -0.316369
     2  C    0.039200
     3  C   -0.081484
     4  C    0.123682
     5  H    0.197813
     6  H    0.177365
     7  C   -0.310588
     8  H    0.156985
     9  H    0.201053
    10  C   -0.155618
    11  H    0.175673
    12  C   -0.268833
    13  H    0.160743
    14  H    0.171487
    15  H    0.164336
    16  N   -0.664564
    17  N   -0.033040
    18  C    0.413638
    19  C    0.526369
    20  O   -0.405005
    21  O   -0.449627
    22  O   -0.183305
    23  O   -0.318951
    24  C   -0.141796
    25  H    0.151517
    26  H    0.164137
    27  H    0.154718
    28  C   -0.137506
    29  H    0.160900
    30  H    0.169270
    31  H    0.157800
 Sum of Mulliken charges =   0.00000
 Mulliken charges with hydrogens summed into heavy atoms:
               1
     1  C   -0.118556
     2  C    0.210687
     3  C    0.082853
     4  C    0.301047
     7  C    0.047450
    10  C    0.020055
    12  C   -0.108091
    16  N   -0.664564
    17  N   -0.033040
    18  C    0.413638
    19  C    0.526369
    20  O   -0.405005
    21  O   -0.449627
    22  O   -0.183305
    23  O   -0.318951
    24  C    0.328576
    28  C    0.350464
 APT charges:
               1
     1  C   -0.717559
     2  C    0.273713
     3  C    0.044032
     4  C   -0.333631
     5  H    0.096043
     6  H    0.104166
     7  C    0.039425
     8  H   -0.005300
     9  H    0.049305
    10  C    0.068799
    11  H    0.090239
    12  C    0.279411
    13  H    0.044546
    14  H    0.046832
    15  H    0.062124
    16  N   -0.696052
    17  N    0.086528
    18  C    1.687424
    19  C    1.545944
    20  O   -0.880899
    21  O   -1.030527
    22  O   -0.924840
    23  O   -0.969857
    24  C    0.583603
    25  H   -0.011061
    26  H   -0.027233
    27  H   -0.032929
    28  C    0.566674
    29  H   -0.023941
    30  H   -0.017167
    31  H    0.002186
 Sum of APT charges =   0.00000
 APT charges with hydrogens summed into heavy atoms:
               1
     1  C   -0.621516
     2  C    0.320545
     3  C    0.106157
     4  C   -0.229466
     7  C    0.083430
    10  C    0.159038
    12  C    0.323957
    16  N   -0.696052
    17  N    0.086528
    18  C    1.687424
    19  C    1.545944
    20  O   -0.880899
    21  O   -1.030527
    22  O   -0.924840
    23  O   -0.969857
    24  C    0.512380
    28  C    0.527752
 Electronic spatial extent (au):  <R**2>=           3772.5250
 Charge=              0.0000 electrons
 Dipole moment (field-independent basis, Debye):
    X=              4.0435    Y=              6.3956    Z=             -6.4978  Tot=              9.9737
 Quadrupole moment (field-independent basis, Debye-Ang):
   XX=            -88.2366   YY=            -89.1073   ZZ=           -106.2964
   XY=             -2.0453   XZ=              5.1968   YZ=              4.7058
 Traceless Quadrupole moment (field-independent basis, Debye-Ang):
   XX=              6.3102   YY=              5.4395   ZZ=            -11.7497
   XY=             -2.0453   XZ=              5.1968   YZ=              4.7058
 Octapole moment (field-independent basis, Debye-Ang**2):
  XXX=             35.3970  YYY=              5.1746  ZZZ=            -23.8489  XYY=              2.0577
  XXY=            -19.2632  XXZ=            -56.7384  XZZ=              8.1200  YZZ=             18.1999
  YYZ=            -17.7409  XYZ=             -1.8283
 Hexadecapole moment (field-independent basis, Debye-Ang**3):
 XXXX=          -2298.0609 YYYY=          -1688.7666 ZZZZ=           -622.3468 XXXY=            -61.0582
 XXXZ=            100.4836 YYYX=            -44.8369 YYYZ=            -10.9819 ZZZX=             11.1338
 ZZZY=             25.0069 XXYY=           -646.2941 XXZZ=           -543.1702 YYZZ=           -401.7973
 XXYZ=             58.4287 YYXZ=            -29.9985 ZZXY=             13.8500
 N-N= 1.299900989479D+03 E-N=-4.553725808048D+03  KE= 8.302340281409D+02
  Exact polarizability: 222.687  37.951 256.404 -18.877 -30.289 168.365
 Approx polarizability: 299.286 114.084 448.561 -61.454-102.182 260.104
 D2PCM: C-PCM CHGder 2nd derivatives, FixD1E=F FixD2E=F DoIter=F DoCFld=F I1PDM=0
 Calling FoFJK, ICntrl=    100127 FMM=F ISym2X=0 I1Cent= 0 IOpClX= 0 NMat=1 NMatS=1 NMatT=0.
 Full mass-weighted force constant matrix:
 Low frequencies --- -492.6833  -12.7550    0.0002    0.0009    0.0012    7.2883
 Low frequencies ---   11.2669   34.2279   44.4108
 ******    1 imaginary frequencies (negative Signs) ****** 
 Diagonal vibrational polarizability:
       74.7567044     190.5221240      41.6405737
 Harmonic frequencies (cm**-1), IR intensities (KM/Mole), Raman scattering
 activities (A**4/AMU), depolarization ratios for plane and unpolarized
 incident light, reduced masses (AMU), force constants (mDyne/A),
 and normal coordinates:
                      1                      2                      3
                      A                      A                      A
 Frequencies --   -492.6832                33.7086                44.2648
 Red. masses --     10.3018                 3.7756                 7.1843
 Frc consts  --      1.4733                 0.0025                 0.0083
 IR Inten    --    851.6154                 0.5187                 0.1387
  Atom  AN      X      Y      Z        X      Y      Z        X      Y      Z
     1   6     0.20   0.64  -0.26    -0.08   0.01  -0.02     0.01  -0.05   0.04
     2   6     0.06  -0.01   0.10     0.03   0.00  -0.18     0.00  -0.04   0.06
     3   6     0.02   0.01   0.03     0.16  -0.01   0.10    -0.01  -0.02   0.01
     4   6    -0.03   0.11  -0.05    -0.01   0.01   0.15     0.02  -0.02   0.00
     5   1     0.10  -0.22   0.04    -0.22   0.02  -0.04     0.04  -0.01   0.03
     6   1    -0.01  -0.12   0.05    -0.05   0.02   0.28     0.02  -0.01  -0.03
     7   6     0.01   0.00   0.04     0.22  -0.02  -0.10    -0.03  -0.03   0.05
     8   1    -0.01   0.02   0.05     0.30  -0.02  -0.17    -0.04  -0.03   0.06
     9   1     0.02   0.01   0.06     0.31  -0.02  -0.08    -0.05  -0.03   0.04
    10   6    -0.08  -0.21  -0.12    -0.09   0.02  -0.11     0.04  -0.03   0.06
    11   1     0.12  -0.01   0.04    -0.23   0.03  -0.17     0.07  -0.03   0.06
    12   6    -0.09   0.01   0.03    -0.02   0.01   0.08     0.03  -0.02   0.01
    13   1     0.07   0.16   0.20    -0.06   0.01   0.16     0.04  -0.02  -0.01
    14   1     0.05  -0.03   0.10     0.01   0.00  -0.32     0.01  -0.03   0.09
    15   1     0.01  -0.04   0.05     0.26  -0.02   0.20    -0.03   0.00  -0.01
    16   7     0.07  -0.07  -0.02    -0.04   0.02   0.00    -0.02  -0.05  -0.01
    17   7    -0.15  -0.37   0.07    -0.02   0.00   0.01    -0.02  -0.02  -0.02
    18   6    -0.06   0.00  -0.03    -0.03  -0.03  -0.03    -0.02  -0.05  -0.01
    19   6     0.02  -0.04   0.04    -0.02   0.02   0.04     0.02   0.09   0.00
    20   8     0.04   0.02   0.04    -0.04   0.04   0.05     0.17   0.48   0.07
    21   8     0.03   0.01   0.01    -0.06  -0.12  -0.04    -0.02  -0.16   0.00
    22   8    -0.03  -0.01   0.02    -0.01   0.01   0.05    -0.11  -0.23  -0.07
    23   8    -0.01  -0.01   0.02     0.01   0.04  -0.04    -0.01   0.08  -0.03
    24   6    -0.01   0.00  -0.01     0.01  -0.01  -0.08    -0.01   0.10  -0.04
    25   1     0.01   0.00   0.00     0.05   0.06  -0.09    -0.01   0.22  -0.05
    26   1    -0.01   0.00  -0.01     0.05  -0.08  -0.15    -0.01   0.04  -0.13
    27   1     0.01   0.01  -0.01    -0.04  -0.06  -0.02    -0.02   0.07   0.07
    28   6    -0.01   0.00   0.00    -0.01   0.02   0.09    -0.05  -0.08  -0.06
    29   1    -0.01   0.01  -0.01    -0.02   0.04   0.08     0.01   0.21  -0.35
    30   1     0.00   0.00   0.00     0.00   0.03   0.11     0.06   0.05   0.30
    31   1    -0.03   0.02  -0.01     0.01   0.01   0.10    -0.17  -0.39  -0.13
                      4                      5                      6
                      A                      A                      A
 Frequencies --     54.3120                73.8583                87.9926
 Red. masses --      4.6446                 4.2535                 3.5774
 Frc consts  --      0.0081                 0.0137                 0.0163
 IR Inten    --      3.9342                 0.5943                 2.9134
  Atom  AN      X      Y      Z        X      Y      Z        X      Y      Z
     1   6     0.03   0.05   0.01     0.05   0.05   0.02     0.03  -0.05  -0.02
     2   6     0.04   0.02   0.02     0.04   0.02   0.06     0.04  -0.09   0.01
     3   6     0.06   0.00   0.07     0.04   0.13  -0.05     0.05  -0.04  -0.02
     4   6     0.04   0.04   0.05     0.05   0.10  -0.05     0.05  -0.01  -0.03
     5   1     0.02   0.08   0.00     0.07   0.02   0.03     0.04  -0.03  -0.02
     6   1     0.04   0.06   0.05     0.06   0.11  -0.07     0.05   0.02  -0.05
     7   6     0.06  -0.02   0.04    -0.01   0.08   0.02     0.02  -0.09   0.00
     8   1     0.07  -0.04   0.05     0.00   0.07   0.03     0.04  -0.12   0.02
     9   1     0.06  -0.04   0.01    -0.07   0.10   0.04    -0.02  -0.09  -0.01
    10   6     0.04   0.05   0.06     0.12   0.00   0.00     0.10  -0.07   0.02
    11   1     0.03   0.08   0.07     0.18  -0.05   0.01     0.12  -0.07   0.03
    12   6     0.05   0.04   0.09     0.12   0.07  -0.08     0.10  -0.03   0.00
    13   1     0.06   0.05   0.12     0.17   0.09  -0.12     0.14  -0.01   0.00
    14   1     0.04   0.02   0.00     0.02  -0.03   0.11     0.03  -0.11   0.02
    15   1     0.07  -0.02   0.08     0.03   0.19  -0.10     0.05  -0.02  -0.03
    16   7    -0.02   0.08  -0.03    -0.02   0.05   0.01    -0.04  -0.02  -0.05
    17   7    -0.02   0.05  -0.03    -0.02   0.06   0.01    -0.04  -0.03  -0.06
    18   6    -0.02   0.05  -0.04    -0.03  -0.05   0.02    -0.05   0.00  -0.01
    19   6    -0.03   0.04  -0.03    -0.04   0.02   0.00    -0.04   0.00  -0.03
    20   8    -0.01   0.10  -0.01    -0.06  -0.06  -0.02    -0.04   0.04  -0.01
    21   8    -0.02   0.20  -0.06    -0.04  -0.29   0.05    -0.01   0.01   0.02
    22   8    -0.06  -0.04  -0.04    -0.03   0.05   0.00     0.00   0.03   0.00
    23   8    -0.02  -0.18  -0.01    -0.02   0.10   0.00    -0.11   0.00   0.00
    24   6    -0.03  -0.35   0.00    -0.03  -0.17   0.03    -0.13  -0.02   0.08
    25   1    -0.02  -0.55   0.03    -0.02   0.05   0.00    -0.19  -0.02   0.08
    26   1     0.05  -0.30   0.15     0.19  -0.42  -0.13    -0.09  -0.04   0.11
    27   1    -0.10  -0.34  -0.17    -0.27  -0.35   0.25    -0.13  -0.03   0.12
    28   6    -0.07  -0.07  -0.05    -0.06  -0.05  -0.03     0.10   0.31   0.09
    29   1    -0.03  -0.04  -0.10    -0.04  -0.15   0.04    -0.05   0.48   0.04
    30   1    -0.09  -0.05   0.02    -0.13  -0.08  -0.12     0.29   0.33   0.19
    31   1    -0.09  -0.14  -0.06    -0.05   0.00  -0.02     0.12   0.31   0.10
                      7                      8                      9
                      A                      A                      A
 Frequencies --    105.8578               140.8910               148.1113
 Red. masses --      4.0533                 1.9696                 1.2873
 Frc consts  --      0.0268                 0.0230                 0.0166
 IR Inten    --      2.3005                 3.4915                 2.5977
  Atom  AN      X      Y      Z        X      Y      Z        X      Y      Z
     1   6     0.05   0.05  -0.08    -0.01  -0.01  -0.03    -0.01  -0.02  -0.02
     2   6     0.01   0.06  -0.04    -0.02  -0.03  -0.01     0.00  -0.04  -0.01
     3   6    -0.05  -0.10   0.00    -0.03  -0.06   0.00     0.00  -0.04   0.00
     4   6     0.01  -0.03  -0.06    -0.02  -0.03  -0.02     0.00  -0.02  -0.02
     5   1     0.08   0.10  -0.10    -0.01  -0.03  -0.02    -0.01  -0.03  -0.02
     6   1     0.02  -0.05  -0.10    -0.01  -0.03  -0.04     0.00   0.00  -0.02
     7   6    -0.02  -0.06  -0.03    -0.03  -0.06  -0.01    -0.01  -0.05  -0.01
     8   1    -0.06  -0.06   0.02    -0.04  -0.06   0.01    -0.01  -0.06   0.00
     9   1     0.03  -0.10  -0.08    -0.02  -0.07  -0.02    -0.02  -0.06  -0.01
    10   6    -0.04   0.11   0.04    -0.03  -0.02   0.00     0.00  -0.03   0.00
    11   1    -0.06   0.20   0.05    -0.03   0.00   0.01     0.01  -0.03   0.01
    12   6    -0.07   0.01   0.07    -0.03  -0.03   0.02     0.01  -0.02   0.01
    13   1    -0.11   0.00   0.12    -0.04  -0.03   0.04     0.02  -0.01   0.02
    14   1     0.03   0.12  -0.06    -0.02  -0.02  -0.02    -0.01  -0.05  -0.01
    15   1    -0.08  -0.21   0.02    -0.04  -0.09   0.00     0.00  -0.04   0.00
    16   7     0.04   0.04  -0.12     0.01   0.05   0.03     0.00   0.01   0.01
    17   7     0.04   0.03  -0.12     0.00   0.00   0.03    -0.01   0.00   0.01
    18   6     0.03   0.03  -0.04     0.02   0.09   0.01     0.00   0.02   0.00
    19   6     0.02   0.02  -0.04     0.00  -0.02   0.01     0.01   0.03   0.01
    20   8    -0.07   0.04   0.00     0.01  -0.04   0.01     0.03   0.07   0.02
    21   8     0.10  -0.04   0.04     0.00   0.07   0.00    -0.01   0.02   0.00
    22   8     0.12  -0.03   0.03    -0.03  -0.03   0.00     0.00   0.04   0.01
    23   8    -0.08   0.08  -0.02     0.05   0.14   0.00     0.01   0.02   0.00
    24   6    -0.13  -0.01   0.14     0.06  -0.08  -0.02     0.01  -0.01  -0.01
    25   1    -0.24   0.10   0.13     0.11   0.31  -0.07     0.02   0.08  -0.02
    26   1     0.01  -0.11   0.12     0.27  -0.42  -0.33     0.05  -0.08  -0.08
    27   1    -0.18  -0.08   0.29    -0.20  -0.31   0.34    -0.04  -0.06   0.08
    28   6     0.04  -0.17   0.18     0.01   0.05  -0.02    -0.02   0.00  -0.02
    29   1     0.03  -0.23   0.23     0.05   0.20  -0.20    -0.16  -0.35   0.39
    30   1    -0.11  -0.17   0.17     0.08   0.12   0.18    -0.05  -0.20  -0.56
    31   1     0.15  -0.23   0.23    -0.08  -0.13  -0.07     0.15   0.50   0.07
                     10                     11                     12
                      A                      A                      A
 Frequencies --    164.6407               180.5210               186.6788
 Red. masses --      1.9646                 2.6626                 3.8237
 Frc consts  --      0.0314                 0.0511                 0.0785
 IR Inten    --      2.1911                 0.8842                 4.2925
  Atom  AN      X      Y      Z        X      Y      Z        X      Y      Z
     1   6     0.00  -0.01   0.08    -0.05   0.02  -0.06     0.21  -0.02  -0.01
     2   6     0.01   0.04   0.03    -0.02  -0.07  -0.02     0.13   0.13  -0.01
     3   6     0.02   0.08   0.01     0.01  -0.02  -0.01    -0.01  -0.15  -0.03
     4   6     0.00   0.00   0.07    -0.02   0.06  -0.05     0.13  -0.14  -0.09
     5   1    -0.01   0.01   0.07    -0.06   0.02  -0.06     0.31  -0.06   0.01
     6   1     0.00  -0.02   0.10    -0.03   0.11  -0.04     0.16  -0.25  -0.15
     7   6     0.03   0.12   0.02    -0.03  -0.11  -0.02     0.08   0.05  -0.02
     8   1     0.04   0.14  -0.02     0.00  -0.17   0.02    -0.05   0.15   0.00
     9   1     0.04   0.14   0.07    -0.09  -0.13  -0.06     0.22   0.02  -0.02
    10   6    -0.01   0.01  -0.02     0.04  -0.03   0.01     0.00   0.12   0.02
    11   1    -0.02  -0.03  -0.03     0.06  -0.02   0.02    -0.05   0.18   0.01
    12   6    -0.01   0.01  -0.04     0.06   0.02   0.02    -0.07  -0.05   0.02
    13   1    -0.04  -0.02  -0.09     0.12   0.07   0.06    -0.17  -0.10   0.04
    14   1     0.01   0.05   0.04    -0.05  -0.12  -0.04     0.20   0.26   0.00
    15   1     0.03   0.13   0.01     0.02  -0.01   0.00    -0.08  -0.29  -0.04
    16   7    -0.01  -0.09  -0.03     0.00   0.02   0.01    -0.04   0.07   0.04
    17   7     0.01  -0.04  -0.03     0.00   0.04   0.01    -0.02   0.03   0.06
    18   6    -0.01  -0.03  -0.03     0.00  -0.05   0.02    -0.05  -0.03   0.02
    19   6     0.01  -0.03  -0.02     0.01   0.08   0.01    -0.03   0.01   0.05
    20   8     0.01   0.00  -0.01    -0.01   0.03   0.00    -0.02  -0.02   0.04
    21   8     0.01   0.08  -0.03    -0.01   0.00   0.01    -0.07  -0.04   0.00
    22   8     0.02  -0.05  -0.01     0.05   0.17   0.03    -0.08   0.03   0.02
    23   8    -0.04  -0.08  -0.02     0.00  -0.17   0.04    -0.04  -0.10   0.02
    24   6    -0.05   0.02   0.02     0.02   0.06  -0.01    -0.03   0.06  -0.02
    25   1    -0.08   0.54  -0.05     0.04   0.46  -0.06     0.00   0.25  -0.05
    26   1     0.01  -0.27  -0.36    -0.06  -0.09  -0.32    -0.10   0.00  -0.19
    27   1    -0.11  -0.14   0.50     0.08   0.00   0.33     0.03   0.04   0.13
    28   6     0.03  -0.01   0.01    -0.04  -0.05   0.00    -0.06   0.05  -0.09
    29   1    -0.04  -0.05   0.10     0.16  -0.02  -0.19    -0.02   0.04  -0.12
    30   1     0.05  -0.05  -0.08    -0.21   0.03   0.21    -0.01   0.04  -0.11
    31   1     0.08   0.09   0.04    -0.13  -0.35  -0.06    -0.13   0.08  -0.12
                     13                     14                     15
                      A                      A                      A
 Frequencies --    202.3737               256.4807               275.4297
 Red. masses --      4.2082                 5.0646                 6.4403
 Frc consts  --      0.1015                 0.1963                 0.2879
 IR Inten    --     10.0849                 2.8715                 1.6616
  Atom  AN      X      Y      Z        X      Y      Z        X      Y      Z
     1   6     0.03  -0.07   0.07    -0.06   0.02  -0.05    -0.03   0.06  -0.01
     2   6     0.03  -0.03   0.05    -0.04   0.03  -0.10    -0.03  -0.08   0.07
     3   6     0.01  -0.01   0.01    -0.01   0.02  -0.02     0.00   0.03   0.03
     4   6     0.01  -0.11   0.07    -0.01   0.14  -0.09    -0.05  -0.06   0.09
     5   1     0.03  -0.10   0.08    -0.06   0.06  -0.07    -0.08   0.00   0.01
     6   1     0.02  -0.14   0.08    -0.02   0.21  -0.11    -0.06  -0.04   0.10
     7   6     0.04   0.05   0.04    -0.04  -0.09  -0.07    -0.02   0.01   0.06
     8   1     0.02   0.11  -0.02    -0.01  -0.18   0.02     0.01   0.03   0.00
     9   1     0.07   0.09   0.10    -0.09  -0.14  -0.17    -0.05   0.06   0.12
    10   6    -0.02  -0.11  -0.03     0.05   0.17   0.04    -0.07  -0.18  -0.04
    11   1    -0.03  -0.15  -0.04     0.03   0.21   0.03    -0.02  -0.20  -0.02
    12   6    -0.02  -0.10  -0.04     0.04   0.12   0.04    -0.01  -0.06   0.00
    13   1    -0.05  -0.13  -0.09     0.07   0.16   0.11     0.01  -0.07  -0.05
    14   1     0.03  -0.02   0.06    -0.05   0.02  -0.13    -0.05  -0.12   0.08
    15   1     0.01   0.02   0.00     0.01  -0.01   0.01     0.01   0.08   0.02
    16   7    -0.04  -0.06  -0.03    -0.04  -0.14   0.03     0.05   0.43  -0.07
    17   7     0.01  -0.07   0.02     0.08   0.00   0.11     0.08   0.09   0.01
    18   6    -0.04   0.03  -0.07    -0.02  -0.03  -0.07     0.06   0.05  -0.12
    19   6     0.06   0.07   0.05     0.08  -0.07   0.16     0.03   0.00   0.06
    20   8     0.08   0.03   0.03     0.11  -0.08   0.15    -0.03  -0.05   0.07
    21   8    -0.03   0.05  -0.06    -0.05   0.01  -0.11     0.03  -0.10  -0.13
    22   8     0.10   0.25   0.06     0.00  -0.09   0.11    -0.02  -0.11   0.04
    23   8    -0.08   0.14  -0.08    -0.05   0.01  -0.07     0.01  -0.12  -0.10
    24   6    -0.12  -0.04   0.04    -0.11   0.00   0.09    -0.07   0.07   0.15
    25   1    -0.20  -0.23   0.07    -0.25  -0.03   0.10    -0.29   0.16   0.14
    26   1     0.00   0.00   0.23    -0.04   0.01   0.19    -0.08   0.11   0.19
    27   1    -0.18  -0.04  -0.09    -0.08   0.00   0.14     0.12   0.11   0.31
    28   6    -0.01  -0.07  -0.11     0.07   0.01  -0.16     0.05   0.03  -0.11
    29   1     0.30  -0.12  -0.30     0.15   0.00  -0.21     0.06   0.05  -0.13
    30   1    -0.21  -0.01   0.05     0.24  -0.03  -0.24     0.21   0.00  -0.17
    31   1    -0.18  -0.34  -0.20    -0.11   0.13  -0.24    -0.04   0.14  -0.16
                     16                     17                     18
                      A                      A                      A
 Frequencies --    323.7510               331.2075               417.0226
 Red. masses --      5.6945                 5.1214                 7.6372
 Frc consts  --      0.3517                 0.3310                 0.7825
 IR Inten    --     17.4749                 8.9970                32.3922
  Atom  AN      X      Y      Z        X      Y      Z        X      Y      Z
     1   6     0.01   0.02  -0.01    -0.01   0.01  -0.01    -0.01   0.04   0.00
     2   6     0.01   0.01   0.00    -0.02  -0.01   0.00     0.01  -0.01   0.01
     3   6     0.00  -0.02  -0.01     0.00   0.02   0.00     0.01  -0.01   0.01
     4   6     0.00   0.01  -0.03    -0.01   0.01   0.02    -0.02   0.00   0.01
     5   1     0.02  -0.06   0.02    -0.03   0.03  -0.02    -0.01  -0.02   0.02
     6   1     0.01   0.01  -0.04    -0.01   0.03   0.01    -0.03  -0.05   0.05
     7   6     0.00  -0.01   0.00    -0.02  -0.01   0.00     0.00  -0.03   0.01
     8   1    -0.02   0.00   0.01     0.00  -0.03   0.01     0.01  -0.06   0.04
     9   1     0.02  -0.02  -0.01    -0.05  -0.01  -0.01    -0.02  -0.04  -0.02
    10   6    -0.01  -0.01  -0.01    -0.01   0.00   0.00     0.00  -0.04  -0.02
    11   1    -0.02  -0.01  -0.01     0.00   0.01   0.01     0.00  -0.08  -0.03
    12   6     0.00   0.01   0.02     0.01   0.02   0.01    -0.02  -0.04  -0.03
    13   1     0.01   0.02   0.03     0.01   0.01  -0.01     0.01  -0.01   0.00
    14   1     0.01   0.01  -0.01    -0.02  -0.02   0.00    -0.01  -0.03   0.00
    15   1    -0.01  -0.04   0.00     0.00   0.03   0.00     0.03   0.02   0.01
    16   7    -0.04   0.06   0.12    -0.04   0.18  -0.03     0.05  -0.08  -0.07
    17   7     0.00   0.03   0.14     0.03   0.00   0.02     0.13   0.16   0.06
    18   6    -0.04   0.01  -0.02    -0.13   0.05   0.06     0.10  -0.03  -0.12
    19   6     0.04   0.02  -0.07     0.10  -0.03   0.01     0.00   0.05   0.13
    20   8     0.31  -0.08  -0.18     0.18  -0.06  -0.03     0.16  -0.10   0.04
    21   8    -0.18  -0.01  -0.16    -0.04   0.00   0.17     0.35   0.01   0.10
    22   8    -0.02   0.01  -0.13     0.11  -0.06   0.00    -0.24   0.03   0.02
    23   8     0.02  -0.01  -0.03    -0.20  -0.02   0.08    -0.08  -0.01  -0.12
    24   6    -0.04   0.02   0.13    -0.13  -0.02  -0.27    -0.12  -0.01  -0.13
    25   1    -0.18   0.02   0.14     0.19   0.00  -0.29    -0.10  -0.02  -0.14
    26   1     0.02   0.04   0.21    -0.27  -0.04  -0.45    -0.11  -0.03  -0.14
    27   1     0.02   0.03   0.20    -0.20  -0.02  -0.41    -0.12  -0.01  -0.14
    28   6    -0.07  -0.02   0.23     0.15  -0.05  -0.01    -0.30   0.09   0.10
    29   1    -0.25   0.02   0.34     0.14  -0.04  -0.01    -0.38   0.11   0.15
    30   1    -0.20   0.03   0.33     0.17  -0.05  -0.02    -0.31   0.11   0.14
    31   1     0.19  -0.12   0.36     0.13  -0.03  -0.02    -0.19   0.06   0.16
                     19                     20                     21
                      A                      A                      A
 Frequencies --    435.6426               443.2614               515.0778
 Red. masses --      5.8056                 2.0845                 2.9837
 Frc consts  --      0.6492                 0.2413                 0.4664
 IR Inten    --     37.4519                 6.7410                43.5440
  Atom  AN      X      Y      Z        X      Y      Z        X      Y      Z
     1   6    -0.01   0.11  -0.03    -0.06  -0.04  -0.04    -0.06   0.12  -0.09
     2   6     0.04  -0.03   0.07    -0.07  -0.10  -0.02    -0.02  -0.05  -0.01
     3   6    -0.01  -0.12   0.01    -0.05  -0.08   0.00     0.02  -0.02   0.00
     4   6    -0.04   0.07  -0.12    -0.02   0.03  -0.08    -0.08  -0.08   0.09
     5   1     0.09  -0.11   0.06    -0.02  -0.01  -0.05    -0.15   0.20  -0.13
     6   1    -0.04  -0.06  -0.05    -0.02   0.14  -0.15    -0.10  -0.18   0.23
     7   6     0.07   0.06   0.04     0.05   0.15  -0.01     0.04   0.00  -0.01
     8   1    -0.02   0.28  -0.14     0.03   0.49  -0.41     0.09   0.06  -0.15
     9   1     0.29   0.14   0.22     0.35   0.34   0.35     0.09   0.07   0.11
    10   6    -0.07  -0.21  -0.06     0.04   0.01   0.07     0.18   0.10   0.11
    11   1    -0.15  -0.33  -0.12     0.05   0.07   0.10     0.51   0.35   0.32
    12   6    -0.03  -0.04   0.05     0.05   0.03   0.10    -0.08  -0.17  -0.15
    13   1     0.14   0.11   0.21     0.09   0.06   0.13    -0.09  -0.17  -0.14
    14   1     0.00  -0.11   0.04    -0.08  -0.13  -0.01    -0.07  -0.13  -0.02
    15   1    -0.03  -0.18   0.02    -0.08  -0.13   0.01     0.09   0.10   0.01
    16   7     0.00  -0.20   0.07     0.00   0.03  -0.02     0.01  -0.02   0.01
    17   7     0.07   0.38   0.06    -0.02  -0.08  -0.01     0.02   0.06   0.01
    18   6    -0.03  -0.03   0.02     0.01   0.00  -0.01    -0.02   0.00   0.01
    19   6     0.05   0.12  -0.02    -0.01  -0.02   0.01     0.01   0.03   0.00
    20   8    -0.10  -0.01  -0.03     0.03   0.00   0.01    -0.01  -0.01   0.00
    21   8    -0.06   0.03  -0.02     0.03  -0.01   0.01    -0.04   0.00  -0.01
    22   8     0.05  -0.09  -0.02    -0.01   0.02   0.01     0.00  -0.01   0.00
    23   8    -0.03   0.02   0.02     0.00  -0.01  -0.01     0.00   0.01   0.02
    24   6    -0.04  -0.01  -0.02     0.00   0.00   0.00     0.00   0.00   0.01
    25   1     0.00  -0.02  -0.02    -0.01   0.00   0.00     0.02   0.00   0.01
    26   1    -0.03  -0.02  -0.02     0.00   0.00   0.00     0.00   0.00   0.00
    27   1    -0.06  -0.01  -0.04     0.01   0.00   0.00     0.00   0.00   0.00
    28   6     0.12  -0.03  -0.03    -0.02   0.01   0.01     0.00   0.00   0.00
    29   1     0.07   0.01  -0.03    -0.01   0.00   0.01    -0.01   0.01   0.00
    30   1     0.19  -0.04  -0.04    -0.03   0.01   0.01     0.02   0.00   0.00
    31   1     0.09   0.02  -0.04    -0.02   0.00   0.01     0.01   0.01   0.00
                     22                     23                     24
                      A                      A                      A
 Frequencies --    595.8449               639.2159               661.5748
 Red. masses --      9.7057                 4.5947                 6.2940
 Frc consts  --      2.0302                 1.1061                 1.6231
 IR Inten    --      9.0749                 6.7003                55.0493
  Atom  AN      X      Y      Z        X      Y      Z        X      Y      Z
     1   6    -0.02  -0.04   0.05    -0.15   0.04   0.17     0.01   0.07  -0.07
     2   6    -0.01   0.00  -0.02     0.15   0.24   0.03     0.05   0.08  -0.08
     3   6     0.00   0.00   0.00    -0.08  -0.22   0.00    -0.16  -0.08  -0.01
     4   6    -0.01   0.03  -0.02    -0.19   0.10  -0.02    -0.02  -0.18   0.24
     5   1    -0.05  -0.22   0.11    -0.19   0.08   0.16    -0.25   0.20  -0.14
     6   1    -0.01   0.01  -0.01    -0.19   0.17  -0.09     0.03   0.10  -0.12
     7   6     0.01  -0.02  -0.02     0.03  -0.02   0.01    -0.18   0.07  -0.08
     8   1     0.02  -0.04  -0.01    -0.31   0.13   0.20    -0.35   0.20  -0.05
     9   1     0.02  -0.03  -0.04     0.34  -0.18  -0.16    -0.03   0.04  -0.09
    10   6     0.04   0.07   0.03     0.14   0.00  -0.11     0.08  -0.02  -0.14
    11   1     0.13   0.16   0.09     0.09  -0.14  -0.17     0.00   0.05  -0.15
    12   6    -0.03  -0.01  -0.03     0.08  -0.12  -0.07     0.28   0.04   0.15
    13   1    -0.03   0.00  -0.01     0.24   0.07   0.23     0.13  -0.10   0.00
    14   1    -0.01   0.01  -0.04     0.03   0.01   0.00     0.03  -0.02   0.11
    15   1     0.02   0.00   0.02     0.10   0.10   0.03    -0.09   0.14  -0.05
    16   7     0.06   0.08   0.41    -0.06   0.05  -0.03     0.15  -0.04   0.04
    17   7    -0.05  -0.13   0.38    -0.07  -0.05  -0.02     0.17  -0.03   0.01
    18   6     0.11  -0.06  -0.08    -0.02   0.04  -0.02     0.07  -0.06   0.07
    19   6    -0.02   0.03  -0.12    -0.03  -0.04   0.00     0.05  -0.01   0.00
    20   8    -0.24   0.09  -0.05     0.04   0.00  -0.01    -0.08   0.01   0.06
    21   8     0.22   0.00  -0.03     0.04  -0.01   0.04    -0.09   0.01  -0.10
    22   8     0.08   0.01  -0.18     0.01   0.00   0.03    -0.02   0.01  -0.08
    23   8    -0.05  -0.01  -0.17     0.02  -0.02  -0.04    -0.07   0.03   0.10
    24   6    -0.21  -0.01  -0.12     0.03   0.00   0.01    -0.07   0.00  -0.03
    25   1    -0.24  -0.01  -0.11    -0.04   0.01   0.01     0.12  -0.02  -0.03
    26   1    -0.16  -0.01  -0.08     0.04   0.01   0.04    -0.12  -0.02  -0.11
    27   1    -0.18   0.00  -0.10     0.05   0.00   0.04    -0.14  -0.01  -0.12
    28   6     0.12  -0.04  -0.01     0.03  -0.01   0.00    -0.08   0.03   0.00
    29   1     0.04  -0.01   0.02     0.05  -0.02  -0.01    -0.14   0.04   0.03
    30   1     0.05  -0.02   0.03     0.03  -0.01  -0.01    -0.12   0.05   0.04
    31   1     0.24  -0.09   0.04    -0.01   0.00  -0.02     0.03  -0.02   0.06
                     25                     26                     27
                      A                      A                      A
 Frequencies --    692.0528               732.2962               756.7903
 Red. masses --      7.0961                 3.8113                 4.2647
 Frc consts  --      2.0024                 1.2042                 1.4391
 IR Inten    --     26.4720                76.1607                70.0629
  Atom  AN      X      Y      Z        X      Y      Z        X      Y      Z
     1   6    -0.07  -0.08   0.10     0.08   0.11   0.13     0.06   0.07   0.17
     2   6     0.00   0.05   0.08    -0.02  -0.13  -0.04     0.01  -0.12  -0.04
     3   6     0.10  -0.01   0.01    -0.07   0.02   0.03    -0.07   0.01   0.02
     4   6    -0.07   0.18  -0.20     0.00   0.00   0.01    -0.01   0.04   0.00
     5   1     0.13  -0.07   0.11     0.08  -0.05   0.20     0.05  -0.02   0.20
     6   1    -0.12   0.05   0.04     0.08   0.00  -0.29     0.06  -0.05  -0.21
     7   6     0.14  -0.05   0.09    -0.01  -0.02  -0.09     0.00  -0.02  -0.11
     8   1     0.16  -0.09   0.13     0.03  -0.01  -0.16     0.02  -0.01  -0.16
     9   1     0.13  -0.09   0.04     0.01   0.01  -0.04     0.02   0.01  -0.06
    10   6    -0.04   0.00   0.06     0.09   0.08   0.01     0.09   0.08   0.05
    11   1     0.01  -0.11   0.05    -0.43  -0.35  -0.35    -0.42  -0.39  -0.32
    12   6    -0.15  -0.05  -0.11    -0.04  -0.04   0.01    -0.06  -0.02  -0.01
    13   1     0.04   0.14   0.12    -0.17  -0.13  -0.05    -0.10  -0.07  -0.06
    14   1    -0.02   0.06  -0.09    -0.08  -0.28   0.00    -0.02  -0.20  -0.01
    15   1     0.11  -0.04   0.03     0.01   0.05   0.11     0.02   0.00   0.13
    16   7     0.26   0.04  -0.02     0.04  -0.07   0.04    -0.06   0.05  -0.11
    17   7     0.16  -0.12  -0.08     0.00   0.07   0.00     0.06  -0.09   0.04
    18   6     0.13   0.01   0.07     0.04   0.28  -0.03    -0.09  -0.13  -0.01
    19   6     0.12  -0.06   0.01    -0.07  -0.19  -0.04     0.15   0.23   0.07
    20   8    -0.07   0.01   0.09     0.02   0.05   0.00    -0.07  -0.06   0.05
    21   8    -0.11  -0.02  -0.18     0.00  -0.09  -0.02    -0.02   0.05   0.06
    22   8    -0.03   0.03  -0.08     0.01   0.05   0.02    -0.01  -0.03  -0.14
    23   8    -0.10   0.03   0.19    -0.01  -0.06   0.03     0.02   0.03  -0.01
    24   6    -0.09   0.00  -0.03    -0.03   0.00  -0.01     0.07   0.00   0.03
    25   1     0.24  -0.01  -0.04     0.03   0.03  -0.02    -0.01  -0.01   0.03
    26   1    -0.20  -0.03  -0.18    -0.08   0.00  -0.05     0.11   0.00   0.07
    27   1    -0.19  -0.01  -0.18     0.01   0.01  -0.01     0.07   0.00   0.06
    28   6    -0.13   0.04   0.00     0.01   0.00   0.00     0.00   0.00  -0.01
    29   1    -0.20   0.05   0.05     0.04  -0.02   0.00    -0.14   0.04   0.05
    30   1    -0.21   0.07   0.06    -0.03   0.00   0.00    -0.05   0.02   0.06
    31   1     0.02  -0.03   0.08    -0.02  -0.02  -0.01     0.17  -0.05   0.08
                     28                     29                     30
                      A                      A                      A
 Frequencies --    769.3543               784.2516               795.4520
 Red. masses --      3.4130                 2.2856                 4.2658
 Frc consts  --      1.1903                 0.8282                 1.5903
 IR Inten    --     11.2837                12.7821                38.8294
  Atom  AN      X      Y      Z        X      Y      Z        X      Y      Z
     1   6     0.00  -0.06  -0.04     0.03   0.00   0.04    -0.03   0.05  -0.07
     2   6    -0.05   0.05  -0.02    -0.02  -0.01  -0.04    -0.19   0.01  -0.01
     3   6     0.00   0.00   0.07    -0.09  -0.01   0.14     0.04  -0.09   0.10
[...]
 .00002942,-0.00001332,-0.00000195,-0.00002499,-0.00000200,0.00001443,-
 0.00001903,-0.00114872,0.00005681,-0.00045396,0.00046651,0.00019136,-0
 .00033706,0.00085087,0.00021258,0.00271659,0.00016201,-0.00016171,-0.0
 0012454,-0.00011300,0.00007136,-0.00000427,-0.00118569,-0.00006899,-0.
 00024839,-0.00011827,0.00006393,0.00006626,-0.00534760,-0.00099279,-0.
 00839025,-0.00113392,-0.03762890,-0.32095047,0.00641452,0.04155077,0.3
 4368300,-0.00018490,-0.00035906,0.00016194,0.00007387,0.00012057,0.000
 00966,-0.00000142,-0.00004962,-0.00002086,0.00012162,-0.00037400,0.000
 03764,0.00002189,0.00002083,-0.00003797,-0.00016163,0.00015796,-0.0001
 1400,-0.00001808,-0.00000349,-0.00002152,-0.00000713,-0.00001749,-0.00
 001355,0.00000694,0.00001094,0.00000875,-0.00017741,0.00013548,0.00018
 198,-0.00000438,0.00000371,-0.00002051,0.00024452,0.00015844,-0.000046
 41,-0.00001467,-0.00003295,-0.00003320,-0.00001576,0.00000075,-0.00003
 078,-0.00001154,0.00001053,-0.00003233,-0.00145909,0.00077113,-0.00029
 037,0.00028677,0.00026289,-0.00076955,0.00044155,-0.00023970,0.0094413
 6,0.00032201,-0.00032277,-0.00014321,-0.00023283,0.00017976,-0.0001112
 1,0.00149475,-0.00010025,-0.00227027,-0.00017280,0.00008442,0.00007976
 ,-0.03422541,-0.02517453,0.00545644,-0.09968407,-0.08597468,0.05593031
 ,0.00228585,0.00105894,0.00042127,0.12252151,0.00004590,0.00006006,-0.
 00005179,-0.00001483,0.00002274,0.00000210,-0.00002374,0.00001690,0.00
 002279,0.00002749,0.00009143,0.00000094,0.00000245,-0.00000552,0.00000
 110,0.00017762,0.00008446,0.00005455,-0.00000299,-0.00001464,-0.000001
 04,-0.00000792,-0.00000168,-0.00000163,0.00000308,0.00000253,0.0000044
 0,0.00006537,-0.00003480,-0.00004257,0.00000628,0.00000683,0.00000714,
 -0.00006714,-0.00004900,0.00000556,0.00000565,0.00000801,0.00000719,-0
 .00000391,-0.00000323,-0.00000113,0.00000089,0.00000073,0.00000920,0.0
 0005321,-0.00039507,-0.00035378,0.00003099,-0.00004770,-0.00002385,-0.
 00149286,0.00113739,0.00312226,0.00009614,-0.00002417,0.00000110,-0.00
 003475,0.00002867,-0.00003375,0.00200090,0.00008640,-0.00037156,-0.000
 03057,0.00000586,0.00001330,-0.00195069,0.00576269,-0.00471348,-0.0913
 2234,-0.20282313,0.09713750,0.00395953,0.00552990,-0.00320586,0.100729
 69,0.21012343,-0.00007747,-0.00013192,0.00002113,0.00001738,0.00006710
 ,0.00000021,0.00000387,-0.00001279,-0.00001209,-0.00000528,-0.00013372
 ,0.00004759,-0.00000464,0.00000350,-0.00000198,0.00003885,-0.00000118,
 -0.00004367,-0.00000523,-0.00000004,-0.00000524,0.00000202,-0.00000245
 ,-0.00000240,-0.00000514,0.00000094,0.00000040,-0.00002079,0.00005777,
 0.00006295,-0.00000624,-0.00000477,-0.00000692,0.00010245,0.00004121,-
 0.00001607,-0.00000412,-0.00001100,-0.00001441,-0.00000552,-0.00000264
 ,-0.00000892,-0.00000315,-0.00000326,-0.00000682,-0.00025829,0.0008037
 4,0.00007745,0.00003783,0.00012209,-0.00028744,-0.00215758,-0.00157056
 ,0.00206927,0.00004939,-0.00005842,-0.00001079,-0.00002045,0.00001254,
 -0.00000523,0.00031672,-0.00008562,-0.00041378,0.00001603,-0.00000961,
 -0.00000230,-0.00703804,-0.00985435,0.00522297,0.06143064,0.10073192,-
 0.11478638,0.01329338,0.02357761,-0.01148582,-0.06203660,-0.10601583,0
 .11504551,-0.00036375,-0.00050210,0.00028309,0.00011936,0.00009961,-0.
 00001241,0.00002582,-0.00006728,-0.00009374,0.00000706,-0.00034940,-0.
 00000138,0.00000938,0.00002505,-0.00004394,-0.00020250,-0.00001724,-0.
 00006255,-0.00001424,0.00004279,-0.00002234,0.00000623,-0.00001635,-0.
 00000091,0.00001347,0.00000303,0.00000211,-0.00028368,0.00017097,0.000
 26707,0.00000466,0.00000236,-0.00002786,0.00044054,0.00028144,-0.00000
 573,-0.00001534,-0.00004280,-0.00005337,-0.00000588,0.00000632,-0.0000
 3221,-0.00001591,0.00000216,-0.00003718,-0.00197222,-0.00056036,0.0001
 1807,0.00064645,0.00000172,-0.00106123,0.00091495,0.00260881,0.0090081
 3,0.00012306,-0.00021035,-0.00017801,-0.00013288,0.00012050,-0.0000433
 2,0.00131664,-0.00058470,-0.00219041,-0.00009098,0.00006393,0.00003075
 ,-0.03198261,0.02876806,-0.00197103,-0.08566072,0.08567404,0.02526597,
 0.00202375,-0.00088866,0.00080161,0.00850554,-0.01226875,-0.00365839,0
 .10654941,-0.00004380,-0.00004270,-0.00004444,-0.00000115,0.00006204,-
 0.00001314,0.00001531,0.00004636,-0.00002114,-0.00012742,0.00008168,-0
 .00001967,-0.00000176,-0.00001305,0.00001168,0.00024847,-0.00000319,0.
 00008721,-0.00000148,0.00000199,0.00000580,0.00000360,0.00000558,0.000
 00444,-0.00000185,-0.00000486,-0.00000519,0.00007922,-0.00000655,-0.00
 000705,0.00000339,-0.00000360,0.00000379,0.00004789,-0.00000980,0.0000
 5960,0.00000093,-0.00000075,-0.00000477,-0.00000355,-0.00000836,-0.000
 00102,0.00000189,-0.00000279,0.00001419,0.00007529,-0.00043801,0.00051
 492,-0.00018627,0.00007858,0.00005452,0.00072009,0.00055450,-0.0038248
 6,-0.00001329,0.00003504,0.00004738,0.00004018,-0.00001971,0.00001140,
 -0.00185839,0.00042347,0.00041842,0.00002917,-0.00001003,-0.00000851,0
 .00359932,0.00752322,0.00408455,0.09111819,-0.26039997,-0.05932072,-0.
 00034138,-0.00135032,0.00014004,0.00896541,-0.01956256,-0.00752417,-0.
 10234883,0.27306421,-0.00005711,-0.00009097,0.00002198,0.00001065,0.00
 004331,0.00000129,-0.00003496,-0.00000871,-0.00000209,0.00003140,-0.00
 002161,-0.00001759,0.00000316,-0.00000475,-0.00000604,0.00007027,-0.00
 003413,0.00007529,-0.00000398,-0.00000611,-0.00001170,-0.00000338,0.00
 000017,-0.00000140,-0.00000421,0.00000115,-0.00000102,-0.00000662,0.00
 001959,0.00003592,0.00000768,0.00000116,-0.00000166,0.00007231,0.00002
 893,-0.00000929,0.00000439,0.00000302,-0.00000054,-0.00000626,-0.00000
 522,-0.00000784,-0.00000866,-0.00000800,-0.00000488,-0.00030451,-0.000
 54079,0.00015080,0.00001437,-0.00011241,-0.00024695,-0.00224252,0.0020
 6027,0.00242636,0.00010696,0.00001008,-0.00000842,-0.00002255,0.000008
 57,-0.00002016,0.00085035,-0.00019362,-0.00035571,0.00000137,0.0000146
 6,-0.00000146,-0.00690192,0.00972780,0.00128998,0.02852019,-0.06312979
 ,-0.06844500,0.01192736,-0.02752359,-0.00455906,-0.00574124,0.01442791
 ,0.00456175,-0.02628349,0.06533849,0.06513963,-0.00067670,-0.00058886,
 -0.00057159,0.00077601,0.00033236,0.00013557,0.00002653,0.00002605,-0.
 00026772,0.00007511,-0.00183578,0.00027613,-0.00019346,0.00047656,-0.0
 0055908,0.00005959,0.00014067,-0.00022554,0.00010425,-0.00008101,-0.00
 005294,-0.00001280,-0.00018954,-0.00010497,-0.00005601,0.00012317,0.00
 012171,-0.00048126,0.00038575,0.00032425,0.00012180,0.00008455,0.00001
 395,0.00142761,0.00039511,0.00022395,-0.00004013,-0.00021437,-0.000243
 83,0.00073855,0.00058545,0.00026597,-0.00001507,-0.00000855,-0.0000911
 5,0.00005908,0.00091799,-0.00030487,0.00559939,-0.00168642,0.00163916,
 -0.00097227,-0.00059671,0.00028805,-0.04988450,0.01237256,0.02723282,0
 .00020571,0.00105395,-0.01649763,0.00074610,-0.00000202,-0.00030170,-0
 .16530853,0.03996594,-0.01208965,0.00072698,0.00013466,0.00033372,-0.0
 0039763,-0.00001169,-0.00016167,0.00002980,0.00000532,0.00004856,0.000
 07600,0.00002029,-0.00000288,0.00005338,-0.00002337,0.00000359,0.45551
 680,0.00106001,0.00054468,-0.00044704,0.00021713,0.00006833,0.00001608
 ,-0.00005651,0.00002418,0.00020054,-0.00017878,0.00057836,-0.00002557,
 0.00004157,-0.00000239,-0.00005335,-0.00004023,-0.00005397,0.00010386,
 -0.00011797,0.00002877,-0.00011254,0.00001404,0.00004640,0.00002620,0.
 00005475,-0.00002529,-0.00004583,0.00015471,-0.00039863,-0.00011805,-0
 .00002076,0.00000313,0.00001321,-0.00063327,-0.00026126,-0.00013456,-0
 .00001010,0.00005947,0.00007880,-0.00012617,-0.00091242,-0.00008312,-0
 .00001061,0.00001051,0.00003481,0.00013296,0.00052976,0.00027471,-0.00
 439098,0.00452271,0.00202829,0.00066517,0.00013909,0.00003458,0.011540
 68,-0.00357104,-0.01066509,-0.00245822,-0.00423464,0.00504825,-0.00036
 564,-0.00004201,0.00010004,0.04670975,-0.08034578,0.00945746,-0.000311
 04,-0.00007167,-0.00021724,0.00016069,0.00002467,0.00005954,-0.0000142
 0,0.00000142,-0.00002357,-0.00003626,-0.00000856,0.00000452,-0.0000200
 2,0.00000077,-0.00000607,0.05440868,0.56802052,-0.00030224,0.00016192,
 -0.00014331,0.00020247,-0.00022536,-0.00004485,-0.00005016,0.00001706,
 -0.00000659,-0.00000777,-0.00007512,0.00004237,-0.00000547,-0.00015024
 ,0.00013746,-0.00000552,0.00003904,-0.00002783,0.00001160,0.00000006,-
 0.00007584,-0.00000422,-0.00002927,-0.00000298,0.00003506,0.00001834,0
 .00000506,-0.00009713,0.00009619,0.00006183,0.00000372,0.00004399,0.00
 000550,0.00006068,0.00006727,-0.00002206,-0.00001585,-0.00000861,-0.00
 001796,0.00010942,-0.00023253,0.00019783,-0.00000976,0.00002053,-0.000
 01111,0.00173265,-0.00022803,0.00086214,0.00240289,0.00080100,-0.00464
 517,0.00012062,-0.00021607,-0.00025582,0.03391505,-0.01349981,0.005575
 18,0.00308914,-0.00156516,-0.00137729,0.00030848,0.00003738,-0.0000846
 0,-0.03828888,0.01865761,-0.08959803,0.00009882,0.00003591,0.00002082,
 -0.00003466,0.00000600,0.00000995,0.00000625,-0.00000041,0.00000371,0.
 00000895,-0.00000095,-0.00000085,0.00000673,-0.00000260,-0.00000299,-0
 .03635380,0.00563824,0.62005150,0.00040326,0.00044438,-0.00016606,-0.0
 0042908,-0.00018244,0.00001122,-0.00000985,-0.00002042,0.00005650,-0.0
 0004482,0.00045266,-0.00001974,0.00006318,-0.00009090,0.00009082,-0.00
 000538,-0.00004774,0.00004755,0.00005309,0.00002871,0.00007896,-0.0000
 0105,0.00002417,0.00001753,-0.00001253,-0.00001622,0.00000447,0.000228
 50,-0.00013998,-0.00027309,-0.00000141,-0.00001358,0.00002605,-0.00037
 162,-0.00023228,-0.00000256,0.00002982,0.00004502,0.00005509,-0.000089
 78,0.00029400,-0.00011916,0.00002620,-0.00000579,0.00003624,0.00041369
 ,-0.00015049,-0.00012513,-0.00171177,0.00102767,0.00087312,-0.00002721
 ,0.00013466,-0.00005957,0.00288239,-0.00107865,-0.00936899,0.00101496,
 -0.00053228,0.00281194,-0.00004823,-0.00001570,0.00000260,-0.03384004,
 -0.01081352,-0.01833025,-0.00005579,-0.00002139,0.00002039,0.00003598,
 0.00000300,0.00001683,-0.00000107,-0.00000100,-0.00000378,-0.00000762,
 -0.00000299,0.00000110,-0.00000428,0.00000194,-0.00000082,-0.10425679,
 -0.07095480,-0.07713589,0.12498487,-0.00004515,-0.00013814,0.00013368,
 0.00013833,0.00019678,-0.00009651,-0.00000011,0.00000341,0.00001240,0.
 00003204,-0.00021795,0.00000497,-0.00002444,0.00002020,-0.00001622,-0.
 00000466,0.00001776,-0.00000795,-0.00007956,0.00004767,-0.00005346,-0.
 00000116,-0.00000063,-0.00000032,-0.00000951,0.00000702,0.00000409,-0.
 00013883,0.00005493,0.00019046,-0.00001959,-0.00001395,-0.00002544,0.0
 0017773,0.00014746,-0.00001772,-0.00002534,-0.00000824,-0.00000335,0.0
 0013729,-0.00032671,0.00005470,-0.00001637,0.00000369,-0.00001989,-0.0
 0019809,-0.00001834,0.00010998,0.00062629,-0.00063586,-0.00013523,0.00
 002906,-0.00002772,0.00001316,-0.00073997,0.00158054,-0.00028909,0.001
 25104,-0.00041470,0.00013835,-0.00001289,0.00000858,0.00002269,0.01154
 885,0.01089437,0.01161916,0.00001761,0.00001416,0.00000604,-0.00000259
 ,-0.00000307,-0.00000393,0.00000162,-0.00000094,0.00000190,0.00000253,
 0.00000010,-0.00000103,0.00000013,0.00000107,0.00000058,-0.07641381,-0
 .14603720,-0.10539993,0.07596289,0.14848188,0.00017327,-0.00004618,-0.
 00001053,-0.00024983,0.00007818,-0.00002921,0.00001944,-0.00001298,-0.
 00000795,0.00000094,0.00005271,0.00003834,0.00002309,-0.00003697,0.000
 02826,0.00000105,-0.00002065,0.00001546,0.00001351,-0.00002027,0.00007
 602,-0.00000165,0.00000740,0.00000567,0.00000780,-0.00001088,-0.000007
 08,0.00008093,-0.00000112,-0.00006164,-0.00001938,-0.00001143,-0.00000
 725,-0.00004288,-0.00003711,-0.00001957,0.00000662,0.00001348,0.000013
 99,-0.00007926,0.00013373,0.00000538,0.00001291,-0.00000618,0.00001163
 ,0.00021939,-0.00004762,-0.00003268,-0.00079275,-0.00023442,0.00002740
 ,-0.00004293,0.00006398,-0.00005716,0.00315176,0.00031342,-0.00081452,
 -0.00001432,-0.00013147,0.00071227,-0.00002178,-0.00000831,0.00000985,
 -0.00695906,0.00261341,0.00002256,-0.00004050,-0.00000311,0.00000939,0
 .00002017,-0.00000238,0.00000826,0.00000015,-0.00000133,-0.00000150,-0
 .00000356,-0.00000068,0.00000049,-0.00000396,0.00000252,0.00000139,-0.
 08296899,-0.10467687,-0.16683109,0.09440733,0.11189398,0.17372925,-0.0
 0002677,0.00016631,0.00018179,-0.00032888,-0.00014990,-0.00003824,0.00
 000318,-0.00002334,0.00002331,0.00000615,0.00033252,-0.00007090,0.0000
 4164,-0.00011797,0.00016115,-0.00000856,-0.00001650,0.00003195,0.00001
 808,0.00001196,0.00002575,-0.00000345,0.00002296,0.00002302,0.00000112
 ,-0.00001555,-0.00000916,0.00008913,-0.00000319,-0.00009428,-0.0000235
 8,-0.00001268,-0.00000129,-0.00023056,-0.00004739,-0.00002139,0.000014
 73,0.00004274,0.00004734,-0.00009382,-0.00002363,-0.00003126,0.0000087
 1,0.00000284,0.00001644,-0.00004407,-0.00025608,-0.00015003,-0.0006521
 9,-0.00047566,-0.00011028,0.00014056,0.00015748,0.00004493,0.00331902,
 0.00253136,-0.00667777,0.00008222,-0.00053694,0.00228506,-0.00013269,-
 0.00000772,0.00003821,-0.01389890,0.03873147,-0.01015025,-0.00009150,-
 0.00003050,-0.00006138,0.00004957,0.00000451,0.00002424,-0.00000563,0.
 00000043,-0.00000729,-0.00001236,-0.00000136,-0.00000047,-0.00000637,0
 .00000126,-0.00000121,-0.05068590,-0.02944729,0.01071077,0.00123023,-0
 .01363073,0.00627809,0.06048050,0.00011709,0.00002891,-0.00011002,-0.0
 0006621,0.00011783,0.00000748,0.00001044,-0.00001207,-0.00002538,-0.00
 000874,-0.00015884,0.00005936,-0.00003027,0.00006886,-0.00007910,0.000
 00814,-0.00000034,-0.00001785,-0.00000122,-0.00001785,0.00003577,-0.00
 000090,-0.00001149,-0.00001018,-0.00000996,-0.00000082,0.00001167,-0.0
 0001343,0.00002989,-0.00001313,0.00000416,0.00000670,-0.00000046,0.000
 12661,0.00002017,0.00000996,-0.00000029,-0.00001395,-0.00001751,0.0000
 1787,0.00015714,0.00000424,0.00000503,-0.00000546,-0.00000390,0.000261
 21,0.00005019,-0.00002742,0.00011914,-0.00041151,-0.00032269,-0.000199
 36,-0.00003681,-0.00005996,-0.00173393,-0.00014618,0.00591186,-0.00140
 207,0.00108083,-0.00188024,0.00013097,-0.00000254,-0.00004816,0.012121
 53,-0.00883088,0.00195801,0.00006861,0.00001572,0.00005842,-0.00004393
 ,-0.00000478,-0.00001420,0.00000344,-0.00000054,0.00000563,0.00000909,
 0.00000189,-0.00000076,0.00000501,-0.00000101,0.00000119,-0.02137414,-
 0.28632278,0.08469475,-0.00272027,-0.01543861,0.00694783,0.01565736,0.
 30718419,0.00003110,-0.00006537,-0.00000006,-0.00009161,0.00003566,0.0
 0001001,0.00000190,-0.00000350,0.00000741,0.00002887,0.00007118,0.0000
 0733,0.00002756,-0.00001531,0.00002272,-0.00000274,-0.00000876,0.00001
 211,-0.00001166,0.00000429,0.00003187,0.00000026,0.00001329,0.00000287
 ,0.00001039,-0.00001094,-0.00001353,0.00001248,-0.00003957,-0.00001172
 ,-0.00000348,-0.00001147,-0.00000346,-0.00004131,-0.00000081,-0.000011
 40,0.00000473,0.00001025,0.00000983,-0.00007061,0.00003908,-0.00005501
 ,0.00000425,-0.00000022,0.00000547,-0.00010693,0.00005772,-0.00005891,
 -0.00017831,0.00042784,0.00007290,0.00011256,-0.00001421,0.00003860,0.
 00214266,-0.00188000,0.00029865,-0.00057285,0.00026811,0.00020562,-0.0
 0006533,0.00000415,0.00000674,-0.00452900,0.00466265,-0.00061417,-0.00
 006322,-0.00001638,-0.00005560,0.00002568,0.00000195,0.00000914,-0.000
 00382,0.00000124,-0.00000540,-0.00000624,-0.00000057,0.00000162,-0.000
 00371,0.00000014,-0.00000055,0.00799103,0.08667002,-0.08241699,-0.0014
 1972,-0.02065128,0.00805916,-0.00517224,-0.09595140,0.08127685,0.00021
 860,0.00018830,0.00003104,-0.00007894,-0.00011940,-0.00001947,0.000007
 69,-0.00000591,0.00003064,-0.00005922,0.00032334,-0.00006132,0.0000071
 9,-0.00001592,0.00004642,-0.00000760,-0.00003420,0.00004089,0.00001359
 ,-0.00001026,0.00001020,0.00000233,0.00001990,0.00000755,-0.00000040,-
 0.00001283,-0.00001326,0.00012339,-0.00008363,-0.00011070,-0.00000410,
 0.00000058,0.00001164,-0.00028025,-0.00012647,-0.00002100,0.00001329,0
 .00003087,0.00003599,-0.00002987,-0.00002659,-0.00000120,0.00000504,-0
 .00000387,0.00001724,-0.00040754,-0.00001463,-0.00035693,-0.00133984,0
 .00016225,0.00178194,0.00012375,0.00016463,0.00014916,-0.00275490,0.00
 221849,-0.00611972,0.00144362,-0.00048203,0.00094851,-0.00018263,-0.00
 002057,0.00002075,-0.02944021,0.00440949,0.03199569,-0.00012208,-0.000
 03598,-0.00008742,0.00005139,0.00000353,0.00002159,-0.00000890,-0.0000
 0046,-0.00000972,-0.00001171,-0.00000062,0.00000061,-0.00000833,0.0000
 0101,-0.00000060,-0.09336165,-0.00596734,0.09948808,0.00955214,0.00143
 741,-0.01317562,0.00076038,-0.00106096,0.00194930,0.11577580,-0.000098
 50,-0.00006138,-0.00000684,0.00004933,0.00003323,0.00002080,-0.0000145
 0,0.00000806,-0.00000191,0.00002692,-0.00010199,0.00002149,0.00000968,
 0.00001293,-0.00000139,0.00000178,0.00001247,-0.00001166,-0.00001493,0
 .00000831,-0.00001521,-0.00000066,-0.00000188,-0.00000309,-0.00000933,
 0.00000056,0.00000497,-0.00003345,0.00003012,0.00003873,0.00001093,-0.
 00000977,0.00000115,0.00009897,0.00003256,0.00001244,-0.00000419,-0.00
 000976,-0.00001240,-0.00001700,0.00007198,-0.00008415,-0.00000396,0.00
 000268,-0.00000633,0.00014714,0.00001715,0.00014383,0.00049068,0.00020
 657,-0.00076742,0.00003189,-0.00009831,-0.00002609,0.00176977,-0.00086
 360,0.00236085,-0.00063255,0.00088516,-0.00033870,0.00004061,0.0000143
 2,-0.00000724,0.01172417,-0.00134011,-0.01327527,0.00001780,-0.0000001
 1,0.00000334,-0.00000877,0.00000204,-0.00000171,0.00000177,0.00000174,
 0.00000081,0.00000176,0.00000004,0.00000117,0.00000091,-0.00000123,-0.
 00000111,-0.00840279,-0.05231513,0.01129880,0.00862139,0.00180244,-0.0
 1681068,-0.01286676,0.00265414,0.02640219,-0.00093813,0.04900676,-0.00
 006180,-0.00008357,0.00001381,0.00003405,0.00003973,0.00001794,-0.0000
 0457,0.00000834,-0.00000887,0.00001863,-0.00013023,0.00000870,0.000001
 34,0.00002009,-0.00002616,0.00000271,0.00001073,-0.00001390,0.00000215
 ,0.00001894,-0.00001190,-0.00000287,-0.00000589,-0.00000366,-0.0000170
 4,0.00001010,0.00001365,-0.00003177,0.00002932,0.00002863,0.00001042,-
 0.00000282,0.00000186,0.00011055,0.00002926,0.00002347,-0.00000345,-0.
 00001321,-0.00001272,0.00000314,0.00008280,-0.00006949,-0.00000180,-0.
 00000053,-0.00000682,-0.00012288,0.00005241,0.00005605,0.00012647,-0.0
 0002119,0.00032550,-0.00009241,-0.00005040,0.00003212,-0.00293988,0.00
 119589,-0.00063286,0.00167290,-0.00064781,0.00063922,0.00002876,0.0000
 0074,-0.00000513,-0.00523874,0.00017697,0.00861487,0.00006123,0.000007
 09,0.00003662,-0.00002828,0.00000154,-0.00001237,0.00000253,0.00000037
 ,0.00000394,0.00000531,0.00000144,-0.00000022,0.00000364,-0.00000181,-
 0.00000004,0.11189952,0.00681973,-0.28140801,0.00846704,0.00251522,-0.
 01489458,0.00270538,-0.00112384,-0.00683211,-0.11661028,-0.00893939,0.
 29412248\\-0.00000015,-0.00000104,0.00000550,-0.00000151,-0.00000509,0
 .00000066,-0.00000124,-0.00000052,-0.00000096,0.00000073,-0.00000162,-
 0.00000172,0.00000205,0.00000300,-0.00000045,-0.00000101,-0.00000239,-
 0.00000028,-0.00000121,0.00000126,0.00000138,-0.00000120,0.00000070,0.
 00000091,-0.00000124,0.00000028,0.00000086,-0.00000028,-0.00000013,-0.
 00000086,0.00000167,-0.00000093,0.00000088,0.00000092,0.00000002,-0.00
 000179,0.00000115,-0.00000003,-0.00000092,0.00000056,-0.00000263,0.000
 00234,-0.00000081,0.00000066,-0.00000168,0.00000058,-0.00000018,-0.000
 00115,0.,0.00000350,-0.00000362,-0.00000140,0.00000279,-0.00000259,-0.
 00000078,0.00000017,0.00000103,-0.00000023,0.00000204,0.00000334,-0.00
 000118,0.00000061,-0.00000188,0.00000011,-0.00000197,0.00000178,0.0000
 0100,0.00000088,-0.00000162,0.00000074,0.00000055,-0.00000263,0.000001
 55,0.00000037,-0.00000310,0.00000029,0.00000051,-0.00000375,0.00000038
 ,0.00000022,-0.00000340,0.00000062,0.00000077,0.00000386,-0.00000061,-
 0.00000089,0.00000360,-0.00000051,-0.00000054,0.00000287,0.00000101,-0
 .00000035,0.00000339\\\@


 AND THIS OUR LIFE, EXEMPT FROM PUBLIC HAUNT,
 FINDS TONGUES IN TREES, BOOKS IN THE RUNNING BROOKS,
 SERMONS IN STONES, AND GOOD IN EVERYTHING.
 I WOULD NOT CHANGE IT. -- W. SHAKESPEARE
 AS YOU LIKE IT, ACT II, SCENE 1.
 Job cpu time:       0 days  2 hours 12 minutes 41.7 seconds.
 File lengths (MBytes):  RWF=    515 Int=      0 D2E=      0 Chk=     17 Scr=      1
 Normal termination of Gaussian 09 at Thu Sep 17 16:03:46 2020.
