 Entering Gaussian System, Link 0=g09
 Input=b3lyp_m062x_quadricyclane_cycloaddition_PM6_toluene_water.com
 Output=b3lyp_m062x_quadricyclane_cycloaddition_PM6_toluene_water.log
 Initial command:
 /apps/applications/gaussian/G09.D01/2/default/g09/l1.exe "/local/746249.1.40core-192G.q/Gau-57498.inp" -scrdir="/local/746249.1.40core-192G.q/"
 Entering Link 1 = /apps/applications/gaussian/G09.D01/2/default/g09/l1.exe PID=     57499.
  
 Copyright (c) 1988,1990,1992,1993,1995,1998,2003,2009,2013,
            Gaussian, Inc.  All Rights Reserved.
  
 This is part of the Gaussian(R) 09 program.  It is based on
 the Gaussian(R) 03 system (copyright 2003, Gaussian, Inc.),
 the Gaussian(R) 98 system (copyright 1998, Gaussian, Inc.),
 the Gaussian(R) 94 system (copyright 1995, Gaussian, Inc.),
 the Gaussian 92(TM) system (copyright 1992, Gaussian, Inc.),
 the Gaussian 90(TM) system (copyright 1990, Gaussian, Inc.),
 the Gaussian 88(TM) system (copyright 1988, Gaussian, Inc.),
 the Gaussian 86(TM) system (copyright 1986, Carnegie Mellon
 University), and the Gaussian 82(TM) system (copyright 1983,
 Carnegie Mellon University). Gaussian is a federally registered
 trademark of Gaussian, Inc.
  
 This software contains proprietary and confidential information,
 including trade secrets, belonging to Gaussian, Inc.
  
 This software is provided under written license and may be
 used, copied, transmitted, or stored only in accord with that
 written license.
  
 The following legend is applicable only to US Government
 contracts under FAR:
  
                    RESTRICTED RIGHTS LEGEND
  
 Use, reproduction and disclosure by the US Government is
 subject to restrictions as set forth in subparagraphs (a)
 and (c) of the Commercial Computer Software - Restricted
 Rights clause in FAR 52.227-19.
  
 Gaussian, Inc.
 340 Quinnipiac St., Bldg. 40, Wallingford CT 06492
  
  
 ---------------------------------------------------------------
 Warning -- This program may not be used in any manner that
 competes with the business of Gaussian, Inc. or will provide
 assistance to any competitor of Gaussian, Inc.  The licensee
 of this program is prohibited from giving any competitor of
 Gaussian, Inc. access to this program.  By using this program,
 the user acknowledges that Gaussian, Inc. is engaged in the
 business of creating and licensing software in the field of
 computational chemistry and represents and warrants to the
 licensee that it is not a competitor of Gaussian, Inc. and that
 it will not use this program in any manner prohibited above.
 ---------------------------------------------------------------
  

 Cite this work as:
 Gaussian 09, Revision D.01,
 M. J. Frisch, G. W. Trucks, H. B. Schlegel, G. E. Scuseria, 
 M. A. Robb, J. R. Cheeseman, G. Scalmani, V. Barone, B. Mennucci, 
 G. A. Petersson, H. Nakatsuji, M. Caricato, X. Li, H. P. Hratchian, 
 A. F. Izmaylov, J. Bloino, G. Zheng, J. L. Sonnenberg, M. Hada, 
 M. Ehara, K. Toyota, R. Fukuda, J. Hasegawa, M. Ishida, T. Nakajima, 
 Y. Honda, O. Kitao, H. Nakai, T. Vreven, J. A. Montgomery, Jr., 
 J. E. Peralta, F. Ogliaro, M. Bearpark, J. J. Heyd, E. Brothers, 
 K. N. Kudin, V. N. Staroverov, T. Keith, R. Kobayashi, J. Normand, 
 K. Raghavachari, A. Rendell, J. C. Burant, S. S. Iyengar, J. Tomasi, 
 M. Cossi, N. Rega, J. M. Millam, M. Klene, J. E. Knox, J. B. Cross, 
 V. Bakken, C. Adamo, J. Jaramillo, R. Gomperts, R. E. Stratmann, 
 O. Yazyev, A. J. Austin, R. Cammi, C. Pomelli, J. W. Ochterski, 
 R. L. Martin, K. Morokuma, V. G. Zakrzewski, G. A. Voth, 
 P. Salvador, J. J. Dannenberg, S. Dapprich, A. D. Daniels, 
 O. Farkas, J. B. Foresman, J. V. Ortiz, J. Cioslowski, 
 and D. J. Fox, Gaussian, Inc., Wallingford CT, 2013.
 
 ******************************************
 Gaussian 09:  ES64L-G09RevD.01 24-Apr-2013
                17-Sep-2020 
 ******************************************
 %nprocshared=4
 Will use up to    4 processors via shared memory.
 %chk=b3lyp_m062x_quadricyclane_cycloaddition_PM6_toluene_water.chk
 ----------------------------------------------------------------------
 # opt freq b3lyp/6-31+g(d,p) scrf=(cpcm,solvent=water) geom=connectivi
 ty empiricaldispersion=gd3
 ----------------------------------------------------------------------
 1/14=-1,18=20,19=15,26=3,38=1,57=2/1,3;
 2/9=110,12=2,17=6,18=5,40=1/2;
 3/5=1,6=6,7=111,11=2,16=1,25=1,30=1,70=2101,71=1,72=1,74=-5,124=31/1,2,3;
 4//1;
 5/5=2,38=5,53=1/2;
 6/7=2,8=2,9=2,10=2,28=1/1;
 7//1,2,3,16;
 1/14=-1,18=20,19=15,26=3/3(2);
 2/9=110/2;
 99//99;
 2/9=110/2;
 3/5=1,6=6,7=111,11=2,16=1,25=1,30=1,70=2105,71=1,72=1,74=-5,124=31/1,2,3;
 4/5=5,16=3,69=1/1;
 5/5=2,38=5,53=1/2;
 7//1,2,3,16;
 1/14=-1,18=20,19=15,26=3/3(-5);
 2/9=110/2;
 6/7=2,8=2,9=2,10=2,19=2,28=1/1;
 99/9=1/99;
 -------------------
 Title Card Required
 -------------------
 Symbolic Z-matrix:
 Charge =  0 Multiplicity = 1
 C                     0.75337   0.77151  -0.70525 
 C                     0.        1.14743   0.54669 
 C                     0.       -1.14743   0.54669 
 C                     0.75352  -0.77143  -0.70512 
 H                     1.4438    1.42804  -1.23163 
 H                     1.44406  -1.42791  -1.23142 
 C                     0.        0.        1.53444 
 H                    -0.89615  -0.00008   2.17341 
 H                     0.89615   0.00008   2.17341 
 C                    -0.75352   0.77143  -0.70512 
 H                    -1.44406   1.42791  -1.23142 
 C                    -0.75337  -0.77151  -0.70525 
 H                    -1.4438   -1.42804  -1.23163 
 H                     0.00006   2.18949   0.86841 
 H                    -0.00006  -2.18949   0.86841 
 

 GradGradGradGradGradGradGradGradGradGradGradGradGradGradGradGradGradGrad
 Berny optimization.
 Initialization pass.
                           ----------------------------
                           !    Initial Parameters    !
                           ! (Angstroms and Degrees)  !
 --------------------------                            --------------------------
 ! Name  Definition              Value          Derivative Info.                !
 --------------------------------------------------------------------------------
 ! R1    R(1,2)                  1.5087         estimate D2E/DX2                !
 ! R2    R(1,4)                  1.5429         estimate D2E/DX2                !
 ! R3    R(1,5)                  1.0885         estimate D2E/DX2                !
 ! R4    R(1,10)                 1.5069         estimate D2E/DX2                !
 ! R5    R(2,7)                  1.514          estimate D2E/DX2                !
 ! R6    R(2,10)                 1.5087         estimate D2E/DX2                !
 ! R7    R(2,14)                 1.0906         estimate D2E/DX2                !
 ! R8    R(3,4)                  1.5087         estimate D2E/DX2                !
 ! R9    R(3,7)                  1.514          estimate D2E/DX2                !
 ! R10   R(3,12)                 1.5087         estimate D2E/DX2                !
 ! R11   R(3,15)                 1.0906         estimate D2E/DX2                !
 ! R12   R(4,6)                  1.0885         estimate D2E/DX2                !
 ! R13   R(4,12)                 1.5069         estimate D2E/DX2                !
 ! R14   R(7,8)                  1.1006         estimate D2E/DX2                !
 ! R15   R(7,9)                  1.1006         estimate D2E/DX2                !
 ! R16   R(10,11)                1.0885         estimate D2E/DX2                !
 ! R17   R(10,12)                1.5429         estimate D2E/DX2                !
 ! R18   R(12,13)                1.0885         estimate D2E/DX2                !
 ! A1    A(2,1,4)              104.4272         estimate D2E/DX2                !
 ! A2    A(2,1,5)              124.5921         estimate D2E/DX2                !
 ! A3    A(4,1,5)              127.095          estimate D2E/DX2                !
 ! A4    A(4,1,10)              90.0024         estimate D2E/DX2                !
 ! A5    A(5,1,10)             129.3736         estimate D2E/DX2                !
 ! A6    A(1,2,7)              110.6419         estimate D2E/DX2                !
 ! A7    A(1,2,14)             118.8711         estimate D2E/DX2                !
 ! A8    A(7,2,10)             110.6364         estimate D2E/DX2                !
 ! A9    A(7,2,14)             122.1195         estimate D2E/DX2                !
 ! A10   A(10,2,14)            118.8769         estimate D2E/DX2                !
 ! A11   A(4,3,7)              110.6364         estimate D2E/DX2                !
 ! A12   A(4,3,15)             118.8769         estimate D2E/DX2                !
 ! A13   A(7,3,12)             110.6419         estimate D2E/DX2                !
 ! A14   A(7,3,15)             122.1195         estimate D2E/DX2                !
 ! A15   A(12,3,15)            118.8711         estimate D2E/DX2                !
 ! A16   A(1,4,3)              104.4327         estimate D2E/DX2                !
 ! A17   A(1,4,6)              127.095          estimate D2E/DX2                !
 ! A18   A(1,4,12)              89.9976         estimate D2E/DX2                !
 ! A19   A(3,4,6)              124.5913         estimate D2E/DX2                !
 ! A20   A(6,4,12)             129.3705         estimate D2E/DX2                !
 ! A21   A(2,7,3)               98.5539         estimate D2E/DX2                !
 ! A22   A(2,7,8)              112.2599         estimate D2E/DX2                !
 ! A23   A(2,7,9)              112.2531         estimate D2E/DX2                !
 ! A24   A(3,7,8)              112.2531         estimate D2E/DX2                !
 ! A25   A(3,7,9)              112.2599         estimate D2E/DX2                !
 ! A26   A(8,7,9)              109.0214         estimate D2E/DX2                !
 ! A27   A(1,10,11)            129.3705         estimate D2E/DX2                !
 ! A28   A(1,10,12)             89.9976         estimate D2E/DX2                !
 ! A29   A(2,10,11)            124.5913         estimate D2E/DX2                !
 ! A30   A(2,10,12)            104.4327         estimate D2E/DX2                !
 ! A31   A(11,10,12)           127.095          estimate D2E/DX2                !
 ! A32   A(3,12,10)            104.4272         estimate D2E/DX2                !
 ! A33   A(3,12,13)            124.5921         estimate D2E/DX2                !
 ! A34   A(4,12,10)             90.0024         estimate D2E/DX2                !
 ! A35   A(4,12,13)            129.3736         estimate D2E/DX2                !
 ! A36   A(10,12,13)           127.095          estimate D2E/DX2                !
 ! D1    D(4,1,2,7)             21.0598         estimate D2E/DX2                !
 ! D2    D(4,1,2,14)           169.9869         estimate D2E/DX2                !
 ! D3    D(5,1,2,7)           -137.9977         estimate D2E/DX2                !
 ! D4    D(5,1,2,14)            10.9294         estimate D2E/DX2                !
 ! D5    D(2,1,4,3)              0.0111         estimate D2E/DX2                !
 ! D6    D(2,1,4,6)           -158.3542         estimate D2E/DX2                !
 ! D7    D(2,1,4,12)            58.9685         estimate D2E/DX2                !
 ! D8    D(5,1,4,3)            158.3637         estimate D2E/DX2                !
 ! D9    D(5,1,4,6)             -0.0016         estimate D2E/DX2                !
 ! D10   D(5,1,4,12)          -142.6788         estimate D2E/DX2                !
 ! D11   D(10,1,4,3)           -58.948          estimate D2E/DX2                !
 ! D12   D(10,1,4,6)           142.6868         estimate D2E/DX2                !
 ! D13   D(10,1,4,12)            0.0095         estimate D2E/DX2                !
 ! D14   D(4,1,10,11)         -141.2846         estimate D2E/DX2                !
 ! D15   D(4,1,10,12)           -0.0093         estimate D2E/DX2                !
 ! D16   D(5,1,10,11)            0.0003         estimate D2E/DX2                !
 ! D17   D(5,1,10,12)          141.2756         estimate D2E/DX2                !
 ! D18   D(1,2,7,3)            -32.2491         estimate D2E/DX2                !
 ! D19   D(1,2,7,8)           -150.632          estimate D2E/DX2                !
 ! D20   D(1,2,7,9)             86.139          estimate D2E/DX2                !
 ! D21   D(10,2,7,3)            32.255          estimate D2E/DX2                !
 ! D22   D(10,2,7,8)           -86.1279         estimate D2E/DX2                !
 ! D23   D(10,2,7,9)           150.6431         estimate D2E/DX2                !
 ! D24   D(14,2,7,3)          -179.996          estimate D2E/DX2                !
 ! D25   D(14,2,7,8)            61.621          estimate D2E/DX2                !
 ! D26   D(14,2,7,9)           -61.6079         estimate D2E/DX2                !
 ! D27   D(7,2,10,11)          137.9916         estimate D2E/DX2                !
 ! D28   D(7,2,10,12)          -21.0783         estimate D2E/DX2                !
 ! D29   D(14,2,10,11)         -10.9355         estimate D2E/DX2                !
 ! D30   D(14,2,10,12)        -170.0054         estimate D2E/DX2                !
 ! D31   D(7,3,4,1)            -21.0783         estimate D2E/DX2                !
 ! D32   D(7,3,4,6)            137.9916         estimate D2E/DX2                !
 ! D33   D(15,3,4,1)          -170.0054         estimate D2E/DX2                !
 ! D34   D(15,3,4,6)           -10.9355         estimate D2E/DX2                !
 ! D35   D(4,3,7,2)             32.255          estimate D2E/DX2                !
 ! D36   D(4,3,7,8)            150.6431         estimate D2E/DX2                !
 ! D37   D(4,3,7,9)            -86.1279         estimate D2E/DX2                !
 ! D38   D(12,3,7,2)           -32.2491         estimate D2E/DX2                !
 ! D39   D(12,3,7,8)            86.139          estimate D2E/DX2                !
 ! D40   D(12,3,7,9)          -150.632          estimate D2E/DX2                !
 ! D41   D(15,3,7,2)          -179.996          estimate D2E/DX2                !
 ! D42   D(15,3,7,8)           -61.6079         estimate D2E/DX2                !
 ! D43   D(15,3,7,9)            61.621          estimate D2E/DX2                !
 ! D44   D(7,3,12,10)           21.0598         estimate D2E/DX2                !
 ! D45   D(7,3,12,13)         -137.9977         estimate D2E/DX2                !
 ! D46   D(15,3,12,10)         169.9869         estimate D2E/DX2                !
 ! D47   D(15,3,12,13)          10.9294         estimate D2E/DX2                !
 ! D48   D(1,4,12,10)           -0.0093         estimate D2E/DX2                !
 ! D49   D(1,4,12,13)          141.2756         estimate D2E/DX2                !
 ! D50   D(6,4,12,10)         -141.2846         estimate D2E/DX2                !
 ! D51   D(6,4,12,13)            0.0003         estimate D2E/DX2                !
 ! D52   D(1,10,12,3)           58.9685         estimate D2E/DX2                !
 ! D53   D(1,10,12,4)            0.0095         estimate D2E/DX2                !
 ! D54   D(1,10,12,13)        -142.6788         estimate D2E/DX2                !
 ! D55   D(2,10,12,3)            0.0111         estimate D2E/DX2                !
 ! D56   D(2,10,12,4)          -58.948          estimate D2E/DX2                !
 ! D57   D(2,10,12,13)         158.3637         estimate D2E/DX2                !
 ! D58   D(11,10,12,3)        -158.3542         estimate D2E/DX2                !
 ! D59   D(11,10,12,4)         142.6868         estimate D2E/DX2                !
 ! D60   D(11,10,12,13)         -0.0016         estimate D2E/DX2                !
 --------------------------------------------------------------------------------
 Trust Radius=3.00D-01 FncErr=1.00D-07 GrdErr=1.00D-06
 Number of steps in this run=    100 maximum allowed number of steps=    100.
 GradGradGradGradGradGradGradGradGradGradGradGradGradGradGradGradGradGrad

                          Input orientation:                          
 ---------------------------------------------------------------------
 Center     Atomic      Atomic             Coordinates (Angstroms)
 Number     Number       Type             X           Y           Z
 ---------------------------------------------------------------------
      1          6           0        0.753370    0.771506   -0.705247
      2          6           0        0.000000    1.147432    0.546688
      3          6           0        0.000000   -1.147432    0.546688
      4          6           0        0.753516   -0.771427   -0.705122
      5          1           0        1.443803    1.428039   -1.231629
      6          1           0        1.444057   -1.427912   -1.231415
      7          6           0        0.000000    0.000000    1.534439
      8          1           0       -0.896154   -0.000080    2.173407
      9          1           0        0.896154    0.000080    2.173407
     10          6           0       -0.753516    0.771427   -0.705122
     11          1           0       -1.444057    1.427912   -1.231415
     12          6           0       -0.753370   -0.771506   -0.705247
     13          1           0       -1.443803   -1.428039   -1.231629
     14          1           0        0.000064    2.189489    0.868410
     15          1           0       -0.000064   -2.189489    0.868410
 ---------------------------------------------------------------------
                    Distance matrix (angstroms):
                    1          2          3          4          5
     1  C    0.000000
     2  C    1.508717   0.000000
     3  C    2.411894   2.294864   0.000000
     4  C    1.542933   2.411811   1.508706   0.000000
     5  H    1.088490   2.307752   3.446742   2.364605   0.000000
     6  H    2.364602   3.446643   2.307730   1.088487   2.855951
     7  C    2.485756   1.514019   1.514019   2.485663   3.431471
     8  H    3.406306   2.183138   2.183054   3.406217   4.371406
     9  H    2.983644   2.183054   2.183138   2.983538   3.732728
    10  C    1.506886   1.508706   2.411811   2.156744   2.352990
    11  H    2.352957   2.307730   3.446643   3.153316   2.887860
    12  C    2.156653   2.411894   1.508717   1.506886   3.153196
    13  H    3.153196   3.446742   2.307752   2.352990   4.061459
    14  H    2.248231   1.090591   3.352394   3.436672   2.659765
    15  H    3.436794   3.352394   1.090591   2.248285   4.425090
                    6          7          8          9         10
     6  H    0.000000
     7  C    3.431353   0.000000
     8  H    4.371282   1.100624   0.000000
     9  H    3.732582   1.100624   1.792308   0.000000
    10  C    3.153316   2.485663   2.983538   3.406217   0.000000
    11  H    4.061642   3.431353   3.732582   4.371282   1.088487
    12  C    2.352957   2.485756   2.983644   3.406306   1.542933
    13  H    2.887860   3.431471   3.732728   4.371406   2.364605
    14  H    4.424926   2.288549   2.701932   2.701760   2.248285
    15  H    2.659840   2.288549   2.701760   2.701932   3.436672
                   11         12         13         14         15
    11  H    0.000000
    12  C    2.364602   0.000000
    13  H    2.855951   1.088490   0.000000
    14  H    2.659840   3.436794   4.425090   0.000000
    15  H    4.424926   2.248231   2.659765   4.378978   0.000000
 Stoichiometry    C7H8
 Framework group  C2[C2(C),X(C6H8)]
 Deg. of freedom    20
 Full point group                 C2      NOp   2
 Largest Abelian subgroup         C2      NOp   2
 Largest concise Abelian subgroup C2      NOp   2
                         Standard orientation:                         
 ---------------------------------------------------------------------
 Center     Atomic      Atomic             Coordinates (Angstroms)
 Number     Number       Type             X           Y           Z
 ---------------------------------------------------------------------
      1          6           0        0.753370    0.771506   -0.705247
      2          6           0        0.000000    1.147432    0.546688
      3          6           0        0.000000   -1.147432    0.546688
      4          6           0        0.753516   -0.771427   -0.705122
      5          1           0        1.443803    1.428039   -1.231629
      6          1           0        1.444057   -1.427912   -1.231415
      7          6           0        0.000000    0.000000    1.534439
      8          1           0       -0.896154   -0.000080    2.173407
      9          1           0        0.896154    0.000080    2.173407
     10          6           0       -0.753516    0.771427   -0.705122
     11          1           0       -1.444057    1.427912   -1.231415
     12          6           0       -0.753370   -0.771506   -0.705247
     13          1           0       -1.443803   -1.428039   -1.231629
     14          1           0        0.000064    2.189489    0.868410
     15          1           0       -0.000064   -2.189489    0.868410
 ---------------------------------------------------------------------
 Rotational constants (GHZ):      4.4444595      4.3823541      3.2713406
 Standard basis: 6-31+G(d,p) (6D, 7F)
 There are    88 symmetry adapted cartesian basis functions of A   symmetry.
 There are    85 symmetry adapted cartesian basis functions of B   symmetry.
 There are    88 symmetry adapted basis functions of A   symmetry.
 There are    85 symmetry adapted basis functions of B   symmetry.
   173 basis functions,   280 primitive gaussians,   173 cartesian basis functions
    25 alpha electrons       25 beta electrons
       nuclear repulsion energy       297.1533024181 Hartrees.
 NAtoms=   15 NActive=   15 NUniq=    8 SFac= 3.52D+00 NAtFMM=   60 NAOKFM=F Big=F
 Integral buffers will be    131072 words long.
 Raffenetti 2 integral format.
 Two-electron integral symmetry is turned on.
 Nuclear repulsion after empirical dispersion term =      297.1450331329 Hartrees.
 ------------------------------------------------------------------------------
 Polarizable Continuum Model (PCM)
 =================================
 Model                : C-PCM.
 Atomic radii         : UFF (Universal Force Field).
 Polarization charges : Total charges.
 Charge compensation  : None.
 Solution method      : On-the-fly selection.
 Cavity type          : Scaled VdW (van der Waals Surface) (Alpha=1.100).
 Cavity algorithm     : GePol (No added spheres)
                        Default sphere list used, NSphG=   15.
                        Lebedev-Laikov grids with approx.  5.0 points / Ang**2.
                        Smoothing algorithm: Karplus/York (Gamma=1.0000).
                        Polarization charges: spherical gaussians, with
                                              point-specific exponents (IZeta= 3).
                        Self-potential: point-specific (ISelfS= 7).
                        Self-field    : sphere-specific E.n sum rule (ISelfD= 2).
 1st derivatives      : Analytical E(r).r(x)/FMM algorithm (CHGder, D1EAlg=3).
                        Cavity 1st derivative terms included.
 Solvent              : Water, Eps=  78.355300 Eps(inf)=   1.777849
 ------------------------------------------------------------------------------
 Spheres list:
 ISph  on   Nord     Re0    Alpha      Xe            Ye            Ze
    1   C      1    1.9255  1.100      0.753370      0.771506     -0.705247
    2   C      2    1.9255  1.100      0.000000      1.147432      0.546688
    3   C      3    1.9255  1.100      0.000000     -1.147432      0.546688
    4   C      4    1.9255  1.100      0.753516     -0.771427     -0.705122
    5   H      5    1.4430  1.100      1.443803      1.428039     -1.231629
    6   H      6    1.4430  1.100      1.444057     -1.427912     -1.231415
    7   C      7    1.9255  1.100      0.000000      0.000000      1.534439
    8   H      8    1.4430  1.100     -0.896154     -0.000080      2.173407
    9   H      9    1.4430  1.100      0.896154      0.000080      2.173407
   10   C     10    1.9255  1.100     -0.753516      0.771427     -0.705122
   11   H     11    1.4430  1.100     -1.444057      1.427912     -1.231415
   12   C     12    1.9255  1.100     -0.753370     -0.771506     -0.705247
   13   H     13    1.4430  1.100     -1.443803     -1.428039     -1.231629
   14   H     14    1.4430  1.100      0.000064      2.189489      0.868410
   15   H     15    1.4430  1.100     -0.000064     -2.189489      0.868410
 ------------------------------------------------------------------------------
 One-electron integrals computed using PRISM.
 NBasis=   173 RedAO= T EigKep=  1.21D-05  NBF=    88    85
 NBsUse=   173 1.00D-06 EigRej= -1.00D+00 NBFU=    88    85
 ExpMin= 4.38D-02 ExpMax= 3.05D+03 ExpMxC= 4.57D+02 IAcc=2 IRadAn=         4 AccDes= 0.00D+00
 Harris functional with IExCor=  402 and IRadAn=       4 diagonalized for initial guess.
 HarFok:  IExCor=  402 AccDes= 0.00D+00 IRadAn=         4 IDoV= 1 UseB2=F ITyADJ=14
 ICtDFT=  3500011 ScaDFX=  1.000000  1.000000  1.000000  1.000000
 FoFCou: FMM=F IPFlag=           0 FMFlag=      100000 FMFlg1=           0
         NFxFlg=           0 DoJE=T BraDBF=F KetDBF=T FulRan=T
         wScrn=  0.000000 ICntrl=     500 IOpCl=  0 I1Cent=   200000004 NGrid=           0
         NMat0=    1 NMatS0=      1 NMatT0=    0 NMatD0=    1 NMtDS0=    0 NMtDT0=    0
 Petite list used in FoFCou.
 Initial guess orbital symmetries:
       Occupied  (A) (B) (A) (A) (B) (B) (A) (A) (B) (A) (B) (A)
                 (B) (A) (A) (B) (A) (B) (A) (B) (B) (A) (B) (A)
                 (B)
       Virtual   (B) (A) (B) (A) (B) (B) (A) (A) (B) (B) (A) (A)
                 (A) (B) (A) (B) (A) (A) (B) (B) (A) (A) (B) (B)
                 (A) (B) (A) (B) (A) (B) (B) (A) (A) (A) (B) (B)
                 (B) (A) (B) (A) (B) (B) (B) (A) (A) (A) (A) (A)
                 (B) (B) (B) (A) (A) (B) (B) (A) (B) (A) (B) (A)
                 (A) (B) (B) (A) (B) (A) (B) (A) (B) (B) (A) (A)
                 (A) (B) (A) (B) (A) (B) (B) (A) (A) (A) (A) (B)
                 (A) (A) (B) (B) (A) (B) (A) (B) (B) (A) (B) (B)
                 (B) (A) (A) (B) (A) (A) (B) (B) (A) (B) (A) (A)
                 (B) (B) (A) (B) (A) (B) (B) (A) (A) (A) (B) (A)
                 (B) (B) (A) (B) (B) (A) (B) (B) (A) (A) (A) (A)
                 (B) (A) (B) (A) (B) (A) (B) (B) (A) (A) (B) (A)
                 (B) (A) (B) (A)
 The electronic state of the initial guess is 1-A.
 Requested convergence on RMS density matrix=1.00D-08 within 128 cycles.
 Requested convergence on MAX density matrix=1.00D-06.
 Requested convergence on             energy=1.00D-06.
 No special actions if energy rises.
 Inv3:  Mode=1 IEnd=     4298427.
 Iteration    1 A*A^-1 deviation from unit magnitude is 3.55D-15 for   1179.
 Iteration    1 A*A^-1 deviation from orthogonality  is 2.19D-15 for   1172    106.
 Iteration    1 A^-1*A deviation from unit magnitude is 3.77D-15 for   1179.
 Iteration    1 A^-1*A deviation from orthogonality  is 1.86D-15 for   1193    157.
 Error on total polarization charges =  0.01414
 SCF Done:  E(RB3LYP) =  -271.474382970     A.U. after   11 cycles
            NFock= 11  Conv=0.84D-08     -V/T= 2.0095

 **********************************************************************

            Population analysis using the SCF density.

 **********************************************************************

 Orbital symmetries:
       Occupied  (A) (B) (A) (B) (B) (A) (A) (A) (B) (A) (B) (A)
                 (B) (A) (A) (B) (B) (A) (A) (B) (B) (A) (B) (A)
                 (B)
       Virtual   (A) (B) (B) (A) (B) (A) (A) (B) (A) (B) (B) (A)
                 (B) (A) (A) (B) (B) (B) (A) (A) (A) (B) (B) (A)
                 (A) (B) (B) (A) (B) (A) (B) (A) (A) (B) (B) (A)
                 (A) (B) (B) (B) (B) (A) (A) (A) (B) (A) (A) (A)
                 (B) (B) (B) (A) (B) (A) (B) (B) (A) (A) (B) (A)
                 (A) (B) (B) (A) (B) (B) (A) (A) (B) (B) (A) (A)
                 (A) (B) (A) (B) (A) (B) (B) (A) (A) (A) (A) (B)
                 (A) (A) (B) (B) (A) (B) (A) (B) (B) (A) (B) (B)
                 (B) (A) (A) (B) (A) (A) (B) (B) (A) (B) (A) (A)
                 (B) (B) (A) (A) (B) (B) (B) (A) (A) (A) (B) (A)
                 (B) (B) (A) (B) (B) (A) (B) (B) (A) (A) (A) (A)
                 (B) (A) (B) (A) (B) (A) (B) (B) (A) (A) (B) (A)
                 (B) (A) (B) (A)
 The electronic state is 1-A.
 Alpha  occ. eigenvalues --  -10.19242 -10.19241 -10.19175 -10.19157 -10.19153
 Alpha  occ. eigenvalues --  -10.19135 -10.18501  -0.94939  -0.78846  -0.73478
 Alpha  occ. eigenvalues --   -0.63642  -0.56838  -0.55154  -0.53667  -0.51787
 Alpha  occ. eigenvalues --   -0.44211  -0.43321  -0.43249  -0.39652  -0.35228
 Alpha  occ. eigenvalues --   -0.34455  -0.31507  -0.28299  -0.27226  -0.22588
 Alpha virt. eigenvalues --    0.00839   0.01984   0.02495   0.02620   0.04357
 Alpha virt. eigenvalues --    0.04555   0.04852   0.06608   0.07099   0.08386
 Alpha virt. eigenvalues --    0.10392   0.10577   0.11313   0.11356   0.11478
 Alpha virt. eigenvalues --    0.11603   0.12539   0.12775   0.14687   0.14962
 Alpha virt. eigenvalues --    0.16650   0.16946   0.18760   0.19010   0.19548
 Alpha virt. eigenvalues --    0.19563   0.19624   0.19707   0.20383   0.21518
 Alpha virt. eigenvalues --    0.22148   0.24039   0.25007   0.26856   0.28480
 Alpha virt. eigenvalues --    0.29439   0.29520   0.29789   0.34300   0.34704
 Alpha virt. eigenvalues --    0.35234   0.36048   0.36254   0.39195   0.40290
 Alpha virt. eigenvalues --    0.45793   0.60854   0.63682   0.64779   0.65777
 Alpha virt. eigenvalues --    0.67790   0.70945   0.75313   0.75918   0.76076
 Alpha virt. eigenvalues --    0.77737   0.77812   0.78906   0.78956   0.80148
 Alpha virt. eigenvalues --    0.80450   0.84787   0.88990   0.91520   0.93624
 Alpha virt. eigenvalues --    0.94925   0.95943   0.96024   1.00215   1.01669
 Alpha virt. eigenvalues --    1.04535   1.10611   1.11034   1.15968   1.20706
 Alpha virt. eigenvalues --    1.21431   1.22478   1.25907   1.33195   1.41682
 Alpha virt. eigenvalues --    1.46078   1.56101   1.58343   1.59183   1.62293
 Alpha virt. eigenvalues --    1.68011   1.69166   1.74003   1.74838   1.79954
 Alpha virt. eigenvalues --    1.85695   1.86986   1.95293   1.96589   1.99255
 Alpha virt. eigenvalues --    1.99531   2.01236   2.02018   2.05251   2.08421
 Alpha virt. eigenvalues --    2.19692   2.24673   2.26825   2.28022   2.34330
 Alpha virt. eigenvalues --    2.36139   2.38252   2.38513   2.40465   2.41325
 Alpha virt. eigenvalues --    2.41711   2.42817   2.43988   2.47741   2.47761
 Alpha virt. eigenvalues --    2.50713   2.58004   2.58668   2.60030   2.61000
 Alpha virt. eigenvalues --    2.63540   2.67183   2.67252   2.71697   2.76236
 Alpha virt. eigenvalues --    2.79235   2.84625   2.86357   2.86941   2.94370
 Alpha virt. eigenvalues --    3.01873   3.07095   3.11984   3.25570   3.29414
 Alpha virt. eigenvalues --    3.32055   3.39000   3.48086   3.49352   3.59970
 Alpha virt. eigenvalues --    3.79368   4.43947   4.51384   4.51564   4.55489
 Alpha virt. eigenvalues --    4.80252   4.83921   4.92108
          Condensed to atoms (all electrons):
               1          2          3          4          5          6
     1  C    8.731536  -1.421362   1.123195  -2.498266   0.117911   0.115996
     2  C   -1.421362   8.381695  -1.919973   1.122976   0.074495  -0.041269
     3  C    1.123195  -1.919973   8.381695  -1.421261  -0.041270   0.074489
     4  C   -2.498266   1.122976  -1.421261   8.731397   0.116015   0.117944
     5  H    0.117911   0.074495  -0.041270   0.116015   0.565822  -0.004080
     6  H    0.115996  -0.041269   0.074489   0.117944  -0.004080   0.565826
     7  C    0.071884  -0.098837  -0.098837   0.071906  -0.000411  -0.000415
     8  H    0.020835  -0.009410  -0.009430   0.020825  -0.000083  -0.000083
     9  H   -0.036318  -0.009430  -0.009410  -0.036330   0.000161   0.000161
    10  C   -1.299648  -1.421261   1.122976   1.136084   0.099000  -0.050778
    11  H    0.098986   0.074489  -0.041269  -0.050778  -0.003023  -0.000071
    12  C    1.135811   1.123195  -1.421362  -1.299648  -0.050786   0.098986
    13  H   -0.050786  -0.041270   0.074495   0.099000  -0.000071  -0.003023
    14  H    0.077119   0.176839   0.074797  -0.036621  -0.004086   0.000010
    15  H   -0.036627   0.074797   0.176839   0.077122   0.000010  -0.004086
               7          8          9         10         11         12
     1  C    0.071884   0.020835  -0.036318  -1.299648   0.098986   1.135811
     2  C   -0.098837  -0.009410  -0.009430  -1.421261   0.074489   1.123195
     3  C   -0.098837  -0.009430  -0.009410   1.122976  -0.041269  -1.421362
     4  C    0.071906   0.020825  -0.036330   1.136084  -0.050778  -1.299648
     5  H   -0.000411  -0.000083   0.000161   0.099000  -0.003023  -0.050786
     6  H   -0.000415  -0.000083   0.000161  -0.050778  -0.000071   0.098986
     7  C    5.556381   0.371839   0.371839   0.071906  -0.000415   0.071884
     8  H    0.371839   0.571995  -0.034536  -0.036330   0.000161  -0.036318
     9  H    0.371839  -0.034536   0.571995   0.020825  -0.000083   0.020835
    10  C    0.071906  -0.036330   0.020825   8.731397   0.117944  -2.498266
    11  H   -0.000415   0.000161  -0.000083   0.117944   0.565826   0.115996
    12  C    0.071884  -0.036318   0.020835  -2.498266   0.115996   8.731536
    13  H   -0.000411   0.000161  -0.000083   0.116015  -0.004080   0.117911
    14  H   -0.016317  -0.001093  -0.001094   0.077122  -0.004086  -0.036627
    15  H   -0.016317  -0.001094  -0.001093  -0.036621   0.000010   0.077119
              13         14         15
     1  C   -0.050786   0.077119  -0.036627
     2  C   -0.041270   0.176839   0.074797
     3  C    0.074495   0.074797   0.176839
     4  C    0.099000  -0.036621   0.077122
     5  H   -0.000071  -0.004086   0.000010
     6  H   -0.003023   0.000010  -0.004086
     7  C   -0.000411  -0.016317  -0.016317
     8  H    0.000161  -0.001093  -0.001094
     9  H   -0.000083  -0.001094  -0.001093
    10  C    0.116015   0.077122  -0.036621
    11  H   -0.004080  -0.004086   0.000010
    12  C    0.117911  -0.036627   0.077119
    13  H    0.565822   0.000010  -0.004086
    14  H    0.000010   0.553418  -0.000181
    15  H   -0.004086  -0.000181   0.553418
 Mulliken charges:
               1
     1  C   -0.150265
     2  C   -0.065675
     3  C   -0.065675
     4  C   -0.150364
     5  H    0.130398
     6  H    0.130393
     7  C   -0.355680
     8  H    0.142562
     9  H    0.142562
    10  C   -0.150364
    11  H    0.130393
    12  C   -0.150265
    13  H    0.130398
    14  H    0.140790
    15  H    0.140790
 Sum of Mulliken charges =   0.00000
 Mulliken charges with hydrogens summed into heavy atoms:
               1
     1  C   -0.019867
     2  C    0.075116
     3  C    0.075116
     4  C   -0.019971
     7  C   -0.070556
    10  C   -0.019971
    12  C   -0.019867
 Electronic spatial extent (au):  <R**2>=            514.1004
 Charge=              0.0000 electrons
 Dipole moment (field-independent basis, Debye):
    X=              0.0000    Y=              0.0000    Z=             -0.0292  Tot=              0.0292
 Quadrupole moment (field-independent basis, Debye-Ang):
   XX=            -42.5648   YY=            -39.5309   ZZ=            -42.2826
   XY=              0.0006   XZ=              0.0000   YZ=              0.0000
 Traceless Quadrupole moment (field-independent basis, Debye-Ang):
   XX=             -1.1053   YY=              1.9285   ZZ=             -0.8232
   XY=              0.0006   XZ=              0.0000   YZ=              0.0000
 Octapole moment (field-independent basis, Debye-Ang**2):
  XXX=              0.0000  YYY=              0.0000  ZZZ=              2.8969  XYY=              0.0000
  XXY=              0.0000  XXZ=             -3.5764  XZZ=              0.0000  YZZ=              0.0000
  YYZ=             -1.0933  XYZ=              0.0002
 Hexadecapole moment (field-independent basis, Debye-Ang**3):
 XXXX=           -165.2042 YYYY=           -264.3614 ZZZZ=           -288.5280 XXXY=              0.0005
 XXXZ=              0.0000 YYYX=              0.0041 YYYZ=              0.0000 ZZZX=              0.0000
 ZZZY=              0.0000 XXYY=            -73.1168 XXZZ=            -67.6311 YYZZ=            -91.1514
 XXYZ=              0.0000 YYXZ=              0.0000 ZZXY=              0.0038
 N-N= 2.971450331329D+02 E-N=-1.222196419930D+03  KE= 2.689243406493D+02
 Symmetry A    KE= 1.498879150509D+02
 Symmetry B    KE= 1.190364255984D+02
 D1PCM: C-PCM CHGder 1st derivatives, ID1Alg=3 FixD1E=F DoIter=F DoCFld=F I1PDM=0.
 Calling FoFJK, ICntrl=      2127 FMM=F ISym2X=1 I1Cent= 0 IOpClX= 0 NMat=1 NMatS=1 NMatT=0.
 ***** Axes restored to original set *****
 -------------------------------------------------------------------
 Center     Atomic                   Forces (Hartrees/Bohr)
 Number     Number              X              Y              Z
 -------------------------------------------------------------------
      1        6           0.010618155    0.005240179   -0.006393770
      2        6          -0.000010211    0.009444491    0.007911023
      3        6           0.000010211   -0.009444491    0.007911023
      4        6           0.010600075   -0.005249899   -0.006449417
      5        1          -0.001622624   -0.001991383    0.001544777
      6        1          -0.001622351    0.001991152    0.001539721
      7        6           0.000000000    0.000000000    0.006493872
      8        1           0.002178530    0.000009494   -0.000998610
      9        1          -0.002178530   -0.000009494   -0.000998610
     10        6          -0.010600075    0.005249899   -0.006449417
     11        1           0.001622351   -0.001991152    0.001539721
     12        6          -0.010618155   -0.005240179   -0.006393770
     13        1           0.001622624    0.001991383    0.001544777
     14        1          -0.000008654   -0.003152893   -0.000400660
     15        1           0.000008654    0.003152893   -0.000400660
 -------------------------------------------------------------------
 Cartesian Forces:  Max     0.010618155 RMS     0.005029990

 GradGradGradGradGradGradGradGradGradGradGradGradGradGradGradGradGradGrad
 Berny optimization.
 FormGI is forming the generalized inverse of G from B-inverse, IUseBI=4.
 Internal  Forces:  Max     0.006056406 RMS     0.001770166
 Search for a local minimum.
 Step number   1 out of a maximum of  100
 All quantities printed in internal units (Hartrees-Bohrs-Radians)
 Mixed Optimization -- RFO/linear search
 Second derivative matrix not updated -- first step.
 ITU=  0
     Eigenvalues ---    0.01157   0.01173   0.01510   0.01701   0.01790
     Eigenvalues ---    0.01925   0.02044   0.02149   0.04685   0.05881
     Eigenvalues ---    0.06248   0.06536   0.06856   0.07157   0.07918
     Eigenvalues ---    0.08585   0.10424   0.10949   0.10966   0.15484
     Eigenvalues ---    0.15964   0.18977   0.19604   0.22292   0.22704
     Eigenvalues ---    0.26296   0.27058   0.28227   0.29645   0.29925
     Eigenvalues ---    0.31527   0.33613   0.33613   0.34744   0.34744
     Eigenvalues ---    0.34988   0.34988   0.34988   0.34988
 RFO step:  Lambda=-1.14756931D-03 EMin= 1.15713987D-02
 Linear search not attempted -- first point.
 Iteration  1 RMS(Cart)=  0.00464455 RMS(Int)=  0.00000941
 Iteration  2 RMS(Cart)=  0.00000695 RMS(Int)=  0.00000223
 Iteration  3 RMS(Cart)=  0.00000000 RMS(Int)=  0.00000223
 ClnCor:  largest displacement from symmetrization is 2.14D-11 for atom    11.
 Variable       Old X    -DE/DX   Delta X   Delta X   Delta X     New X
                                 (Linear)    (Quad)   (Total)
    R1        2.85106   0.00589   0.00000   0.01873   0.01873   2.86979
    R2        2.91572   0.00478   0.00000   0.01729   0.01729   2.93301
    R3        2.05695  -0.00298   0.00000  -0.00848  -0.00848   2.04847
    R4        2.84760   0.00606   0.00000   0.01909   0.01909   2.86669
    R5        2.86108   0.00393   0.00000   0.01201   0.01201   2.87309
    R6        2.85104   0.00589   0.00000   0.01874   0.01874   2.86978
    R7        2.06092  -0.00313   0.00000  -0.00898  -0.00898   2.05194
    R8        2.85104   0.00589   0.00000   0.01874   0.01874   2.86978
    R9        2.86108   0.00393   0.00000   0.01201   0.01201   2.87309
   R10        2.85106   0.00589   0.00000   0.01873   0.01873   2.86979
   R11        2.06092  -0.00313   0.00000  -0.00898  -0.00898   2.05194
   R12        2.05694  -0.00297   0.00000  -0.00847  -0.00847   2.04847
   R13        2.84760   0.00606   0.00000   0.01909   0.01909   2.86669
   R14        2.07988  -0.00235   0.00000  -0.00698  -0.00698   2.07290
   R15        2.07988  -0.00235   0.00000  -0.00698  -0.00698   2.07290
   R16        2.05694  -0.00297   0.00000  -0.00847  -0.00847   2.04847
   R17        2.91572   0.00478   0.00000   0.01729   0.01729   2.93301
   R18        2.05695  -0.00298   0.00000  -0.00848  -0.00848   2.04847
    A1        1.82260  -0.00011   0.00000  -0.00037  -0.00037   1.82223
    A2        2.17454   0.00019   0.00000  -0.00002  -0.00003   2.17452
    A3        2.21823  -0.00015   0.00000  -0.00110  -0.00110   2.21713
    A4        1.57084   0.00000   0.00000  -0.00009  -0.00009   1.57075
    A5        2.25800   0.00020   0.00000   0.00323   0.00323   2.26122
    A6        1.93107  -0.00016   0.00000  -0.00099  -0.00099   1.93007
    A7        2.07469   0.00028   0.00000   0.00284   0.00284   2.07753
    A8        1.93097  -0.00015   0.00000  -0.00077  -0.00077   1.93020
    A9        2.13139  -0.00018   0.00000  -0.00239  -0.00239   2.12900
   A10        2.07479   0.00028   0.00000   0.00272   0.00272   2.07751
   A11        1.93097  -0.00015   0.00000  -0.00077  -0.00077   1.93020
   A12        2.07479   0.00028   0.00000   0.00272   0.00272   2.07751
   A13        1.93107  -0.00016   0.00000  -0.00099  -0.00099   1.93007
   A14        2.13139  -0.00018   0.00000  -0.00239  -0.00239   2.12900
   A15        2.07469   0.00028   0.00000   0.00284   0.00284   2.07753
   A16        1.82270  -0.00012   0.00000  -0.00057  -0.00057   1.82213
   A17        2.21823  -0.00015   0.00000  -0.00107  -0.00107   2.21715
   A18        1.57075   0.00000   0.00000   0.00009   0.00009   1.57085
   A19        2.17453   0.00019   0.00000   0.00000   0.00000   2.17452
   A20        2.25794   0.00021   0.00000   0.00327   0.00327   2.26121
   A21        1.72009   0.00060   0.00000   0.00312   0.00311   1.72320
   A22        1.95930  -0.00010   0.00000   0.00051   0.00051   1.95982
   A23        1.95919  -0.00010   0.00000   0.00063   0.00063   1.95982
   A24        1.95919  -0.00010   0.00000   0.00063   0.00063   1.95982
   A25        1.95930  -0.00010   0.00000   0.00051   0.00051   1.95982
   A26        1.90278  -0.00014   0.00000  -0.00458  -0.00458   1.89820
   A27        2.25794   0.00021   0.00000   0.00327   0.00327   2.26121
   A28        1.57075   0.00000   0.00000   0.00009   0.00009   1.57085
   A29        2.17453   0.00019   0.00000   0.00000   0.00000   2.17452
   A30        1.82270  -0.00012   0.00000  -0.00057  -0.00057   1.82213
   A31        2.21823  -0.00015   0.00000  -0.00107  -0.00107   2.21715
   A32        1.82260  -0.00011   0.00000  -0.00037  -0.00037   1.82223
   A33        2.17454   0.00019   0.00000  -0.00002  -0.00003   2.17452
   A34        1.57084   0.00000   0.00000  -0.00009  -0.00009   1.57075
   A35        2.25800   0.00020   0.00000   0.00323   0.00323   2.26122
   A36        2.21823  -0.00015   0.00000  -0.00110  -0.00110   2.21713
    D1        0.36756  -0.00014   0.00000  -0.00046  -0.00046   0.36710
    D2        2.96683  -0.00030   0.00000  -0.00226  -0.00226   2.96457
    D3       -2.40851   0.00010   0.00000   0.00362   0.00362  -2.40489
    D4        0.19075  -0.00006   0.00000   0.00182   0.00182   0.19258
    D5        0.00019  -0.00001   0.00000  -0.00043  -0.00043  -0.00024
    D6       -2.76380   0.00015   0.00000   0.00388   0.00388  -2.75992
    D7        1.02919  -0.00003   0.00000  -0.00040  -0.00040   1.02880
    D8        2.76397  -0.00016   0.00000  -0.00434  -0.00434   2.75963
    D9       -0.00003   0.00000   0.00000  -0.00003  -0.00003  -0.00006
   D10       -2.49022  -0.00018   0.00000  -0.00431  -0.00430  -2.49452
   D11       -1.02884   0.00001   0.00000  -0.00038  -0.00038  -1.02922
   D12        2.49035   0.00017   0.00000   0.00393   0.00392   2.49428
   D13        0.00017  -0.00001   0.00000  -0.00035  -0.00035  -0.00018
   D14       -2.46588   0.00004   0.00000  -0.00136  -0.00136  -2.46724
   D15       -0.00016   0.00001   0.00000   0.00034   0.00034   0.00018
   D16        0.00001   0.00000   0.00000   0.00001   0.00001   0.00002
   D17        2.46572  -0.00004   0.00000   0.00172   0.00172   2.46744
   D18       -0.56285   0.00000   0.00000   0.00001   0.00001  -0.56284
   D19       -2.62902  -0.00018   0.00000  -0.00262  -0.00262  -2.63165
   D20        1.50341   0.00017   0.00000   0.00255   0.00255   1.50596
   D21        0.56296   0.00000   0.00000  -0.00024  -0.00024   0.56271
   D22       -1.50322  -0.00017   0.00000  -0.00287  -0.00288  -1.50609
   D23        2.62922   0.00017   0.00000   0.00230   0.00230   2.63152
   D24       -3.14152   0.00000   0.00000  -0.00004  -0.00004  -3.14156
   D25        1.07549  -0.00017   0.00000  -0.00267  -0.00267   1.07282
   D26       -1.07526   0.00017   0.00000   0.00250   0.00250  -1.07276
   D27        2.40841  -0.00010   0.00000  -0.00329  -0.00329   2.40512
   D28       -0.36789   0.00015   0.00000   0.00118   0.00118  -0.36671
   D29       -0.19086   0.00006   0.00000  -0.00167  -0.00167  -0.19253
   D30       -2.96715   0.00031   0.00000   0.00280   0.00280  -2.96436
   D31       -0.36789   0.00015   0.00000   0.00118   0.00118  -0.36671
   D32        2.40841  -0.00010   0.00000  -0.00329  -0.00329   2.40512
   D33       -2.96715   0.00031   0.00000   0.00280   0.00280  -2.96436
   D34       -0.19086   0.00006   0.00000  -0.00167  -0.00167  -0.19253
   D35        0.56296   0.00000   0.00000  -0.00024  -0.00024   0.56271
   D36        2.62922   0.00017   0.00000   0.00230   0.00230   2.63152
   D37       -1.50322  -0.00017   0.00000  -0.00287  -0.00288  -1.50609
   D38       -0.56285   0.00000   0.00000   0.00001   0.00001  -0.56284
   D39        1.50341   0.00017   0.00000   0.00255   0.00255   1.50596
   D40       -2.62902  -0.00018   0.00000  -0.00262  -0.00262  -2.63165
   D41       -3.14152   0.00000   0.00000  -0.00004  -0.00004  -3.14156
   D42       -1.07526   0.00017   0.00000   0.00250   0.00250  -1.07276
   D43        1.07549  -0.00017   0.00000  -0.00267  -0.00267   1.07282
   D44        0.36756  -0.00014   0.00000  -0.00046  -0.00046   0.36710
   D45       -2.40851   0.00010   0.00000   0.00362   0.00362  -2.40489
   D46        2.96683  -0.00030   0.00000  -0.00226  -0.00226   2.96457
   D47        0.19075  -0.00006   0.00000   0.00182   0.00182   0.19258
   D48       -0.00016   0.00001   0.00000   0.00034   0.00034   0.00018
   D49        2.46572  -0.00004   0.00000   0.00172   0.00172   2.46744
   D50       -2.46588   0.00004   0.00000  -0.00136  -0.00136  -2.46724
   D51        0.00001   0.00000   0.00000   0.00001   0.00001   0.00002
   D52        1.02919  -0.00003   0.00000  -0.00040  -0.00040   1.02880
   D53        0.00017  -0.00001   0.00000  -0.00035  -0.00035  -0.00018
   D54       -2.49022  -0.00018   0.00000  -0.00431  -0.00430  -2.49452
   D55        0.00019  -0.00001   0.00000  -0.00043  -0.00043  -0.00024
   D56       -1.02884   0.00001   0.00000  -0.00038  -0.00038  -1.02922
   D57        2.76397  -0.00016   0.00000  -0.00434  -0.00434   2.75963
   D58       -2.76380   0.00015   0.00000   0.00388   0.00388  -2.75992
   D59        2.49035   0.00017   0.00000   0.00393   0.00392   2.49428
   D60       -0.00003   0.00000   0.00000  -0.00003  -0.00003  -0.00006
         Item               Value     Threshold  Converged?
 Maximum Force            0.006056     0.000450     NO 
 RMS     Force            0.001770     0.000300     NO 
 Maximum Displacement     0.012015     0.001800     NO 
 RMS     Displacement     0.004641     0.001200     NO 
 Predicted change in Energy=-5.760785D-04
 GradGradGradGradGradGradGradGradGradGradGradGradGradGradGradGradGradGrad

                          Input orientation:                          
 ---------------------------------------------------------------------
 Center     Atomic      Atomic             Coordinates (Angstroms)
 Number     Number       Type             X           Y           Z
 ---------------------------------------------------------------------
      1          6           0        0.758508    0.776065   -0.711057
      2          6           0       -0.000118    1.153790    0.549119
      3          6           0        0.000118   -1.153790    0.549119
      4          6           0        0.758477   -0.776018   -0.711197
      5          1           0        1.448901    1.428949   -1.232746
      6          1           0        1.448802   -1.428857   -1.233034
      7          6           0        0.000000    0.000000    1.539222
      8          1           0       -0.891687   -0.000090    2.178089
      9          1           0        0.891687    0.000090    2.178089
     10          6           0       -0.758477    0.776018   -0.711197
     11          1           0       -1.448802    1.428857   -1.233034
     12          6           0       -0.758508   -0.776065   -0.711057
     13          1           0       -1.448901   -1.428949   -1.232746
     14          1           0       -0.000198    2.190035    0.873527
     15          1           0        0.000198   -2.190035    0.873527
 ---------------------------------------------------------------------
                    Distance matrix (angstroms):
                    1          2          3          4          5
     1  C    0.000000
     2  C    1.518628   0.000000
     3  C    2.426425   2.307580   0.000000
     4  C    1.552082   2.426524   1.518624   0.000000
     5  H    1.084002   2.313095   3.456090   2.368666   0.000000
     6  H    2.368681   3.456227   2.313097   1.084003   2.857807
     7  C    2.498272   1.520373   1.520373   2.498374   3.438752
     8  H    3.416537   2.186294   2.186294   3.416589   4.376563
     9  H    2.994501   2.186294   2.186294   2.994672   3.739776
    10  C    1.516985   1.518624   2.426524   2.170245   2.360265
    11  H    2.360257   2.313097   3.456227   3.163205   2.897702
    12  C    2.170356   2.426425   1.518628   1.516985   3.163369
    13  H    3.163369   3.456090   2.313095   2.360265   4.069992
    14  H    2.255183   1.085838   3.359525   3.447377   2.667494
    15  H    3.447273   3.359525   1.085838   2.255168   4.430821
                    6          7          8          9         10
     6  H    0.000000
     7  C    3.438904   0.000000
     8  H    4.376646   1.096931   0.000000
     9  H    3.740058   1.096931   1.783374   0.000000
    10  C    3.163205   2.498374   2.994672   3.416589   0.000000
    11  H    4.069722   3.438904   3.740058   4.376646   1.084003
    12  C    2.360257   2.498272   2.994501   3.416537   1.552082
    13  H    2.897702   3.438752   3.739776   4.376563   2.368666
    14  H    4.430980   2.288974   2.700608   2.700592   2.255168
    15  H    2.667479   2.288974   2.700592   2.700608   3.447377
                   11         12         13         14         15
    11  H    0.000000
    12  C    2.368681   0.000000
    13  H    2.857807   1.084002   0.000000
    14  H    2.667479   3.447273   4.430821   0.000000
    15  H    4.430980   2.255183   2.667494   4.380070   0.000000
 Stoichiometry    C7H8
 Framework group  C2[C2(C),X(C6H8)]
 Deg. of freedom    20
 Full point group                 C2      NOp   2
 Largest Abelian subgroup         C2      NOp   2
 Largest concise Abelian subgroup C2      NOp   2
                         Standard orientation:                         
 ---------------------------------------------------------------------
 Center     Atomic      Atomic             Coordinates (Angstroms)
 Number     Number       Type             X           Y           Z
 ---------------------------------------------------------------------
      1          6           0        0.000000    1.085178   -0.709644
      2          6           0       -0.806550    0.825051    0.550531
      3          6           0        0.806550   -0.825051    0.550531
      4          6           0        1.084839   -0.024815   -0.709785
      5          1           0        0.037387    2.034653   -1.231334
      6          1           0        2.034840   -0.009177   -1.231622
      7          6           0        0.000000    0.000000    1.540634
      8          1           0       -0.637627   -0.623328    2.179501
      9          1           0        0.637627    0.623328    2.179501
     10          6           0       -1.084839    0.024815   -0.709785
     11          1           0       -2.034840    0.009177   -1.231622
     12          6           0        0.000000   -1.085178   -0.709644
     13          1           0       -0.037387   -2.034653   -1.231334
     14          1           0       -1.530913    1.566065    0.874939
     15          1           0        1.530913   -1.566065    0.874939
 ---------------------------------------------------------------------
 Rotational constants (GHZ):      4.4010885      4.3404171      3.2415604
 Standard basis: 6-31+G(d,p) (6D, 7F)
 There are    88 symmetry adapted cartesian basis functions of A   symmetry.
 There are    85 symmetry adapted cartesian basis functions of B   symmetry.
 There are    88 symmetry adapted basis functions of A   symmetry.
 There are    85 symmetry adapted basis functions of B   symmetry.
   173 basis functions,   280 primitive gaussians,   173 cartesian basis functions
    25 alpha electrons       25 beta electrons
       nuclear repulsion energy       295.8531413326 Hartrees.
 NAtoms=   15 NActive=   15 NUniq=    8 SFac= 3.52D+00 NAtFMM=   60 NAOKFM=F Big=F
 Integral buffers will be    131072 words long.
 Raffenetti 2 integral format.
 Two-electron integral symmetry is turned on.
 Nuclear repulsion after empirical dispersion term =      295.8448703011 Hartrees.
 ------------------------------------------------------------------------------
 Polarizable Continuum Model (PCM)
 =================================
 Model                : C-PCM.
 Atomic radii         : UFF (Universal Force Field).
 Polarization charges : Total charges.
 Charge compensation  : None.
 Solution method      : On-the-fly selection.
 Cavity type          : Scaled VdW (van der Waals Surface) (Alpha=1.100).
 Cavity algorithm     : GePol (No added spheres)
                        Default sphere list used, NSphG=   15.
                        Lebedev-Laikov grids with approx.  5.0 points / Ang**2.
                        Smoothing algorithm: Karplus/York (Gamma=1.0000).
                        Polarization charges: spherical gaussians, with
                                              point-specific exponents (IZeta= 3).
                        Self-potential: point-specific (ISelfS= 7).
                        Self-field    : sphere-specific E.n sum rule (ISelfD= 2).
 1st derivatives      : Analytical E(r).r(x)/FMM algorithm (CHGder, D1EAlg=3).
                        Cavity 1st derivative terms included.
 Solvent              : Water, Eps=  78.355300 Eps(inf)=   1.777849
 ------------------------------------------------------------------------------
 Spheres list:
 ISph  on   Nord     Re0    Alpha      Xe            Ye            Ze
    1   C      1    1.9255  1.100      0.000000      1.085178     -0.709644
    2   C      2    1.9255  1.100     -0.806550      0.825051      0.550531
    3   C      3    1.9255  1.100      0.806550     -0.825051      0.550531
    4   C      4    1.9255  1.100      1.084839     -0.024815     -0.709785
    5   H      5    1.4430  1.100      0.037387      2.034653     -1.231334
    6   H      6    1.4430  1.100      2.034840     -0.009177     -1.231622
    7   C      7    1.9255  1.100      0.000000      0.000000      1.540634
    8   H      8    1.4430  1.100     -0.637627     -0.623328      2.179501
    9   H      9    1.4430  1.100      0.637627      0.623328      2.179501
   10   C     10    1.9255  1.100     -1.084839      0.024815     -0.709785
   11   H     11    1.4430  1.100     -2.034840      0.009177     -1.231622
   12   C     12    1.9255  1.100      0.000000     -1.085178     -0.709644
   13   H     13    1.4430  1.100     -0.037387     -2.034653     -1.231334
   14   H     14    1.4430  1.100     -1.530913      1.566065      0.874939
   15   H     15    1.4430  1.100      1.530913     -1.566065      0.874939
 ------------------------------------------------------------------------------
 One-electron integrals computed using PRISM.
 NBasis=   173 RedAO= T EigKep=  1.27D-05  NBF=    88    85
 NBsUse=   173 1.00D-06 EigRej= -1.00D+00 NBFU=    88    85
 Initial guess from the checkpoint file:  "b3lyp_m062x_quadricyclane_cycloaddition_PM6_toluene_water.chk"
 B after Tr=     0.000000    0.000000    0.000000
         Rot=    0.926054    0.000000    0.000000   -0.377391 Ang= -44.34 deg.
 Initial guess orbital symmetries:
       Occupied  (A) (B) (A) (B) (B) (A) (A) (A) (B) (A) (B) (A)
                 (B) (A) (A) (B) (B) (A) (A) (B) (B) (A) (B) (A)
                 (B)
       Virtual   (A) (A) (A) (A) (A) (A) (A) (A) (A) (A) (A) (A)
                 (A) (A) (A) (A) (A) (A) (A) (A) (A) (A) (A) (A)
                 (A) (A) (A) (A) (A) (A) (A) (A) (A) (A) (A) (A)
                 (A) (A) (A) (A) (A) (A) (A) (A) (A) (A) (A) (A)
                 (A) (A) (A) (A) (A) (A) (A) (A) (A) (A) (A) (A)
                 (A) (A) (A) (A) (A) (A) (A) (A) (A) (A) (A) (A)
                 (A) (A) (A) (B) (B) (B) (B) (B) (B) (B) (B) (B)
                 (B) (B) (B) (B) (B) (B) (B) (B) (B) (B) (B) (B)
                 (B) (B) (B) (B) (B) (B) (B) (B) (B) (B) (B) (B)
                 (B) (B) (B) (B) (B) (B) (B) (B) (B) (B) (B) (B)
                 (B) (B) (B) (B) (B) (B) (B) (B) (B) (B) (B) (B)
                 (B) (B) (B) (B) (B) (B) (B) (B) (B) (B) (B) (B)
                 (B) (B) (B) (B)
 Requested convergence on RMS density matrix=1.00D-08 within 128 cycles.
 Requested convergence on MAX density matrix=1.00D-06.
 Requested convergence on             energy=1.00D-06.
 No special actions if energy rises.
 Inv3:  Mode=1 IEnd=     4113723.
 Iteration    1 A*A^-1 deviation from unit magnitude is 7.44D-15 for   1158.
 Iteration    1 A*A^-1 deviation from orthogonality  is 2.77D-15 for   1160   1008.
 Iteration    1 A^-1*A deviation from unit magnitude is 7.66D-15 for   1158.
 Iteration    1 A^-1*A deviation from orthogonality  is 1.96D-15 for   1160   1008.
 Error on total polarization charges =  0.01422
 SCF Done:  E(RB3LYP) =  -271.475020471     A.U. after    9 cycles
            NFock=  9  Conv=0.80D-08     -V/T= 2.0098
 D1PCM: C-PCM CHGder 1st derivatives, ID1Alg=3 FixD1E=F DoIter=F DoCFld=F I1PDM=0.
 Calling FoFJK, ICntrl=      2127 FMM=F ISym2X=1 I1Cent= 0 IOpClX= 0 NMat=1 NMatS=1 NMatT=0.
 ***** Axes restored to original set *****
 -------------------------------------------------------------------
 Center     Atomic                   Forces (Hartrees/Bohr)
 Number     Number              X              Y              Z
 -------------------------------------------------------------------
      1        6           0.001367285   -0.000360890   -0.000790019
      2        6           0.000018824    0.000606815    0.001667813
      3        6          -0.000018824   -0.000606815    0.001667813
      4        6           0.001380358    0.000396788   -0.000735371
      5        1           0.000053261   -0.000080641   -0.000002972
      6        1           0.000053493    0.000081485    0.000003785
      7        6           0.000000000    0.000000000   -0.000227322
      8        1           0.000000087    0.000000738   -0.000148085
      9        1          -0.000000087   -0.000000738   -0.000148085
     10        6          -0.001380358   -0.000396788   -0.000735371
     11        1          -0.000053493   -0.000081485    0.000003785
     12        6          -0.001367285    0.000360890   -0.000790019
     13        1          -0.000053261    0.000080641   -0.000002972
     14        1           0.000006040   -0.000076359    0.000118510
     15        1          -0.000006040    0.000076359    0.000118510
 -------------------------------------------------------------------
 Cartesian Forces:  Max     0.001667813 RMS     0.000613339

 GradGradGradGradGradGradGradGradGradGradGradGradGradGradGradGradGradGrad
 Berny optimization.
 Using GEDIIS/GDIIS optimizer.
 FormGI is forming the generalized inverse of G from B-inverse, IUseBI=4.
 Internal  Forces:  Max     0.000973485 RMS     0.000224900
 Search for a local minimum.
 Step number   2 out of a maximum of  100
 All quantities printed in internal units (Hartrees-Bohrs-Radians)
 Mixed Optimization -- En-DIIS/RFO-DIIS
 Update second derivatives using D2CorX and points    1    2
 DE= -6.38D-04 DEPred=-5.76D-04 R= 1.11D+00
 TightC=F SS=  1.41D+00  RLast= 6.33D-02 DXNew= 5.0454D-01 1.8990D-01
 Trust test= 1.11D+00 RLast= 6.33D-02 DXMaxT set to 3.00D-01
 ITU=  1  0
 Use linear search instead of GDIIS.
     Eigenvalues ---    0.01158   0.01170   0.01512   0.01706   0.01793
     Eigenvalues ---    0.01926   0.02047   0.02152   0.04663   0.05876
     Eigenvalues ---    0.06281   0.06541   0.06853   0.07175   0.07914
     Eigenvalues ---    0.08554   0.10466   0.10879   0.10960   0.15547
     Eigenvalues ---    0.15981   0.19064   0.19616   0.22282   0.22714
     Eigenvalues ---    0.26312   0.26750   0.27804   0.28261   0.29943
     Eigenvalues ---    0.30733   0.33613   0.33664   0.34744   0.34808
     Eigenvalues ---    0.34988   0.34988   0.34988   0.35563
 RFO step:  Lambda=-1.22373712D-05 EMin= 1.15804950D-02
 Quartic linear search produced a step of  0.09066.
 Iteration  1 RMS(Cart)=  0.00090047 RMS(Int)=  0.00000036
 Iteration  2 RMS(Cart)=  0.00000026 RMS(Int)=  0.00000024
 ClnCor:  largest displacement from symmetrization is 3.25D-11 for atom    15.
 Variable       Old X    -DE/DX   Delta X   Delta X   Delta X     New X
                                 (Linear)    (Quad)   (Total)
    R1        2.86979   0.00092   0.00170   0.00161   0.00331   2.87310
    R2        2.93301  -0.00019   0.00157  -0.00215  -0.00058   2.93243
    R3        2.04847  -0.00001  -0.00077   0.00069  -0.00008   2.04838
    R4        2.86669   0.00097   0.00173   0.00166   0.00339   2.87007
    R5        2.87309  -0.00018   0.00109  -0.00178  -0.00069   2.87240
    R6        2.86978   0.00093   0.00170   0.00166   0.00336   2.87314
    R7        2.05194  -0.00004  -0.00081   0.00065  -0.00016   2.05177
    R8        2.86978   0.00093   0.00170   0.00166   0.00336   2.87314
    R9        2.87309  -0.00018   0.00109  -0.00178  -0.00069   2.87240
   R10        2.86979   0.00092   0.00170   0.00161   0.00331   2.87310
   R11        2.05194  -0.00004  -0.00081   0.00065  -0.00016   2.05177
   R12        2.04847  -0.00002  -0.00077   0.00067  -0.00010   2.04837
   R13        2.86669   0.00097   0.00173   0.00166   0.00339   2.87007
   R14        2.07290  -0.00009  -0.00063   0.00032  -0.00031   2.07259
   R15        2.07290  -0.00009  -0.00063   0.00032  -0.00031   2.07259
   R16        2.04847  -0.00002  -0.00077   0.00067  -0.00010   2.04837
   R17        2.93301  -0.00019   0.00157  -0.00215  -0.00058   2.93243
   R18        2.04847  -0.00001  -0.00077   0.00069  -0.00008   2.04838
    A1        1.82223  -0.00002  -0.00003  -0.00012  -0.00015   1.82208
    A2        2.17452   0.00006   0.00000   0.00043   0.00042   2.17494
    A3        2.21713  -0.00006  -0.00010  -0.00042  -0.00052   2.21661
    A4        1.57075  -0.00001  -0.00001   0.00010   0.00010   1.57084
    A5        2.26122   0.00007   0.00029   0.00025   0.00054   2.26176
    A6        1.93007  -0.00008  -0.00009  -0.00022  -0.00031   1.92977
    A7        2.07753   0.00008   0.00026   0.00052   0.00078   2.07830
    A8        1.93020  -0.00010  -0.00007  -0.00060  -0.00067   1.92952
    A9        2.12900  -0.00001  -0.00022  -0.00023  -0.00045   2.12855
   A10        2.07751   0.00009   0.00025   0.00066   0.00091   2.07842
   A11        1.93020  -0.00010  -0.00007  -0.00060  -0.00067   1.92952
   A12        2.07751   0.00009   0.00025   0.00066   0.00091   2.07842
   A13        1.93007  -0.00008  -0.00009  -0.00022  -0.00031   1.92977
   A14        2.12900  -0.00001  -0.00022  -0.00023  -0.00045   2.12855
   A15        2.07753   0.00008   0.00026   0.00052   0.00078   2.07830
   A16        1.82213  -0.00001  -0.00005   0.00021   0.00016   1.82229
   A17        2.21715  -0.00007  -0.00010  -0.00048  -0.00058   2.21657
   A18        1.57085   0.00001   0.00001  -0.00010  -0.00010   1.57075
   A19        2.17452   0.00006   0.00000   0.00036   0.00036   2.17488
   A20        2.26121   0.00006   0.00030   0.00021   0.00051   2.26172
   A21        1.72320   0.00024   0.00028   0.00086   0.00115   1.72435
   A22        1.95982  -0.00009   0.00005  -0.00066  -0.00061   1.95921
   A23        1.95982  -0.00009   0.00006  -0.00064  -0.00059   1.95923
   A24        1.95982  -0.00009   0.00006  -0.00064  -0.00059   1.95923
   A25        1.95982  -0.00009   0.00005  -0.00066  -0.00061   1.95921
   A26        1.89820   0.00011  -0.00042   0.00155   0.00113   1.89934
   A27        2.26121   0.00006   0.00030   0.00021   0.00051   2.26172
   A28        1.57085   0.00001   0.00001  -0.00010  -0.00010   1.57075
   A29        2.17452   0.00006   0.00000   0.00036   0.00036   2.17488
   A30        1.82213  -0.00001  -0.00005   0.00021   0.00016   1.82229
   A31        2.21715  -0.00007  -0.00010  -0.00048  -0.00058   2.21657
   A32        1.82223  -0.00002  -0.00003  -0.00012  -0.00015   1.82208
   A33        2.17452   0.00006   0.00000   0.00043   0.00042   2.17494
   A34        1.57075  -0.00001  -0.00001   0.00010   0.00010   1.57084
   A35        2.26122   0.00007   0.00029   0.00025   0.00054   2.26176
   A36        2.21713  -0.00006  -0.00010  -0.00042  -0.00052   2.21661
    D1        0.36710  -0.00007  -0.00004  -0.00081  -0.00085   0.36625
    D2        2.96457  -0.00009  -0.00020  -0.00079  -0.00100   2.96357
    D3       -2.40489   0.00000   0.00033  -0.00040  -0.00008  -2.40497
    D4        0.19258  -0.00002   0.00017  -0.00039  -0.00022   0.19235
    D5       -0.00024   0.00001  -0.00004   0.00067   0.00063   0.00040
    D6       -2.75992   0.00004   0.00035   0.00032   0.00067  -2.75925
    D7        1.02880   0.00000  -0.00004   0.00059   0.00055   1.02935
    D8        2.75963  -0.00003  -0.00039   0.00050   0.00011   2.75974
    D9       -0.00006   0.00000   0.00000   0.00015   0.00015   0.00009
   D10       -2.49452  -0.00004  -0.00039   0.00042   0.00003  -2.49449
   D11       -1.02922   0.00001  -0.00003   0.00061   0.00058  -1.02864
   D12        2.49428   0.00004   0.00036   0.00026   0.00062   2.49489
   D13       -0.00018   0.00001  -0.00003   0.00053   0.00050   0.00031
   D14       -2.46724   0.00003  -0.00012   0.00020   0.00007  -2.46717
   D15        0.00018  -0.00001   0.00003  -0.00052  -0.00049  -0.00031
   D16        0.00002   0.00000   0.00000  -0.00010  -0.00010  -0.00008
   D17        2.46744  -0.00004   0.00016  -0.00081  -0.00066   2.46679
   D18       -0.56284   0.00001   0.00000   0.00026   0.00027  -0.56257
   D19       -2.63165   0.00002  -0.00024   0.00079   0.00055  -2.63109
   D20        1.50596   0.00000   0.00023  -0.00027  -0.00004   1.50592
   D21        0.56271  -0.00001  -0.00002   0.00008   0.00006   0.56277
   D22       -1.50609   0.00000  -0.00026   0.00061   0.00034  -1.50575
   D23        2.63152  -0.00002   0.00021  -0.00046  -0.00025   2.63127
   D24       -3.14156   0.00000   0.00000  -0.00002  -0.00003   3.14159
   D25        1.07282   0.00001  -0.00024   0.00050   0.00026   1.07308
   D26       -1.07276  -0.00001   0.00023  -0.00056  -0.00033  -1.07309
   D27        2.40512  -0.00001  -0.00030  -0.00021  -0.00051   2.40461
   D28       -0.36671   0.00006   0.00011  -0.00031  -0.00021  -0.36691
   D29       -0.19253   0.00002  -0.00015   0.00020   0.00005  -0.19248
   D30       -2.96436   0.00008   0.00025   0.00010   0.00035  -2.96401
   D31       -0.36671   0.00006   0.00011  -0.00031  -0.00021  -0.36691
   D32        2.40512  -0.00001  -0.00030  -0.00021  -0.00051   2.40461
   D33       -2.96436   0.00008   0.00025   0.00010   0.00035  -2.96401
   D34       -0.19253   0.00002  -0.00015   0.00020   0.00005  -0.19248
   D35        0.56271  -0.00001  -0.00002   0.00008   0.00006   0.56277
   D36        2.63152  -0.00002   0.00021  -0.00046  -0.00025   2.63127
   D37       -1.50609   0.00000  -0.00026   0.00061   0.00034  -1.50575
   D38       -0.56284   0.00001   0.00000   0.00026   0.00027  -0.56257
   D39        1.50596   0.00000   0.00023  -0.00027  -0.00004   1.50592
   D40       -2.63165   0.00002  -0.00024   0.00079   0.00055  -2.63109
   D41       -3.14156   0.00000   0.00000  -0.00002  -0.00003   3.14159
   D42       -1.07276  -0.00001   0.00023  -0.00056  -0.00033  -1.07309
   D43        1.07282   0.00001  -0.00024   0.00050   0.00026   1.07308
   D44        0.36710  -0.00007  -0.00004  -0.00081  -0.00085   0.36625
   D45       -2.40489   0.00000   0.00033  -0.00040  -0.00008  -2.40497
   D46        2.96457  -0.00009  -0.00020  -0.00079  -0.00100   2.96357
   D47        0.19258  -0.00002   0.00017  -0.00039  -0.00022   0.19235
   D48        0.00018  -0.00001   0.00003  -0.00052  -0.00049  -0.00031
   D49        2.46744  -0.00004   0.00016  -0.00081  -0.00066   2.46679
   D50       -2.46724   0.00003  -0.00012   0.00020   0.00007  -2.46717
   D51        0.00002   0.00000   0.00000  -0.00010  -0.00010  -0.00008
   D52        1.02880   0.00000  -0.00004   0.00059   0.00055   1.02935
   D53       -0.00018   0.00001  -0.00003   0.00053   0.00050   0.00031
   D54       -2.49452  -0.00004  -0.00039   0.00042   0.00003  -2.49449
   D55       -0.00024   0.00001  -0.00004   0.00067   0.00063   0.00040
   D56       -1.02922   0.00001  -0.00003   0.00061   0.00058  -1.02864
   D57        2.75963  -0.00003  -0.00039   0.00050   0.00011   2.75974
   D58       -2.75992   0.00004   0.00035   0.00032   0.00067  -2.75925
   D59        2.49428   0.00004   0.00036   0.00026   0.00062   2.49489
   D60       -0.00006   0.00000   0.00000   0.00015   0.00015   0.00009
         Item               Value     Threshold  Converged?
 Maximum Force            0.000973     0.000450     NO 
 RMS     Force            0.000225     0.000300     YES
 Maximum Displacement     0.003649     0.001800     NO 
 RMS     Displacement     0.000900     0.001200     YES
 Predicted change in Energy=-1.112230D-05
 GradGradGradGradGradGradGradGradGradGradGradGradGradGradGradGradGradGrad

                          Input orientation:                          
 ---------------------------------------------------------------------
 Center     Atomic      Atomic             Coordinates (Angstroms)
 Number     Number       Type             X           Y           Z
 ---------------------------------------------------------------------
      1          6           0        0.759286    0.775953   -0.711805
      2          6           0        0.000083    1.154079    0.550015
      3          6           0       -0.000083   -1.154079    0.550015
      4          6           0        0.759491   -0.775820   -0.711568
      5          1           0        1.449935    1.428343   -1.233682
      6          1           0        1.450375   -1.428152   -1.233196
      7          6           0        0.000000    0.000000    1.539217
      8          1           0       -0.891914    0.000080    2.177482
      9          1           0        0.891914   -0.000080    2.177482
     10          6           0       -0.759491    0.775820   -0.711568
     11          1           0       -1.450375    1.428152   -1.233196
     12          6           0       -0.759286   -0.775953   -0.711805
     13          1           0       -1.449935   -1.428343   -1.233682
     14          1           0        0.000157    2.189909    0.875458
     15          1           0       -0.000157   -2.189909    0.875458
 ---------------------------------------------------------------------
                    Distance matrix (angstroms):
                    1          2          3          4          5
     1  C    0.000000
     2  C    1.520381   0.000000
     3  C    2.427726   2.308158   0.000000
     4  C    1.551773   2.427510   1.520403   0.000000
     5  H    1.083958   2.314923   3.457315   2.368048   0.000000
     6  H    2.368023   3.457037   2.314905   1.083952   2.856495
     7  C    2.499144   1.520007   1.520007   2.498952   3.439687
     8  H    3.417078   2.185412   2.185428   3.416983   4.377241
     9  H    2.994628   2.185428   2.185412   2.994315   3.740030
    10  C    1.518777   1.520403   2.427510   2.171381   2.362192
    11  H    2.362163   2.314905   3.457037   3.164348   2.900310
    12  C    2.171284   2.427726   1.520381   1.518777   3.164164
    13  H    3.164164   3.457315   2.314923   2.362192   4.070614
    14  H    2.257200   1.085752   3.359787   3.448303   2.670264
    15  H    3.448550   3.359787   1.085752   2.257292   4.432041
                    6          7          8          9         10
     6  H    0.000000
     7  C    3.439401   0.000000
     8  H    4.377087   1.096765   0.000000
     9  H    3.739518   1.096765   1.783829   0.000000
    10  C    3.164348   2.498952   2.994315   3.416983   0.000000
    11  H    4.070973   3.439401   3.739518   4.377087   1.083952
    12  C    2.362163   2.499144   2.994628   3.417078   1.551773
    13  H    2.900310   3.439687   3.740030   4.377241   2.368048
    14  H    4.431695   2.288291   2.699335   2.699361   2.257292
    15  H    2.670344   2.288291   2.699361   2.699335   3.448303
                   11         12         13         14         15
    11  H    0.000000
    12  C    2.368023   0.000000
    13  H    2.856495   1.083958   0.000000
    14  H    2.670344   3.448550   4.432041   0.000000
    15  H    4.431695   2.257200   2.670264   4.379818   0.000000
 Stoichiometry    C7H8
 Framework group  C2[C2(C),X(C6H8)]
 Deg. of freedom    20
 Full point group                 C2      NOp   2
 Largest Abelian subgroup         C2      NOp   2
 Largest concise Abelian subgroup C2      NOp   2
                         Standard orientation:                         
 ---------------------------------------------------------------------
 Center     Atomic      Atomic             Coordinates (Angstroms)
 Number     Number       Type             X           Y           Z
 ---------------------------------------------------------------------
      1          6           0        0.759230    0.776008   -0.710348
      2          6           0        0.000000    1.154079    0.551472
      3          6           0        0.000000   -1.154079    0.551472
      4          6           0        0.759547   -0.775766   -0.710111
      5          1           0        1.449833    1.428447   -1.232225
      6          1           0        1.450478   -1.428048   -1.231738
      7          6           0        0.000000    0.000000    1.540675
      8          1           0       -0.891914    0.000016    2.178940
      9          1           0        0.891914   -0.000016    2.178940
     10          6           0       -0.759547    0.775766   -0.710111
     11          1           0       -1.450478    1.428048   -1.231738
     12          6           0       -0.759230   -0.776008   -0.710348
     13          1           0       -1.449833   -1.428447   -1.232225
     14          1           0        0.000000    2.189909    0.876916
     15          1           0        0.000000   -2.189909    0.876916
 ---------------------------------------------------------------------
 Rotational constants (GHZ):      4.3953534      4.3375430      3.2402235
 Standard basis: 6-31+G(d,p) (6D, 7F)
 There are    88 symmetry adapted cartesian basis functions of A   symmetry.
 There are    85 symmetry adapted cartesian basis functions of B   symmetry.
 There are    88 symmetry adapted basis functions of A   symmetry.
 There are    85 symmetry adapted basis functions of B   symmetry.
   173 basis functions,   280 primitive gaussians,   173 cartesian basis functions
    25 alpha electrons       25 beta electrons
       nuclear repulsion energy       295.7290759516 Hartrees.
 NAtoms=   15 NActive=   15 NUniq=    8 SFac= 3.52D+00 NAtFMM=   60 NAOKFM=F Big=F
 Integral buffers will be    131072 words long.
 Raffenetti 2 integral format.
 Two-electron integral symmetry is turned on.
 Nuclear repulsion after empirical dispersion term =      295.7208020117 Hartrees.
 ------------------------------------------------------------------------------
 Polarizable Continuum Model (PCM)
 =================================
 Model                : C-PCM.
 Atomic radii         : UFF (Universal Force Field).
 Polarization charges : Total charges.
 Charge compensation  : None.
 Solution method      : On-the-fly selection.
 Cavity type          : Scaled VdW (van der Waals Surface) (Alpha=1.100).
 Cavity algorithm     : GePol (No added spheres)
                        Default sphere list used, NSphG=   15.
                        Lebedev-Laikov grids with approx.  5.0 points / Ang**2.
                        Smoothing algorithm: Karplus/York (Gamma=1.0000).
                        Polarization charges: spherical gaussians, with
                                              point-specific exponents (IZeta= 3).
                        Self-potential: point-specific (ISelfS= 7).
                        Self-field    : sphere-specific E.n sum rule (ISelfD= 2).
 1st derivatives      : Analytical E(r).r(x)/FMM algorithm (CHGder, D1EAlg=3).
                        Cavity 1st derivative terms included.
 Solvent              : Water, Eps=  78.355300 Eps(inf)=   1.777849
 ------------------------------------------------------------------------------
 Spheres list:
 ISph  on   Nord     Re0    Alpha      Xe            Ye            Ze
    1   C      1    1.9255  1.100      0.759230      0.776008     -0.710348
    2   C      2    1.9255  1.100      0.000000      1.154079      0.551472
    3   C      3    1.9255  1.100      0.000000     -1.154079      0.551472
    4   C      4    1.9255  1.100      0.759547     -0.775766     -0.710111
    5   H      5    1.4430  1.100      1.449833      1.428447     -1.232225
    6   H      6    1.4430  1.100      1.450478     -1.428048     -1.231738
    7   C      7    1.9255  1.100      0.000000      0.000000      1.540675
    8   H      8    1.4430  1.100     -0.891914      0.000016      2.178940
    9   H      9    1.4430  1.100      0.891914     -0.000016      2.178940
   10   C     10    1.9255  1.100     -0.759547      0.775766     -0.710111
   11   H     11    1.4430  1.100     -1.450478      1.428048     -1.231738
   12   C     12    1.9255  1.100     -0.759230     -0.776008     -0.710348
   13   H     13    1.4430  1.100     -1.449833     -1.428447     -1.232225
   14   H     14    1.4430  1.100      0.000000      2.189909      0.876916
   15   H     15    1.4430  1.100      0.000000     -2.189909      0.876916
 ------------------------------------------------------------------------------
 One-electron integrals computed using PRISM.
 NBasis=   173 RedAO= T EigKep=  1.28D-05  NBF=    88    85
 NBsUse=   173 1.00D-06 EigRej= -1.00D+00 NBFU=    88    85
 Initial guess from the checkpoint file:  "b3lyp_m062x_quadricyclane_cycloaddition_PM6_toluene_water.chk"
 B after Tr=     0.000000    0.000000    0.000000
         Rot=    0.926067    0.000000    0.000000    0.377358 Ang=  44.34 deg.
 Initial guess orbital symmetries:
[...]
 ! D10   D(5,1,4,12)          -142.9239         -DE/DX =    0.0                 !
 ! D11   D(10,1,4,3)           -58.9369         -DE/DX =    0.0                 !
 ! D12   D(10,1,4,6)           142.9469         -DE/DX =    0.0                 !
 ! D13   D(10,1,4,12)            0.0179         -DE/DX =    0.0                 !
 ! D14   D(4,1,10,11)         -141.3585         -DE/DX =    0.0                 !
 ! D15   D(4,1,10,12)           -0.0175         -DE/DX =    0.0                 !
 ! D16   D(5,1,10,11)           -0.0045         -DE/DX =    0.0                 !
 ! D17   D(5,1,10,12)          141.3365         -DE/DX =    0.0                 !
 ! D18   D(1,2,7,3)            -32.2331         -DE/DX =    0.0                 !
 ! D19   D(1,2,7,8)           -150.7504         -DE/DX =    0.0                 !
 ! D20   D(1,2,7,9)             86.2831         -DE/DX =    0.0                 !
 ! D21   D(10,2,7,3)            32.2444         -DE/DX =    0.0                 !
 ! D22   D(10,2,7,8)           -86.2729         -DE/DX =    0.0                 !
 ! D23   D(10,2,7,9)           150.7607         -DE/DX =    0.0                 !
 ! D24   D(14,2,7,3)          -180.0            -DE/DX =    0.0                 !
 ! D25   D(14,2,7,8)            61.4827         -DE/DX =    0.0                 !
 ! D26   D(14,2,7,9)           -61.4837         -DE/DX =    0.0                 !
 ! D27   D(7,2,10,11)          137.774          -DE/DX =    0.0                 !
 ! D28   D(7,2,10,12)          -21.0225         -DE/DX =    0.0                 !
 ! D29   D(14,2,10,11)         -11.0285         -DE/DX =    0.0                 !
 ! D30   D(14,2,10,12)        -169.8251         -DE/DX =    0.0                 !
 ! D31   D(7,3,4,1)            -21.0225         -DE/DX =    0.0                 !
 ! D32   D(7,3,4,6)            137.774          -DE/DX =    0.0                 !
 ! D33   D(15,3,4,1)          -169.8251         -DE/DX =    0.0                 !
 ! D34   D(15,3,4,6)           -11.0285         -DE/DX =    0.0                 !
 ! D35   D(4,3,7,2)             32.2444         -DE/DX =    0.0                 !
 ! D36   D(4,3,7,8)            150.7607         -DE/DX =    0.0                 !
 ! D37   D(4,3,7,9)            -86.2729         -DE/DX =    0.0                 !
 ! D38   D(12,3,7,2)           -32.2331         -DE/DX =    0.0                 !
 ! D39   D(12,3,7,8)            86.2831         -DE/DX =    0.0                 !
 ! D40   D(12,3,7,9)          -150.7504         -DE/DX =    0.0                 !
 ! D41   D(15,3,7,2)          -180.0            -DE/DX =    0.0                 !
 ! D42   D(15,3,7,8)           -61.4837         -DE/DX =    0.0                 !
 ! D43   D(15,3,7,9)            61.4827         -DE/DX =    0.0                 !
 ! D44   D(7,3,12,10)           20.9848         -DE/DX =    0.0                 !
 ! D45   D(7,3,12,13)         -137.7945         -DE/DX =    0.0                 !
 ! D46   D(15,3,12,10)         169.8003         -DE/DX =    0.0                 !
 ! D47   D(15,3,12,13)          11.021          -DE/DX =    0.0                 !
 ! D48   D(1,4,12,10)           -0.0175         -DE/DX =    0.0                 !
 ! D49   D(1,4,12,13)          141.3365         -DE/DX =    0.0                 !
 ! D50   D(6,4,12,10)         -141.3585         -DE/DX =    0.0                 !
 ! D51   D(6,4,12,13)           -0.0045         -DE/DX =    0.0                 !
 ! D52   D(1,10,12,3)           58.9775         -DE/DX =    0.0                 !
 ! D53   D(1,10,12,4)            0.0179         -DE/DX =    0.0                 !
 ! D54   D(1,10,12,13)        -142.9239         -DE/DX =    0.0                 !
 ! D55   D(2,10,12,3)            0.0227         -DE/DX =    0.0                 !
 ! D56   D(2,10,12,4)          -58.9369         -DE/DX =    0.0                 !
 ! D57   D(2,10,12,13)         158.1213         -DE/DX =    0.0                 !
 ! D58   D(11,10,12,3)        -158.0934         -DE/DX =    0.0                 !
 ! D59   D(11,10,12,4)         142.9469         -DE/DX =    0.0                 !
 ! D60   D(11,10,12,13)          0.0052         -DE/DX =    0.0                 !
 --------------------------------------------------------------------------------
 GradGradGradGradGradGradGradGradGradGradGradGradGradGradGradGradGradGrad

 1\1\GINC-D11S1B4\Freq\RB3LYP\6-31+G(d,p)\C7H8\CHMKSH\17-Sep-2020\0\\#N
  Geom=AllCheck Guess=TCheck SCRF=Check GenChk RB3LYP/6-31+G(d,p) Freq\
 \Title Card Required\\0,1\C,0.7592862795,0.775953192,-0.7118051965\C,0
 .0000830082,1.154078885,0.5500145468\C,-0.0000830082,-1.154078885,0.55
 00145468\C,0.7594909335,-0.7758202555,-0.7115684674\H,1.4499353981,1.4
 283427034,-1.233682209\H,1.4503749236,-1.4281520667,-1.2331959411\C,0.
 ,0.,1.5392172054\H,-0.8919143297,0.0000799323,2.1774821871\H,0.8919143
 297,-0.0000799323,2.1774821871\C,-0.7594909335,0.7758202555,-0.7115684
 674\H,-1.4503749236,1.4281520667,-1.2331959411\C,-0.7592862795,-0.7759
 53192,-0.7118051965\H,-1.4499353981,-1.4283427034,-1.233682209\H,0.000
 1572243,2.1899089574,0.8754579774\H,-0.0001572243,-2.1899089574,0.8754
 579774\\Version=ES64L-G09RevD.01\State=1-A\HF=-271.4750175\RMSD=0.000e
 +00\RMSF=9.755e-05\ZeroPoint=0.1276095\Thermal=0.132258\Dipole=0.,0.,-
 0.0004039\DipoleDeriv=-0.1641072,0.0608628,0.1151812,0.1340688,0.08347
 24,0.0207006,0.131387,0.0567008,0.0011316,0.1553836,0.0000686,-0.00006
 06,0.0000424,0.0139922,-0.0299937,-0.0000841,-0.1087598,-0.0732054,0.1
 553836,0.0000686,0.0000606,0.0000424,0.0139922,0.0299937,0.0000841,0.1
 087598,-0.0732054,-0.1643278,-0.0609566,0.1150685,-0.1341687,0.0832942
 ,-0.0206948,0.131118,-0.0566598,0.0010898,-0.0107545,-0.0732676,0.1153
 646,-0.1039523,-0.041068,0.0725476,0.1243361,0.0511597,0.0632443,-0.01
 08055,0.0733181,0.1153658,0.1040069,-0.0410856,-0.0725029,0.1243782,-0
 .0511134,0.0632617,0.2876085,-0.0001017,0.,-0.0000628,-0.0284774,0.,0.
 ,0.,0.0965421,-0.1165984,0.0000327,0.1886564,0.0000303,0.0680694,-0.00
 00154,0.115032,-0.0000135,-0.1176858,-0.1165984,0.0000327,-0.1886564,0
 .0000303,0.0680694,0.0000154,-0.115032,0.0000135,-0.1176858,-0.1643278
 ,-0.0609566,-0.1150685,-0.1341686,0.0832942,0.0206948,-0.131118,0.0566
 598,0.0010897,-0.0108055,0.0733181,-0.1153658,0.1040069,-0.0410856,0.0
 725029,-0.1243782,0.0511134,0.0632617,-0.1641072,0.0608628,-0.1151812,
 0.1340688,0.0834724,-0.0207006,-0.131387,-0.0567008,0.0011316,-0.01075
 45,-0.0732676,-0.1153646,-0.1039523,-0.041068,-0.0725476,-0.1243361,-0
 .0511597,0.0632443,0.1674057,-0.0000072,-0.0000198,0.0000039,-0.152435
 9,-0.0734584,-0.0000124,-0.0577828,0.0138928,0.1674057,-0.0000072,0.00
 00198,0.0000039,-0.1524359,0.0734584,0.0000124,0.0577828,0.0138927\Pol
 ar=87.4053493,0.0001198,89.2890795,0.,0.,94.5665273\PG=C02 [C2(C1),X(C
 6H8)]\NImag=0\\0.51077016,0.12485741,0.49931695,-0.19851501,-0.0989278
 0,0.35486392,-0.05914640,0.00706129,0.04958834,0.23138093,0.01546257,-
 0.07439059,-0.01589344,0.00000559,0.69040001,0.10163184,-0.02138040,-0
 .13832927,0.00000655,0.07708964,0.50067411,-0.00186310,-0.01321013,0.0
 0586259,0.00241984,-0.00000277,-0.00000141,0.23138093,-0.00447739,-0.0
 1946598,0.02563056,-0.00000277,-0.05062283,-0.00386937,0.00000559,0.69
 040001,-0.00319881,0.01539292,-0.00045929,0.00000141,0.00386937,0.0099
 9834,-0.00000655,-0.07708964,0.50067411,-0.03627496,-0.01310049,0.0215
 1525,-0.00186821,0.00447549,-0.00318963,-0.05918468,-0.01545257,0.1016
 4643,0.51088224,0.01313305,-0.16702508,0.00314891,0.01321547,-0.019488
 35,-0.01540774,-0.00705176,-0.07438885,0.02138687,-0.12489779,0.499297
 68,0.02151878,-0.00312776,-0.06520875,0.00587663,-0.02563919,-0.000465
 88,0.04960006,0.01588468,-0.13826304,-0.19849939,0.09889057,0.35476487
 ,-0.16190702,-0.11186572,0.09851730,-0.00489736,0.00197750,-0.00061333
 ,-0.00022751,0.00198255,-0.00126581,0.00442200,0.00130367,-0.00729655,
 0.16600444,-0.11381745,-0.16112719,0.09105084,0.00789399,0.00625537,-0
 .00448147,-0.00012896,-0.00291474,-0.00143857,-0.01365853,-0.00181249,
 0.01264543,0.12101389,0.15898616,0.09739592,0.08959543,-0.10365059,0.0
 1232887,0.01806909,-0.00575864,0.00003168,0.00005198,-0.00216508,-0.00
 342042,-0.00348528,-0.00044706,-0.10413388,-0.09291717,0.10697263,0.00
 441832,-0.00130429,-0.00729372,-0.00022842,-0.00198223,-0.00126512,-0.
 00490141,-0.00197268,-0.00061209,-0.16198871,0.11190044,0.09850469,0.0
 0050997,0.00051297,0.00053652,0.16609550,0.01366126,-0.00180984,-0.012
 64408,0.00013041,-0.00291483,0.00143600,-0.00789602,0.00625194,0.00447
 982,0.11385468,-0.16111426,-0.09099623,-0.00051255,0.00100989,0.000487
 70,-0.12105244,0.15897406,-0.00342391,0.00348370,-0.00044831,0.0000308
 9,-0.00005330,-0.00216560,0.01233185,-0.01806833,-0.00575703,0.0973945
 2,-0.08954781,-0.10358876,0.00053663,-0.00048734,0.00048330,-0.1041263
 7,0.09286290,0.10690651,-0.00336523,-0.01492187,0.02103634,-0.06764654
 ,-0.00000132,0.00000973,-0.06764654,-0.00000132,-0.00000973,-0.0033692
 0,0.01492182,0.02105361,0.00055632,0.00174926,0.00389148,0.00055564,-0
 .00174815,0.00389163,0.59629283,-0.00133379,0.00263687,0.00516251,-0.0
 0000070,-0.14226471,0.05705006,-0.00000070,-0.14226471,-0.05705006,0.0
 0133517,0.00263161,-0.00517160,0.00060100,-0.00089813,-0.00056765,-0.0
 0060088,-0.00089806,0.00056661,-0.00003227,0.38468370,0.00267386,0.006
 10267,-0.02401469,0.00000498,0.05301363,-0.11750732,-0.00000498,-0.053
 01363,-0.11750732,0.00268464,-0.00610491,-0.02403278,-0.00104136,-0.00
 021719,-0.00074477,-0.00104041,0.00021641,-0.00074508,0.,0.,0.57285179
 ,0.00097058,0.00018666,-0.00134823,0.00061454,-0.00022001,-0.00138383,
 0.00061893,0.00022107,-0.00138431,0.00097154,-0.00018660,-0.00134746,0
 .00012543,-0.00011676,-0.00000889,0.00012533,0.00011679,-0.00000880,-0
 .22305546,0.00001542,0.12006933,0.23750294,-0.00056342,-0.00504247,0.0
 0217173,-0.02243458,0.00145848,0.01682631,0.02243569,0.00145611,-0.016
 82217,0.00056288,-0.00504207,-0.00217378,0.00014769,0.00064304,0.00117
 121,-0.00014752,0.00064270,-0.00117127,0.00001599,-0.04403249,-0.00001
 072,-0.00001891,0.04689709,0.00169444,0.00163562,-0.00196930,0.0136852
 2,-0.00161305,-0.01066471,0.01368678,0.00160953,-0.01066519,0.00169467
 ,-0.00163685,-0.00197073,-0.00023543,-0.00019150,-0.00099396,-0.000235
 23,0.00019137,-0.00099455,0.11797022,-0.00000932,-0.13113698,-0.132659
 28,0.00001270,0.14394792,0.00113847,-0.00010643,-0.00115221,0.00061893
 ,0.00022107,0.00138431,0.00061454,-0.00022001,0.00138383,0.00113938,0.
 00010681,-0.00115199,0.00007803,-0.00012567,-0.00024284,0.00007801,0.0
 0012566,-0.00024299,-0.22305546,0.00001542,-0.12006933,-0.02032436,0.0
 0000198,-0.01460423,0.23750294,-0.00088808,0.00112926,-0.00129488,0.02
 243569,0.00145611,0.01682217,-0.02243458,0.00145848,-0.01682631,0.0008
 8852,0.00112976,0.00129705,-0.00015807,0.00010291,0.00015454,0.0001580
 2,0.00010295,-0.00015468,0.00001599,-0.04403249,0.00001072,0.00000198,
 -0.00006549,0.00000178,-0.00001891,0.04689709,0.00012158,-0.00055662,0
 .00110660,-0.01368678,-0.00160953,-0.01066519,-0.01368522,0.00161305,-
 0.01066471,0.00012183,0.00055702,0.00110786,0.00008188,0.00005784,0.00
 007515,0.00008183,-0.00005792,0.00007513,-0.11797022,0.00000932,-0.131
 13698,0.01460423,-0.00000178,0.01139977,0.13265928,-0.00001270,0.14394
 792,-0.20261223,0.01529281,0.03037987,-0.05918468,-0.01545257,-0.10164
 643,-0.00186821,0.00447549,0.00318963,-0.04375153,0.02528532,-0.008603
 64,-0.00614994,0.00237502,-0.00300624,-0.00253383,0.00229601,-0.002630
 56,-0.00336920,0.00133517,-0.00268464,0.00113938,0.00088852,-0.0001218
 3,0.00097154,0.00056288,-0.00169467,0.51088224,-0.01532527,-0.02582495
 ,0.01794208,-0.00705176,-0.07438885,-0.02138687,0.01321547,-0.01948835
 ,0.01540774,0.02528532,-0.04553541,0.01232948,-0.01281740,0.00043577,-
 0.01065556,0.00124756,-0.00211865,0.00172296,0.01492182,0.00263161,0.0
 0610491,0.00010681,0.00112976,-0.00055702,-0.00018660,-0.00504207,0.00
 163685,-0.12489779,0.49929768,-0.03033430,0.01793277,-0.02991016,-0.04
 960006,-0.01588468,-0.13826304,-0.00587663,0.02563919,-0.00046588,0.00
 860364,-0.01232948,0.01062472,0.01519852,-0.00511635,0.00411121,0.0012
 2131,0.00065696,0.00021901,-0.02105361,0.00517160,-0.02403278,0.001151
 99,-0.00129705,0.00110786,0.00134746,0.00217378,-0.00197073,0.19849939
 ,-0.09889057,0.35476487,-0.00615091,0.01281485,-0.01519719,-0.00490141
 ,-0.00197268,0.00061209,-0.00022842,-0.00198223,0.00126512,-0.00253383
 ,0.00124756,-0.00122131,0.00282235,-0.00022112,0.00173953,0.00005403,0
 .00072319,-0.00043169,0.00055564,-0.00060088,0.00104041,0.00007801,0.0
 0015802,-0.00008183,0.00012533,-0.00014752,0.00023523,-0.16198871,0.11
 190044,-0.09850469,0.16609550,-0.00237855,0.00043751,-0.00512061,-0.00
 789602,0.00625194,-0.00447982,0.00013041,-0.00291483,-0.00143600,0.002
 29601,-0.00211865,-0.00065696,0.00022221,0.00097721,0.00048321,0.00072
 319,-0.00020539,0.00070108,-0.00174815,-0.00089806,-0.00021641,0.00012
 566,0.00010295,0.00005792,0.00011679,0.00064270,-0.00019137,0.11385468
 ,-0.16111426,0.09099623,-0.12105244,0.15897406,0.00300945,-0.01066107,
 0.00411528,-0.01233185,0.01806833,-0.00575703,-0.00003089,0.00005330,-
 0.00216560,0.00263056,-0.00172296,0.00021901,-0.00174075,0.00048294,0.
 00008587,0.00043169,-0.00070108,0.00034360,-0.00389163,-0.00056661,-0.
 00074508,0.00024299,0.00015468,0.00007513,0.00000880,0.00117127,-0.000
 99455,-0.09739452,0.08954781,-0.10358876,0.10412637,-0.09286290,0.1069
 0651,-0.04375492,-0.02529303,-0.00860583,-0.00186310,-0.00447739,0.003
 19881,-0.05914640,0.01546257,-0.10163184,-0.20261223,-0.01532527,0.030
 33430,-0.00253525,-0.00229585,-0.00262781,-0.00615091,-0.00237855,-0.0
 0300945,-0.00336523,-0.00133379,-0.00267386,0.00113847,-0.00088808,-0.
 00012158,0.00097058,-0.00056342,-0.00169444,-0.03627496,0.01313305,-0.
 02151878,0.00441832,0.01366126,0.00342391,0.51077016,-0.02529303,-0.04
 556782,-0.01234389,-0.01321013,-0.01946598,-0.01539292,0.00706129,-0.0
 7439059,0.02138040,0.01529281,-0.02582495,-0.01793277,-0.00124683,-0.0
 0211772,-0.00171994,0.01281485,0.00043751,0.01066107,-0.01492187,0.002
 63687,-0.00610267,-0.00010643,0.00112926,0.00055662,0.00018666,-0.0050
 4247,-0.00163562,-0.01310049,-0.16702508,0.00312776,-0.00130429,-0.001
 80984,-0.00348370,0.12485741,0.49931695,0.00860583,0.01234389,0.010629
 64,-0.00586259,-0.02563056,-0.00045929,-0.04958834,0.01589344,-0.13832
 927,-0.03037987,-0.01794208,-0.02991016,0.00122184,-0.00065748,0.00021
 821,0.01519719,0.00512061,0.00411528,-0.02103634,-0.00516251,-0.024014
 70,0.00115221,0.00129488,0.00110660,0.00134823,-0.00217173,-0.00196930
 ,-0.02151525,-0.00314891,-0.06520875,0.00729372,0.01264408,-0.00044831
 ,0.19851501,0.09892780,0.35486392,-0.00253525,-0.00124683,-0.00122184,
 -0.00022751,0.00198255,0.00126581,-0.00489736,0.00197750,0.00061333,-0
 .00614994,-0.01281740,-0.01519852,0.00005442,-0.00072332,-0.00043120,0
 .00282235,0.00022221,0.00174075,0.00055632,0.00060100,0.00104136,0.000
 07803,-0.00015807,-0.00008188,0.00012543,0.00014769,0.00023543,0.00442
 200,0.00130367,0.00729655,0.00050997,-0.00051255,-0.00053663,-0.161907
 02,-0.11186572,-0.09851730,0.16600444,-0.00229585,-0.00211772,0.000657
 48,-0.00012896,-0.00291474,0.00143857,0.00789399,0.00625537,0.00448147
 ,0.00237502,0.00043577,0.00511635,-0.00072332,-0.00020585,-0.00070064,
 -0.00022112,0.00097721,-0.00048294,0.00174926,-0.00089813,0.00021719,-
 0.00012567,0.00010291,-0.00005784,-0.00011676,0.00064304,0.00019150,-0
 .01365853,-0.00181249,-0.01264543,0.00051297,0.00100989,0.00048734,-0.
 11381745,-0.16112719,-0.09105084,0.12101389,0.15898616,0.00262781,0.00
 171994,0.00021821,-0.00003168,-0.00005198,-0.00216508,-0.01232887,-0.0
 1806909,-0.00575864,0.00300624,0.01065556,0.00411121,0.00043120,0.0007
 0064,0.00034283,-0.00173953,-0.00048321,0.00008587,-0.00389148,0.00056
 765,-0.00074477,0.00024284,-0.00015454,0.00007515,0.00000889,-0.001171
 21,-0.00099396,0.00342042,0.00348528,-0.00044706,-0.00053652,-0.000487
 70,0.00048330,-0.09739592,-0.08959543,-0.10365059,0.10413388,0.0929171
 7,0.10697263,0.00113003,0.02264099,0.00293304,-0.03315319,-0.00001596,
 -0.00000954,-0.00191742,0.00000017,-0.00000014,-0.00081638,0.00180788,
 0.00350124,0.00031397,-0.00123959,-0.00231016,0.00082953,0.00121785,0.
 00025777,-0.00182194,-0.00000009,0.00000169,0.00000841,0.00019220,-0.0
 0029495,0.00000823,-0.00019239,0.00029510,0.00113450,-0.02264322,-0.00
 292956,0.00031459,0.00123964,0.00231030,-0.00081755,-0.00180523,-0.003
 50131,0.00083016,-0.00121787,-0.00025744,0.03326501,-0.00102960,-0.001
 00860,0.00101473,-0.00001775,-0.31648283,-0.08256303,0.00000023,-0.002
 88819,0.00170113,-0.00028755,-0.00014133,0.00055245,-0.00000859,0.0006
 0853,-0.00013315,-0.00008425,0.00005669,-0.00016640,0.00000042,-0.0095
 1694,-0.00974870,-0.00038853,0.00031023,0.00022172,0.00038853,0.000310
 00,0.00022166,0.00103101,-0.00100339,0.00101773,0.00000838,0.00060807,
 -0.00013374,0.00028813,-0.00014034,0.00055414,0.00008396,0.00005723,-0
 .00016623,0.00001558,0.32997305,-0.00288004,-0.01418426,-0.00442427,-0
 .00000943,-0.07989629,-0.07497959,0.00000051,0.00383803,-0.00349181,-0
 .00092560,-0.00063403,-0.00252055,0.00077765,0.00027681,0.00150169,-0.
 00043795,-0.00029323,-0.00003081,0.00000023,0.01821117,0.01175574,0.00
 033851,-0.00092379,0.00034156,-0.00033873,-0.00092358,0.00034144,0.002
 88286,-0.01417220,-0.00441996,-0.00077720,0.00027601,0.00150142,0.0009
 2745,-0.00063097,-0.00251901,0.00043793,-0.00029259,-0.00003079,0.0000
 0389,0.08848831,0.07560946,-0.00081755,-0.00180523,0.00350131,-0.00191
 742,0.00000017,0.00000014,-0.03315319,-0.00001596,0.00000954,0.0011345
 0,-0.02264322,0.00292956,0.00083016,-0.00121787,0.00025744,0.00031459,
 0.00123964,-0.00231030,-0.00182194,-0.00000009,-0.00000169,0.00000823,
 -0.00019239,-0.00029510,0.00000841,0.00019220,0.00029495,-0.00081638,0
 .00180788,-0.00350124,0.00082953,0.00121785,-0.00025777,0.00113003,0.0
 2264099,-0.00293304,0.00031397,-0.00123959,0.00231016,0.00069206,0.000
 00004,-0.00000008,0.03326501,0.00028813,-0.00014034,-0.00055414,0.0000
 0023,-0.00288819,-0.00170113,-0.00001775,-0.31648283,0.08256303,0.0010
 3101,-0.00100339,-0.00101773,0.00008396,0.00005723,0.00016623,0.000008
 38,0.00060807,0.00013374,0.00000042,-0.00951694,0.00974870,0.00038853,
 0.00031000,-0.00022166,-0.00038853,0.00031023,-0.00022172,-0.00028755,
 -0.00014133,-0.00055245,-0.00008425,0.00005669,0.00016640,-0.00102960,
 -0.00100860,-0.00101473,-0.00000859,0.00060853,0.00013315,0.00000004,-
 0.00074218,0.00086061,0.00001558,0.32997305,-0.00092745,0.00063097,-0.
 00251901,-0.00000051,-0.00383803,-0.00349181,0.00000943,0.07989629,-0.
 07497959,-0.00288286,0.01417220,-0.00441996,-0.00043793,0.00029259,-0.
 00003079,0.00077720,-0.00027601,0.00150142,-0.00000023,-0.01821117,0.0
 1175574,0.00033873,0.00092358,0.00034144,-0.00033851,0.00092379,0.0003
 4156,0.00092560,0.00063403,-0.00252055,0.00043795,0.00029323,-0.000030
 81,0.00288004,0.01418426,-0.00442427,-0.00077765,-0.00027681,0.0015016
 9,0.00000008,-0.00086061,0.00136550,-0.00000389,-0.08848831,0.07560946
 \\-0.00016531,0.00009352,0.00006331,0.00002308,-0.00001278,-0.00030027
 ,-0.00002308,0.00001278,-0.00030027,-0.00013887,-0.00006505,0.00015836
 ,-0.00002758,0.00000775,-0.00000231,-0.00002429,-0.00000416,0.00000738
 ,0.,0.,0.00024366,0.00002925,-0.00000407,0.00000008,-0.00002925,0.0000
 0407,0.00000008,0.00013887,0.00006505,0.00015836,0.00002429,0.00000416
 ,0.00000738,0.00016531,-0.00009352,0.00006331,0.00002758,-0.00000775,-
 0.00000231,0.00001324,0.00000099,-0.00004839,-0.00001324,-0.00000099,-
 0.00004839\\\@


 WHAT THE SLIME CONTAINS, THE GLOWING REVEALS
 BY THE FLAME'S BRIGHT HUE WHEN YOU IGNITE IT.
   --  LEONARD THURNEYSSER, 1531-1596
 DESCRIBING HIS FLAME PHOTOLYSIS ANALYTIC METHOD
 Job cpu time:       0 days  0 hours  5 minutes 15.0 seconds.
 File lengths (MBytes):  RWF=     49 Int=      0 D2E=      0 Chk=      8 Scr=      1
 Normal termination of Gaussian 09 at Thu Sep 17 15:29:02 2020.
