 Entering Gaussian System, Link 0=g09
 Input=b3lyp_product_step1_cycloaddition_m062x_toluene_3_radical_2_water.com
 Output=b3lyp_product_step1_cycloaddition_m062x_toluene_3_radical_2_water.log
 Initial command:
 /apps/applications/gaussian/G09.D01/2/default/g09/l1.exe "/local/2614708.1.40core-192G.q/Gau-125759.inp" -scrdir="/local/2614708.1.40core-192G.q/"
 Entering Link 1 = /apps/applications/gaussian/G09.D01/2/default/g09/l1.exe PID=    125760.
  
 Copyright (c) 1988,1990,1992,1993,1995,1998,2003,2009,2013,
            Gaussian, Inc.  All Rights Reserved.
  
 This is part of the Gaussian(R) 09 program.  It is based on
 the Gaussian(R) 03 system (copyright 2003, Gaussian, Inc.),
 the Gaussian(R) 98 system (copyright 1998, Gaussian, Inc.),
 the Gaussian(R) 94 system (copyright 1995, Gaussian, Inc.),
 the Gaussian 92(TM) system (copyright 1992, Gaussian, Inc.),
 the Gaussian 90(TM) system (copyright 1990, Gaussian, Inc.),
 the Gaussian 88(TM) system (copyright 1988, Gaussian, Inc.),
 the Gaussian 86(TM) system (copyright 1986, Carnegie Mellon
 University), and the Gaussian 82(TM) system (copyright 1983,
 Carnegie Mellon University). Gaussian is a federally registered
 trademark of Gaussian, Inc.
  
 This software contains proprietary and confidential information,
 including trade secrets, belonging to Gaussian, Inc.
  
 This software is provided under written license and may be
 used, copied, transmitted, or stored only in accord with that
 written license.
  
 The following legend is applicable only to US Government
 contracts under FAR:
  
                    RESTRICTED RIGHTS LEGEND
  
 Use, reproduction and disclosure by the US Government is
 subject to restrictions as set forth in subparagraphs (a)
 and (c) of the Commercial Computer Software - Restricted
 Rights clause in FAR 52.227-19.
  
 Gaussian, Inc.
 340 Quinnipiac St., Bldg. 40, Wallingford CT 06492
  
  
 ---------------------------------------------------------------
 Warning -- This program may not be used in any manner that
 competes with the business of Gaussian, Inc. or will provide
 assistance to any competitor of Gaussian, Inc.  The licensee
 of this program is prohibited from giving any competitor of
 Gaussian, Inc. access to this program.  By using this program,
 the user acknowledges that Gaussian, Inc. is engaged in the
 business of creating and licensing software in the field of
 computational chemistry and represents and warrants to the
 licensee that it is not a competitor of Gaussian, Inc. and that
 it will not use this program in any manner prohibited above.
 ---------------------------------------------------------------
  

 Cite this work as:
 Gaussian 09, Revision D.01,
 M. J. Frisch, G. W. Trucks, H. B. Schlegel, G. E. Scuseria, 
 M. A. Robb, J. R. Cheeseman, G. Scalmani, V. Barone, B. Mennucci, 
 G. A. Petersson, H. Nakatsuji, M. Caricato, X. Li, H. P. Hratchian, 
 A. F. Izmaylov, J. Bloino, G. Zheng, J. L. Sonnenberg, M. Hada, 
 M. Ehara, K. Toyota, R. Fukuda, J. Hasegawa, M. Ishida, T. Nakajima, 
 Y. Honda, O. Kitao, H. Nakai, T. Vreven, J. A. Montgomery, Jr., 
 J. E. Peralta, F. Ogliaro, M. Bearpark, J. J. Heyd, E. Brothers, 
 K. N. Kudin, V. N. Staroverov, T. Keith, R. Kobayashi, J. Normand, 
 K. Raghavachari, A. Rendell, J. C. Burant, S. S. Iyengar, J. Tomasi, 
 M. Cossi, N. Rega, J. M. Millam, M. Klene, J. E. Knox, J. B. Cross, 
 V. Bakken, C. Adamo, J. Jaramillo, R. Gomperts, R. E. Stratmann, 
 O. Yazyev, A. J. Austin, R. Cammi, C. Pomelli, J. W. Ochterski, 
 R. L. Martin, K. Morokuma, V. G. Zakrzewski, G. A. Voth, 
 P. Salvador, J. J. Dannenberg, S. Dapprich, A. D. Daniels, 
 O. Farkas, J. B. Foresman, J. V. Ortiz, J. Cioslowski, 
 and D. J. Fox, Gaussian, Inc., Wallingford CT, 2013.
 
 ******************************************
 Gaussian 09:  ES64L-G09RevD.01 24-Apr-2013
                13-Jul-2021 
 ******************************************
 %nprocshared=4
 Will use up to    4 processors via shared memory.
 ----------------------------------------------------------------------
 # opt freq b3lyp/6-31+g(d,p) scrf=(cpcm,solvent=water) geom=connectivi
 ty empiricaldispersion=gd3
 ----------------------------------------------------------------------
 1/14=-1,18=20,19=15,26=3,38=1,57=2/1,3;
 2/9=110,12=2,17=6,18=5,40=1/2;
 3/5=1,6=6,7=111,11=2,16=1,25=1,30=1,70=2101,71=1,72=1,74=-5,124=31/1,2,3;
 4//1;
 5/5=2,38=5,53=1/2;
 6/7=2,8=2,9=2,10=2,28=1/1;
 7//1,2,3,16;
 1/14=-1,18=20,19=15,26=3/3(2);
 2/9=110/2;
 99//99;
 2/9=110/2;
 3/5=1,6=6,7=111,11=2,16=1,25=1,30=1,70=2105,71=1,72=1,74=-5,124=31/1,2,3;
 4/5=5,16=3,69=1/1;
 5/5=2,38=5,53=1/2;
 7//1,2,3,16;
 1/14=-1,18=20,19=15,26=3/3(-5);
 2/9=110/2;
 6/7=2,8=2,9=2,10=2,19=2,28=1/1;
 99/9=1/99;
 -------------------
 Title Card Required
 -------------------
 Symbolic Z-matrix:
 Charge =  0 Multiplicity = 3
 C                     0.34312   0.69937  -0.58989 
 C                     0.88575   1.87025   0.30791 
 C                    -1.41053   1.95878   0.56791 
 C                    -1.0919    1.19917  -0.69462 
 H                     0.84496   0.66571  -1.55626 
 H                    -1.84166   0.71209  -1.30028 
 C                    -0.16867   1.89418   1.4587 
 H                    -0.05376   2.7814    2.08867 
 H                    -0.14493   1.00181   2.09237 
 C                     0.4454    3.04877  -0.52874 
 H                     0.89924   4.03223  -0.5403 
 C                    -0.98342   2.7341   -0.70051 
 H                    -1.6898    3.33265  -1.26217 
 H                     1.93344   1.79999   0.5904 
 H                    -2.42057   2.01143   0.95627 
 N                    -0.32878  -1.24986   0.85744 
 N                     0.5434   -0.63791   0.05458 
 C                    -1.66892  -1.31435   0.49597 
 C                     1.8636   -1.15537   0.16347 
 O                     2.15689  -2.15256   0.78463 
 O                    -2.57748  -1.21149   1.30165 
 O                     2.71892  -0.4031   -0.54686 
 O                    -1.83706  -1.66139  -0.80354 
 C                    -3.20262  -1.89373  -1.20938 
 H                    -3.14549  -2.18571  -2.25735 
 H                    -3.64662  -2.69136  -0.60942 
 H                    -3.79426  -0.98155  -1.09336 
 C                     4.08951  -0.86508  -0.55285 
 H                     4.62711  -0.14886  -1.17206 
 H                     4.48592  -0.87513   0.46462 
 H                     4.14595  -1.86852  -0.98013 
 

 GradGradGradGradGradGradGradGradGradGradGradGradGradGradGradGradGradGrad
 Berny optimization.
 Initialization pass.
                           ----------------------------
                           !    Initial Parameters    !
                           ! (Angstroms and Degrees)  !
 --------------------------                            --------------------------
 ! Name  Definition              Value          Derivative Info.                !
 --------------------------------------------------------------------------------
 ! R1    R(1,2)                  1.5721         estimate D2E/DX2                !
 ! R2    R(1,4)                  1.5232         estimate D2E/DX2                !
 ! R3    R(1,5)                  1.0894         estimate D2E/DX2                !
 ! R4    R(1,17)                 1.4979         estimate D2E/DX2                !
 ! R5    R(2,7)                  1.561          estimate D2E/DX2                !
 ! R6    R(2,10)                 1.5109         estimate D2E/DX2                !
 ! R7    R(2,14)                 1.0874         estimate D2E/DX2                !
 ! R8    R(3,4)                  1.5075         estimate D2E/DX2                !
 ! R9    R(3,7)                  1.5297         estimate D2E/DX2                !
 ! R10   R(3,12)                 1.5468         estimate D2E/DX2                !
 ! R11   R(3,15)                 1.0834         estimate D2E/DX2                !
 ! R12   R(4,6)                  1.0799         estimate D2E/DX2                !
 ! R13   R(4,12)                 1.5388         estimate D2E/DX2                !
 ! R14   R(7,8)                  1.0942         estimate D2E/DX2                !
 ! R15   R(7,9)                  1.0947         estimate D2E/DX2                !
 ! R16   R(10,11)                1.0832         estimate D2E/DX2                !
 ! R17   R(10,12)                1.4731         estimate D2E/DX2                !
 ! R18   R(12,13)                1.0829         estimate D2E/DX2                !
 ! R19   R(16,17)                1.3341         estimate D2E/DX2                !
 ! R20   R(16,18)                1.3895         estimate D2E/DX2                !
 ! R21   R(17,19)                1.4222         estimate D2E/DX2                !
 ! R22   R(18,21)                1.2187         estimate D2E/DX2                !
 ! R23   R(18,23)                1.3555         estimate D2E/DX2                !
 ! R24   R(19,20)                1.2109         estimate D2E/DX2                !
 ! R25   R(19,22)                1.3424         estimate D2E/DX2                !
 ! R26   R(22,28)                1.4464         estimate D2E/DX2                !
 ! R27   R(23,24)                1.4434         estimate D2E/DX2                !
 ! R28   R(24,25)                1.0894         estimate D2E/DX2                !
 ! R29   R(24,26)                1.0924         estimate D2E/DX2                !
 ! R30   R(24,27)                1.0934         estimate D2E/DX2                !
 ! R31   R(28,29)                1.0888         estimate D2E/DX2                !
 ! R32   R(28,30)                1.092          estimate D2E/DX2                !
 ! R33   R(28,31)                1.0921         estimate D2E/DX2                !
 ! A1    A(2,1,4)               96.8956         estimate D2E/DX2                !
 ! A2    A(2,1,5)              111.7523         estimate D2E/DX2                !
 ! A3    A(2,1,17)             111.9045         estimate D2E/DX2                !
 ! A4    A(4,1,5)              112.5282         estimate D2E/DX2                !
 ! A5    A(4,1,17)             116.6466         estimate D2E/DX2                !
 ! A6    A(5,1,17)             107.0063         estimate D2E/DX2                !
 ! A7    A(1,2,7)              101.4954         estimate D2E/DX2                !
 ! A8    A(1,2,10)              99.4462         estimate D2E/DX2                !
 ! A9    A(1,2,14)             115.6455         estimate D2E/DX2                !
 ! A10   A(7,2,10)             101.5023         estimate D2E/DX2                !
 ! A11   A(7,2,14)             117.4059         estimate D2E/DX2                !
 ! A12   A(10,2,14)            118.3637         estimate D2E/DX2                !
 ! A13   A(4,3,7)              107.1478         estimate D2E/DX2                !
 ! A14   A(4,3,15)             121.4496         estimate D2E/DX2                !
 ! A15   A(7,3,12)             105.935          estimate D2E/DX2                !
 ! A16   A(7,3,15)             123.3791         estimate D2E/DX2                !
 ! A17   A(12,3,15)            121.8052         estimate D2E/DX2                !
 ! A18   A(1,4,3)              107.8721         estimate D2E/DX2                !
 ! A19   A(1,4,6)              123.0015         estimate D2E/DX2                !
 ! A20   A(1,4,12)             105.139          estimate D2E/DX2                !
 ! A21   A(3,4,6)              123.383          estimate D2E/DX2                !
 ! A22   A(6,4,12)             119.7825         estimate D2E/DX2                !
 ! A23   A(2,7,3)               96.8758         estimate D2E/DX2                !
 ! A24   A(2,7,8)              111.4656         estimate D2E/DX2                !
 ! A25   A(2,7,9)              113.5522         estimate D2E/DX2                !
 ! A26   A(3,7,8)              112.7242         estimate D2E/DX2                !
 ! A27   A(3,7,9)              112.8993         estimate D2E/DX2                !
 ! A28   A(8,7,9)              108.9919         estimate D2E/DX2                !
 ! A29   A(2,10,11)            126.2993         estimate D2E/DX2                !
 ! A30   A(2,10,12)            100.4068         estimate D2E/DX2                !
 ! A31   A(11,10,12)           126.8043         estimate D2E/DX2                !
 ! A32   A(3,12,10)            106.2169         estimate D2E/DX2                !
 ! A33   A(3,12,13)            121.4844         estimate D2E/DX2                !
 ! A34   A(4,12,10)            106.3202         estimate D2E/DX2                !
 ! A35   A(4,12,13)            120.4875         estimate D2E/DX2                !
 ! A36   A(10,12,13)           125.1063         estimate D2E/DX2                !
 ! A37   A(17,16,18)           119.6872         estimate D2E/DX2                !
 ! A38   A(1,17,16)            125.5231         estimate D2E/DX2                !
 ! A39   A(1,17,19)            118.8088         estimate D2E/DX2                !
 ! A40   A(16,17,19)           113.1985         estimate D2E/DX2                !
 ! A41   A(16,18,21)           122.8968         estimate D2E/DX2                !
 ! A42   A(16,18,23)           112.39           estimate D2E/DX2                !
 ! A43   A(21,18,23)           124.2582         estimate D2E/DX2                !
 ! A44   A(17,19,20)           124.3163         estimate D2E/DX2                !
 ! A45   A(17,19,22)           110.308          estimate D2E/DX2                !
 ! A46   A(20,19,22)           125.3524         estimate D2E/DX2                !
 ! A47   A(19,22,28)           115.2761         estimate D2E/DX2                !
 ! A48   A(18,23,24)           115.3475         estimate D2E/DX2                !
 ! A49   A(23,24,25)           105.3076         estimate D2E/DX2                !
 ! A50   A(23,24,26)           110.3431         estimate D2E/DX2                !
 ! A51   A(23,24,27)           110.3517         estimate D2E/DX2                !
 ! A52   A(25,24,26)           110.7299         estimate D2E/DX2                !
 ! A53   A(25,24,27)           110.7346         estimate D2E/DX2                !
 ! A54   A(26,24,27)           109.3261         estimate D2E/DX2                !
 ! A55   A(22,28,29)           105.0784         estimate D2E/DX2                !
 ! A56   A(22,28,30)           110.0637         estimate D2E/DX2                !
 ! A57   A(22,28,31)           110.1255         estimate D2E/DX2                !
 ! A58   A(29,28,30)           110.8984         estimate D2E/DX2                !
 ! A59   A(29,28,31)           110.8795         estimate D2E/DX2                !
 ! A60   A(30,28,31)           109.7146         estimate D2E/DX2                !
 ! D1    D(4,1,2,7)             50.8165         estimate D2E/DX2                !
 ! D2    D(4,1,2,10)           -53.0772         estimate D2E/DX2                !
 ! D3    D(4,1,2,14)           179.0362         estimate D2E/DX2                !
 ! D4    D(5,1,2,7)            168.4472         estimate D2E/DX2                !
 ! D5    D(5,1,2,10)            64.5534         estimate D2E/DX2                !
 ! D6    D(5,1,2,14)           -63.3332         estimate D2E/DX2                !
 ! D7    D(17,1,2,7)           -71.5635         estimate D2E/DX2                !
 ! D8    D(17,1,2,10)         -175.4572         estimate D2E/DX2                !
 ! D9    D(17,1,2,14)           56.6562         estimate D2E/DX2                !
 ! D10   D(2,1,4,3)            -30.0962         estimate D2E/DX2                !
 ! D11   D(2,1,4,6)            175.9071         estimate D2E/DX2                !
 ! D12   D(2,1,4,12)            33.7899         estimate D2E/DX2                !
 ! D13   D(5,1,4,3)           -147.1159         estimate D2E/DX2                !
 ! D14   D(5,1,4,6)             58.8874         estimate D2E/DX2                !
 ! D15   D(5,1,4,12)           -83.2298         estimate D2E/DX2                !
 ! D16   D(17,1,4,3)            88.6621         estimate D2E/DX2                !
 ! D17   D(17,1,4,6)           -65.3345         estimate D2E/DX2                !
 ! D18   D(17,1,4,12)          152.5482         estimate D2E/DX2                !
 ! D19   D(2,1,17,16)           90.5203         estimate D2E/DX2                !
 ! D20   D(2,1,17,19)          -70.3848         estimate D2E/DX2                !
 ! D21   D(4,1,17,16)          -19.7555         estimate D2E/DX2                !
 ! D22   D(4,1,17,19)          179.3394         estimate D2E/DX2                !
 ! D23   D(5,1,17,16)         -146.75           estimate D2E/DX2                !
 ! D24   D(5,1,17,19)           52.3448         estimate D2E/DX2                !
 ! D25   D(1,2,7,3)            -51.5338         estimate D2E/DX2                !
 ! D26   D(1,2,7,8)           -169.2771         estimate D2E/DX2                !
 ! D27   D(1,2,7,9)             67.1588         estimate D2E/DX2                !
 ! D28   D(10,2,7,3)            50.7232         estimate D2E/DX2                !
 ! D29   D(10,2,7,8)           -67.02           estimate D2E/DX2                !
 ! D30   D(10,2,7,9)           169.4159         estimate D2E/DX2                !
 ! D31   D(14,2,7,3)          -178.6145         estimate D2E/DX2                !
 ! D32   D(14,2,7,8)            63.6423         estimate D2E/DX2                !
 ! D33   D(14,2,7,9)           -59.9218         estimate D2E/DX2                !
 ! D34   D(1,2,10,11)         -154.5034         estimate D2E/DX2                !
 ! D35   D(1,2,10,12)           52.5378         estimate D2E/DX2                !
 ! D36   D(7,2,10,11)          101.6085         estimate D2E/DX2                !
 ! D37   D(7,2,10,12)          -51.3503         estimate D2E/DX2                !
 ! D38   D(14,2,10,11)         -28.4576         estimate D2E/DX2                !
 ! D39   D(14,2,10,12)         178.5837         estimate D2E/DX2                !
 ! D40   D(7,3,4,1)             -1.1826         estimate D2E/DX2                !
 ! D41   D(7,3,4,6)            152.692          estimate D2E/DX2                !
 ! D42   D(15,3,4,1)          -150.9086         estimate D2E/DX2                !
 ! D43   D(15,3,4,6)             2.966          estimate D2E/DX2                !
 ! D44   D(4,3,7,2)             32.1478         estimate D2E/DX2                !
 ! D45   D(4,3,7,8)            148.8989         estimate D2E/DX2                !
 ! D46   D(4,3,7,9)            -87.0514         estimate D2E/DX2                !
 ! D47   D(12,3,7,2)           -31.236          estimate D2E/DX2                !
 ! D48   D(12,3,7,8)            85.515          estimate D2E/DX2                !
 ! D49   D(12,3,7,9)          -150.4353         estimate D2E/DX2                !
 ! D50   D(15,3,7,2)          -178.8519         estimate D2E/DX2                !
 ! D51   D(15,3,7,8)           -62.1008         estimate D2E/DX2                !
 ! D52   D(15,3,7,9)            61.9489         estimate D2E/DX2                !
 ! D53   D(7,3,12,10)            1.4992         estimate D2E/DX2                !
 ! D54   D(7,3,12,13)         -150.1966         estimate D2E/DX2                !
 ! D55   D(15,3,12,10)         149.7455         estimate D2E/DX2                !
 ! D56   D(15,3,12,13)          -1.9503         estimate D2E/DX2                !
 ! D57   D(1,4,12,10)           -3.0188         estimate D2E/DX2                !
 ! D58   D(1,4,12,13)          147.1823         estimate D2E/DX2                !
 ! D59   D(6,4,12,10)         -146.6239         estimate D2E/DX2                !
 ! D60   D(6,4,12,13)            3.5771         estimate D2E/DX2                !
 ! D61   D(2,10,12,3)           30.3417         estimate D2E/DX2                !
 ! D62   D(2,10,12,4)          -30.8452         estimate D2E/DX2                !
 ! D63   D(2,10,12,13)        -179.2795         estimate D2E/DX2                !
 ! D64   D(11,10,12,3)        -122.4252         estimate D2E/DX2                !
 ! D65   D(11,10,12,4)         176.3879         estimate D2E/DX2                !
 ! D66   D(11,10,12,13)         27.9536         estimate D2E/DX2                !
 ! D67   D(18,16,17,1)          46.4437         estimate D2E/DX2                !
 ! D68   D(18,16,17,19)       -151.7277         estimate D2E/DX2                !
 ! D69   D(17,16,18,21)       -142.3516         estimate D2E/DX2                !
 ! D70   D(17,16,18,23)         45.0937         estimate D2E/DX2                !
 ! D71   D(1,17,19,20)         171.9736         estimate D2E/DX2                !
 ! D72   D(1,17,19,22)          -9.7036         estimate D2E/DX2                !
 ! D73   D(16,17,19,20)          8.8117         estimate D2E/DX2                !
 ! D74   D(16,17,19,22)       -172.8655         estimate D2E/DX2                !
 ! D75   D(16,18,23,24)        173.3514         estimate D2E/DX2                !
 ! D76   D(21,18,23,24)          0.9158         estimate D2E/DX2                !
 ! D77   D(17,19,22,28)       -177.7153         estimate D2E/DX2                !
 ! D78   D(20,19,22,28)          0.5863         estimate D2E/DX2                !
 ! D79   D(19,22,28,29)        179.6696         estimate D2E/DX2                !
 ! D80   D(19,22,28,30)        -60.8782         estimate D2E/DX2                !
 ! D81   D(19,22,28,31)         60.2078         estimate D2E/DX2                !
 ! D82   D(18,23,24,25)       -178.4054         estimate D2E/DX2                !
 ! D83   D(18,23,24,26)        -58.8755         estimate D2E/DX2                !
 ! D84   D(18,23,24,27)         62.0545         estimate D2E/DX2                !
 --------------------------------------------------------------------------------
 Trust Radius=3.00D-01 FncErr=1.00D-07 GrdErr=1.00D-06
 Number of steps in this run=    186 maximum allowed number of steps=    186.
 GradGradGradGradGradGradGradGradGradGradGradGradGradGradGradGradGradGrad

                          Input orientation:                          
 ---------------------------------------------------------------------
 Center     Atomic      Atomic             Coordinates (Angstroms)
 Number     Number       Type             X           Y           Z
 ---------------------------------------------------------------------
      1          6           0        0.343123    0.699370   -0.589894
      2          6           0        0.885745    1.870251    0.307905
      3          6           0       -1.410527    1.958783    0.567914
      4          6           0       -1.091896    1.199170   -0.694620
      5          1           0        0.844961    0.665711   -1.556256
      6          1           0       -1.841660    0.712085   -1.300275
      7          6           0       -0.168668    1.894182    1.458702
      8          1           0       -0.053756    2.781403    2.088667
      9          1           0       -0.144926    1.001815    2.092367
     10          6           0        0.445402    3.048768   -0.528736
     11          1           0        0.899240    4.032230   -0.540302
     12          6           0       -0.983422    2.734096   -0.700514
     13          1           0       -1.689799    3.332649   -1.262172
     14          1           0        1.933444    1.799990    0.590396
     15          1           0       -2.420565    2.011427    0.956272
     16          7           0       -0.328782   -1.249863    0.857440
     17          7           0        0.543398   -0.637906    0.054584
     18          6           0       -1.668915   -1.314351    0.495966
     19          6           0        1.863599   -1.155365    0.163469
     20          8           0        2.156889   -2.152559    0.784632
     21          8           0       -2.577479   -1.211486    1.301649
     22          8           0        2.718922   -0.403104   -0.546856
     23          8           0       -1.837058   -1.661393   -0.803544
     24          6           0       -3.202623   -1.893733   -1.209377
     25          1           0       -3.145493   -2.185706   -2.257352
     26          1           0       -3.646623   -2.691360   -0.609415
     27          1           0       -3.794255   -0.981549   -1.093358
     28          6           0        4.089510   -0.865084   -0.552852
     29          1           0        4.627110   -0.148856   -1.172062
     30          1           0        4.485919   -0.875127    0.464618
     31          1           0        4.145950   -1.868519   -0.980130
 ---------------------------------------------------------------------
                    Distance matrix (angstroms):
                    1          2          3          4          5
     1  C    0.000000
     2  C    1.572083   0.000000
     3  C    2.449883   2.312641   0.000000
     4  C    1.523170   2.316564   1.507491   0.000000
     5  H    1.089417   2.219837   3.357285   2.185957   0.000000
     6  H    2.297407   3.371399   2.286977   1.079915   2.699187
     7  C    2.426160   1.560991   1.529670   2.443806   3.409774
     8  H    3.415708   2.209971   2.197776   3.365692   4.309212
     9  H    2.743025   2.236240   2.200339   2.950084   3.795430
    10  C    2.352418   1.510885   2.415612   2.410771   2.625720
    11  H    3.379302   2.322454   3.295808   3.466218   3.516896
    12  C    2.431475   2.292798   1.546751   1.538765   2.890241
    13  H    3.393949   3.352190   2.305367   2.287211   3.691077
    14  H    2.265738   1.087387   3.347815   3.341397   2.660733
    15  H    3.427841   3.372239   1.083407   2.269486   4.334444
    16  N    2.519075   3.392960   3.398442   2.998165   3.297427
    17  N    1.497922   2.544057   3.290004   2.571058   2.094078
    18  C    3.046713   4.086973   3.284105   2.840464   3.801557
    19  C    2.513851   3.182988   4.536672   3.874933   2.703959
    20  O    3.648639   4.245713   5.447619   4.896619   3.891472
    21  O    3.969789   4.741155   3.456986   3.464579   4.837829
    22  O    2.619489   3.042909   4.886059   4.136599   2.381803
    23  O    3.220565   4.595812   3.894676   2.958032   3.629768
    24  C    4.436244   5.760597   4.605676   3.779708   4.801460
    25  H    4.824367   6.267552   5.307450   4.256381   4.954376
    26  H    5.235982   6.495547   5.292453   4.655117   5.686894
    27  H    4.494092   5.656739   4.133707   3.495321   4.944701
    28  C    4.060087   4.299659   6.283371   5.579266   3.725218
    29  H    4.405786   4.501656   6.627422   5.895096   3.887901
    30  H    4.555633   4.530222   6.542919   6.062884   4.440123
    31  H    4.605196   5.125073   6.922364   6.076781   4.201282
                    6          7          8          9         10
     6  H    0.000000
     7  C    3.436308   0.000000
     8  H    4.354722   1.094176   0.000000
     9  H    3.804322   1.094721   1.781926   0.000000
    10  C    3.359466   2.379088   2.677955   3.377674   0.000000
    11  H    4.371894   3.115717   3.063372   4.147848   1.083190
    12  C    2.277019   2.455910   2.940416   3.391763   1.473114
    13  H    2.625237   3.433101   3.769434   4.367190   2.275434
    14  H    4.359998   2.276335   2.675248   2.685633   2.241913
    15  H    2.667475   2.310243   2.734404   2.736524   3.390441
    16  N    3.285388   3.205023   4.224058   2.574665   4.582475
    17  N    3.057224   2.981620   4.023153   2.704632   3.733823
    18  C    2.713442   3.670461   4.681948   3.199322   4.955518
    19  C    4.399870   3.886833   4.783386   3.522534   4.490564
    20  O    5.342417   4.715792   5.561604   4.118082   5.630979
    21  O    3.318368   3.933473   4.788709   3.382492   5.535150
    22  O    4.755018   4.199757   4.977430   4.140160   4.133357
    23  O    2.424904   4.532482   5.593164   4.282790   5.241256
    24  C    2.941219   5.538215   6.530647   5.351189   6.180589
    25  H    3.318610   6.270250   7.288271   6.171203   6.578933
    26  H    3.913900   6.115593   7.080923   5.762035   7.049840
    27  H    2.593036   5.284668   6.186794   5.234518   5.876814
    28  C    6.182627   5.458203   6.118917   5.330379   5.347742
    29  H    6.527070   5.839042   6.413211   5.895156   5.303334
    30  H    6.758132   5.506583   6.051148   5.255207   5.719220
    31  H    6.527900   6.222680   6.976878   6.007551   6.170699
                   11         12         13         14         15
    11  H    0.000000
    12  C    2.292430   0.000000
    13  H    2.777343   1.082910   0.000000
    14  H    2.707573   3.323719   4.348441   0.000000
    15  H    4.164671   2.309236   2.683494   4.374467   0.000000
    16  N    5.600199   4.327552   5.229201   3.806650   3.875737
    17  N    4.721301   3.777797   4.741975   2.857037   4.076406
    18  C    6.021229   4.276843   4.968510   4.762880   3.440590
    19  C    5.323197   4.896928   5.899268   2.986849   5.386202
    20  O    6.448934   5.995549   7.005278   3.963622   6.190422
    21  O    6.555678   4.702902   5.292477   5.470219   3.245162
    22  O    4.794108   4.855202   5.822744   2.600758   5.873983
    23  O    6.322497   4.478798   5.017218   5.304802   4.114248
    24  C    7.238092   5.157577   5.441185   6.577382   4.533423
    25  H    7.613859   5.594886   5.793243   7.056277   5.335619
    26  H    8.116422   6.044544   6.367412   7.262845   5.105957
    27  H    6.890047   4.675588   4.803076   6.586237   3.878906
    28  C    5.844798   6.221779   7.178058   3.613621   7.275496
    29  H    5.637164   6.325491   7.213344   3.762990   7.672441
    30  H    6.160867   6.655653   7.669855   3.699622   7.501562
    31  H    6.749327   6.897297   7.822254   4.562860   7.869101
                   16         17         18         19         20
    16  N    0.000000
    17  N    1.334079   0.000000
    18  C    1.389525   2.355149   0.000000
    19  C    2.301534   1.422164   3.551688   0.000000
    20  O    2.645510   2.330343   3.927174   1.210892   0.000000
    21  O    2.292473   3.409404   1.218686   4.584951   4.854602
    22  O    3.460859   2.269310   4.601191   1.342399   2.269214
    23  O    2.281035   2.729557   1.355521   3.858243   4.326102
    24  C    3.597953   4.148177   2.365616   5.300613   5.724284
    25  H    4.302510   4.620460   3.243502   5.658001   6.113102
    26  H    3.903543   4.713156   2.651292   5.772277   5.992865
    27  H    3.985864   4.500122   2.674655   5.798374   6.349348
    28  C    4.653846   3.604927   5.870376   2.356281   2.679828
    29  H    5.467354   4.291915   6.616693   3.230123   3.734363
    30  H    4.845212   3.970878   6.170566   2.654390   2.675560
    31  H    4.876743   3.945050   6.024833   2.650572   2.674215
                   21         22         23         24         25
    21  O    0.000000
    22  O    5.667655   0.000000
    23  O    2.276505   4.733512   0.000000
    24  C    2.676101   6.142117   1.443416   0.000000
    25  H    3.733394   6.363555   2.024960   1.089387   0.000000
    26  H    2.642965   6.764628   2.091182   1.092382   1.795136
    27  H    2.696196   6.561611   2.092080   1.093421   1.796042
    28  C    6.928774   1.446365   5.985078   7.393534   7.549479
    29  H    7.691198   2.024032   6.648988   8.021889   8.108019
    30  H    7.120769   2.090015   6.496652   7.934324   8.207630
    31  H    7.130407   2.090832   5.989196   7.352191   7.409254
                   26         27         28         29         30
    26  H    0.000000
    27  H    1.783101   0.000000
    28  C    7.948977   7.903130   0.000000
    29  H    8.673843   8.462799   1.088769   0.000000
    30  H    8.401815   8.426144   1.092010   1.796142   0.000000
    31  H    7.844660   7.990394   1.092078   1.795994   1.785974
                   31
    31  H    0.000000
 Stoichiometry    C11H14N2O4(3)
 Framework group  C1[X(C11H14N2O4)]
 Deg. of freedom    87
 Full point group                 C1      NOp   1
 Largest Abelian subgroup         C1      NOp   1
 Largest concise Abelian subgroup C1      NOp   1
                         Standard orientation:                         
 ---------------------------------------------------------------------
 Center     Atomic      Atomic             Coordinates (Angstroms)
 Number     Number       Type             X           Y           Z
 ---------------------------------------------------------------------
      1          6           0        0.343123    0.699370   -0.589894
      2          6           0        0.885745    1.870251    0.307905
      3          6           0       -1.410527    1.958783    0.567914
      4          6           0       -1.091896    1.199170   -0.694620
      5          1           0        0.844961    0.665711   -1.556256
      6          1           0       -1.841660    0.712085   -1.300275
      7          6           0       -0.168668    1.894182    1.458702
      8          1           0       -0.053756    2.781403    2.088667
      9          1           0       -0.144926    1.001815    2.092367
     10          6           0        0.445402    3.048768   -0.528736
     11          1           0        0.899241    4.032230   -0.540302
     12          6           0       -0.983422    2.734096   -0.700514
     13          1           0       -1.689799    3.332649   -1.262172
     14          1           0        1.933444    1.799990    0.590396
     15          1           0       -2.420565    2.011427    0.956272
     16          7           0       -0.328782   -1.249863    0.857440
     17          7           0        0.543398   -0.637906    0.054584
     18          6           0       -1.668915   -1.314351    0.495966
     19          6           0        1.863599   -1.155365    0.163469
     20          8           0        2.156888   -2.152559    0.784632
     21          8           0       -2.577479   -1.211485    1.301649
     22          8           0        2.718922   -0.403104   -0.546856
     23          8           0       -1.837058   -1.661393   -0.803544
     24          6           0       -3.202624   -1.893732   -1.209377
     25          1           0       -3.145494   -2.185705   -2.257352
     26          1           0       -3.646624   -2.691359   -0.609415
     27          1           0       -3.794255   -0.981548   -1.093358
     28          6           0        4.089510   -0.865085   -0.552852
     29          1           0        4.627110   -0.148857   -1.172062
     30          1           0        4.485919   -0.875128    0.464618
     31          1           0        4.145950   -1.868520   -0.980130
 ---------------------------------------------------------------------
 Rotational constants (GHZ):      0.6017759      0.4606543      0.3131938
 Standard basis: 6-31+G(d,p) (6D, 7F)
 There are   393 symmetry adapted cartesian basis functions of A   symmetry.
 There are   393 symmetry adapted basis functions of A   symmetry.
   393 basis functions,   642 primitive gaussians,   393 cartesian basis functions
    64 alpha electrons       62 beta electrons
       nuclear repulsion energy      1309.4101786263 Hartrees.
 NAtoms=   31 NActive=   31 NUniq=   31 SFac= 1.00D+00 NAtFMM=   60 NAOKFM=F Big=F
 Integral buffers will be    131072 words long.
 Raffenetti 2 integral format.
 Two-electron integral symmetry is turned on.
 Nuclear repulsion after empirical dispersion term =     1309.3766193467 Hartrees.
 ------------------------------------------------------------------------------
 Polarizable Continuum Model (PCM)
 =================================
 Model                : C-PCM.
 Atomic radii         : UFF (Universal Force Field).
 Polarization charges : Total charges.
 Charge compensation  : None.
 Solution method      : On-the-fly selection.
 Cavity type          : Scaled VdW (van der Waals Surface) (Alpha=1.100).
 Cavity algorithm     : GePol (No added spheres)
                        Default sphere list used, NSphG=   31.
                        Lebedev-Laikov grids with approx.  5.0 points / Ang**2.
                        Smoothing algorithm: Karplus/York (Gamma=1.0000).
                        Polarization charges: spherical gaussians, with
                                              point-specific exponents (IZeta= 3).
                        Self-potential: point-specific (ISelfS= 7).
                        Self-field    : sphere-specific E.n sum rule (ISelfD= 2).
 1st derivatives      : Analytical E(r).r(x)/FMM algorithm (CHGder, D1EAlg=3).
                        Cavity 1st derivative terms included.
 Solvent              : Water, Eps=  78.355300 Eps(inf)=   1.777849
 ------------------------------------------------------------------------------
 One-electron integrals computed using PRISM.
 NBasis=   393 RedAO= T EigKep=  5.85D-06  NBF=   393
 NBsUse=   393 1.00D-06 EigRej= -1.00D+00 NBFU=   393
 ExpMin= 4.38D-02 ExpMax= 5.48D+03 ExpMxC= 8.25D+02 IAcc=2 IRadAn=         4 AccDes= 0.00D+00
 Harris functional with IExCor=  402 and IRadAn=       4 diagonalized for initial guess.
 HarFok:  IExCor=  402 AccDes= 0.00D+00 IRadAn=         4 IDoV= 1 UseB2=F ITyADJ=14
 ICtDFT=  3500011 ScaDFX=  1.000000  1.000000  1.000000  1.000000
 FoFCou: FMM=F IPFlag=           0 FMFlag=      100000 FMFlg1=           0
         NFxFlg=           0 DoJE=T BraDBF=F KetDBF=T FulRan=T
         wScrn=  0.000000 ICntrl=     500 IOpCl=  0 I1Cent=   200000004 NGrid=           0
         NMat0=    1 NMatS0=      1 NMatT0=    0 NMatD0=    1 NMtDS0=    0 NMtDT0=    0
 Petite list used in FoFCou.
 Initial guess <Sx>= 0.0000 <Sy>= 0.0000 <Sz>= 1.0000 <S**2>= 2.0000 S= 1.0000
 Requested convergence on RMS density matrix=1.00D-08 within 128 cycles.
 Requested convergence on MAX density matrix=1.00D-06.
 Requested convergence on             energy=1.00D-06.
 No special actions if energy rises.
 Inv3:  Mode=1 IEnd=    15472323.
 Iteration    1 A*A^-1 deviation from unit magnitude is 3.77D-15 for   2230.
 Iteration    1 A*A^-1 deviation from orthogonality  is 2.83D-15 for   2235    159.
 Iteration    1 A^-1*A deviation from unit magnitude is 4.00D-15 for   2230.
 Iteration    1 A^-1*A deviation from orthogonality  is 1.95D-15 for   2254   2204.
 Error on total polarization charges =  0.01641
 SCF Done:  E(UB3LYP) =  -837.935927207     A.U. after   19 cycles
            NFock= 19  Conv=0.44D-08     -V/T= 2.0093
 <Sx>= 0.0000 <Sy>= 0.0000 <Sz>= 1.0000 <S**2>= 2.0084 S= 1.0028
 <L.S>= 0.000000000000E+00
 Annihilation of the first spin contaminant:
 S**2 before annihilation     2.0084,   after     2.0000

 **********************************************************************

            Population analysis using the SCF density.

 **********************************************************************

 Orbital symmetries:
 Alpha Orbitals:
       Occupied  (A) (A) (A) (A) (A) (A) (A) (A) (A) (A) (A) (A)
                 (A) (A) (A) (A) (A) (A) (A) (A) (A) (A) (A) (A)
                 (A) (A) (A) (A) (A) (A) (A) (A) (A) (A) (A) (A)
                 (A) (A) (A) (A) (A) (A) (A) (A) (A) (A) (A) (A)
                 (A) (A) (A) (A) (A) (A) (A) (A) (A) (A) (A) (A)
                 (A) (A) (A) (A)
       Virtual   (A) (A) (A) (A) (A) (A) (A) (A) (A) (A) (A) (A)
                 (A) (A) (A) (A) (A) (A) (A) (A) (A) (A) (A) (A)
                 (A) (A) (A) (A) (A) (A) (A) (A) (A) (A) (A) (A)
                 (A) (A) (A) (A) (A) (A) (A) (A) (A) (A) (A) (A)
                 (A) (A) (A) (A) (A) (A) (A) (A) (A) (A) (A) (A)
                 (A) (A) (A) (A) (A) (A) (A) (A) (A) (A) (A) (A)
                 (A) (A) (A) (A) (A) (A) (A) (A) (A) (A) (A) (A)
                 (A) (A) (A) (A) (A) (A) (A) (A) (A) (A) (A) (A)
                 (A) (A) (A) (A) (A) (A) (A) (A) (A) (A) (A) (A)
                 (A) (A) (A) (A) (A) (A) (A) (A) (A) (A) (A) (A)
                 (A) (A) (A) (A) (A) (A) (A) (A) (A) (A) (A) (A)
                 (A) (A) (A) (A) (A) (A) (A) (A) (A) (A) (A) (A)
                 (A) (A) (A) (A) (A) (A) (A) (A) (A) (A) (A) (A)
                 (A) (A) (A) (A) (A) (A) (A) (A) (A) (A) (A) (A)
                 (A) (A) (A) (A) (A) (A) (A) (A) (A) (A) (A) (A)
                 (A) (A) (A) (A) (A) (A) (A) (A) (A) (A) (A) (A)
                 (A) (A) (A) (A) (A) (A) (A) (A) (A) (A) (A) (A)
                 (A) (A) (A) (A) (A) (A) (A) (A) (A) (A) (A) (A)
                 (A) (A) (A) (A) (A) (A) (A) (A) (A) (A) (A) (A)
                 (A) (A) (A) (A) (A) (A) (A) (A) (A) (A) (A) (A)
                 (A) (A) (A) (A) (A) (A) (A) (A) (A) (A) (A) (A)
                 (A) (A) (A) (A) (A) (A) (A) (A) (A) (A) (A) (A)
                 (A) (A) (A) (A) (A) (A) (A) (A) (A) (A) (A) (A)
                 (A) (A) (A) (A) (A) (A) (A) (A) (A) (A) (A) (A)
                 (A) (A) (A) (A) (A) (A) (A) (A) (A) (A) (A) (A)
                 (A) (A) (A) (A) (A) (A) (A) (A) (A) (A) (A) (A)
                 (A) (A) (A) (A) (A) (A) (A) (A) (A) (A) (A) (A)
                 (A) (A) (A) (A) (A)
 Beta  Orbitals:
       Occupied  (A) (A) (A) (A) (A) (A) (A) (A) (A) (A) (A) (A)
                 (A) (A) (A) (A) (A) (A) (A) (A) (A) (A) (A) (A)
                 (A) (A) (A) (A) (A) (A) (A) (A) (A) (A) (A) (A)
                 (A) (A) (A) (A) (A) (A) (A) (A) (A) (A) (A) (A)
                 (A) (A) (A) (A) (A) (A) (A) (A) (A) (A) (A) (A)
                 (A) (A)
       Virtual   (A) (A) (A) (A) (A) (A) (A) (A) (A) (A) (A) (A)
                 (A) (A) (A) (A) (A) (A) (A) (A) (A) (A) (A) (A)
                 (A) (A) (A) (A) (A) (A) (A) (A) (A) (A) (A) (A)
                 (A) (A) (A) (A) (A) (A) (A) (A) (A) (A) (A) (A)
                 (A) (A) (A) (A) (A) (A) (A) (A) (A) (A) (A) (A)
                 (A) (A) (A) (A) (A) (A) (A) (A) (A) (A) (A) (A)
                 (A) (A) (A) (A) (A) (A) (A) (A) (A) (A) (A) (A)
                 (A) (A) (A) (A) (A) (A) (A) (A) (A) (A) (A) (A)
                 (A) (A) (A) (A) (A) (A) (A) (A) (A) (A) (A) (A)
                 (A) (A) (A) (A) (A) (A) (A) (A) (A) (A) (A) (A)
                 (A) (A) (A) (A) (A) (A) (A) (A) (A) (A) (A) (A)
                 (A) (A) (A) (A) (A) (A) (A) (A) (A) (A) (A) (A)
                 (A) (A) (A) (A) (A) (A) (A) (A) (A) (A) (A) (A)
                 (A) (A) (A) (A) (A) (A) (A) (A) (A) (A) (A) (A)
                 (A) (A) (A) (A) (A) (A) (A) (A) (A) (A) (A) (A)
                 (A) (A) (A) (A) (A) (A) (A) (A) (A) (A) (A) (A)
                 (A) (A) (A) (A) (A) (A) (A) (A) (A) (A) (A) (A)
                 (A) (A) (A) (A) (A) (A) (A) (A) (A) (A) (A) (A)
                 (A) (A) (A) (A) (A) (A) (A) (A) (A) (A) (A) (A)
                 (A) (A) (A) (A) (A) (A) (A) (A) (A) (A) (A) (A)
                 (A) (A) (A) (A) (A) (A) (A) (A) (A) (A) (A) (A)
                 (A) (A) (A) (A) (A) (A) (A) (A) (A) (A) (A) (A)
                 (A) (A) (A) (A) (A) (A) (A) (A) (A) (A) (A) (A)
                 (A) (A) (A) (A) (A) (A) (A) (A) (A) (A) (A) (A)
                 (A) (A) (A) (A) (A) (A) (A) (A) (A) (A) (A) (A)
                 (A) (A) (A) (A) (A) (A) (A) (A) (A) (A) (A) (A)
                 (A) (A) (A) (A) (A) (A) (A) (A) (A) (A) (A) (A)
                 (A) (A) (A) (A) (A) (A) (A)
 The electronic state is 3-A.
 Alpha  occ. eigenvalues --  -19.22606 -19.21607 -19.16942 -19.16029 -14.45830
 Alpha  occ. eigenvalues --  -14.40492 -10.37126 -10.35881 -10.25550 -10.25261
 Alpha  occ. eigenvalues --  -10.24804 -10.21197 -10.21104 -10.20981 -10.20918
 Alpha  occ. eigenvalues --  -10.20523 -10.19714  -1.14819  -1.13068  -1.06124
 Alpha  occ. eigenvalues --   -1.04180  -1.03787  -0.93779  -0.86160  -0.77145
 Alpha  occ. eigenvalues --   -0.75028  -0.74686  -0.72196  -0.71346  -0.62947
 Alpha  occ. eigenvalues --   -0.61101  -0.57533  -0.57207  -0.56381  -0.55554
 Alpha  occ. eigenvalues --   -0.55054  -0.52515  -0.51796  -0.49839  -0.49707
 Alpha  occ. eigenvalues --   -0.49373  -0.47678  -0.45482  -0.45096  -0.44169
 Alpha  occ. eigenvalues --   -0.43762  -0.42316  -0.41074  -0.39664  -0.39193
 Alpha  occ. eigenvalues --   -0.38402  -0.37934  -0.37364  -0.36014  -0.35495
 Alpha  occ. eigenvalues --   -0.33205  -0.32971  -0.32513  -0.31585  -0.30591
 Alpha  occ. eigenvalues --   -0.30263  -0.29731  -0.24193  -0.19499
 Alpha virt. eigenvalues --   -0.00555  -0.00171   0.00699   0.01328   0.01718
 Alpha virt. eigenvalues --    0.02325   0.02634   0.03155   0.03766   0.04004
 Alpha virt. eigenvalues --    0.04468   0.04631   0.04973   0.06159   0.06658
 Alpha virt. eigenvalues --    0.07322   0.07573   0.08374   0.09023   0.09069
 Alpha virt. eigenvalues --    0.09777   0.10049   0.10776   0.11158   0.11333
 Alpha virt. eigenvalues --    0.11705   0.11974   0.12642   0.12688   0.13170
 Alpha virt. eigenvalues --    0.14001   0.14249   0.14390   0.14835   0.15262
 Alpha virt. eigenvalues --    0.15967   0.16212   0.16861   0.17072   0.17473
 Alpha virt. eigenvalues --    0.17675   0.18113   0.18406   0.18901   0.19541
 Alpha virt. eigenvalues --    0.19979   0.20281   0.20764   0.20868   0.21092
 Alpha virt. eigenvalues --    0.21618   0.22008   0.22498   0.22605   0.23122
 Alpha virt. eigenvalues --    0.23321   0.23873   0.23946   0.24612   0.24836
 Alpha virt. eigenvalues --    0.25289   0.26162   0.26614   0.26850   0.28091
 Alpha virt. eigenvalues --    0.28380   0.28647   0.28931   0.29393   0.30053
 Alpha virt. eigenvalues --    0.30556   0.31059   0.31434   0.31737   0.32239
 Alpha virt. eigenvalues --    0.32439   0.32934   0.33584   0.33863   0.34483
 Alpha virt. eigenvalues --    0.34799   0.35615   0.35873   0.36481   0.37106
 Alpha virt. eigenvalues --    0.37650   0.37868   0.38398   0.38889   0.39955
 Alpha virt. eigenvalues --    0.40560   0.41561   0.41590   0.42979   0.43331
 Alpha virt. eigenvalues --    0.44178   0.45855   0.47473   0.48079   0.49916
 Alpha virt. eigenvalues --    0.50992   0.52210   0.53898   0.64762   0.65609
 Alpha virt. eigenvalues --    0.66227   0.67823   0.69163   0.70649   0.71711
 Alpha virt. eigenvalues --    0.73213   0.74057   0.74326   0.75154   0.76413
 Alpha virt. eigenvalues --    0.76439   0.77087   0.77317   0.78557   0.79476
 Alpha virt. eigenvalues --    0.80536   0.80883   0.81524   0.82908   0.83219
 Alpha virt. eigenvalues --    0.84261   0.85760   0.87328   0.87974   0.88870
 Alpha virt. eigenvalues --    0.90607   0.91365   0.92945   0.93759   0.95358
 Alpha virt. eigenvalues --    0.96242   0.97856   0.97939   0.99701   0.99910
 Alpha virt. eigenvalues --    1.01321   1.01642   1.03669   1.04382   1.05733
 Alpha virt. eigenvalues --    1.07455   1.08392   1.09150   1.09813   1.11636
 Alpha virt. eigenvalues --    1.13582   1.14424   1.16180   1.18228   1.18455
 Alpha virt. eigenvalues --    1.19317   1.20510   1.22106   1.22902   1.24437
 Alpha virt. eigenvalues --    1.25397   1.26241   1.27331   1.28910   1.29970
 Alpha virt. eigenvalues --    1.30478   1.31786   1.31810   1.33433   1.34062
 Alpha virt. eigenvalues --    1.34864   1.36032   1.36628   1.39198   1.39864
 Alpha virt. eigenvalues --    1.40372   1.43175   1.45189   1.46347   1.47401
 Alpha virt. eigenvalues --    1.49059   1.49229   1.49681   1.53233   1.55062
 Alpha virt. eigenvalues --    1.56404   1.58416   1.62669   1.63579   1.65403
 Alpha virt. eigenvalues --    1.67965   1.69317   1.70236   1.72421   1.73417
 Alpha virt. eigenvalues --    1.75511   1.76213   1.77021   1.78362   1.79372
 Alpha virt. eigenvalues --    1.80726   1.81680   1.83760   1.85881   1.86446
 Alpha virt. eigenvalues --    1.86626   1.87583   1.88775   1.90765   1.91562
 Alpha virt. eigenvalues --    1.92063   1.94153   1.94567   1.95510   1.96825
 Alpha virt. eigenvalues --    1.97350   1.97914   1.99740   2.00130   2.01721
 Alpha virt. eigenvalues --    2.02043   2.02988   2.05009   2.05718   2.06913
 Alpha virt. eigenvalues --    2.08303   2.08412   2.09634   2.10138   2.12237
 Alpha virt. eigenvalues --    2.12510   2.13992   2.15282   2.15827   2.16592
 Alpha virt. eigenvalues --    2.17638   2.18212   2.20985   2.21803   2.25957
 Alpha virt. eigenvalues --    2.30259   2.35359   2.37423   2.38466   2.40756
 Alpha virt. eigenvalues --    2.41896   2.43069   2.43993   2.44980   2.45811
 Alpha virt. eigenvalues --    2.46439   2.47959   2.49359   2.50611   2.50930
 Alpha virt. eigenvalues --    2.51114   2.53313   2.53582   2.55917   2.57216
 Alpha virt. eigenvalues --    2.59009   2.59634   2.61664   2.63146   2.64239
 Alpha virt. eigenvalues --    2.65125   2.65872   2.68017   2.68850   2.69684
 Alpha virt. eigenvalues --    2.70579   2.71457   2.72086   2.73962   2.75459
 Alpha virt. eigenvalues --    2.77186   2.79054   2.80445   2.81611   2.82868
 Alpha virt. eigenvalues --    2.84399   2.85349   2.85846   2.86093   2.89321
 Alpha virt. eigenvalues --    2.90252   2.95539   2.98319   2.99339   3.02281
 Alpha virt. eigenvalues --    3.02924   3.06076   3.08910   3.13156   3.17970
 Alpha virt. eigenvalues --    3.19097   3.24451   3.25840   3.27209   3.30615
 Alpha virt. eigenvalues --    3.33900   3.34707   3.36646   3.41677   3.42684
 Alpha virt. eigenvalues --    3.45608   3.46351   3.47339   3.49466   3.51865
 Alpha virt. eigenvalues --    3.59701   3.65641   4.24933   4.28393   4.37961
 Alpha virt. eigenvalues --    4.42820   4.48686   4.52110   4.56287   4.59612
 Alpha virt. eigenvalues --    4.61854   4.63527   4.64750   4.67153   4.75254
 Alpha virt. eigenvalues --    4.80343   4.81163   4.84576   5.00483
  Beta  occ. eigenvalues --  -19.22545 -19.21518 -19.16821 -19.15914 -14.45226
  Beta  occ. eigenvalues --  -14.39239 -10.37126 -10.35894 -10.25496 -10.25263
  Beta  occ. eigenvalues --  -10.24797 -10.21120 -10.21101 -10.21004 -10.20792
  Beta  occ. eigenvalues --  -10.19623 -10.19235  -1.14475  -1.12763  -1.05491
  Beta  occ. eigenvalues --   -1.03677  -1.02972  -0.93151  -0.84485  -0.76643
  Beta  occ. eigenvalues --   -0.74776  -0.74241  -0.71054  -0.70540  -0.62394
  Beta  occ. eigenvalues --   -0.60507  -0.57218  -0.56783  -0.56085  -0.54934
  Beta  occ. eigenvalues --   -0.54446  -0.51701  -0.51012  -0.49588  -0.49327
  Beta  occ. eigenvalues --   -0.49146  -0.47009  -0.45280  -0.44827  -0.43410
  Beta  occ. eigenvalues --   -0.43113  -0.41710  -0.40436  -0.39051  -0.38286
  Beta  occ. eigenvalues --   -0.38131  -0.37668  -0.36471  -0.35369  -0.33884
  Beta  occ. eigenvalues --   -0.32636  -0.32305  -0.32078  -0.31093  -0.29882
  Beta  occ. eigenvalues --   -0.29348  -0.28720
  Beta virt. eigenvalues --   -0.13008  -0.06592  -0.00120  -0.00018   0.01199
  Beta virt. eigenvalues --    0.01676   0.02253   0.02577   0.02703   0.03178
  Beta virt. eigenvalues --    0.03917   0.04022   0.04514   0.04705   0.05184
  Beta virt. eigenvalues --    0.06183   0.06737   0.07426   0.07605   0.08657
  Beta virt. eigenvalues --    0.09092   0.09160   0.09826   0.10187   0.10902
  Beta virt. eigenvalues --    0.11327   0.11451   0.11922   0.12168   0.12796
  Beta virt. eigenvalues --    0.13014   0.13401   0.14075   0.14362   0.14702
  Beta virt. eigenvalues --    0.14937   0.15389   0.16139   0.16317   0.16957
  Beta virt. eigenvalues --    0.17219   0.17574   0.18064   0.18314   0.18584
  Beta virt. eigenvalues --    0.19034   0.19935   0.20315   0.20472   0.20846
  Beta virt. eigenvalues --    0.21032   0.21366   0.21922   0.22188   0.22680
  Beta virt. eigenvalues --    0.22768   0.23386   0.23588   0.24056   0.24259
  Beta virt. eigenvalues --    0.24922   0.25102   0.25509   0.26486   0.27042
  Beta virt. eigenvalues --    0.27131   0.28248   0.28585   0.28901   0.29178
  Beta virt. eigenvalues --    0.29484   0.30282   0.30719   0.31217   0.31670
  Beta virt. eigenvalues --    0.32071   0.32349   0.32673   0.33126   0.33742
  Beta virt. eigenvalues --    0.33977   0.34699   0.34881   0.35693   0.35998
  Beta virt. eigenvalues --    0.36869   0.37403   0.37868   0.38035   0.38731
  Beta virt. eigenvalues --    0.39216   0.40346   0.40873   0.41821   0.42027
  Beta virt. eigenvalues --    0.43355   0.43685   0.44584   0.46083   0.47637
  Beta virt. eigenvalues --    0.48217   0.50046   0.51120   0.52559   0.54196
  Beta virt. eigenvalues --    0.64913   0.66190   0.66828   0.67976   0.69404
  Beta virt. eigenvalues --    0.71238   0.72041   0.73638   0.74540   0.75192
  Beta virt. eigenvalues --    0.75371   0.76647   0.76719   0.77432   0.78272
  Beta virt. eigenvalues --    0.79149   0.80033   0.80734   0.81213   0.81919
  Beta virt. eigenvalues --    0.83169   0.83748   0.84482   0.86158   0.87730
  Beta virt. eigenvalues --    0.88193   0.89134   0.91038   0.91651   0.93565
  Beta virt. eigenvalues --    0.94354   0.95539   0.96645   0.98007   0.98254
  Beta virt. eigenvalues --    1.00001   1.00732   1.01644   1.02370   1.04075
  Beta virt. eigenvalues --    1.05969   1.06162   1.07700   1.08533   1.09380
  Beta virt. eigenvalues --    1.10271   1.12094   1.14076   1.14804   1.16534
  Beta virt. eigenvalues --    1.18516   1.18885   1.19584   1.20972   1.22369
  Beta virt. eigenvalues --    1.23174   1.24686   1.25768   1.26685   1.27707
  Beta virt. eigenvalues --    1.29313   1.30502   1.30731   1.32069   1.32213
  Beta virt. eigenvalues --    1.33676   1.34331   1.35252   1.36824   1.37050
  Beta virt. eigenvalues --    1.39567   1.40356   1.40718   1.43813   1.45720
  Beta virt. eigenvalues --    1.46858   1.47884   1.49216   1.49834   1.50058
  Beta virt. eigenvalues --    1.53547   1.55546   1.56743   1.59015   1.63037
  Beta virt. eigenvalues --    1.63896   1.66272   1.68333   1.70331   1.70773
  Beta virt. eigenvalues --    1.72851   1.74086   1.75916   1.76659   1.77333
  Beta virt. eigenvalues --    1.78844   1.80008   1.81082   1.82148   1.83965
  Beta virt. eigenvalues --    1.86393   1.86893   1.87272   1.88198   1.89250
  Beta virt. eigenvalues --    1.91120   1.91778   1.92429   1.94568   1.94814
  Beta virt. eigenvalues --    1.95969   1.97245   1.97799   1.98556   2.00499
  Beta virt. eigenvalues --    2.00609   2.01838   2.02124   2.03308   2.05345
  Beta virt. eigenvalues --    2.06480   2.07541   2.08794   2.09147   2.09969
  Beta virt. eigenvalues --    2.10462   2.12581   2.12860   2.14407   2.15900
  Beta virt. eigenvalues --    2.16408   2.17187   2.17892   2.19180   2.21713
  Beta virt. eigenvalues --    2.23122   2.26347   2.31080   2.35768   2.38075
  Beta virt. eigenvalues --    2.39058   2.41090   2.42275   2.43563   2.44276
  Beta virt. eigenvalues --    2.45253   2.46278   2.46586   2.48224   2.49645
  Beta virt. eigenvalues --    2.50836   2.51341   2.52073   2.53711   2.54266
  Beta virt. eigenvalues --    2.56286   2.57879   2.59202   2.59742   2.62333
  Beta virt. eigenvalues --    2.63727   2.64709   2.65571   2.66167   2.68511
  Beta virt. eigenvalues --    2.69188   2.70112   2.71051   2.72071   2.72439
  Beta virt. eigenvalues --    2.74413   2.75928   2.77336   2.79218   2.80830
  Beta virt. eigenvalues --    2.81944   2.83157   2.84561   2.85429   2.86190
  Beta virt. eigenvalues --    2.86331   2.89903   2.90608   2.95800   2.98555
  Beta virt. eigenvalues --    2.99698   3.02524   3.03315   3.06462   3.09401
  Beta virt. eigenvalues --    3.13403   3.18256   3.19195   3.24598   3.25888
  Beta virt. eigenvalues --    3.27373   3.30869   3.33994   3.34880   3.37016
  Beta virt. eigenvalues --    3.41700   3.42711   3.45661   3.46388   3.47434
  Beta virt. eigenvalues --    3.49566   3.51988   3.59857   3.66152   4.26156
  Beta virt. eigenvalues --    4.29705   4.38184   4.42977   4.50450   4.52344
  Beta virt. eigenvalues --    4.56426   4.59771   4.62052   4.63635   4.64903
  Beta virt. eigenvalues --    4.67709   4.75870   4.80742   4.81452   4.84816
  Beta virt. eigenvalues --    5.00636
          Condensed to atoms (all electrons):
               1          2          3          4          5          6
     1  C   16.673207  -2.476960   2.936291  -7.483084   0.132105   0.155178
     2  C   -2.476960   8.431369  -0.686936   0.224896   0.018826  -0.005443
     3  C    2.936291  -0.686936   9.647631  -3.401100  -0.002540   0.091613
     4  C   -7.483084   0.224896  -3.401100  15.465022   0.093430   0.122434
     5  H    0.132105   0.018826  -0.002540   0.093430   0.531997  -0.002728
     6  H    0.155178  -0.005443   0.091613   0.122434  -0.002728   0.513800
     7  C   -1.308842  -0.007711  -1.339083   1.571268   0.016098  -0.026475
     8  H    0.017071  -0.083348  -0.052411   0.026120  -0.000109  -0.000095
     9  H   -0.081066   0.041694  -0.006910  -0.097855  -0.000091   0.000170
    10  C   -0.288055  -1.008181   0.251392   1.431434   0.047233  -0.013268
    11  H    0.014067  -0.016475  -0.031922   0.015207  -0.000033  -0.000034
    12  C    0.946337   0.454604  -1.044168  -3.158481  -0.047737   0.017042
    13  H   -0.027914  -0.003086   0.074089   0.109043   0.000149  -0.002951
    14  H    0.082656   0.232602   0.005658  -0.016339  -0.002011  -0.000093
    15  H   -0.036705   0.027782   0.117661   0.032846  -0.000084  -0.002865
    16  N   -2.473950   0.487191  -0.313442   1.384751   0.017360  -0.015396
    17  N    0.183491   0.017225  -0.188058  -0.223885   0.009309  -0.001063
    18  C   -0.188302   0.101665   0.092063   0.041325   0.006288  -0.011628
    19  C   -0.732603   0.129395  -0.073541   0.046451   0.008239  -0.002248
    20  O    0.114562  -0.041378   0.002601   0.023355  -0.000630   0.000010
    21  O    0.028875   0.011636   0.004463  -0.052232  -0.000239  -0.000197
    22  O    0.166588  -0.104006   0.003654   0.017870  -0.009827   0.000231
    23  O    0.047338   0.037047  -0.023138  -0.057807  -0.002414   0.007375
    24  C   -0.064701   0.001576  -0.018320   0.084663  -0.000589   0.002933
    25  H   -0.003142  -0.000098  -0.002246   0.007434  -0.000001  -0.000156
    26  H    0.000399   0.000204  -0.000307  -0.002397   0.000000  -0.000014
    27  H   -0.002563  -0.000174   0.005440   0.001206   0.000000   0.001034
    28  C    0.014047   0.012096   0.004935  -0.030743   0.000246   0.000113
    29  H   -0.002097   0.000585   0.000078  -0.001805  -0.000003   0.000000
    30  H   -0.005629   0.001968  -0.000079   0.001225   0.000000   0.000000
    31  H    0.009171  -0.002292   0.000030  -0.000469  -0.000031   0.000000
               7          8          9         10         11         12
     1  C   -1.308842   0.017071  -0.081066  -0.288055   0.014067   0.946337
     2  C   -0.007711  -0.083348   0.041694  -1.008181  -0.016475   0.454604
     3  C   -1.339083  -0.052411  -0.006910   0.251392  -0.031922  -1.044168
     4  C    1.571268   0.026120  -0.097855   1.431434   0.015207  -3.158481
     5  H    0.016098  -0.000109  -0.000091   0.047233  -0.000033  -0.047737
     6  H   -0.026475  -0.000095   0.000170  -0.013268  -0.000034   0.017042
     7  C    6.244124   0.410802   0.380633   0.021264   0.024542   0.093621
     8  H    0.410802   0.546511  -0.027445   0.035687   0.000268  -0.023211
     9  H    0.380633  -0.027445   0.547814  -0.045941  -0.000073   0.077217
    10  C    0.021264   0.035687  -0.045941   7.092505   0.335301  -1.431104
    11  H    0.024542   0.000268  -0.000073   0.335301   0.540556  -0.019213
    12  C    0.093621  -0.023211   0.077217  -1.431104  -0.019213   9.923284
    13  H   -0.009338   0.000070  -0.000081   0.051448  -0.002288   0.132548
    14  H    0.007494  -0.001603  -0.001299   0.000530  -0.002092   0.027807
    15  H    0.070883  -0.001284  -0.001061  -0.040206   0.000022   0.149933
    16  N    0.098430   0.002033   0.002148  -0.027314  -0.000346  -0.055891
    17  N    0.208421  -0.006306   0.035565  -0.070362  -0.000165   0.076510
    18  C   -0.082651   0.000511  -0.004619   0.013537  -0.000220  -0.070382
    19  C    0.078985  -0.001005   0.017704  -0.136062   0.000496   0.090983
    20  O    0.003985   0.000023  -0.000304   0.007121  -0.000005  -0.006156
    21  O   -0.029687  -0.000021   0.000575  -0.007138   0.000003   0.012790
    22  O   -0.007853   0.000274  -0.000248   0.036756   0.000029  -0.010680
    23  O   -0.019610   0.000047  -0.000012  -0.019141   0.000006   0.067054
    24  C    0.005819  -0.000094  -0.000204   0.003605   0.000008  -0.022050
    25  H    0.000230   0.000000   0.000000  -0.000184   0.000000   0.002709
    26  H   -0.000016   0.000000   0.000000  -0.000100   0.000000   0.000421
    27  H   -0.000875   0.000000   0.000000   0.000959   0.000000  -0.007897
    28  C   -0.008702   0.000075  -0.000314   0.004378  -0.000095  -0.000459
    29  H   -0.000076   0.000000   0.000000  -0.001853   0.000000   0.000418
    30  H    0.000229   0.000000   0.000000   0.000533   0.000000  -0.000188
    31  H   -0.000240   0.000000   0.000000   0.000520   0.000000  -0.000113
              13         14         15         16         17         18
     1  C   -0.027914   0.082656  -0.036705  -2.473950   0.183491  -0.188302
     2  C   -0.003086   0.232602   0.027782   0.487191   0.017225   0.101665
     3  C    0.074089   0.005658   0.117661  -0.313442  -0.188058   0.092063
     4  C    0.109043  -0.016339   0.032846   1.384751  -0.223885   0.041325
     5  H    0.000149  -0.002011  -0.000084   0.017360   0.009309   0.006288
     6  H   -0.002951  -0.000093  -0.002865  -0.015396  -0.001063  -0.011628
     7  C   -0.009338   0.007494   0.070883   0.098430   0.208421  -0.082651
     8  H    0.000070  -0.001603  -0.001284   0.002033  -0.006306   0.000511
     9  H   -0.000081  -0.001299  -0.001061   0.002148   0.035565  -0.004619
    10  C    0.051448   0.000530  -0.040206  -0.027314  -0.070362   0.013537
    11  H   -0.002288  -0.002092   0.000022  -0.000346  -0.000165  -0.000220
    12  C    0.132548   0.027807   0.149933  -0.055891   0.076510  -0.070382
    13  H    0.528258  -0.000098  -0.003255  -0.000576   0.000401   0.002013
    14  H   -0.000098   0.539238  -0.000094  -0.009377  -0.012400  -0.003029
    15  H   -0.003255  -0.000094   0.532125   0.001058   0.001326  -0.000572
    16  N   -0.000576  -0.009377   0.001058  10.592723  -1.907816   0.068889
    17  N    0.000401  -0.012400   0.001326  -1.907816   8.956924   0.113830
    18  C    0.002013  -0.003029  -0.000572   0.068889   0.113830   5.168149
    19  C    0.000126  -0.003081   0.000442  -0.059591   0.073073  -0.103585
    20  O    0.000001   0.000634  -0.000008  -0.130619  -0.025611  -0.030321
    21  O   -0.000045  -0.000045   0.001182  -0.127142   0.035066   0.599158
    22  O    0.000009  -0.000831  -0.000011  -0.119315  -0.143424  -0.021411
    23  O   -0.000144  -0.000045  -0.000358   0.028668  -0.155819   0.241999
    24  C   -0.000120   0.000046  -0.000636   0.096458  -0.070548  -0.202766
    25  H    0.000000   0.000000   0.000000   0.000098  -0.001316   0.006319
    26  H    0.000000   0.000000   0.000001  -0.001387  -0.000208  -0.007439
    27  H    0.000001   0.000000  -0.000032   0.003851  -0.003211  -0.024565
    28  C   -0.000019   0.001273  -0.000013   0.006181  -0.019018  -0.006570
    29  H    0.000000  -0.000004   0.000000  -0.000297  -0.001642   0.000010
    30  H    0.000000   0.000047   0.000000   0.000948  -0.000185  -0.000063
    31  H    0.000000  -0.000007   0.000000  -0.001537  -0.003743  -0.000255
              19         20         21         22         23         24
     1  C   -0.732603   0.114562   0.028875   0.166588   0.047338  -0.064701
     2  C    0.129395  -0.041378   0.011636  -0.104006   0.037047   0.001576
     3  C   -0.073541   0.002601   0.004463   0.003654  -0.023138  -0.018320
     4  C    0.046451   0.023355  -0.052232   0.017870  -0.057807   0.084663
     5  H    0.008239  -0.000630  -0.000239  -0.009827  -0.002414  -0.000589
     6  H   -0.002248   0.000010  -0.000197   0.000231   0.007375   0.002933
     7  C    0.078985   0.003985  -0.029687  -0.007853  -0.019610   0.005819
     8  H   -0.001005   0.000023  -0.000021   0.000274   0.000047  -0.000094
     9  H    0.017704  -0.000304   0.000575  -0.000248  -0.000012  -0.000204
    10  C   -0.136062   0.007121  -0.007138   0.036756  -0.019141   0.003605
    11  H    0.000496  -0.000005   0.000003   0.000029   0.000006   0.000008
    12  C    0.090983  -0.006156   0.012790  -0.010680   0.067054  -0.022050
    13  H    0.000126   0.000001  -0.000045   0.000009  -0.000144  -0.000120
    14  H   -0.003081   0.000634  -0.000045  -0.000831  -0.000045   0.000046
    15  H    0.000442  -0.000008   0.001182  -0.000011  -0.000358  -0.000636
    16  N   -0.059591  -0.130619  -0.127142  -0.119315   0.028668   0.096458
    17  N    0.073073  -0.025611   0.035066  -0.143424  -0.155819  -0.070548
    18  C   -0.103585  -0.030321   0.599158  -0.021411   0.241999  -0.202766
    19  C    5.300497   0.450089   0.003366   0.323668  -0.043171  -0.002973
    20  O    0.450089   8.280677   0.000413  -0.112092  -0.004671  -0.000173
    21  O    0.003366   0.000413   8.179467   0.000463  -0.172724  -0.049932
    22  O    0.323668  -0.112092   0.000463   8.332441  -0.008726  -0.001634
    23  O   -0.043171  -0.004671  -0.172724  -0.008726   8.472745   0.046186
    24  C   -0.002973  -0.000173  -0.049932  -0.001634   0.046186   5.068951
    25  H   -0.000022  -0.000003   0.000215  -0.000003  -0.057236   0.410617
    26  H   -0.000105   0.000002   0.004933  -0.000002  -0.040336   0.409984
    27  H   -0.000282   0.000000   0.001009  -0.000002  -0.037397   0.427520
    28  C   -0.104397  -0.036952  -0.000006   0.021833   0.000661  -0.000204
    29  H    0.016215  -0.000162   0.000000  -0.061060   0.000000  -0.000002
    30  H   -0.016014   0.004011   0.000000  -0.040296   0.000000  -0.000001
    31  H   -0.022734   0.004885   0.000000  -0.037667   0.000002   0.000007
              25         26         27         28         29         30
     1  C   -0.003142   0.000399  -0.002563   0.014047  -0.002097  -0.005629
     2  C   -0.000098   0.000204  -0.000174   0.012096   0.000585   0.001968
     3  C   -0.002246  -0.000307   0.005440   0.004935   0.000078  -0.000079
     4  C    0.007434  -0.002397   0.001206  -0.030743  -0.001805   0.001225
     5  H   -0.000001   0.000000   0.000000   0.000246  -0.000003   0.000000
     6  H   -0.000156  -0.000014   0.001034   0.000113   0.000000   0.000000
     7  C    0.000230  -0.000016  -0.000875  -0.008702  -0.000076   0.000229
     8  H    0.000000   0.000000   0.000000   0.000075   0.000000   0.000000
     9  H    0.000000   0.000000   0.000000  -0.000314   0.000000   0.000000
    10  C   -0.000184  -0.000100   0.000959   0.004378  -0.001853   0.000533
    11  H    0.000000   0.000000   0.000000  -0.000095   0.000000   0.000000
    12  C    0.002709   0.000421  -0.007897  -0.000459   0.000418  -0.000188
    13  H    0.000000   0.000000   0.000001  -0.000019   0.000000   0.000000
    14  H    0.000000   0.000000   0.000000   0.001273  -0.000004   0.000047
    15  H    0.000000   0.000001  -0.000032  -0.000013   0.000000   0.000000
    16  N    0.000098  -0.001387   0.003851   0.006181  -0.000297   0.000948
    17  N   -0.001316  -0.000208  -0.003211  -0.019018  -0.001642  -0.000185
    18  C    0.006319  -0.007439  -0.024565  -0.006570   0.000010  -0.000063
    19  C   -0.000022  -0.000105  -0.000282  -0.104397   0.016215  -0.016014
    20  O   -0.000003   0.000002   0.000000  -0.036952  -0.000162   0.004011
    21  O    0.000215   0.004933   0.001009  -0.000006   0.000000   0.000000
    22  O   -0.000003  -0.000002  -0.000002   0.021833  -0.061060  -0.040296
    23  O   -0.057236  -0.040336  -0.037397   0.000661   0.000000   0.000000
    24  C    0.410617   0.409984   0.427520  -0.000204  -0.000002  -0.000001
    25  H    0.524344  -0.025863  -0.027899  -0.000008   0.000000   0.000000
    26  H   -0.025863   0.524420  -0.032665   0.000001   0.000000   0.000000
    27  H   -0.027899  -0.032665   0.529312   0.000000   0.000000   0.000000
    28  C   -0.000008   0.000001   0.000000   5.052033   0.413790   0.418584
    29  H    0.000000   0.000000   0.000000   0.413790   0.516291  -0.026398
    30  H    0.000000   0.000000   0.000000   0.418584  -0.026398   0.519260
    31  H    0.000000   0.000000   0.000000   0.418508  -0.025809  -0.031367
              31
     1  C    0.009171
     2  C   -0.002292
     3  C    0.000030
     4  C   -0.000469
     5  H   -0.000031
     6  H    0.000000
     7  C   -0.000240
     8  H    0.000000
     9  H    0.000000
    10  C    0.000520
    11  H    0.000000
    12  C   -0.000113
    13  H    0.000000
    14  H   -0.000007
    15  H    0.000000
    16  N   -0.001537
    17  N   -0.003743
    18  C   -0.000255
    19  C   -0.022734
    20  O    0.004885
    21  O    0.000000
    22  O   -0.037667
    23  O    0.000002
    24  C    0.000007
    25  H    0.000000
    26  H    0.000000
    27  H    0.000000
    28  C    0.418508
    29  H   -0.025809
    30  H   -0.031367
    31  H    0.518954
          Atomic-Atomic Spin Densities.
               1          2          3          4          5          6
     1  C    1.096681  -0.251297   0.995649  -1.074034   0.020779   0.018522
     2  C   -0.251297   0.023191  -0.306688   0.314130  -0.005639  -0.003495
     3  C    0.995649  -0.306688   1.269325  -1.163288   0.003299   0.017896
     4  C   -1.074034   0.314130  -1.163288   1.195444  -0.009592  -0.022059
     5  H    0.020779  -0.005639   0.003299  -0.009592   0.003641  -0.000090
     6  H    0.018522  -0.003495   0.017896  -0.022059  -0.000090   0.000630
     7  C   -0.386218   0.136923  -0.322697   0.348778  -0.002577  -0.003327
     8  H   -0.000434   0.000536  -0.002542   0.001010  -0.000009   0.000005
     9  H   -0.023672  -0.000387  -0.019975   0.020728   0.000000  -0.000034
    10  C    0.392399  -0.243187   0.118196  -0.356700   0.007382   0.003113
    11  H   -0.021765   0.007873  -0.016668   0.018996  -0.000092  -0.000001
    12  C   -0.386577   0.146378  -0.225741   0.468719  -0.001164  -0.011279
    13  H   -0.001678   0.000485  -0.011579   0.002895   0.000005  -0.000102
    14  H   -0.014385   0.011449  -0.005935   0.008817  -0.000026  -0.000003
    15  H   -0.020334   0.002598  -0.038858   0.032311  -0.000002  -0.000276
    16  N   -0.197073   0.003181  -0.107833   0.147121  -0.001363  -0.002003
    17  N    0.001512   0.043803  -0.035009   0.005677  -0.006813   0.001685
    18  C    0.048200  -0.004615   0.010977  -0.034622   0.000025   0.000542
    19  C   -0.100536   0.027601  -0.061043   0.083384  -0.003757  -0.000609
    20  O   -0.001099  -0.000486  -0.000760   0.001030  -0.000053   0.000000
    21  O   -0.018036   0.001278   0.000261   0.013348   0.000074  -0.000621
    22  O   -0.008403   0.001461  -0.006253   0.011099  -0.000849   0.000003
    23  O    0.016477  -0.002222   0.008262  -0.015132   0.000666   0.000014
    24  C    0.003681  -0.000599   0.005153  -0.004436   0.000087   0.000178
    25  H   -0.000005  -0.000008  -0.000030  -0.000144  -0.000001   0.000025
    26  H   -0.000666   0.000037  -0.000294   0.001074   0.000000  -0.000016
    27  H    0.000501  -0.000068   0.000562  -0.001091  -0.000001   0.000114
    28  C   -0.010264   0.002251  -0.001001   0.003042  -0.000146  -0.000005
    29  H   -0.000207   0.000067  -0.000009   0.000021   0.000000   0.000000
    30  H   -0.000024  -0.000025   0.000013  -0.000003   0.000004   0.000000
    31  H    0.000045   0.000024  -0.000010  -0.000003  -0.000009   0.000000
               7          8          9         10         11         12
     1  C   -0.386218  -0.000434  -0.023672   0.392399  -0.021765  -0.386577
     2  C    0.136923   0.000536  -0.000387  -0.243187   0.007873   0.146378
     3  C   -0.322697  -0.002542  -0.019975   0.118196  -0.016668  -0.225741
     4  C    0.348778   0.001010   0.020728  -0.356700   0.018996   0.468719
     5  H   -0.002577  -0.000009   0.000000   0.007382  -0.000092  -0.001164
     6  H   -0.003327   0.000005  -0.000034   0.003113  -0.000001  -0.011279
     7  C    0.152495   0.000131   0.016249  -0.063514   0.003412   0.054903
     8  H    0.000131   0.000679  -0.000030   0.001807   0.000060  -0.000783
     9  H    0.016249  -0.000030   0.000980  -0.003132   0.000030   0.005699
    10  C   -0.063514   0.001807  -0.003132   1.473928   0.012549  -0.144454
    11  H    0.003412   0.000060   0.000030   0.012549  -0.032460  -0.010885
    12  C    0.054903  -0.000783   0.005699  -0.144454  -0.010885  -0.119201
    13  H    0.002093   0.000000   0.000000  -0.004018   0.000258   0.012366
    14  H    0.002246   0.000052   0.000145  -0.007749   0.000449   0.000288
    15  H    0.012030   0.000099   0.000316   0.001815   0.000028   0.005178
    16  N    0.068933   0.000737   0.003530  -0.033908   0.000296   0.033026
    17  N   -0.004148  -0.000845  -0.001996  -0.042538   0.000681   0.019881
    18  C   -0.006818  -0.000110  -0.000711   0.001737  -0.000058   0.000755
    19  C    0.031364   0.000190   0.002093  -0.030643   0.000528   0.016151
    20  O    0.001021   0.000011  -0.000042  -0.000210   0.000002  -0.000188
    21  O   -0.001867  -0.000046   0.000194  -0.000074  -0.000001   0.003676
    22  O    0.005247   0.000065   0.000023  -0.001716   0.000131  -0.001782
    23  O   -0.002583  -0.000009  -0.000102   0.000443  -0.000005   0.000580
    24  C   -0.001533  -0.000002  -0.000005   0.000384  -0.000004   0.000004
    25  H    0.000034   0.000000   0.000000  -0.000012   0.000000  -0.000097
    26  H    0.000025   0.000000   0.000000  -0.000013   0.000000   0.000183
    27  H    0.000000   0.000000   0.000000   0.000019   0.000000  -0.000471
    28  C    0.001060   0.000006   0.000016  -0.001721   0.000038  -0.000237
    29  H    0.000004   0.000000   0.000000  -0.000047   0.000000   0.000001
    30  H   -0.000041   0.000000   0.000000  -0.000010   0.000000   0.000012
    31  H    0.000026   0.000000   0.000000   0.000002   0.000000  -0.000012
              13         14         15         16         17         18
     1  C   -0.001678  -0.014385  -0.020334  -0.197073   0.001512   0.048200
     2  C    0.000485   0.011449   0.002598   0.003181   0.043803  -0.004615
     3  C   -0.011579  -0.005935  -0.038858  -0.107833  -0.035009   0.010977
     4  C    0.002895   0.008817   0.032311   0.147121   0.005677  -0.034622
     5  H    0.000005  -0.000026  -0.000002  -0.001363  -0.006813   0.000025
     6  H   -0.000102  -0.000003  -0.000276  -0.002003   0.001685   0.000542
     7  C    0.002093   0.002246   0.012030   0.068933  -0.004148  -0.006818
     8  H    0.000000   0.000052   0.000099   0.000737  -0.000845  -0.000110
     9  H    0.000000   0.000145   0.000316   0.003530  -0.001996  -0.000711
    10  C   -0.004018  -0.007749   0.001815  -0.033908  -0.042538   0.001737
    11  H    0.000258   0.000449   0.000028   0.000296   0.000681  -0.000058
    12  C    0.012366   0.000288   0.005178   0.033026   0.019881   0.000755
    13  H    0.000971   0.000004   0.000159   0.000023  -0.000007  -0.000033
    14  H    0.000004   0.000540   0.000005   0.000749   0.002119  -0.000007
    15  H    0.000159   0.000005   0.002125   0.001481   0.000382  -0.000110
    16  N    0.000023   0.000749   0.001481   0.872700  -0.201499  -0.010208
    17  N   -0.000007   0.002119   0.000382  -0.201499   0.465202  -0.009457
    18  C   -0.000033  -0.000007  -0.000110  -0.010208  -0.009457   0.017074
    19  C    0.000020   0.001655   0.000575   0.047457   0.000248  -0.010078
    20  O    0.000000   0.000004   0.000001   0.008944  -0.012929  -0.000646
    21  O    0.000004   0.000004  -0.000167  -0.018849   0.001017   0.005298
    22  O    0.000000   0.000460   0.000010   0.004875  -0.013673  -0.001328
    23  O   -0.000004   0.000001  -0.000269  -0.020401   0.010232  -0.015179
    24  C   -0.000026  -0.000002  -0.000118   0.001075  -0.002209  -0.000614
    25  H    0.000000   0.000000   0.000000  -0.000202   0.000413  -0.000371
    26  H    0.000000   0.000000   0.000000   0.000703  -0.000631  -0.000061
    27  H    0.000000   0.000000  -0.000001  -0.000362   0.000520   0.000409
    28  C    0.000001   0.000026   0.000001   0.002262   0.001844  -0.000159
    29  H    0.000000   0.000001   0.000000   0.000008   0.000022   0.000000
    30  H    0.000000   0.000000   0.000000  -0.000080   0.000927   0.000017
    31  H    0.000000   0.000000   0.000000   0.000002  -0.000671  -0.000027
              19         20         21         22         23         24
     1  C   -0.100536  -0.001099  -0.018036  -0.008403   0.016477   0.003681
     2  C    0.027601  -0.000486   0.001278   0.001461  -0.002222  -0.000599
     3  C   -0.061043  -0.000760   0.000261  -0.006253   0.008262   0.005153
     4  C    0.083384   0.001030   0.013348   0.011099  -0.015132  -0.004436
     5  H   -0.003757  -0.000053   0.000074  -0.000849   0.000666   0.000087
     6  H   -0.000609   0.000000  -0.000621   0.000003   0.000014   0.000178
     7  C    0.031364   0.001021  -0.001867   0.005247  -0.002583  -0.001533
     8  H    0.000190   0.000011  -0.000046   0.000065  -0.000009  -0.000002
     9  H    0.002093  -0.000042   0.000194   0.000023  -0.000102  -0.000005
    10  C   -0.030643  -0.000210  -0.000074  -0.001716   0.000443   0.000384
    11  H    0.000528   0.000002  -0.000001   0.000131  -0.000005  -0.000004
    12  C    0.016151  -0.000188   0.003676  -0.001782   0.000580   0.000004
    13  H    0.000020   0.000000   0.000004   0.000000  -0.000004  -0.000026
    14  H    0.001655   0.000004   0.000004   0.000460   0.000001  -0.000002
    15  H    0.000575   0.000001  -0.000167   0.000010  -0.000269  -0.000118
    16  N    0.047457   0.008944  -0.018849   0.004875  -0.020401   0.001075
    17  N    0.000248  -0.012929   0.001017  -0.013673   0.010232  -0.002209
    18  C   -0.010078  -0.000646   0.005298  -0.001328  -0.015179  -0.000614
    19  C    0.005641  -0.010124   0.000490   0.001224   0.000588  -0.000279
    20  O   -0.010124   0.060485  -0.000086   0.005077   0.000095   0.000056
    21  O    0.000490  -0.000086   0.055484  -0.000155  -0.001079   0.000013
    22  O    0.001224   0.005077  -0.000155   0.029909  -0.000114  -0.000047
    23  O    0.000588   0.000095  -0.001079  -0.000114   0.046060  -0.003817
    24  C   -0.000279   0.000056   0.000013  -0.000047  -0.003817   0.005702
    25  H    0.000033  -0.000001  -0.000027   0.000001   0.000687  -0.000483
    26  H    0.000018   0.000001  -0.000230  -0.000001  -0.002374   0.001768
    27  H   -0.000002   0.000000  -0.000213   0.000001   0.000880  -0.000527
    28  C    0.003456  -0.000971  -0.000031  -0.002001   0.000076   0.000002
    29  H    0.000182   0.000011   0.000000  -0.000028   0.000000   0.000000
    30  H   -0.000062  -0.000426   0.000000  -0.000515   0.000001   0.000000
    31  H    0.000465  -0.000395   0.000000  -0.000604  -0.000003  -0.000001
              25         26         27         28         29         30
     1  C   -0.000005  -0.000666   0.000501  -0.010264  -0.000207  -0.000024
     2  C   -0.000008   0.000037  -0.000068   0.002251   0.000067  -0.000025
     3  C   -0.000030  -0.000294   0.000562  -0.001001  -0.000009   0.000013
     4  C   -0.000144   0.001074  -0.001091   0.003042   0.000021  -0.000003
     5  H   -0.000001   0.000000  -0.000001  -0.000146   0.000000   0.000004
     6  H    0.000025  -0.000016   0.000114  -0.000005   0.000000   0.000000
     7  C    0.000034   0.000025   0.000000   0.001060   0.000004  -0.000041
     8  H    0.000000   0.000000   0.000000   0.000006   0.000000   0.000000
     9  H    0.000000   0.000000   0.000000   0.000016   0.000000   0.000000
    10  C   -0.000012  -0.000013   0.000019  -0.001721  -0.000047  -0.000010
    11  H    0.000000   0.000000   0.000000   0.000038   0.000000   0.000000
    12  C   -0.000097   0.000183  -0.000471  -0.000237   0.000001   0.000012
    13  H    0.000000   0.000000   0.000000   0.000001   0.000000   0.000000
    14  H    0.000000   0.000000   0.000000   0.000026   0.000001   0.000000
    15  H    0.000000   0.000000  -0.000001   0.000001   0.000000   0.000000
    16  N   -0.000202   0.000703  -0.000362   0.002262   0.000008  -0.000080
    17  N    0.000413  -0.000631   0.000520   0.001844   0.000022   0.000927
    18  C   -0.000371  -0.000061   0.000409  -0.000159   0.000000   0.000017
    19  C    0.000033   0.000018  -0.000002   0.003456   0.000182  -0.000062
    20  O   -0.000001   0.000001   0.000000  -0.000971   0.000011  -0.000426
    21  O   -0.000027  -0.000230  -0.000213  -0.000031   0.000000   0.000000
[...]
 4,0.00001144,0.00001385,-0.00001538,-0.00002554,-0.00002089,0.00000031
 ,-0.00001390,0.00000570,-0.00002794,-0.00002034,0.00002927,0.00000117,
 -0.00001353,-0.00000104,-0.00000503,-0.00000075,-0.00000422,0.00000156
 ,-0.00000172,-0.00000353,-0.00046725,-0.00003369,-0.00072339,-0.000278
 37,0.00001199,0.00006004,-0.00031564,0.00061376,0.00309098,0.00054520,
 -0.00022193,0.00004327,-0.00015798,0.00014920,-0.00007250,-0.00044196,
 -0.00027811,-0.00048301,-0.00020879,-0.00004319,0.00008228,-0.00449846
 ,-0.00321223,-0.01111991,0.02631253,-0.05919394,-0.31515228,-0.0232823
 1,0.06607065,0.33683919,0.00009546,0.00031926,-0.00002514,0.00004589,0
 .00001576,0.00005653,0.00001847,0.00010117,0.00002896,-0.00001570,-0.0
 0029905,0.00003229,0.00001493,-0.00004838,0.00001397,-0.00019197,0.000
 00705,-0.00006692,0.00000271,-0.00000110,-0.00001796,-0.00000019,-0.00
 001564,-0.00000672,0.00000351,0.00001216,0.00001976,0.00001149,-0.0000
 3310,-0.00000786,-0.00000911,-0.00001464,0.00000219,-0.00005025,-0.000
 03238,0.00004390,0.00000105,-0.00002431,-0.00000762,-0.00000657,-0.000
 00183,-0.00000596,-0.00000201,-0.00001362,-0.00001270,-0.00113805,0.00
 066337,-0.00090099,0.00015046,0.00001545,-0.00026667,0.00000112,0.0004
 8314,0.00862958,0.00062024,-0.00023191,0.00000622,-0.00022051,0.000170
 21,-0.00005205,0.00158529,-0.00017869,-0.00218674,-0.00025361,-0.00004
 949,0.00009964,-0.02963223,-0.02872238,0.00577430,-0.08267458,-0.07184
 614,0.04995493,0.00081791,-0.00140099,0.00188143,0.10146664,0.00002815
 ,-0.00001658,-0.00006144,-0.00001917,0.00002454,0.00000828,-0.00001889
 ,0.00004267,0.00000946,0.00002786,0.00009228,0.00006899,0.00000630,-0.
 00000519,0.00000416,0.00019411,0.00023486,-0.00006372,0.00000359,-0.00
 002080,-0.00000251,-0.00000732,-0.00000485,-0.00000770,0.00000144,0.00
 000735,0.00000118,0.00001138,-0.00000959,-0.00000429,-0.00000649,-0.00
 000759,-0.00000267,-0.00003154,-0.00000347,0.00000949,-0.00000042,-0.0
 0000844,0.00000016,-0.00000539,-0.00000980,-0.00000794,-0.00000112,-0.
 00000227,-0.00000433,-0.00039161,-0.00021822,-0.00030824,0.00004433,-0
 .00002572,-0.00014327,-0.00145034,0.00090744,0.00370330,0.00016491,-0.
 00003444,0.00002085,-0.00005762,0.00004119,-0.00001976,0.00186250,0.00
 033733,-0.00027567,-0.00005951,-0.00000525,0.00002432,-0.00685271,-0.0
 0045067,-0.00376167,-0.07678859,-0.21147027,0.10851084,0.00442695,0.00
 789841,-0.00428576,0.08841317,0.22066199,0.00003528,0.00004137,0.00003
 951,-0.00000060,0.00002493,0.00001234,0.00000220,0.00003665,0.00000322
 ,-0.00004943,-0.00002958,0.00000906,0.00001570,-0.00002764,0.00000792,
 0.00004422,-0.00001266,-0.00002366,-0.00000093,0.00000190,-0.00000543,
 0.00000150,-0.00000355,-0.00000262,-0.00000083,0.00000424,0.00000571,0
 .00000330,-0.00000465,-0.00000626,-0.00000201,-0.00000420,0.00000278,0
 .00000491,-0.00000709,0.00002472,0.00000115,-0.00000968,-0.00000465,-0
 .00000267,-0.00000523,-0.00000393,0.00000314,-0.00000534,-0.00000433,-
 0.00024444,0.00100878,-0.00066202,0.00014698,0.00003722,0.00005431,-0.
 00203191,-0.00195075,0.00256808,0.00020526,-0.00008666,-0.00005093,-0.
 00006892,0.00005343,-0.00000852,0.00023061,-0.00002148,-0.00029197,-0.
 00006889,-0.00002314,0.00003114,-0.00810920,-0.01292062,0.00638364,0.0
 5551335,0.11307785,-0.12650659,0.01030575,0.02372575,-0.01179806,-0.05
 441346,-0.11782456,0.12699718,-0.00012005,0.00037224,-0.00010943,0.000
 14235,-0.00003245,0.00014920,0.00005525,-0.00001152,-0.00000391,-0.000
 15095,-0.00014854,-0.00018408,0.00003975,-0.00005300,0.00002592,-0.000
 71670,-0.00038063,0.00024315,-0.00001715,0.00004103,-0.00000620,0.0000
 2451,-0.00001333,0.00000671,0.00000101,0.00000544,0.00002803,-0.000061
 19,0.00000021,-0.00004240,0.00002676,-0.00001251,0.00002190,0.00012280
 ,-0.00001781,0.00003972,0.00000504,-0.00000682,-0.00001152,0.00000540,
 0.00001714,0.00000959,0.00000382,-0.00000296,0.00001023,-0.00097014,-0
 .00085594,-0.00077101,-0.00052593,0.00009600,-0.00007267,0.00003918,0.
 00321648,0.00816692,0.00094380,-0.00038066,0.00009404,-0.00022581,0.00
 024987,-0.00013054,0.00166562,-0.00040126,-0.00186786,-0.00031506,-0.0
 0008099,0.00012379,-0.03439279,0.02093108,-0.00665974,-0.12002308,0.11
 443690,0.02017089,0.00091398,0.00172250,0.00092074,0.00932259,-0.00950
 530,-0.00153348,0.14416499,-0.00006429,-0.00001031,-0.00001640,-0.0000
 0377,0.00002547,0.00001142,-0.00000021,-0.00007876,-0.00002362,-0.0001
 7395,0.00028423,-0.00018940,0.00002599,-0.00001118,0.00001135,0.000178
 71,0.00003248,0.00010457,-0.00001002,0.00001438,0.00000695,0.00001016,
 0.00000142,0.00000444,0.00000003,-0.00000316,0.00000366,-0.00002902,0.
 00003811,-0.00000303,0.00002152,-0.00000138,0.00000460,0.00014676,0.00
 000629,0.00002295,0.00000357,0.00000664,-0.00000384,0.00000355,-0.0000
 0269,0.00000384,-0.00000676,0.00002211,0.00002434,-0.00025684,-0.00046
 903,0.00025768,-0.00020089,-0.00008596,0.00000854,0.00061695,0.0011810
 8,-0.00173516,0.00004636,-0.00003224,0.00001775,0.00000660,0.00001066,
 -0.00000829,-0.00122621,-0.00003776,-0.00005732,-0.00000605,-0.0000014
 2,0.00000039,-0.00488083,0.01185039,0.00235599,0.12074399,-0.24267639,
 -0.03211596,0.00149850,-0.00336634,0.00043063,0.01272586,-0.01795167,-
 0.00507404,-0.12916838,0.25125635,-0.00005200,0.00002521,-0.00007219,0
 .00001267,0.00000541,0.00003876,-0.00000539,-0.00000770,-0.00001797,0.
 00003593,0.00007206,0.00003717,0.00001570,-0.00001914,0.00000889,0.000
 07785,-0.00001815,0.00014468,-0.00000298,0.00000031,0.00000267,0.00000
 209,-0.00000536,-0.00000454,-0.00000338,0.00000479,0.00000482,-0.00000
 701,-0.00000204,-0.00001989,0.00000311,-0.00000869,0.00000582,0.000004
 62,-0.00001040,-0.00000864,0.00000107,-0.00000486,-0.00000050,-0.00000
 414,-0.00000573,-0.00000446,-0.00000004,0.00000518,-0.00000015,-0.0003
 5376,-0.00059910,-0.00027151,-0.00027393,0.00000800,0.00009924,-0.0022
 7228,0.00208338,0.00246622,0.00037903,-0.00014899,0.00005773,-0.000082
 79,0.00010808,-0.00006393,0.00118907,0.00001642,-0.00000060,-0.0001167
 3,-0.00002778,0.00003993,-0.01097547,0.00909698,-0.00075863,0.02360269
 ,-0.03563789,-0.05718099,0.01600406,-0.02529618,-0.00071820,-0.0085767
 9,0.01441343,0.00322845,-0.01861858,0.03595906,0.05299170,-0.00034590,
 0.00126577,-0.00108091,-0.00016010,-0.00011264,0.00024986,0.00025264,0
 .00016575,-0.00006070,-0.00014963,-0.00028443,-0.00031973,-0.00034636,
 0.00010524,-0.00048624,0.00018488,-0.00003810,-0.00006813,0.00006430,-
 0.00014752,0.00012198,0.00008120,-0.00014467,-0.00008590,-0.00000424,0
 .00004754,0.00011361,0.00002249,0.00010619,-0.00021965,0.00006410,-0.0
 0017716,0.00002098,0.00014275,-0.00014721,0.00028873,0.00008177,-0.000
 09537,-0.00002310,0.00030935,0.00063648,0.00037021,0.00008839,-0.00008
 196,-0.00002971,0.00282978,-0.00057530,0.00054776,0.00771667,-0.001136
 37,0.00052089,-0.00381237,-0.00032965,-0.00116248,-0.05771803,-0.01525
 760,0.02417231,0.00242433,0.01316027,-0.01139457,0.00188044,0.00026762
 ,-0.00051979,-0.16039990,0.02937398,0.00100690,0.00107602,0.00040587,0
 .00116746,-0.00048450,-0.00015686,-0.00015952,0.00008363,0.00001378,0.
 00006640,0.00008058,0.00002281,0.00002604,0.00009819,-0.00000099,0.000
 03925,0.43095826,0.00000739,-0.00076605,0.00073401,0.00004554,0.000012
 40,-0.00004995,0.00005868,-0.00005604,-0.00004082,0.00007332,0.0002752
 5,-0.00010299,0.00022676,-0.00017107,-0.00019235,0.00000595,-0.0000139
 1,0.00000514,0.00000751,-0.00002749,0.00000055,-0.00000284,0.00001955,
 -0.00000135,-0.00000106,-0.00001294,-0.00003473,0.00003513,0.00003250,
 -0.00001071,-0.00001400,0.00002799,-0.00000338,-0.00008588,0.00003990,
 -0.00004306,-0.00000149,0.00003169,0.00001319,0.00009819,-0.00007986,-
 0.00000608,-0.00000412,-0.00000435,-0.00000156,-0.00229392,0.00067977,
 0.00057086,-0.00288297,-0.00092547,0.00433606,0.00104404,0.00000449,0.
 00027556,-0.01972847,0.00933344,-0.00397925,-0.00345344,-0.00347797,0.
 00061516,-0.00057663,-0.00006153,0.00017448,0.05126239,-0.08756152,0.0
 0866688,-0.00033235,-0.00011457,-0.00028566,0.00012945,0.00003178,0.00
 002459,-0.00002757,-0.00000474,-0.00001825,-0.00002340,-0.00000601,-0.
 00000456,-0.00002660,-0.00000134,-0.00001029,0.06217894,0.59888736,-0.
 00030115,0.00033236,-0.00063362,-0.00004544,-0.00013438,-0.00010595,-0
 .00014110,-0.00002203,0.00000426,-0.00004476,-0.00001220,0.00035019,0.
 00002062,-0.00017110,0.00047326,-0.00002485,0.00001583,-0.00000541,-0.
 00000607,0.00002722,-0.00000271,-0.00001080,0.00000534,0.00001862,-0.0
 0000284,-0.00001170,0.00000248,0.00001317,0.00001387,-0.00001940,-0.00
 000738,0.00002015,0.00000726,0.00003699,-0.00003518,-0.00004109,-0.000
 00439,0.00001457,0.00000277,0.00007384,-0.00010963,-0.00003488,-0.0000
 0247,0.00004576,0.00001971,0.00094962,0.00053351,0.00126917,0.00115243
 ,0.00423794,0.00004588,0.00036643,-0.00017811,-0.00041270,0.02785778,-
 0.00542899,-0.00459385,0.00137551,-0.00327003,-0.00164974,0.00017802,0
 .00002069,-0.00000364,-0.01558339,0.01387317,-0.06738655,-0.00008288,-
 0.00001515,-0.00000092,0.00000622,0.00002130,-0.00000643,-0.00000326,0
 .00000177,-0.00000139,0.00000223,-0.00000102,-0.00000031,-0.00000451,-
 0.00000169,-0.00000629,-0.00885620,-0.01575354,0.61117926,0.00007142,-
 0.00034673,0.00026817,-0.00000298,0.00000120,-0.00006975,-0.00000258,-
 0.00003431,-0.00000767,0.00004095,0.00007650,-0.00000320,0.00004517,0.
 00000262,0.00000250,-0.00001730,0.00000040,0.00001125,0.00000448,0.000
 00197,0.00000526,-0.00000792,0.00002003,0.00000510,0.00000092,-0.00000
 536,-0.00002526,0.00001096,0.00000903,0.00002203,-0.00000817,0.0000212
 0,-0.00000343,-0.00002384,0.00002292,-0.00003650,-0.00000583,0.0000158
 1,0.00000491,-0.00000935,-0.00005079,-0.00001802,-0.00000702,0.0000069
 7,0.00000301,-0.00099559,0.00017160,-0.00020454,-0.00101448,-0.0010582
 9,0.00112733,0.00068139,0.00009600,0.00030374,-0.00339635,0.00551564,-
 0.00327013,0.00131874,-0.00107874,0.00061296,-0.00039844,-0.00005940,0
 .00010034,-0.03211161,-0.02041036,0.02304306,-0.00019845,-0.00007351,-
 0.00021051,0.00008596,0.00002577,0.00002265,-0.00001602,-0.00000258,-0
 .00001225,-0.00001413,-0.00000327,-0.00000349,-0.00001812,-0.00000016,
 -0.00000612,-0.10073265,-0.07954538,0.07162264,0.12571288,-0.00003063,
 0.00005573,-0.00004830,-0.00001089,0.00000380,0.00001073,-0.00001072,0
 .00000117,0.00000449,-0.00000196,-0.00000521,0.00001546,-0.00001846,0.
 00000400,0.00002752,-0.00000188,0.00000076,0.00000002,-0.00000360,0.00
 000526,-0.00000366,-0.00000149,0.00000001,0.00000172,0.00000033,-0.000
 00027,0.00000158,-0.00000585,-0.00000463,0.00000294,-0.00000070,0.0000
 0105,0.00000022,0.00000233,0.00000012,-0.00000415,-0.00000138,-0.00000
 006,-0.00000009,-0.00001068,-0.00000947,-0.00000849,-0.00000145,0.0000
 0248,0.00000042,0.00016881,0.00002102,0.00007167,0.00027334,0.00052058
 ,-0.00034094,0.00002833,-0.00000419,-0.00006105,0.00320644,-0.00149610
 ,0.00043650,-0.00131096,0.00084715,0.00000425,0.00003297,0.00000440,-0
 .00000122,0.01081901,0.00860401,-0.00879792,-0.00000454,-0.00000024,-0
 .00000168,-0.00000028,-0.00000101,-0.00000085,-0.00000042,-0.00000005,
 0.00000018,0.00000025,-0.00000033,-0.00000001,0.00000012,0.00000005,-0
 .00000022,-0.09098362,-0.17512655,0.11422196,0.08854644,0.17832116,0.0
 0001529,0.00004687,-0.00002138,0.00000037,0.00000339,0.00001395,0.0000
 0965,0.00000845,0.00000136,-0.00000686,-0.00001970,-0.00001927,0.00000
 238,-0.00000046,-0.00003119,0.00000434,0.00000043,-0.00000265,0.000000
 68,-0.00000408,-0.00000167,0.00000102,-0.00000409,-0.00000234,-0.00000
 021,0.00000257,0.00000396,0.00000098,-0.00000097,-0.00000272,0.0000015
 9,-0.00000529,0.00000003,0.00000246,-0.00000362,0.00001185,0.00000117,
 -0.00000426,-0.00000120,0.00000638,0.00000766,-0.00000022,0.00000166,-
 0.00000465,-0.00000233,0.00007363,-0.00003672,0.00009193,0.00013181,0.
 00004080,0.00018565,-0.00014534,-0.00004970,-0.00006716,-0.00166078,-0
 .00007741,0.00059157,0.00077435,-0.00006798,0.00030042,0.00007624,0.00
 001481,-0.00001897,-0.00069276,-0.00147840,0.00161712,0.00003183,0.000
 01467,0.00004367,-0.00001811,-0.00000428,-0.00000765,0.00000219,0.0000
 0062,0.00000231,0.00000331,0.00000068,0.00000142,0.00000337,0.00000008
 ,0.00000105,0.08032142,0.11155770,-0.15619571,-0.08574406,-0.12089131,
 0.15825660,0.00009841,-0.00028421,0.00005581,-0.00003202,-0.00004567,-
 0.00010211,-0.00005816,-0.00004522,-0.00000032,0.00001870,0.00004120,0
 .00013589,0.00006739,-0.00004961,0.00017819,-0.00002946,0.00000804,0.0
 0001028,0.00000393,0.00002189,0.00000295,-0.00001360,0.00002387,0.0000
 1564,-0.00000041,-0.00000973,-0.00002278,0.00001659,0.00000883,0.00002
 664,-0.00001129,0.00003000,-0.00000154,-0.00000240,0.00001243,-0.00005
 538,-0.00000834,0.00002015,0.00000493,-0.00002827,-0.00005264,-0.00004
 120,-0.00000947,0.00002507,0.00001144,-0.00044908,0.00027344,0.0001024
 1,-0.00102020,0.00051859,0.00075138,0.00078612,0.00001021,0.00018332,0
 .00335791,0.00528349,-0.00738658,0.00074268,-0.00211720,0.00163003,-0.
 00033025,-0.00004496,0.00008915,-0.03225870,0.00078977,-0.02734072,-0.
 00021672,-0.00007229,-0.00021290,0.00008847,0.00003542,0.00002381,-0.0
 0001656,-0.00000195,-0.00001249,-0.00001392,-0.00000392,-0.00000395,-0
 .00001961,-0.00000071,-0.00000873,-0.07632166,-0.00600838,-0.07895117,
 0.00803695,0.00194362,0.01360139,0.09457595,0.00001204,0.00010214,0.00
 000211,0.00002920,0.00002933,0.00002559,0.00002120,0.00001423,-0.00000
 091,-0.00001102,-0.00003652,-0.00004096,-0.00002268,0.00001427,-0.0000
 6002,0.00000896,-0.00000101,-0.00000317,-0.00000232,-0.00000796,-0.000
 00338,0.00000466,-0.00000726,-0.00000588,-0.00000089,0.00000509,0.0000
 0559,-0.00000885,-0.00001179,-0.00000159,0.00000372,-0.00001004,-0.000
 00017,0.00000026,-0.00000259,0.00001549,0.00000157,-0.00000792,-0.0000
 0279,0.00001115,0.00000004,0.00001042,0.00000286,-0.00000962,-0.000005
 19,0.00014030,-0.00007933,-0.00001806,0.00032905,-0.00022596,0.0000024
 4,-0.00021301,-0.00002121,-0.00004831,-0.00261981,0.00019197,0.0004856
 3,0.00099950,0.00030598,-0.00036556,0.00010083,0.00001037,-0.00003042,
 0.00980846,0.00045106,0.01011873,0.00005980,0.00002550,0.00005902,-0.0
 0002648,-0.00000645,-0.00000796,0.00000497,0.00000100,0.00000359,0.000
 00495,0.00000155,0.00000141,0.00000476,-0.00000005,0.00000179,-0.00679
 924,-0.05218289,-0.01598564,0.00776856,0.00288949,0.01904249,0.0007885
 2,0.04789388,0.00001396,-0.00003153,-0.00002122,0.00002570,0.00000708,
 -0.00000463,-0.00001523,0.00000553,0.00000293,0.00000725,-0.00000499,0
 .00001551,0.00001375,-0.00000590,0.00002997,-0.00000668,0.00000106,0.0
 0000212,-0.00000132,0.00000915,-0.00001200,-0.00000303,0.00000251,0.00
 000426,-0.00000028,-0.00000216,0.00000238,0.00000014,-0.00001304,0.000
 00883,-0.00000254,0.00000551,0.00000042,-0.00000637,0.00000059,-0.0000
 0099,-0.00000413,-0.00000039,-0.00000025,-0.00003036,-0.00000873,-0.00
 001420,-0.00000314,0.00000090,0.00000060,-0.00004408,-0.00006189,0.000
 02226,-0.00004245,-0.00050476,-0.00040447,-0.00004009,0.00001183,0.000
 00680,0.00166270,0.00200749,0.00015798,0.00065770,-0.00080855,0.000445
 97,-0.00001419,0.00000024,0.00000451,-0.00199137,0.00188862,0.00782146
 ,0.00000120,-0.00000223,0.00000595,0.00000326,-0.00000283,0.00000213,0
 .00000016,-0.00000042,-0.00000003,-0.00000127,-0.00000044,-0.00000018,
 0.00000109,0.00000043,0.00000080,-0.08829525,-0.01494084,-0.29530070,-
 0.00567488,-0.00297154,-0.01366214,0.09619758,0.01446522,0.30922026,0.
 00019983,-0.00025919,0.00013081,0.00004127,0.00005894,-0.00004223,-0.0
 0005837,-0.00002939,0.00001443,0.00002772,0.00000493,0.00006583,0.0000
 1532,0.00004672,0.00011620,-0.00003765,0.00000802,0.00001679,-0.000014
 18,0.00003360,-0.00002382,-0.00001562,0.00002820,0.00001577,0.00000112
 ,-0.00000762,-0.00002330,-0.00002135,-0.00002597,0.00005744,-0.0000108
 3,0.00003344,-0.00000458,-0.00001380,0.00002997,-0.00005538,-0.0000167
 5,0.00001237,0.00000135,-0.00009708,-0.00011835,-0.00007598,-0.0000181
 3,0.00001547,0.00000528,-0.00034488,0.00004279,-0.00043962,-0.00135020
 ,-0.00053525,-0.00048434,0.00071129,0.00010808,0.00033505,0.00410064,0
 .00732651,-0.00342374,0.00014616,-0.00199759,0.00132090,-0.00038982,-0
 .00006204,0.00008791,-0.02092543,0.03467334,0.01573941,-0.00018793,-0.
 00007699,-0.00022858,0.00009221,0.00003260,0.00003538,-0.00001460,-0.0
 0000289,-0.00001322,-0.00001552,-0.00000431,-0.00000518,-0.00001848,0.
 00000053,-0.00000700,-0.04796442,-0.00016478,0.00041715,0.00297098,-0.
 01262249,-0.00679940,0.00304702,-0.01040102,-0.00240782,0.06016146,-0.
 00006301,0.00007563,-0.00008045,-0.00001562,-0.00000006,0.00002108,0.0
 0003167,0.00001451,-0.00000961,-0.00001974,-0.00000501,-0.00002583,-0.
 00003191,0.00000968,-0.00006373,0.00002123,-0.00000793,-0.00000599,0.0
 0000738,-0.00001505,0.00002031,0.00000867,-0.00001015,-0.00000962,-0.0
 0000202,0.00000279,0.00000471,0.00000547,0.00001302,-0.00002177,0.0000
 0495,-0.00001463,0.00000328,0.00000946,-0.00001318,0.00002779,0.000008
 37,-0.00000815,-0.00000279,0.00002278,0.00007867,0.00004681,0.00000878
 ,-0.00000848,-0.00000259,0.00025772,0.00000299,0.00012038,0.00031777,-
 0.00020440,-0.00046731,-0.00020880,-0.00002590,-0.00009510,-0.00284305
 ,-0.00155580,0.00318068,-0.00046048,0.00118447,-0.00083243,0.00012072,
 0.00001453,-0.00003273,0.01094037,-0.00450966,-0.00194798,0.00005405,0
 .00002645,0.00006286,-0.00002857,-0.00000915,-0.00001164,0.00000467,0.
 00000085,0.00000384,0.00000525,0.00000156,0.00000189,0.00000490,0.,0.0
 0000243,0.00871844,-0.28878182,-0.09225504,0.00036624,-0.01463415,-0.0
 0808831,-0.00109808,0.00067469,0.00095409,-0.01614761,0.30770365,-0.00
 004340,0.00001385,-0.00000743,-0.00000564,0.00001516,-0.00000059,0.000
 00110,-0.00000255,-0.00000008,-0.00000213,0.00001414,-0.00001080,-0.00
 000629,0.00001656,0.00000078,-0.00000140,-0.00000012,0.,-0.00000086,-0
 .00000142,-0.00000091,0.00000055,-0.00000031,0.00000079,0.00000054,-0.
 00000054,0.00000176,-0.00000213,-0.00000318,-0.00000142,0.00000021,0.0
 0000063,-0.00000010,-0.00000291,0.00000274,-0.00000229,-0.00000074,0.0
 0000132,0.00000099,-0.00000832,0.00000422,-0.00000578,-0.00000050,0.00
 000038,0.00000067,0.00000083,0.00001602,-0.00000946,0.00001861,0.00018
 278,-0.00011936,-0.00000643,0.00000921,-0.00002254,0.00102360,-0.00237
 472,0.00132275,-0.00121333,0.00065548,-0.00008958,0.00000631,0.0000044
 6,0.00000309,0.00158619,0.00277119,0.00164225,0.00000004,-0.00000194,0
 .00000483,-0.00000075,-0.00000314,-0.00000032,0.00000015,-0.00000035,0
 .00000018,-0.00000038,-0.00000015,-0.00000002,0.00000063,0.00000009,0.
 00000056,0.00372809,-0.09149482,-0.08697159,-0.00186514,0.01833177,0.0
 0891372,0.00111902,-0.02765952,-0.00833434,-0.00432551,0.09950277,0.08
 368427\\0.00000210,0.00000895,-0.00000545,0.00000146,0.00000363,-0.000
 00128,-0.00000580,-0.00002198,0.00001676,0.00002009,0.00000651,-0.0000
 0114,0.00000144,0.00000209,0.00000054,-0.00000973,0.00000446,0.0000024
 0,-0.00000638,0.00001653,0.00002588,0.00000233,0.00000197,0.00000275,-
 0.00000719,0.00000236,-0.00000337,-0.00001386,-0.00002037,0.00001168,-
 0.00000109,0.00000026,0.00000925,0.00000942,0.00002539,-0.00002090,-0.
 00000607,-0.00000622,0.00000733,-0.00000639,0.00000620,0.00000452,-0.0
 0000573,-0.00000526,-0.00000152,-0.00001288,0.00003491,0.00001641,-0.0
 0005409,-0.00002202,0.00002175,0.00007110,-0.00002299,-0.00007649,0.00
 004623,-0.00011077,-0.00003020,-0.00001186,0.00005513,-0.00000093,-0.0
 0002472,0.00000252,0.00002861,-0.00001417,0.00004237,-0.00000265,0.000
 00627,0.00000905,0.00001691,-0.00002370,-0.00000468,-0.00004548,0.0000
 1269,0.00000250,0.00000269,-0.00000106,0.00000189,0.00000425,0.0000006
 2,-0.00000819,0.00000723,0.00004513,0.00000239,-0.00001071,-0.00001236
 ,0.00000516,0.00000535,-0.00000130,-0.00000938,0.00000403,-0.00000049,
 -0.00000242,0.00001178\\\@


 LIFE IS A CONTINUAL STRUGGLE AGAINST THE TENDENCY TO PRODUCE ENTROPY.
 Job cpu time:       0 days  3 hours 44 minutes 24.1 seconds.
 File lengths (MBytes):  RWF=    909 Int=      0 D2E=      0 Chk=     24 Scr=      1
 Normal termination of Gaussian 09 at Tue Jul 13 20:03:21 2021.
