 Entering Gaussian System, Link 0=g09
 Input=b3lyp_m062x_dmad_cycloaddition_PM6_toluene_water_1.com
 Output=b3lyp_m062x_dmad_cycloaddition_PM6_toluene_water_1.log
 Initial command:
 /apps/applications/gaussian/G09.D01/2/default/g09/l1.exe "/local/746232.1.40core-192G.q/Gau-328811.inp" -scrdir="/local/746232.1.40core-192G.q/"
 Entering Link 1 = /apps/applications/gaussian/G09.D01/2/default/g09/l1.exe PID=    328812.
  
 Copyright (c) 1988,1990,1992,1993,1995,1998,2003,2009,2013,
            Gaussian, Inc.  All Rights Reserved.
  
 This is part of the Gaussian(R) 09 program.  It is based on
 the Gaussian(R) 03 system (copyright 2003, Gaussian, Inc.),
 the Gaussian(R) 98 system (copyright 1998, Gaussian, Inc.),
 the Gaussian(R) 94 system (copyright 1995, Gaussian, Inc.),
 the Gaussian 92(TM) system (copyright 1992, Gaussian, Inc.),
 the Gaussian 90(TM) system (copyright 1990, Gaussian, Inc.),
 the Gaussian 88(TM) system (copyright 1988, Gaussian, Inc.),
 the Gaussian 86(TM) system (copyright 1986, Carnegie Mellon
 University), and the Gaussian 82(TM) system (copyright 1983,
 Carnegie Mellon University). Gaussian is a federally registered
 trademark of Gaussian, Inc.
  
 This software contains proprietary and confidential information,
 including trade secrets, belonging to Gaussian, Inc.
  
 This software is provided under written license and may be
 used, copied, transmitted, or stored only in accord with that
 written license.
  
 The following legend is applicable only to US Government
 contracts under FAR:
  
                    RESTRICTED RIGHTS LEGEND
  
 Use, reproduction and disclosure by the US Government is
 subject to restrictions as set forth in subparagraphs (a)
 and (c) of the Commercial Computer Software - Restricted
 Rights clause in FAR 52.227-19.
  
 Gaussian, Inc.
 340 Quinnipiac St., Bldg. 40, Wallingford CT 06492
  
  
 ---------------------------------------------------------------
 Warning -- This program may not be used in any manner that
 competes with the business of Gaussian, Inc. or will provide
 assistance to any competitor of Gaussian, Inc.  The licensee
 of this program is prohibited from giving any competitor of
 Gaussian, Inc. access to this program.  By using this program,
 the user acknowledges that Gaussian, Inc. is engaged in the
 business of creating and licensing software in the field of
 computational chemistry and represents and warrants to the
 licensee that it is not a competitor of Gaussian, Inc. and that
 it will not use this program in any manner prohibited above.
 ---------------------------------------------------------------
  

 Cite this work as:
 Gaussian 09, Revision D.01,
 M. J. Frisch, G. W. Trucks, H. B. Schlegel, G. E. Scuseria, 
 M. A. Robb, J. R. Cheeseman, G. Scalmani, V. Barone, B. Mennucci, 
 G. A. Petersson, H. Nakatsuji, M. Caricato, X. Li, H. P. Hratchian, 
 A. F. Izmaylov, J. Bloino, G. Zheng, J. L. Sonnenberg, M. Hada, 
 M. Ehara, K. Toyota, R. Fukuda, J. Hasegawa, M. Ishida, T. Nakajima, 
 Y. Honda, O. Kitao, H. Nakai, T. Vreven, J. A. Montgomery, Jr., 
 J. E. Peralta, F. Ogliaro, M. Bearpark, J. J. Heyd, E. Brothers, 
 K. N. Kudin, V. N. Staroverov, T. Keith, R. Kobayashi, J. Normand, 
 K. Raghavachari, A. Rendell, J. C. Burant, S. S. Iyengar, J. Tomasi, 
 M. Cossi, N. Rega, J. M. Millam, M. Klene, J. E. Knox, J. B. Cross, 
 V. Bakken, C. Adamo, J. Jaramillo, R. Gomperts, R. E. Stratmann, 
 O. Yazyev, A. J. Austin, R. Cammi, C. Pomelli, J. W. Ochterski, 
 R. L. Martin, K. Morokuma, V. G. Zakrzewski, G. A. Voth, 
 P. Salvador, J. J. Dannenberg, S. Dapprich, A. D. Daniels, 
 O. Farkas, J. B. Foresman, J. V. Ortiz, J. Cioslowski, 
 and D. J. Fox, Gaussian, Inc., Wallingford CT, 2013.
 
 ******************************************
 Gaussian 09:  ES64L-G09RevD.01 24-Apr-2013
                17-Sep-2020 
 ******************************************
 %nprocshared=4
 Will use up to    4 processors via shared memory.
 %chk=b3lyp_m062x_dmad_cycloaddition_PM6_toluene_water_1.chk
 ----------------------------------------------------------------------
 # opt freq b3lyp/6-31+g(d,p) scrf=(cpcm,solvent=water) geom=connectivi
 ty empiricaldispersion=gd3
 ----------------------------------------------------------------------
 1/14=-1,18=20,19=15,26=3,38=1,57=2/1,3;
 2/9=110,12=2,17=6,18=5,40=1/2;
 3/5=1,6=6,7=111,11=2,16=1,25=1,30=1,70=2101,71=1,72=1,74=-5,124=31/1,2,3;
 4//1;
 5/5=2,38=5,53=1/2;
 6/7=2,8=2,9=2,10=2,28=1/1;
 7//1,2,3,16;
 1/14=-1,18=20,19=15,26=3/3(2);
 2/9=110/2;
 99//99;
 2/9=110/2;
 3/5=1,6=6,7=111,11=2,16=1,25=1,30=1,70=2105,71=1,72=1,74=-5,124=31/1,2,3;
 4/5=5,16=3,69=1/1;
 5/5=2,38=5,53=1/2;
 7//1,2,3,16;
 1/14=-1,18=20,19=15,26=3/3(-5);
 2/9=110/2;
 6/7=2,8=2,9=2,10=2,19=2,28=1/1;
 99/9=1/99;
 -------------------
 Title Card Required
 -------------------
 Symbolic Z-matrix:
 Charge =  0 Multiplicity = 1
 N                    -0.30179  -0.34283  -0.43183 
 N                     0.29808   0.34386   0.39144 
 C                    -1.70627  -0.49658  -0.1246 
 C                     1.70154   0.49471   0.08551 
 O                     2.1658    1.57036  -0.14827 
 O                    -2.18139  -1.58279   0.02395 
 O                     2.33402  -0.65034   0.17235 
 O                    -2.32633   0.65836  -0.10146 
 C                    -3.73938   0.60803   0.12603 
 H                    -4.08887   1.64223   0.08039 
 H                    -4.22098   0.00095  -0.65043 
 H                    -3.94172   0.17393   1.11275 
 C                     3.75208  -0.60328  -0.02397 
 H                     4.11842  -1.61093   0.1863 
 H                     3.97487  -0.32011  -1.06007 
 H                     4.19957   0.12481   0.66344 
 

 GradGradGradGradGradGradGradGradGradGradGradGradGradGradGradGradGradGrad
 Berny optimization.
 Initialization pass.
                           ----------------------------
                           !    Initial Parameters    !
                           ! (Angstroms and Degrees)  !
 --------------------------                            --------------------------
 ! Name  Definition              Value          Derivative Info.                !
 --------------------------------------------------------------------------------
 ! R1    R(1,2)                  1.2285         estimate D2E/DX2                !
 ! R2    R(1,3)                  1.4459         estimate D2E/DX2                !
 ! R3    R(2,4)                  1.4443         estimate D2E/DX2                !
 ! R4    R(3,6)                  1.1948         estimate D2E/DX2                !
 ! R5    R(3,8)                  1.3111         estimate D2E/DX2                !
 ! R6    R(4,5)                  1.1947         estimate D2E/DX2                !
 ! R7    R(4,7)                  1.311          estimate D2E/DX2                !
 ! R8    R(7,13)                 1.4324         estimate D2E/DX2                !
 ! R9    R(8,9)                  1.4321         estimate D2E/DX2                !
 ! R10   R(9,10)                 1.0926         estimate D2E/DX2                !
 ! R11   R(9,11)                 1.097          estimate D2E/DX2                !
 ! R12   R(9,12)                 1.0968         estimate D2E/DX2                !
 ! R13   R(13,14)                1.0926         estimate D2E/DX2                !
 ! R14   R(13,15)                1.097          estimate D2E/DX2                !
 ! R15   R(13,16)                1.0968         estimate D2E/DX2                !
 ! A1    A(2,1,3)              113.0388         estimate D2E/DX2                !
 ! A2    A(1,2,4)              113.0112         estimate D2E/DX2                !
 ! A3    A(1,3,6)              120.6201         estimate D2E/DX2                !
 ! A4    A(1,3,8)              111.6829         estimate D2E/DX2                !
 ! A5    A(6,3,8)              127.6306         estimate D2E/DX2                !
 ! A6    A(2,4,5)              120.8711         estimate D2E/DX2                !
 ! A7    A(2,4,7)              111.3177         estimate D2E/DX2                !
 ! A8    A(5,4,7)              127.7265         estimate D2E/DX2                !
 ! A9    A(4,7,13)             116.0942         estimate D2E/DX2                !
 ! A10   A(3,8,9)              116.0074         estimate D2E/DX2                !
 ! A11   A(8,9,10)             106.0041         estimate D2E/DX2                !
 ! A12   A(8,9,11)             109.8886         estimate D2E/DX2                !
 ! A13   A(8,9,12)             109.8059         estimate D2E/DX2                !
 ! A14   A(10,9,11)            110.7211         estimate D2E/DX2                !
 ! A15   A(10,9,12)            110.6831         estimate D2E/DX2                !
 ! A16   A(11,9,12)            109.6785         estimate D2E/DX2                !
 ! A17   A(7,13,14)            105.978          estimate D2E/DX2                !
 ! A18   A(7,13,15)            109.8159         estimate D2E/DX2                !
 ! A19   A(7,13,16)            109.8676         estimate D2E/DX2                !
 ! A20   A(14,13,15)           110.5939         estimate D2E/DX2                !
 ! A21   A(14,13,16)           110.7824         estimate D2E/DX2                !
 ! A22   A(15,13,16)           109.7402         estimate D2E/DX2                !
 ! D1    D(3,1,2,4)            179.8766         estimate D2E/DX2                !
 ! D2    D(2,1,3,6)           -122.0004         estimate D2E/DX2                !
 ! D3    D(2,1,3,8)             60.7449         estimate D2E/DX2                !
 ! D4    D(1,2,4,5)            117.2167         estimate D2E/DX2                !
 ! D5    D(1,2,4,7)            -65.8823         estimate D2E/DX2                !
 ! D6    D(1,3,8,9)            176.8731         estimate D2E/DX2                !
 ! D7    D(6,3,8,9)             -0.1435         estimate D2E/DX2                !
 ! D8    D(2,4,7,13)          -175.9864         estimate D2E/DX2                !
 ! D9    D(5,4,7,13)             0.6503         estimate D2E/DX2                !
 ! D10   D(4,7,13,14)          174.1895         estimate D2E/DX2                !
 ! D11   D(4,7,13,15)          -66.3331         estimate D2E/DX2                !
 ! D12   D(4,7,13,16)           54.4603         estimate D2E/DX2                !
 ! D13   D(3,8,9,10)          -178.1863         estimate D2E/DX2                !
 ! D14   D(3,8,9,11)           -58.5036         estimate D2E/DX2                !
 ! D15   D(3,8,9,12)            62.2204         estimate D2E/DX2                !
 --------------------------------------------------------------------------------
 Trust Radius=3.00D-01 FncErr=1.00D-07 GrdErr=1.00D-06
 Number of steps in this run=     62 maximum allowed number of steps=    100.
 GradGradGradGradGradGradGradGradGradGradGradGradGradGradGradGradGradGrad

                          Input orientation:                          
 ---------------------------------------------------------------------
 Center     Atomic      Atomic             Coordinates (Angstroms)
 Number     Number       Type             X           Y           Z
 ---------------------------------------------------------------------
      1          7           0       -0.301785   -0.342827   -0.431834
      2          7           0        0.298075    0.343858    0.391443
      3          6           0       -1.706274   -0.496584   -0.124603
      4          6           0        1.701544    0.494710    0.085507
      5          8           0        2.165799    1.570356   -0.148273
      6          8           0       -2.181393   -1.582789    0.023953
      7          8           0        2.334023   -0.650344    0.172346
      8          8           0       -2.326329    0.658357   -0.101458
      9          6           0       -3.739375    0.608030    0.126032
     10          1           0       -4.088865    1.642231    0.080386
     11          1           0       -4.220984    0.000952   -0.650429
     12          1           0       -3.941716    0.173931    1.112746
     13          6           0        3.752084   -0.603281   -0.023966
     14          1           0        4.118424   -1.610927    0.186299
     15          1           0        3.974870   -0.320111   -1.060072
     16          1           0        4.199573    0.124810    0.663441
 ---------------------------------------------------------------------
                    Distance matrix (angstroms):
                    1          2          3          4          5
     1  N    0.000000
     2  N    1.228476   0.000000
     3  C    1.445898   2.233844   0.000000
     4  C    2.232137   1.444326   3.555282   0.000000
     5  O    3.135227   2.298692   4.389277   1.194655   0.000000
     6  O    2.297428   3.161452   1.194842   4.404201   5.373087
     7  O    2.721596   2.276296   4.054112   1.310999   2.250023
     8  O    2.282607   2.688746   1.311065   4.035529   4.584010
     9  C    3.610037   4.054779   2.327335   5.442250   5.989357
    10  H    4.306367   4.585605   3.208316   5.903022   6.259255
    11  H    3.940316   4.650266   2.616830   5.988467   6.595922
    12  H    3.987714   4.304066   2.641557   5.744955   6.390768
    13  C    4.082652   3.605526   5.460328   2.328580   2.693780
    14  H    4.639872   4.296316   5.938479   3.207051   3.747699
    15  H    4.322612   4.008313   5.760351   2.672882   2.770917
    16  H    4.656236   3.917097   5.990507   2.590556   2.623875
                    6          7          8          9         10
     6  O    0.000000
     7  O    4.613074   0.000000
     8  O    2.249327   4.848355   0.000000
     9  C    2.690245   6.202565   1.432126   0.000000
    10  H    3.747317   6.820399   2.026724   1.092611   0.000000
    11  H    2.668887   6.638468   2.079247   1.096988   1.801483
    12  H    2.714825   6.399116   2.078084   1.096808   1.800923
    13  C    6.013974   1.432358   6.208449   7.590239   8.156819
    14  H    6.301971   2.026574   6.838662   8.165317   8.829148
    15  H    6.377228   2.078530   6.448368   7.859890   8.377067
    16  H    6.636382   2.079018   6.592203   7.971776   8.446344
                   11         12         13         14         15
    11  H    0.000000
    12  H    1.793516   0.000000
    13  C    8.020434   7.816056   0.000000
    14  H    8.534869   8.307218   1.092596   0.000000
    15  H    8.212363   8.224205   1.096966   1.800071   0.000000
    16  H    8.523343   8.153826   1.096764   1.801952   1.794141
                   16
    16  H    0.000000
 Stoichiometry    C4H6N2O4
 Framework group  C1[X(C4H6N2O4)]
 Deg. of freedom    42
 Full point group                 C1      NOp   1
 Largest Abelian subgroup         C1      NOp   1
 Largest concise Abelian subgroup C1      NOp   1
                         Standard orientation:                         
 ---------------------------------------------------------------------
 Center     Atomic      Atomic             Coordinates (Angstroms)
 Number     Number       Type             X           Y           Z
 ---------------------------------------------------------------------
      1          7           0        0.301785    0.342827   -0.431834
      2          7           0       -0.298075   -0.343858    0.391443
      3          6           0        1.706274    0.496584   -0.124603
      4          6           0       -1.701544   -0.494710    0.085507
      5          8           0       -2.165799   -1.570356   -0.148273
      6          8           0        2.181393    1.582789    0.023953
      7          8           0       -2.334023    0.650344    0.172346
      8          8           0        2.326329   -0.658357   -0.101458
      9          6           0        3.739375   -0.608030    0.126032
     10          1           0        4.088865   -1.642231    0.080386
     11          1           0        4.220984   -0.000952   -0.650429
     12          1           0        3.941716   -0.173931    1.112746
     13          6           0       -3.752084    0.603281   -0.023966
     14          1           0       -4.118424    1.610927    0.186299
     15          1           0       -3.974870    0.320111   -1.060072
     16          1           0       -4.199573   -0.124810    0.663441
 ---------------------------------------------------------------------
 Rotational constants (GHZ):      4.0138203      0.5981953      0.5310111
 Standard basis: 6-31+G(d,p) (6D, 7F)
 There are   220 symmetry adapted cartesian basis functions of A   symmetry.
 There are   220 symmetry adapted basis functions of A   symmetry.
   220 basis functions,   362 primitive gaussians,   220 cartesian basis functions
    38 alpha electrons       38 beta electrons
       nuclear repulsion energy       524.4606509701 Hartrees.
 NAtoms=   16 NActive=   16 NUniq=   16 SFac= 1.00D+00 NAtFMM=   60 NAOKFM=F Big=F
 Integral buffers will be    131072 words long.
 Raffenetti 2 integral format.
 Two-electron integral symmetry is turned on.
 Nuclear repulsion after empirical dispersion term =      524.4507559918 Hartrees.
 ------------------------------------------------------------------------------
 Polarizable Continuum Model (PCM)
 =================================
 Model                : C-PCM.
 Atomic radii         : UFF (Universal Force Field).
 Polarization charges : Total charges.
 Charge compensation  : None.
 Solution method      : On-the-fly selection.
 Cavity type          : Scaled VdW (van der Waals Surface) (Alpha=1.100).
 Cavity algorithm     : GePol (No added spheres)
                        Default sphere list used, NSphG=   16.
                        Lebedev-Laikov grids with approx.  5.0 points / Ang**2.
                        Smoothing algorithm: Karplus/York (Gamma=1.0000).
                        Polarization charges: spherical gaussians, with
                                              point-specific exponents (IZeta= 3).
                        Self-potential: point-specific (ISelfS= 7).
                        Self-field    : sphere-specific E.n sum rule (ISelfD= 2).
 1st derivatives      : Analytical E(r).r(x)/FMM algorithm (CHGder, D1EAlg=3).
                        Cavity 1st derivative terms included.
 Solvent              : Water, Eps=  78.355300 Eps(inf)=   1.777849
 ------------------------------------------------------------------------------
 Spheres list:
 ISph  on   Nord     Re0    Alpha      Xe            Ye            Ze
    1   N      1    1.8300  1.100      0.301785      0.342827     -0.431834
    2   N      2    1.8300  1.100     -0.298075     -0.343858      0.391443
    3   C      3    1.9255  1.100      1.706274      0.496584     -0.124603
    4   C      4    1.9255  1.100     -1.701544     -0.494710      0.085507
    5   O      5    1.7500  1.100     -2.165799     -1.570356     -0.148273
    6   O      6    1.7500  1.100      2.181393      1.582789      0.023953
    7   O      7    1.7500  1.100     -2.334023      0.650344      0.172346
    8   O      8    1.7500  1.100      2.326329     -0.658357     -0.101458
    9   C      9    1.9255  1.100      3.739375     -0.608030      0.126032
   10   H     10    1.4430  1.100      4.088865     -1.642231      0.080386
   11   H     11    1.4430  1.100      4.220984     -0.000952     -0.650429
   12   H     12    1.4430  1.100      3.941716     -0.173931      1.112746
   13   C     13    1.9255  1.100     -3.752084      0.603281     -0.023966
   14   H     14    1.4430  1.100     -4.118424      1.610927      0.186299
   15   H     15    1.4430  1.100     -3.974870      0.320111     -1.060072
   16   H     16    1.4430  1.100     -4.199573     -0.124810      0.663441
 ------------------------------------------------------------------------------
 One-electron integrals computed using PRISM.
 NBasis=   220 RedAO= T EigKep=  7.66D-05  NBF=   220
 NBsUse=   220 1.00D-06 EigRej= -1.00D+00 NBFU=   220
 ExpMin= 4.38D-02 ExpMax= 5.48D+03 ExpMxC= 8.25D+02 IAcc=2 IRadAn=         4 AccDes= 0.00D+00
 Harris functional with IExCor=  402 and IRadAn=       4 diagonalized for initial guess.
 HarFok:  IExCor=  402 AccDes= 0.00D+00 IRadAn=         4 IDoV= 1 UseB2=F ITyADJ=14
 ICtDFT=  3500011 ScaDFX=  1.000000  1.000000  1.000000  1.000000
 FoFCou: FMM=F IPFlag=           0 FMFlag=      100000 FMFlg1=           0
         NFxFlg=           0 DoJE=T BraDBF=F KetDBF=T FulRan=T
         wScrn=  0.000000 ICntrl=     500 IOpCl=  0 I1Cent=   200000004 NGrid=           0
         NMat0=    1 NMatS0=      1 NMatT0=    0 NMatD0=    1 NMtDS0=    0 NMtDT0=    0
 Petite list used in FoFCou.
 Requested convergence on RMS density matrix=1.00D-08 within 128 cycles.
 Requested convergence on MAX density matrix=1.00D-06.
 Requested convergence on             energy=1.00D-06.
 No special actions if energy rises.
 Inv3:  Mode=1 IEnd=     7263408.
 Iteration    1 A*A^-1 deviation from unit magnitude is 5.33D-15 for   1550.
 Iteration    1 A*A^-1 deviation from orthogonality  is 1.61D-15 for   1431    193.
 Iteration    1 A^-1*A deviation from unit magnitude is 5.33D-15 for   1550.
 Iteration    1 A^-1*A deviation from orthogonality  is 1.17D-15 for   1385     59.
 Error on total polarization charges =  0.01217
 SCF Done:  E(RB3LYP) =  -566.430551450     A.U. after   14 cycles
            NFock= 14  Conv=0.62D-08     -V/T= 2.0086

 **********************************************************************

            Population analysis using the SCF density.

 **********************************************************************

 Orbital symmetries:
       Occupied  (A) (A) (A) (A) (A) (A) (A) (A) (A) (A) (A) (A)
                 (A) (A) (A) (A) (A) (A) (A) (A) (A) (A) (A) (A)
                 (A) (A) (A) (A) (A) (A) (A) (A) (A) (A) (A) (A)
                 (A) (A)
       Virtual   (A) (A) (A) (A) (A) (A) (A) (A) (A) (A) (A) (A)
                 (A) (A) (A) (A) (A) (A) (A) (A) (A) (A) (A) (A)
                 (A) (A) (A) (A) (A) (A) (A) (A) (A) (A) (A) (A)
                 (A) (A) (A) (A) (A) (A) (A) (A) (A) (A) (A) (A)
                 (A) (A) (A) (A) (A) (A) (A) (A) (A) (A) (A) (A)
                 (A) (A) (A) (A) (A) (A) (A) (A) (A) (A) (A) (A)
                 (A) (A) (A) (A) (A) (A) (A) (A) (A) (A) (A) (A)
                 (A) (A) (A) (A) (A) (A) (A) (A) (A) (A) (A) (A)
                 (A) (A) (A) (A) (A) (A) (A) (A) (A) (A) (A) (A)
                 (A) (A) (A) (A) (A) (A) (A) (A) (A) (A) (A) (A)
                 (A) (A) (A) (A) (A) (A) (A) (A) (A) (A) (A) (A)
                 (A) (A) (A) (A) (A) (A) (A) (A) (A) (A) (A) (A)
                 (A) (A) (A) (A) (A) (A) (A) (A) (A) (A) (A) (A)
                 (A) (A) (A) (A) (A) (A) (A) (A) (A) (A) (A) (A)
                 (A) (A) (A) (A) (A) (A) (A) (A) (A) (A) (A) (A)
                 (A) (A)
 The electronic state is 1-A.
 Alpha  occ. eigenvalues --  -19.23905 -19.23883 -19.18593 -19.18567 -14.44972
 Alpha  occ. eigenvalues --  -14.44905 -10.37524 -10.37487 -10.25752 -10.25741
 Alpha  occ. eigenvalues --   -1.17497  -1.16190  -1.09144  -1.07311  -1.07118
 Alpha  occ. eigenvalues --   -0.83108  -0.76033  -0.72652  -0.62924  -0.59009
 Alpha  occ. eigenvalues --   -0.58194  -0.54511  -0.52551  -0.51643  -0.51300
 Alpha  occ. eigenvalues --   -0.48669  -0.46382  -0.46129  -0.43736  -0.42627
 Alpha  occ. eigenvalues --   -0.40946  -0.39110  -0.38994  -0.34399  -0.34126
 Alpha  occ. eigenvalues --   -0.34079  -0.33467  -0.28130
 Alpha virt. eigenvalues --   -0.11383  -0.01482  -0.01186   0.00893   0.01527
 Alpha virt. eigenvalues --    0.02936   0.03341   0.03700   0.04117   0.05211
 Alpha virt. eigenvalues --    0.05674   0.07719   0.08202   0.08466   0.09258
 Alpha virt. eigenvalues --    0.09496   0.11529   0.12531   0.14066   0.14826
 Alpha virt. eigenvalues --    0.15044   0.15177   0.15309   0.17723   0.18250
 Alpha virt. eigenvalues --    0.18541   0.19047   0.20700   0.21207   0.21770
 Alpha virt. eigenvalues --    0.22438   0.23067   0.24512   0.24789   0.25114
 Alpha virt. eigenvalues --    0.25631   0.25797   0.26570   0.27002   0.27824
 Alpha virt. eigenvalues --    0.28873   0.29603   0.30433   0.30970   0.31914
 Alpha virt. eigenvalues --    0.32164   0.34363   0.34557   0.35581   0.35805
 Alpha virt. eigenvalues --    0.37316   0.38313   0.39581   0.41657   0.45148
 Alpha virt. eigenvalues --    0.45751   0.50413   0.53589   0.64254   0.65310
 Alpha virt. eigenvalues --    0.68229   0.70143   0.70345   0.72477   0.74824
 Alpha virt. eigenvalues --    0.75768   0.77155   0.80118   0.81634   0.83520
 Alpha virt. eigenvalues --    0.86489   0.87523   0.88643   0.90144   0.91632
 Alpha virt. eigenvalues --    0.93163   0.94105   0.97637   0.98710   1.00863
 Alpha virt. eigenvalues --    1.05155   1.05403   1.11317   1.14457   1.15106
 Alpha virt. eigenvalues --    1.16594   1.18979   1.19406   1.21868   1.23012
 Alpha virt. eigenvalues --    1.25517   1.26276   1.27848   1.28552   1.31140
 Alpha virt. eigenvalues --    1.31985   1.32625   1.34436   1.37893   1.41155
 Alpha virt. eigenvalues --    1.42460   1.44688   1.46249   1.47677   1.50378
 Alpha virt. eigenvalues --    1.52413   1.57838   1.58468   1.62318   1.65622
 Alpha virt. eigenvalues --    1.66068   1.70966   1.73101   1.74755   1.81255
 Alpha virt. eigenvalues --    1.83684   1.84505   1.84688   1.89750   1.90303
 Alpha virt. eigenvalues --    1.90605   1.90984   1.92243   1.95770   1.96253
 Alpha virt. eigenvalues --    1.96681   1.99155   2.00966   2.01255   2.03621
 Alpha virt. eigenvalues --    2.04771   2.07621   2.09484   2.11306   2.13801
 Alpha virt. eigenvalues --    2.19379   2.20530   2.31463   2.37391   2.40126
 Alpha virt. eigenvalues --    2.41988   2.44230   2.48378   2.49042   2.50126
 Alpha virt. eigenvalues --    2.57999   2.58252   2.62175   2.65558   2.70178
 Alpha virt. eigenvalues --    2.72589   2.73138   2.74739   2.75734   2.80651
 Alpha virt. eigenvalues --    2.83834   2.84243   2.88118   2.94829   2.99456
 Alpha virt. eigenvalues --    3.05264   3.07393   3.11343   3.17773   3.20189
 Alpha virt. eigenvalues --    3.23349   3.23440   3.25400   3.39941   3.39998
 Alpha virt. eigenvalues --    3.43791   3.44026   4.02180   4.09474   4.29056
 Alpha virt. eigenvalues --    4.30397   4.38653   4.47109   4.51280   4.54791
 Alpha virt. eigenvalues --    4.57982   4.64135
          Condensed to atoms (all electrons):
               1          2          3          4          5          6
     1  N    6.887850   0.282898   0.147055  -0.061777  -0.024749  -0.020104
     2  N    0.282898   6.830958  -0.066142   0.131451  -0.005664  -0.017574
     3  C    0.147055  -0.066142   4.811515  -0.027637  -0.000914   0.484619
     4  C   -0.061777   0.131451  -0.027637   4.802830   0.488845  -0.000515
     5  O   -0.024749  -0.005664  -0.000914   0.488845   8.203714  -0.000319
     6  O   -0.020104  -0.017574   0.484619  -0.000515  -0.000319   8.213313
     7  O    0.012893  -0.063792  -0.016214   0.217941  -0.164141  -0.001169
     8  O   -0.078308   0.026282   0.208451  -0.016698  -0.001268  -0.163131
     9  C    0.008359  -0.003592  -0.106847  -0.003037   0.000315  -0.024105
    10  H   -0.001850   0.000540   0.010689  -0.000225   0.000004  -0.000089
    11  H   -0.002435   0.000827  -0.013358   0.000074   0.000000   0.004874
    12  H    0.002655  -0.001778  -0.015363  -0.000158   0.000000   0.003988
    13  C   -0.001691   0.009471  -0.003069  -0.108146  -0.023495   0.000426
    14  H    0.000778  -0.002248  -0.000188   0.010451  -0.000041   0.000003
    15  H   -0.001750   0.002486  -0.000153  -0.014489   0.003697   0.000000
    16  H    0.000787  -0.001864   0.000088  -0.013366   0.005043   0.000000
               7          8          9         10         11         12
     1  N    0.012893  -0.078308   0.008359  -0.001850  -0.002435   0.002655
     2  N   -0.063792   0.026282  -0.003592   0.000540   0.000827  -0.001778
     3  C   -0.016214   0.208451  -0.106847   0.010689  -0.013358  -0.015363
     4  C    0.217941  -0.016698  -0.003037  -0.000225   0.000074  -0.000158
     5  O   -0.164141  -0.001268   0.000315   0.000004   0.000000   0.000000
     6  O   -0.001169  -0.163131  -0.024105  -0.000089   0.004874   0.003988
     7  O    8.356502   0.000892   0.000359   0.000000  -0.000001   0.000001
     8  O    0.000892   8.367885   0.086666  -0.053244  -0.036431  -0.038394
     9  C    0.000359   0.086666   5.012613   0.407976   0.410718   0.413049
    10  H    0.000000  -0.053244   0.407976   0.509346  -0.025062  -0.025739
    11  H   -0.000001  -0.036431   0.410718  -0.025062   0.513982  -0.030936
    12  H    0.000001  -0.038394   0.413049  -0.025739  -0.030936   0.515150
    13  C    0.088640   0.000528  -0.000080   0.000000   0.000001  -0.000002
    14  H   -0.053189   0.000000   0.000000   0.000000   0.000000   0.000000
    15  H   -0.037652   0.000001  -0.000002   0.000000   0.000000   0.000000
    16  H   -0.037317  -0.000001   0.000001   0.000000   0.000000   0.000000
              13         14         15         16
     1  N   -0.001691   0.000778  -0.001750   0.000787
     2  N    0.009471  -0.002248   0.002486  -0.001864
     3  C   -0.003069  -0.000188  -0.000153   0.000088
     4  C   -0.108146   0.010451  -0.014489  -0.013366
     5  O   -0.023495  -0.000041   0.003697   0.005043
     6  O    0.000426   0.000003   0.000000   0.000000
     7  O    0.088640  -0.053189  -0.037652  -0.037317
     8  O    0.000528   0.000000   0.000001  -0.000001
     9  C   -0.000080   0.000000  -0.000002   0.000001
    10  H    0.000000   0.000000   0.000000   0.000000
    11  H    0.000001   0.000000   0.000000   0.000000
    12  H   -0.000002   0.000000   0.000000   0.000000
    13  C    5.011415   0.408218   0.411978   0.410864
    14  H    0.408218   0.509368  -0.026070  -0.024849
    15  H    0.411978  -0.026070   0.514372  -0.030760
    16  H    0.410864  -0.024849  -0.030760   0.513777
 Mulliken charges:
               1
     1  N   -0.150610
     2  N   -0.122259
     3  C    0.587467
     4  C    0.594454
     5  O   -0.481027
     6  O   -0.480216
     7  O   -0.303753
     8  O   -0.303234
     9  C   -0.202393
    10  H    0.177654
    11  H    0.177747
    12  H    0.177526
    13  C   -0.205059
    14  H    0.177766
    15  H    0.178340
    16  H    0.177596
 Sum of Mulliken charges =   0.00000
 Mulliken charges with hydrogens summed into heavy atoms:
               1
     1  N   -0.150610
     2  N   -0.122259
     3  C    0.587467
     4  C    0.594454
     5  O   -0.481027
     6  O   -0.480216
     7  O   -0.303753
     8  O   -0.303234
     9  C    0.330534
    13  C    0.328644
 Electronic spatial extent (au):  <R**2>=           2025.2198
 Charge=              0.0000 electrons
 Dipole moment (field-independent basis, Debye):
    X=             -0.0403    Y=             -0.0356    Z=              0.2746  Tot=              0.2798
 Quadrupole moment (field-independent basis, Debye-Ang):
   XX=            -30.5728   YY=            -67.9896   ZZ=            -56.4494
   XY=            -14.1752   XZ=             -0.4518   YZ=             -0.2727
 Traceless Quadrupole moment (field-independent basis, Debye-Ang):
   XX=             21.0978   YY=            -16.3190   ZZ=             -4.7788
   XY=            -14.1752   XZ=             -0.4518   YZ=             -0.2727
 Octapole moment (field-independent basis, Debye-Ang**2):
  XXX=             -1.2236  YYY=             -0.4811  ZZZ=             -0.0652  XYY=             -0.3902
  XXY=             -0.4079  XXZ=              2.8370  XZZ=              0.3690  YZZ=              0.1472
  YYZ=              1.2619  XYZ=              0.7343
 Hexadecapole moment (field-independent basis, Debye-Ang**3):
 XXXX=          -1614.4146 YYYY=           -350.4392 ZZZZ=            -81.8843 XXXY=           -154.8571
 XXXZ=             -0.0819 YYYX=            -55.2117 YYYZ=              1.0391 ZZZX=              2.1467
 ZZZY=              2.1207 XXYY=           -434.0933 XXZZ=           -352.5149 YYZZ=            -69.5574
 XXYZ=             -9.9850 YYXZ=             -4.8025 ZZXY=              4.4445
 N-N= 5.244507559918D+02 E-N=-2.374075356338D+03  KE= 5.615778986538D+02
 D1PCM: C-PCM CHGder 1st derivatives, ID1Alg=3 FixD1E=F DoIter=F DoCFld=F I1PDM=0.
 Calling FoFJK, ICntrl=      2127 FMM=F ISym2X=0 I1Cent= 0 IOpClX= 0 NMat=1 NMatS=1 NMatT=0.
 ***** Axes restored to original set *****
 -------------------------------------------------------------------
 Center     Atomic                   Forces (Hartrees/Bohr)
 Number     Number              X              Y              Z
 -------------------------------------------------------------------
      1        7          -0.006450233   -0.010142389   -0.014578175
      2        7           0.006526616    0.010039803    0.014479194
      3        6           0.009666868    0.015255601   -0.001237852
      4        6          -0.009476012   -0.015339553    0.002229158
      5        8           0.008303869    0.026781462   -0.005021241
      6        8          -0.008552745   -0.026835345    0.002868448
      7        8          -0.005336240   -0.011228201    0.003122768
      8        8           0.005233498    0.011462924   -0.002217597
      9        6          -0.015335778   -0.000551494    0.002341933
     10        1           0.001507455   -0.002786795   -0.000044902
     11        1           0.000841476    0.002040163    0.002098143
     12        1           0.000229369    0.001564152   -0.002711720
     13        6           0.015403134    0.000444668   -0.001965230
     14        1          -0.001505288    0.002698666   -0.000451604
     15        1          -0.000494969   -0.000964586    0.002937902
     16        1          -0.000561020   -0.002439076   -0.001849224
 -------------------------------------------------------------------
 Cartesian Forces:  Max     0.026835345 RMS     0.008955271

 GradGradGradGradGradGradGradGradGradGradGradGradGradGradGradGradGradGrad
 Berny optimization.
 FormGI is forming the generalized inverse of G from B-inverse, IUseBI=4.
 Internal  Forces:  Max     0.028322375 RMS     0.007602424
 Search for a local minimum.
 Step number   1 out of a maximum of   62
 All quantities printed in internal units (Hartrees-Bohrs-Radians)
 Mixed Optimization -- RFO/linear search
 Second derivative matrix not updated -- first step.
 ITU=  0
     Eigenvalues ---    0.01085   0.01105   0.01264   0.01267   0.02067
     Eigenvalues ---    0.02080   0.02868   0.02869   0.03564   0.10305
     Eigenvalues ---    0.10307   0.10664   0.10667   0.16000   0.16000
     Eigenvalues ---    0.16000   0.16000   0.16000   0.16000   0.24983
     Eigenvalues ---    0.24987   0.25000   0.25000   0.25000   0.25000
     Eigenvalues ---    0.25000   0.25000   0.34017   0.34020   0.34038
     Eigenvalues ---    0.34043   0.34513   0.34514   0.38787   0.38998
     Eigenvalues ---    0.40652   0.40685   0.64211   0.64229   0.91724
     Eigenvalues ---    1.07458   1.07555
 RFO step:  Lambda=-4.59383743D-03 EMin= 1.08463580D-02
 Linear search not attempted -- first point.
 Iteration  1 RMS(Cart)=  0.06029331 RMS(Int)=  0.00083361
 Iteration  2 RMS(Cart)=  0.00114808 RMS(Int)=  0.00021854
 Iteration  3 RMS(Cart)=  0.00000321 RMS(Int)=  0.00021854
 Iteration  4 RMS(Cart)=  0.00000000 RMS(Int)=  0.00021854
 Variable       Old X    -DE/DX   Delta X   Delta X   Delta X     New X
                                 (Linear)    (Quad)   (Total)
    R1        2.32148   0.02089   0.00000   0.02266   0.02266   2.34414
    R2        2.73235   0.00644   0.00000   0.01641   0.01641   2.74877
    R3        2.72938   0.00636   0.00000   0.01612   0.01612   2.74550
    R4        2.25792   0.02815   0.00000   0.02609   0.02609   2.28401
    R5        2.47755   0.01389   0.00000   0.02148   0.02148   2.49903
    R6        2.25757   0.02832   0.00000   0.02622   0.02622   2.28379
    R7        2.47743   0.01378   0.00000   0.02131   0.02131   2.49874
    R8        2.70676   0.01289   0.00000   0.03134   0.03134   2.73811
    R9        2.70633   0.01284   0.00000   0.03122   0.03122   2.73754
   R10        2.06474  -0.00312   0.00000  -0.00891  -0.00891   2.05583
   R11        2.07301  -0.00299   0.00000  -0.00866  -0.00866   2.06435
   R12        2.07267  -0.00310   0.00000  -0.00899  -0.00899   2.06368
   R13        2.06471  -0.00308   0.00000  -0.00880  -0.00880   2.05591
   R14        2.07297  -0.00312   0.00000  -0.00906  -0.00906   2.06390
   R15        2.07258  -0.00301   0.00000  -0.00872  -0.00872   2.06386
    A1        1.97290   0.00328   0.00000   0.01290   0.01290   1.98580
    A2        1.97242   0.00306   0.00000   0.01203   0.01203   1.98444
    A3        2.10522  -0.00372   0.00000  -0.01549  -0.01612   2.08910
    A4        1.94923   0.00067   0.00000   0.00173   0.00109   1.95033
    A5        2.22757   0.00298   0.00000   0.01076   0.01009   2.23767
    A6        2.10960  -0.00374   0.00000  -0.01554  -0.01599   2.09361
    A7        1.94286   0.00061   0.00000   0.00151   0.00105   1.94391
    A8        2.22925   0.00306   0.00000   0.01113   0.01064   2.23989
    A9        2.02623   0.00437   0.00000   0.01716   0.01716   2.04339
   A10        2.02471   0.00448   0.00000   0.01760   0.01760   2.04231
   A11        1.85012  -0.00132   0.00000  -0.00913  -0.00913   1.84099
   A12        1.91792   0.00090   0.00000   0.00600   0.00598   1.92390
   A13        1.91648   0.00072   0.00000   0.00497   0.00495   1.92143
   A14        1.93245  -0.00023   0.00000  -0.00264  -0.00264   1.92981
   A15        1.93179  -0.00010   0.00000  -0.00169  -0.00169   1.93010
   A16        1.91425   0.00003   0.00000   0.00234   0.00231   1.91656
   A17        1.84967  -0.00121   0.00000  -0.00832  -0.00832   1.84135
   A18        1.91665   0.00028   0.00000   0.00217   0.00216   1.91881
   A19        1.91755   0.00125   0.00000   0.00819   0.00818   1.92574
   A20        1.93023   0.00001   0.00000  -0.00109  -0.00110   1.92913
   A21        1.93352  -0.00031   0.00000  -0.00278  -0.00277   1.93075
   A22        1.91533  -0.00003   0.00000   0.00168   0.00166   1.91699
    D1        3.13944   0.00034   0.00000   0.00848   0.00848  -3.13527
    D2       -2.12931   0.00024   0.00000   0.03206   0.03239  -2.09692
    D3        1.06020   0.00170   0.00000   0.09367   0.09334   1.15354
    D4        2.04582  -0.00020   0.00000  -0.02506  -0.02534   2.02047
    D5       -1.14986  -0.00141   0.00000  -0.07748  -0.07720  -1.22706
    D6        3.08702  -0.00125   0.00000  -0.04419  -0.04443   3.04259
    D7       -0.00251   0.00057   0.00000   0.02367   0.02391   0.02140
    D8       -3.07154   0.00102   0.00000   0.03575   0.03595  -3.03559
    D9        0.01135  -0.00057   0.00000  -0.02221  -0.02242  -0.01107
   D10        3.04018   0.00019   0.00000   0.00886   0.00884   3.04902
   D11       -1.15773  -0.00034   0.00000   0.00392   0.00391  -1.15382
   D12        0.95051   0.00059   0.00000   0.01259   0.01262   0.96313
   D13       -3.10994   0.00004   0.00000   0.00113   0.00113  -3.10880
   D14       -1.02108  -0.00053   0.00000  -0.00410  -0.00412  -1.02521
   D15        1.08595   0.00054   0.00000   0.00576   0.00578   1.09173
         Item               Value     Threshold  Converged?
 Maximum Force            0.028322     0.000450     NO 
 RMS     Force            0.007602     0.000300     NO 
 Maximum Displacement     0.174620     0.001800     NO 
 RMS     Displacement     0.060753     0.001200     NO 
 Predicted change in Energy=-2.361667D-03
 GradGradGradGradGradGradGradGradGradGradGradGradGradGradGradGradGradGrad

                          Input orientation:                          
 ---------------------------------------------------------------------
 Center     Atomic      Atomic             Coordinates (Angstroms)
 Number     Number       Type             X           Y           Z
 ---------------------------------------------------------------------
      1          7           0       -0.324595   -0.326477   -0.425958
      2          7           0        0.323415    0.310877    0.418212
      3          6           0       -1.728867   -0.492083   -0.084765
      4          6           0        1.723887    0.482448    0.071759
      5          8           0        2.163696    1.589374   -0.132758
      6          8           0       -2.187199   -1.603222    0.042233
      7          8           0        2.384215   -0.660192    0.153928
      8          8           0       -2.372396    0.663207   -0.083923
      9          6           0       -3.806306    0.617558    0.117053
     10          1           0       -4.141939    1.650211    0.050012
     11          1           0       -4.277354    0.009741   -0.658848
     12          1           0       -4.034121    0.202884    1.101289
     13          6           0        3.819936   -0.607250   -0.034066
     14          1           0        4.176688   -1.615476    0.165480
     15          1           0        4.050606   -0.315553   -1.060975
     16          1           0        4.268004    0.104327    0.662843
 ---------------------------------------------------------------------
                    Distance matrix (angstroms):
                    1          2          3          4          5
     1  N    0.000000
     2  N    1.240467   0.000000
     3  C    1.454585   2.260440   0.000000
     4  C    2.257955   1.452855   3.591061   0.000000
     5  O    3.154052   2.307544   4.414387   1.208530   0.000000
     6  O    2.306203   3.179358   1.208647   4.432548   5.399406
     7  O    2.790212   2.293408   4.123430   1.322274   2.278457
     8  O    2.299990   2.764719   1.322431   4.103224   4.629936
     9  C    3.648065   4.152029   2.363850   5.532029   6.053739
    10  H    4.325039   4.676406   3.229630   5.980975   6.308577
    11  H    3.973862   4.734745   2.660110   6.064003   6.652754
    12  H    4.046392   4.412072   2.684009   5.856001   6.469789
    13  C    4.172475   3.643237   5.550229   2.364754   2.752822
    14  H    4.719414   4.315371   6.016661   3.228978   3.796333
    15  H    4.421057   4.058616   5.863996   2.708046   2.837387
    16  H    4.739520   3.957562   6.072650   2.639107   2.695637
                    6          7          8          9         10
     6  O    0.000000
     7  O    4.669005   0.000000
     8  O    2.277479   4.943006   0.000000
     9  C    2.749357   6.321120   1.448645   0.000000
    10  H    3.795510   6.923832   2.030615   1.087896   0.000000
    11  H    2.731649   6.744324   2.094378   1.092405   1.792195
    12  H    2.791906   6.545031   2.092356   1.092051   1.792084
    13  C    6.089619   1.448944   6.321513   7.725449   8.276150
    14  H    6.365093   2.031172   6.938667   8.289571   8.937427
    15  H    6.464161   2.090843   6.570203   7.999345   8.498018
    16  H    6.706007   2.095744   6.705589   8.108994   8.572774
                   11         12         13         14         15
    11  H    0.000000
    12  H    1.787330   0.000000
    13  C    8.144761   7.976940   0.000000
    14  H    8.648218   8.461652   1.087938   0.000000
    15  H    8.344006   8.384925   1.092171   1.791615   0.000000
    16  H    8.647482   8.314279   1.092148   1.792604   1.787487
                   16
    16  H    0.000000
 Stoichiometry    C4H6N2O4
 Framework group  C1[X(C4H6N2O4)]
 Deg. of freedom    42
 Full point group                 C1      NOp   1
 Largest Abelian subgroup         C1      NOp   1
 Largest concise Abelian subgroup C1      NOp   1
                         Standard orientation:                         
 ---------------------------------------------------------------------
 Center     Atomic      Atomic             Coordinates (Angstroms)
 Number     Number       Type             X           Y           Z
 ---------------------------------------------------------------------
      1          7           0        0.322487    0.324284   -0.433633
      2          7           0       -0.321597   -0.312833    0.413713
      3          6           0        1.726949    0.495418   -0.095970
      4          6           0       -1.722252   -0.489935    0.070799
      5          8           0       -2.158884   -1.598854   -0.129689
      6          8           0        2.181922    1.608395    0.026947
      7          8           0       -2.386131    0.650768    0.151244
      8          8           0        2.374253   -0.657758   -0.093333
      9          6           0        3.808439   -0.606872    0.104382
     10          1           0        4.147300   -1.638607    0.039469
     11          1           0        4.275808    0.000321   -0.674228
     12          1           0        4.037039   -0.188725    1.086965
     13          6           0       -3.822077    0.592619   -0.033464
     14          1           0       -4.181688    1.600226    0.164066
     15          1           0       -4.054026    0.297320   -1.059055
     16          1           0       -4.266299   -0.118477    0.666391
 ---------------------------------------------------------------------
 Rotational constants (GHZ):      3.9553236      0.5809202      0.5162299
 Standard basis: 6-31+G(d,p) (6D, 7F)
 There are   220 symmetry adapted cartesian basis functions of A   symmetry.
 There are   220 symmetry adapted basis functions of A   symmetry.
   220 basis functions,   362 primitive gaussians,   220 cartesian basis functions
    38 alpha electrons       38 beta electrons
       nuclear repulsion energy       518.5680526295 Hartrees.
 NAtoms=   16 NActive=   16 NUniq=   16 SFac= 1.00D+00 NAtFMM=   60 NAOKFM=F Big=F
 Integral buffers will be    131072 words long.
 Raffenetti 2 integral format.
 Two-electron integral symmetry is turned on.
 Nuclear repulsion after empirical dispersion term =      518.5582157642 Hartrees.
 ------------------------------------------------------------------------------
 Polarizable Continuum Model (PCM)
 =================================
 Model                : C-PCM.
 Atomic radii         : UFF (Universal Force Field).
 Polarization charges : Total charges.
 Charge compensation  : None.
 Solution method      : On-the-fly selection.
 Cavity type          : Scaled VdW (van der Waals Surface) (Alpha=1.100).
 Cavity algorithm     : GePol (No added spheres)
                        Default sphere list used, NSphG=   16.
                        Lebedev-Laikov grids with approx.  5.0 points / Ang**2.
                        Smoothing algorithm: Karplus/York (Gamma=1.0000).
                        Polarization charges: spherical gaussians, with
                                              point-specific exponents (IZeta= 3).
                        Self-potential: point-specific (ISelfS= 7).
                        Self-field    : sphere-specific E.n sum rule (ISelfD= 2).
 1st derivatives      : Analytical E(r).r(x)/FMM algorithm (CHGder, D1EAlg=3).
                        Cavity 1st derivative terms included.
 Solvent              : Water, Eps=  78.355300 Eps(inf)=   1.777849
 ------------------------------------------------------------------------------
 Spheres list:
 ISph  on   Nord     Re0    Alpha      Xe            Ye            Ze
    1   N      1    1.8300  1.100      0.322487      0.324284     -0.433633
    2   N      2    1.8300  1.100     -0.321597     -0.312833      0.413713
    3   C      3    1.9255  1.100      1.726949      0.495418     -0.095970
    4   C      4    1.9255  1.100     -1.722252     -0.489935      0.070799
    5   O      5    1.7500  1.100     -2.158884     -1.598854     -0.129689
    6   O      6    1.7500  1.100      2.181922      1.608395      0.026947
    7   O      7    1.7500  1.100     -2.386131      0.650768      0.151244
    8   O      8    1.7500  1.100      2.374253     -0.657758     -0.093333
    9   C      9    1.9255  1.100      3.808439     -0.606872      0.104382
   10   H     10    1.4430  1.100      4.147300     -1.638607      0.039469
   11   H     11    1.4430  1.100      4.275808      0.000321     -0.674228
   12   H     12    1.4430  1.100      4.037039     -0.188725      1.086965
   13   C     13    1.9255  1.100     -3.822077      0.592619     -0.033464
   14   H     14    1.4430  1.100     -4.181688      1.600226      0.164066
   15   H     15    1.4430  1.100     -4.054026      0.297320     -1.059055
   16   H     16    1.4430  1.100     -4.266299     -0.118477      0.666391
 ------------------------------------------------------------------------------
 One-electron integrals computed using PRISM.
 NBasis=   220 RedAO= T EigKep=  7.60D-05  NBF=   220
 NBsUse=   220 1.00D-06 EigRej= -1.00D+00 NBFU=   220
 Initial guess from the checkpoint file:  "b3lyp_m062x_dmad_cycloaddition_PM6_toluene_water_1.chk"
 B after Tr=     0.000000    0.000000    0.000000
         Rot=    0.999994    0.002885    0.000217   -0.002077 Ang=   0.41 deg.
 ExpMin= 4.38D-02 ExpMax= 5.48D+03 ExpMxC= 8.25D+02 IAcc=2 IRadAn=         4 AccDes= 0.00D+00
 Harris functional with IExCor=  402 and IRadAn=       4 diagonalized for initial guess.
 HarFok:  IExCor=  402 AccDes= 0.00D+00 IRadAn=         4 IDoV= 1 UseB2=F ITyADJ=14
 ICtDFT=  3500011 ScaDFX=  1.000000  1.000000  1.000000  1.000000
 FoFCou: FMM=F IPFlag=           0 FMFlag=      100000 FMFlg1=           0
         NFxFlg=           0 DoJE=T BraDBF=F KetDBF=T FulRan=T
         wScrn=  0.000000 ICntrl=     500 IOpCl=  0 I1Cent=   200000004 NGrid=           0
         NMat0=    1 NMatS0=      1 NMatT0=    0 NMatD0=    1 NMtDS0=    0 NMtDT0=    0
 Petite list used in FoFCou.
 Requested convergence on RMS density matrix=1.00D-08 within 128 cycles.
 Requested convergence on MAX density matrix=1.00D-06.
 Requested convergence on             energy=1.00D-06.
 No special actions if energy rises.
 Inv3:  Mode=1 IEnd=     7479723.
 Iteration    1 A*A^-1 deviation from unit magnitude is 4.77D-15 for    765.
 Iteration    1 A*A^-1 deviation from orthogonality  is 2.71D-15 for   1571   1185.
 Iteration    1 A^-1*A deviation from unit magnitude is 5.00D-15 for    765.
 Iteration    1 A^-1*A deviation from orthogonality  is 2.05D-15 for    647    268.
 Error on total polarization charges =  0.01215
 SCF Done:  E(RB3LYP) =  -566.432635721     A.U. after   12 cycles
            NFock= 12  Conv=0.58D-08     -V/T= 2.0092
 D1PCM: C-PCM CHGder 1st derivatives, ID1Alg=3 FixD1E=F DoIter=F DoCFld=F I1PDM=0.
 Calling FoFJK, ICntrl=      2127 FMM=F ISym2X=0 I1Cent= 0 IOpClX= 0 NMat=1 NMatS=1 NMatT=0.
 ***** Axes restored to original set *****
 -------------------------------------------------------------------
 Center     Atomic                   Forces (Hartrees/Bohr)
 Number     Number              X              Y              Z
 -------------------------------------------------------------------
      1        7          -0.000799297    0.000992616   -0.000678120
      2        7           0.000348603   -0.000351467    0.000733359
      3        6          -0.000359143    0.002721169   -0.005260292
      4        6           0.000580198   -0.003183394    0.004648344
      5        8           0.000690550    0.002285301   -0.002545285
      6        8          -0.000864077   -0.002514109    0.002850311
      7        8          -0.004993468   -0.000275490   -0.000423979
      8        8           0.005449441    0.000354095    0.000929829
      9        6          -0.005674631   -0.001523356    0.000937111
     10        1           0.000941188    0.000233008   -0.000145055
     11        1           0.001216478    0.000009122   -0.000266278
     12        1           0.001045086    0.000114538   -0.000080707
     13        6           0.005594067    0.001422182   -0.001323842
     14        1          -0.000962945   -0.000226549    0.000158453
     15        1          -0.000988353   -0.000056284    0.000128834
     16        1          -0.001223697   -0.000001383    0.000337319
 -------------------------------------------------------------------
 Cartesian Forces:  Max     0.005674631 RMS     0.002194214

 GradGradGradGradGradGradGradGradGradGradGradGradGradGradGradGradGradGrad
 Berny optimization.
 Using GEDIIS/GDIIS optimizer.
 FormGI is forming the generalized inverse of G from B-inverse, IUseBI=4.
 Internal  Forces:  Max     0.003098806 RMS     0.001517576
 Search for a local minimum.
 Step number   2 out of a maximum of   62
 All quantities printed in internal units (Hartrees-Bohrs-Radians)
 Mixed Optimization -- RFO/linear search
 Update second derivatives using D2CorX and points    1    2
 DE= -2.08D-03 DEPred=-2.36D-03 R= 8.83D-01
 TightC=F SS=  1.41D+00  RLast= 1.70D-01 DXNew= 5.0454D-01 5.0906D-01
 Trust test= 8.83D-01 RLast= 1.70D-01 DXMaxT set to 5.05D-01
 ITU=  1  0
 Use linear search instead of GDIIS.
     Eigenvalues ---    0.01048   0.01099   0.01263   0.01267   0.02155
     Eigenvalues ---    0.02606   0.02868   0.02877   0.03573   0.10242
     Eigenvalues ---    0.10246   0.10702   0.10702   0.15806   0.16000
     Eigenvalues ---    0.16000   0.16000   0.16000   0.16153   0.24575
     Eigenvalues ---    0.24931   0.24998   0.25000   0.25000   0.25000
     Eigenvalues ---    0.25000   0.26931   0.33678   0.34019   0.34030
     Eigenvalues ---    0.34041   0.34480   0.34513   0.37735   0.38901
     Eigenvalues ---    0.39927   0.40669   0.64220   0.66590   0.89727
     Eigenvalues ---    1.00182   1.07509
 RFO step:  Lambda=-1.40087763D-03 EMin= 1.04777160D-02
 Quartic linear search produced a step of -0.07196.
 Iteration  1 RMS(Cart)=  0.03741865 RMS(Int)=  0.00174179
 Iteration  2 RMS(Cart)=  0.00327512 RMS(Int)=  0.00098837
 Iteration  3 RMS(Cart)=  0.00000143 RMS(Int)=  0.00098837
 Iteration  4 RMS(Cart)=  0.00000000 RMS(Int)=  0.00098837
 Variable       Old X    -DE/DX   Delta X   Delta X   Delta X     New X
                                 (Linear)    (Quad)   (Total)
    R1        2.34414   0.00048  -0.00163   0.00916   0.00753   2.35168
    R2        2.74877  -0.00187  -0.00118   0.00179   0.00061   2.74938
    R3        2.74550  -0.00150  -0.00116   0.00259   0.00143   2.74693
    R4        2.28401   0.00294  -0.00188   0.01253   0.01065   2.29467
    R5        2.49903  -0.00215  -0.00155   0.00511   0.00357   2.50260
    R6        2.28379   0.00277  -0.00189   0.01244   0.01055   2.29434
    R7        2.49874  -0.00209  -0.00153   0.00513   0.00360   2.50233
    R8        2.73811   0.00253  -0.00226   0.01772   0.01547   2.75358
    R9        2.73754   0.00254  -0.00225   0.01771   0.01546   2.75300
   R10        2.05583  -0.00006   0.00064  -0.00356  -0.00292   2.05291
   R11        2.06435  -0.00034   0.00062  -0.00423  -0.00360   2.06074
   R12        2.06368  -0.00034   0.00065  -0.00435  -0.00370   2.05998
   R13        2.05591  -0.00007   0.00063  -0.00356  -0.00293   2.05298
   R14        2.06390  -0.00035   0.00065  -0.00441  -0.00375   2.06015
   R15        2.06386  -0.00029   0.00063  -0.00411  -0.00348   2.06038
    A1        1.98580  -0.00208  -0.00093  -0.00279  -0.00372   1.98208
    A2        1.98444  -0.00194  -0.00087  -0.00258  -0.00344   1.98100
    A3        2.08910   0.00103   0.00116   0.00262   0.00046   2.08956
    A4        1.95033  -0.00112  -0.00008   0.00140  -0.00200   1.94833
    A5        2.23767   0.00052  -0.00073   0.01119   0.00713   2.24480
    A6        2.09361   0.00044   0.00115  -0.00033  -0.00158   2.09202
    A7        1.94391  -0.00040  -0.00008   0.00318   0.00071   1.94461
    A8        2.23989   0.00032  -0.00077   0.00974   0.00657   2.24646
    A9        2.04339  -0.00308  -0.00123  -0.00486  -0.00609   2.03729
   A10        2.04231  -0.00310  -0.00127  -0.00475  -0.00602   2.03629
   A11        1.84099  -0.00103   0.00066  -0.00938  -0.00875   1.83224
   A12        1.92390  -0.00136  -0.00043  -0.00563  -0.00608   1.91782
   A13        1.92143  -0.00098  -0.00036  -0.00373  -0.00411   1.91732
   A14        1.92981   0.00106   0.00019   0.00503   0.00519   1.93500
   A15        1.93010   0.00097   0.00012   0.00502   0.00511   1.93521
   A16        1.91656   0.00123  -0.00017   0.00794   0.00776   1.92432
   A17        1.84135  -0.00106   0.00060  -0.00926  -0.00869   1.83266
   A18        1.91881  -0.00086  -0.00016  -0.00403  -0.00420   1.91461
   A19        1.92574  -0.00145  -0.00059  -0.00536  -0.00597   1.91976
   A20        1.92913   0.00099   0.00008   0.00554   0.00560   1.93473
   A21        1.93075   0.00106   0.00020   0.00479   0.00496   1.93570
   A22        1.91699   0.00121  -0.00012   0.00758   0.00745   1.92443
    D1       -3.13527  -0.00043  -0.00061  -0.00768  -0.00829   3.13963
    D2       -2.09692   0.00248  -0.00233   0.12967   0.12708  -1.96984
    D3        1.15354  -0.00138  -0.00672  -0.00638  -0.01284   1.14070
    D4        2.02047  -0.00212   0.00182  -0.10939  -0.10734   1.91313
    D5       -1.22706   0.00117   0.00556   0.00622   0.01155  -1.21551
    D6        3.04259   0.00202   0.00320   0.06739   0.07072   3.11331
    D7        0.02140  -0.00227  -0.00172  -0.08233  -0.08419  -0.06279
    D8       -3.03559  -0.00180  -0.00259  -0.06046  -0.06322  -3.09881
    D9       -0.01107   0.00184   0.00161   0.06646   0.06824   0.05717
   D10        3.04902  -0.00003  -0.00064   0.00570   0.00507   3.05410
   D11       -1.15382   0.00009  -0.00028   0.00488   0.00461  -1.14921
   D12        0.96313   0.00010  -0.00091   0.00823   0.00731   0.97043
   D13       -3.10880   0.00007  -0.00008   0.00318   0.00310  -3.10571
   D14       -1.02521   0.00002   0.00030   0.00078   0.00109  -1.02411
   D15        1.09173   0.00003  -0.00042   0.00458   0.00415   1.09589
         Item               Value     Threshold  Converged?
 Maximum Force            0.003099     0.000450     NO 
 RMS     Force            0.001518     0.000300     NO 
 Maximum Displacement     0.135371     0.001800     NO 
 RMS     Displacement     0.038192     0.001200     NO 
 Predicted change in Energy=-7.599916D-04
 GradGradGradGradGradGradGradGradGradGradGradGradGradGradGradGradGradGrad

                          Input orientation:                          
 ---------------------------------------------------------------------
 Center     Atomic      Atomic             Coordinates (Angstroms)
 Number     Number       Type             X           Y           Z
 ---------------------------------------------------------------------
      1          7           0       -0.311929   -0.310224   -0.455359
      2          7           0        0.308308    0.312376    0.425743
      3          6           0       -1.724569   -0.488639   -0.156401
      4          6           0        1.720040    0.487600    0.126912
      5          8           0        2.146462    1.589261   -0.153409
      6          8           0       -2.157381   -1.601505    0.064263
      7          8           0        2.374897   -0.661317    0.194734
      8          8           0       -2.368322    0.668428   -0.131981
      9          6           0       -3.801759    0.613987    0.122260
     10          1           0       -4.136661    1.645785    0.063982
     11          1           0       -4.290321    0.003499   -0.637872
     12          1           0       -3.986440    0.201011    1.114050
     13          6           0        3.813519   -0.609990   -0.031008
     14          1           0        4.163901   -1.621058    0.156654
     15          1           0        4.013531   -0.314943   -1.061273
     16          1           0        4.274395    0.096101    0.660223
 ---------------------------------------------------------------------
                    Distance matrix (angstroms):
                    1          2          3          4          5
     1  N    0.000000
     2  N    1.244453   0.000000
     3  C    1.454909   2.261218   0.000000
     4  C    2.259305   1.453613   3.591468   0.000000
     5  O    3.121363   2.311853   4.393469   1.214115   0.000000
     6  O    2.311516   3.142170   1.214285   4.404847   5.362037
     7  O    2.786560   2.296134   4.118099   1.324178   2.288774
     8  O    2.300236   2.757205   1.324318   4.100540   4.607784
     9  C    3.656053   4.132278   2.368154   5.523247   6.033945
    10  H    4.327153   4.654739   3.228393   5.970451   6.287137
    11  H    3.994914   4.730123   2.656520   6.078131   6.646918
    12  H    4.028205   4.350980   2.684347   5.798317   6.414529
    13  C    4.158035   3.653202   5.540837   2.369029   2.762384
    14  H    4.703818   4.321594   6.004536   3.227968   3.804254
    15  H    4.367695   4.041463   5.811606   2.704803   2.817119
    16  H    4.737509   3.978895   6.082464   2.638641   2.723899
                    6          7          8          9         10
     6  O    0.000000
     7  O    4.630607   0.000000
     8  O    2.288144   4.936911   0.000000
     9  C    2.759664   6.307355   1.456827   0.000000
    10  H    3.802951   6.909428   2.029938   1.086353   0.000000
    11  H    2.760156   6.749840   2.095742   1.090499   1.792571
    12  H    2.774269   6.485010   2.095083   1.090092   1.792367
    13  C    6.053415   1.457130   6.313455   7.714537   8.264557
    14  H    6.321988   2.030539   6.927842   8.273352   8.920772
    15  H    6.403299   2.093478   6.523700   7.958796   8.457912
    16  H    6.678681   2.097250   6.714227   8.110603   8.573382
                   11         12         13         14         15
    11  H    0.000000
    12  H    1.789018   0.000000
    13  C    8.149655   7.925165   0.000000
    14  H    8.645480   8.406223   1.086390   0.000000
    15  H    8.320735   8.306490   1.090185   1.792176   0.000000
    16  H    8.663024   8.273956   1.090308   1.792881   1.789010
                   16
    16  H    0.000000
 Stoichiometry    C4H6N2O4
 Framework group  C1[X(C4H6N2O4)]
 Deg. of freedom    42
 Full point group                 C1      NOp   1
 Largest Abelian subgroup         C1      NOp   1
 Largest concise Abelian subgroup C1      NOp   1
                         Standard orientation:                         
 ---------------------------------------------------------------------
 Center     Atomic      Atomic             Coordinates (Angstroms)
 Number     Number       Type             X           Y           Z
 ---------------------------------------------------------------------
      1          7           0        0.311703    0.305766   -0.461969
      2          7           0       -0.307420   -0.308313    0.425870
      3          6           0        1.722778    0.495077   -0.162321
      4          6           0       -1.717603   -0.494427    0.126308
      5          8           0       -2.137968   -1.601762   -0.140478
      6          8           0        2.149610    1.612866    0.044681
      7          8           0       -2.378261    0.652020    0.177658
      8          8           0        2.372167   -0.658368   -0.121354
      9          6           0        3.804749   -0.593502    0.135250
     10          1           0        4.144858   -1.624302    0.091218
     11          1           0        4.291988    0.009397   -0.631756
     12          1           0        3.985184   -0.166670    1.121942
     13          6           0       -3.816107    0.590615   -0.050501
     14          1           0       -4.171882    1.602304    0.123142
     15          1           0       -4.012369    0.281121   -1.077243
     16          1           0       -4.275037   -0.108642    0.648922
 ---------------------------------------------------------------------
 Rotational constants (GHZ):      3.9166468      0.5844688      0.5197125
 Standard basis: 6-31+G(d,p) (6D, 7F)
 There are   220 symmetry adapted cartesian basis functions of A   symmetry.
 There are   220 symmetry adapted basis functions of A   symmetry.
   220 basis functions,   362 primitive gaussians,   220 cartesian basis functions
    38 alpha electrons       38 beta electrons
       nuclear repulsion energy       518.3733838685 Hartrees.
 NAtoms=   16 NActive=   16 NUniq=   16 SFac= 1.00D+00 NAtFMM=   60 NAOKFM=F Big=F
 Integral buffers will be    131072 words long.
 Raffenetti 2 integral format.
 Two-electron integral symmetry is turned on.
 Nuclear repulsion after empirical dispersion term =      518.3634729908 Hartrees.
 ------------------------------------------------------------------------------
 Polarizable Continuum Model (PCM)
 =================================
 Model                : C-PCM.
 Atomic radii         : UFF (Universal Force Field).
 Polarization charges : Total charges.
 Charge compensation  : None.
 Solution method      : On-the-fly selection.
 Cavity type          : Scaled VdW (van der Waals Surface) (Alpha=1.100).
 Cavity algorithm     : GePol (No added spheres)
                        Default sphere list used, NSphG=   16.
                        Lebedev-Laikov grids with approx.  5.0 points / Ang**2.
                        Smoothing algorithm: Karplus/York (Gamma=1.0000).
                        Polarization charges: spherical gaussians, with
                                              point-specific exponents (IZeta= 3).
                        Self-potential: point-specific (ISelfS= 7).
                        Self-field    : sphere-specific E.n sum rule (ISelfD= 2).
 1st derivatives      : Analytical E(r).r(x)/FMM algorithm (CHGder, D1EAlg=3).
                        Cavity 1st derivative terms included.
 Solvent              : Water, Eps=  78.355300 Eps(inf)=   1.777849
 ------------------------------------------------------------------------------
 Spheres list:
 ISph  on   Nord     Re0    Alpha      Xe            Ye            Ze
    1   N      1    1.8300  1.100      0.311703      0.305766     -0.461969
    2   N      2    1.8300  1.100     -0.307420     -0.308313      0.425870
    3   C      3    1.9255  1.100      1.722778      0.495077     -0.162321
    4   C      4    1.9255  1.100     -1.717603     -0.494427      0.126308
    5   O      5    1.7500  1.100     -2.137968     -1.601762     -0.140478
    6   O      6    1.7500  1.100      2.149610      1.612866      0.044681
    7   O      7    1.7500  1.100     -2.378261      0.652020      0.177658
    8   O      8    1.7500  1.100      2.372167     -0.658368     -0.121354
    9   C      9    1.9255  1.100      3.804749     -0.593502      0.135250
   10   H     10    1.4430  1.100      4.144858     -1.624302      0.091218
   11   H     11    1.4430  1.100      4.291988      0.009397     -0.631756
   12   H     12    1.4430  1.100      3.985184     -0.166670      1.121942
   13   C     13    1.9255  1.100     -3.816107      0.590615     -0.050501
   14   H     14    1.4430  1.100     -4.171882      1.602304      0.123142
   15   H     15    1.4430  1.100     -4.012369      0.281121     -1.077243
   16   H     16    1.4430  1.100     -4.275037     -0.108642      0.648922
 ------------------------------------------------------------------------------
 One-electron integrals computed using PRISM.
 NBasis=   220 RedAO= T EigKep=  7.46D-05  NBF=   220
 NBsUse=   220 1.00D-06 EigRej= -1.00D+00 NBFU=   220
 Initial guess from the checkpoint file:  "b3lyp_m062x_dmad_cycloaddition_PM6_toluene_water_1.chk"
 B after Tr=     0.000000    0.000000    0.000000
         Rot=    0.999998    0.001882    0.000122   -0.001174 Ang=   0.25 deg.
 ExpMin= 4.38D-02 ExpMax= 5.48D+03 ExpMxC= 8.25D+02 IAcc=2 IRadAn=         4 AccDes= 0.00D+00
 Harris functional with IExCor=  402 and IRadAn=       4 diagonalized for initial guess.
 HarFok:  IExCor=  402 AccDes= 0.00D+00 IRadAn=         4 IDoV= 1 UseB2=F ITyADJ=14
 ICtDFT=  3500011 ScaDFX=  1.000000  1.000000  1.000000  1.000000
 FoFCou: FMM=F IPFlag=           0 FMFlag=      100000 FMFlg1=           0
         NFxFlg=           0 DoJE=T BraDBF=F KetDBF=T FulRan=T
         wScrn=  0.000000 ICntrl=     500 IOpCl=  0 I1Cent=   200000004 NGrid=           0
         NMat0=    1 NMatS0=      1 NMatT0=    0 NMatD0=    1 NMtDS0=    0 NMtDT0=    0
 Petite list used in FoFCou.
 Requested convergence on RMS density matrix=1.00D-08 within 128 cycles.
 Requested convergence on MAX density matrix=1.00D-06.
 Requested convergence on             energy=1.00D-06.
 No special actions if energy rises.
 Inv3:  Mode=1 IEnd=     7404123.
 Iteration    1 A*A^-1 deviation from unit magnitude is 5.55D-15 for   1558.
 Iteration    1 A*A^-1 deviation from orthogonality  is 2.56D-15 for   1545   1098.
 Iteration    1 A^-1*A deviation from unit magnitude is 5.77D-15 for   1558.
 Iteration    1 A^-1*A deviation from orthogonality  is 1.72D-15 for   1295    387.
 Error on total polarization charges =  0.01213
 SCF Done:  E(RB3LYP) =  -566.431911596     A.U. after   11 cycles
            NFock= 11  Conv=0.69D-08     -V/T= 2.0093
 D1PCM: C-PCM CHGder 1st derivatives, ID1Alg=3 FixD1E=F DoIter=F DoCFld=F I1PDM=0.
 Calling FoFJK, ICntrl=      2127 FMM=F ISym2X=0 I1Cent= 0 IOpClX= 0 NMat=1 NMatS=1 NMatT=0.
 ***** Axes restored to original set *****
 -------------------------------------------------------------------
 Center     Atomic                   Forces (Hartrees/Bohr)
 Number     Number              X              Y              Z
 -------------------------------------------------------------------
      1        7           0.003073584    0.001026341   -0.002742750
      2        7          -0.003319540   -0.001329798    0.002104945
      3        6           0.001418562    0.001323612    0.016147325
      4        6          -0.000753555   -0.001686398   -0.014080983
      5        8          -0.000835335   -0.005531378    0.005977295
      6        8           0.000915028    0.005938089   -0.006442509
      7        8          -0.001948648    0.004819683    0.003522143
      8        8           0.001549400   -0.004643483   -0.004214089
      9        6          -0.000720480   -0.000635068   -0.000465595
     10        1          -0.000054079    0.000906437   -0.000159221
     11        1           0.000134746   -0.000371319   -0.000630133
     12        1           0.000774294   -0.000408565    0.000748417
     13        6           0.000631700    0.000684048    0.000133349
     14        1           0.000026145   -0.000871754    0.000225056
     15        1          -0.000658485    0.000334833   -0.000768869
     16        1          -0.000233335    0.000444721    0.000645619
 -------------------------------------------------------------------
 Cartesian Forces:  Max     0.016147325 RMS     0.003911995

 GradGradGradGradGradGradGradGradGradGradGradGradGradGradGradGradGradGrad
 Berny optimization.
 Using GEDIIS/GDIIS optimizer.
 FormGI is forming the generalized inverse of G from B-inverse, IUseBI=4.
 Internal  Forces:  Max     0.006939209 RMS     0.003072191
 Search for a local minimum.
 Step number   3 out of a maximum of   62
 All quantities printed in internal units (Hartrees-Bohrs-Radians)
 Mixed Optimization -- RFO/linear search
 Update second derivatives using D2CorX and points    1    3    2
 DE=  7.24D-04 DEPred=-7.60D-04 R=-9.53D-01
 Trust test=-9.53D-01 RLast= 2.25D-01 DXMaxT set to 2.52D-01
 ITU= -1  1  0
 Use linear search instead of GDIIS.
 Energy rises -- skip Quadratic/GDIIS search.
 Quartic linear search produced a step of -0.67015.
 Iteration  1 RMS(Cart)=  0.02624063 RMS(Int)=  0.00068148
 Iteration  2 RMS(Cart)=  0.00146024 RMS(Int)=  0.00022071
 Iteration  3 RMS(Cart)=  0.00000030 RMS(Int)=  0.00022071
 Variable       Old X    -DE/DX   Delta X   Delta X   Delta X     New X
                                 (Linear)    (Quad)   (Total)
    R1        2.35168  -0.00671  -0.00505   0.00000  -0.00505   2.34663
    R2        2.74938  -0.00313  -0.00041   0.00000  -0.00041   2.74897
    R3        2.74693  -0.00299  -0.00096   0.00000  -0.00096   2.74597
    R4        2.29467  -0.00694  -0.00714   0.00000  -0.00714   2.28753
    R5        2.50260  -0.00540  -0.00239   0.00000  -0.00239   2.50021
    R6        2.29434  -0.00669  -0.00707   0.00000  -0.00707   2.28727
    R7        2.50233  -0.00557  -0.00241   0.00000  -0.00241   2.49992
    R8        2.75358  -0.00025  -0.01037   0.00000  -0.01037   2.74321
    R9        2.75300  -0.00020  -0.01036   0.00000  -0.01036   2.74264
   R10        2.05291   0.00089   0.00195   0.00000   0.00195   2.05486
   R11        2.06074   0.00058   0.00241   0.00000   0.00241   2.06316
   R12        2.05998   0.00071   0.00248   0.00000   0.00248   2.06246
   R13        2.05298   0.00086   0.00196   0.00000   0.00196   2.05494
   R14        2.06015   0.00070   0.00252   0.00000   0.00252   2.06267
   R15        2.06038   0.00060   0.00233   0.00000   0.00233   2.06271
    A1        1.98208  -0.00547   0.00249   0.00000   0.00249   1.98457
    A2        1.98100  -0.00512   0.00231   0.00000   0.00231   1.98331
    A3        2.08956   0.00015  -0.00031   0.00000   0.00044   2.09000
    A4        1.94833   0.00110   0.00134   0.00000   0.00208   1.95041
    A5        2.24480  -0.00093  -0.00478   0.00000  -0.00404   2.24076
    A6        2.09202   0.00051   0.00106   0.00000   0.00160   2.09362
    A7        1.94461   0.00066  -0.00047   0.00000   0.00006   1.94468
    A8        2.24646  -0.00106  -0.00440   0.00000  -0.00387   2.24259
    A9        2.03729  -0.00232   0.00408   0.00000   0.00408   2.04138
   A10        2.03629  -0.00214   0.00403   0.00000   0.00403   2.04033
   A11        1.83224  -0.00003   0.00586   0.00000   0.00587   1.83811
   A12        1.91782  -0.00043   0.00408   0.00000   0.00408   1.92190
   A13        1.91732  -0.00127   0.00275   0.00000   0.00276   1.92008
   A14        1.93500   0.00038  -0.00348   0.00000  -0.00347   1.93152
   A15        1.93521   0.00061  -0.00343   0.00000  -0.00342   1.93179
   A16        1.92432   0.00067  -0.00520   0.00000  -0.00520   1.91912
   A17        1.83266  -0.00008   0.00582   0.00000   0.00583   1.83849
   A18        1.91461  -0.00106   0.00281   0.00000   0.00282   1.91742
   A19        1.91976  -0.00061   0.00400   0.00000   0.00401   1.92377
   A20        1.93473   0.00059  -0.00375   0.00000  -0.00375   1.93098
   A21        1.93570   0.00042  -0.00332   0.00000  -0.00331   1.93239
   A22        1.92443   0.00066  -0.00499   0.00000  -0.00499   1.91945
    D1        3.13963   0.00019   0.00556   0.00000   0.00556  -3.13800
    D2       -1.96984  -0.00487  -0.08516   0.00000  -0.08514  -2.05498
    D3        1.14070   0.00518   0.00860   0.00000   0.00858   1.14929
    D4        1.91313   0.00421   0.07194   0.00000   0.07191   1.98504
    D5       -1.21551  -0.00434  -0.00774   0.00000  -0.00772  -1.22323
    D6        3.11331  -0.00588  -0.04740   0.00000  -0.04746   3.06586
    D7       -0.06279   0.00532   0.05642   0.00000   0.05649  -0.00631
    D8       -3.09881   0.00495   0.04237   0.00000   0.04242  -3.05639
    D9        0.05717  -0.00456  -0.04573   0.00000  -0.04579   0.01139
   D10        3.05410   0.00010  -0.00340   0.00000  -0.00340   3.05070
   D11       -1.14921   0.00022  -0.00309   0.00000  -0.00309  -1.15231
   D12        0.97043  -0.00004  -0.00490   0.00000  -0.00489   0.96554
   D13       -3.10571  -0.00007  -0.00207   0.00000  -0.00207  -3.10778
   D14       -1.02411   0.00014  -0.00073   0.00000  -0.00074  -1.02485
   D15        1.09589  -0.00012  -0.00278   0.00000  -0.00278   1.09311
         Item               Value     Threshold  Converged?
 Maximum Force            0.006939     0.000450     NO 
 RMS     Force            0.003072     0.000300     NO 
 Maximum Displacement     0.090656     0.001800     NO 
 RMS     Displacement     0.025800     0.001200     NO 
 Predicted change in Energy=-2.274624D-04
 GradGradGradGradGradGradGradGradGradGradGradGradGradGradGradGradGradGrad

                          Input orientation:                          
 ---------------------------------------------------------------------
 Center     Atomic      Atomic             Coordinates (Angstroms)
 Number     Number       Type             X           Y           Z
 ---------------------------------------------------------------------
      1          7           0       -0.320488   -0.321037   -0.435726
      2          7           0        0.318673    0.311451    0.420694
      3          6           0       -1.727719   -0.490465   -0.108428
      4          6           0        1.723091    0.483852    0.089933
      5          8           0        2.158609    1.589565   -0.139684
      6          8           0       -2.177927   -1.602978    0.049539
      7          8           0        2.381759   -0.660799    0.167381
      8          8           0       -2.371651    0.665280   -0.099732
      9          6           0       -3.805623    0.616435    0.118753
     10          1           0       -4.141249    1.648744    0.054693
     11          1           0       -4.282374    0.007693   -0.652038
     12          1           0       -4.019176    0.202193    1.105649
     13          6           0        3.818545   -0.608262   -0.033015
     14          1           0        4.173336   -1.617397    0.162605
     15          1           0        4.039095   -0.315477   -1.061140
     16          1           0        4.270768    0.101573    0.662033
 ---------------------------------------------------------------------
                    Distance matrix (angstroms):
                    1          2          3          4          5
     1  N    0.000000
     2  N    1.241782   0.000000
     3  C    1.454692   2.260698   0.000000
     4  C    2.258402   1.453105   3.591201   0.000000
     5  O    3.143877   2.309321   4.408066   1.210372   0.000000
     6  O    2.308448   3.167933   1.210507   4.424300   5.388291
     7  O    2.789501   2.294725   4.122244   1.322902   2.282154
     8  O    2.300648   2.762948   1.323054   4.103145   4.623760
     9  C    3.651365   4.146565   2.365275   5.530378   6.048623
    10  H    4.326519   4.670462   3.229234   5.979022   6.303134
    11  H    3.981381   4.734200   2.658935   6.069831   6.652149
    12  H    4.041027   4.392952   2.684126   5.838205   6.452959
    13  C    4.168485   3.647030   5.548027   2.366169   2.756303
    14  H    4.715189   4.318043   6.013807   3.228658   3.799357
    15  H    4.404218   4.053444   5.847599   2.706985   2.830988
    16  H    4.739547   3.965016   6.076674   2.638957   2.705196
                    6          7          8          9         10
     6  O    0.000000
     7  O    4.657502   0.000000
     8  O    2.281404   4.942140   0.000000
     9  C    2.753177   6.318022   1.451344   0.000000
    10  H    3.798468   6.920718   2.030401   1.087387   0.000000
    11  H    2.741381   6.747518   2.094833   1.091777   1.792326
    12  H    2.786433   6.526643   2.093259   1.091405   1.792183
    13  C    6.078976   1.451645   6.320197   7.723397   8.274062
    14  H    6.352285   2.030972   6.936591   8.285875   8.933737
    15  H    6.445357   2.091715   6.556207   7.987503   8.486535
    16  H    6.698232   2.096246   6.709678   8.111001   8.574651
                   11         12         13         14         15
    11  H    0.000000
    12  H    1.787894   0.000000
    13  C    8.147851   7.961360   0.000000
    14  H    8.648907   8.444968   1.087428   0.000000
    15  H    8.337784   8.360543   1.091516   1.791806   0.000000
    16  H    8.654007   8.302415   1.091541   1.792702   1.787996
                   16
    16  H    0.000000
 Stoichiometry    C4H6N2O4
 Framework group  C1[X(C4H6N2O4)]
 Deg. of freedom    42
 Full point group                 C1      NOp   1
 Largest Abelian subgroup         C1      NOp   1
 Largest concise Abelian subgroup C1      NOp   1
                         Standard orientation:                         
 ---------------------------------------------------------------------
 Center     Atomic      Atomic             Coordinates (Angstroms)
 Number     Number       Type             X           Y           Z
 ---------------------------------------------------------------------
      1          7           0        0.318984    0.318186   -0.443073
      2          7           0       -0.317114   -0.311430    0.417732
      3          6           0        1.725794    0.495033   -0.117899
[...]
 ! A10   A(3,8,9)              116.3358         -DE/DX =    0.0                 !
 ! A11   A(8,9,10)             104.9224         -DE/DX =    0.0                 !
 ! A12   A(8,9,11)             109.5851         -DE/DX =    0.0                 !
 ! A13   A(8,9,12)             109.4993         -DE/DX =    0.0                 !
 ! A14   A(10,9,11)            111.0984         -DE/DX =    0.0                 !
 ! A15   A(10,9,12)            111.0693         -DE/DX =    0.0                 !
 ! A16   A(11,9,12)            110.5104         -DE/DX =    0.0                 !
 ! A17   A(7,13,14)            104.9224         -DE/DX =    0.0                 !
 ! A18   A(7,13,15)            109.498          -DE/DX =    0.0                 !
 ! A19   A(7,13,16)            109.5847         -DE/DX =    0.0                 !
 ! A20   A(14,13,15)           111.0683         -DE/DX =    0.0                 !
 ! A21   A(14,13,16)           111.1004         -DE/DX =    0.0                 !
 ! A22   A(15,13,16)           110.511          -DE/DX =    0.0                 !
 ! D1    D(3,1,2,4)           -179.987          -DE/DX =    0.0                 !
 ! D2    D(2,1,3,6)           -105.4527         -DE/DX =    0.0                 !
 ! D3    D(2,1,3,8)             78.8434         -DE/DX =    0.0                 !
 ! D4    D(1,2,4,5)            104.989          -DE/DX =    0.0                 !
 ! D5    D(1,2,4,7)            -79.3218         -DE/DX =    0.0                 !
 ! D6    D(1,3,8,9)            174.7274         -DE/DX =    0.0                 !
 ! D7    D(6,3,8,9)             -0.5385         -DE/DX =    0.0                 !
 ! D8    D(2,4,7,13)          -174.7396         -DE/DX =    0.0                 !
 ! D9    D(5,4,7,13)             0.5107         -DE/DX =    0.0                 !
 ! D10   D(4,7,13,14)          177.5292         -DE/DX =    0.0                 !
 ! D11   D(4,7,13,15)          -63.1946         -DE/DX =    0.0                 !
 ! D12   D(4,7,13,16)           58.1714         -DE/DX =    0.0                 !
 ! D13   D(3,8,9,10)          -177.5422         -DE/DX =    0.0                 !
 ! D14   D(3,8,9,11)           -58.1866         -DE/DX =    0.0                 !
 ! D15   D(3,8,9,12)            63.1797         -DE/DX =    0.0                 !
 --------------------------------------------------------------------------------
 GradGradGradGradGradGradGradGradGradGradGradGradGradGradGradGradGradGrad

 1\1\GINC-D10S10B2\Freq\RB3LYP\6-31+G(d,p)\C4H6N2O4\CHMKSH\17-Sep-2020\
 0\\#N Geom=AllCheck Guess=TCheck SCRF=Check GenChk RB3LYP/6-31+G(d,p) 
 Freq\\Title Card Required\\0,1\N,-0.3371382463,-0.2376669471,-0.446058
 5893\N,0.3409275371,0.2374420422,0.4784785472\C,-1.7271238226,-0.44037
 62565,-0.0850365972\C,1.730772294,0.4403693142,0.1172313154\O,2.150422
 8169,1.5534293112,-0.1066515276\O,-2.1485893942,-1.554376105,0.1306462
 87\O,2.4012186013,-0.6944479076,0.1734459348\O,-2.3956045173,0.6960703
 862,-0.131456187\C,-3.8340795711,0.6104035516,0.0948120963\H,-4.197933
 463,1.6278654389,-0.0277873211\H,-4.2811430815,-0.0581279027,-0.642574
 8358\H,-4.0226344109,0.2455807431,1.1054752286\C,3.8397599608,-0.60806
 00759,-0.0522610318\H,4.2053400247,-1.6238015124,0.0791362945\H,4.0285
 394074,-0.2513615149,-1.0657787788\H,4.2849368646,0.0674294347,0.67989
 7165\\Version=ES64L-G09RevD.01\State=1-A\HF=-566.4332042\RMSD=3.755e-0
 9\RMSF=5.181e-06\ZeroPoint=0.1134845\Thermal=0.1246083\Dipole=0.001901
 2,0.0019832,0.0084651\DipoleDeriv=-0.5198111,-0.0631011,0.1193361,-0.0
 384468,-0.2250328,0.0438563,0.0775814,0.0391154,-0.1038584,-0.5211397,
 -0.0631794,0.1189128,-0.0375089,-0.2240686,0.0447692,0.0777647,0.04061
 15,-0.104947,2.2628363,0.0460367,-0.1068298,-0.5165814,2.487395,-0.216
 3636,-0.1392048,-0.2776585,0.5221342,2.2660344,0.0429585,-0.1040378,-0
 .5183036,2.4830481,-0.2316522,-0.1331776,-0.2929638,0.5253622,-1.05115
 6,-0.3732935,0.0246809,-0.10398,-1.4481153,0.1269523,0.0717786,0.18281
 25,-0.4713238,-1.0511628,-0.3750926,0.0229294,-0.104711,-1.450014,0.11
 9595,0.0713774,0.175501,-0.4694068,-1.6843444,0.4553494,0.0286581,0.70
 17961,-1.2131157,0.0494907,0.0641156,0.0621171,-0.342199,-1.6809495,0.
 4552705,0.0343631,0.7010466,-1.2155685,0.0418834,0.0707921,0.0546601,-
 0.341616,1.0592817,-0.1544621,-0.0594532,-0.025208,0.3147659,0.0153809
 ,-0.1086167,0.0251976,0.3378565,0.0034705,0.0141,0.0082485,0.0793805,-
 0.0471438,0.0179302,0.005935,0.0274642,0.1136841,-0.0393307,0.0312758,
 0.0090994,-0.0663409,0.0445339,-0.0870757,-0.03816,-0.0849506,0.001017
 5,-0.0340714,0.0463936,-0.0273955,-0.0295622,0.0906517,0.0645943,0.060
 0813,0.0403493,-0.0594646,1.0604539,-0.1538735,-0.057527,-0.024815,0.3
 146606,0.0155296,-0.1081094,0.0249575,0.337343,0.003293,0.0143223,0.00
 79713,0.0795178,-0.0465684,0.0193541,0.0050887,0.0288544,0.11328,-0.03
 41008,0.0459356,-0.0278782,-0.0293875,0.0916181,0.0632292,0.0602305,0.
 0392389,-0.0602233,-0.0393037,0.03136,0.0089221,-0.0668956,0.0429538,-
 0.0874738,-0.0374769,-0.0853066,0.0023616\Polar=127.54368,4.5410333,99
 .0732938,1.1380206,-0.4455061,69.7932567\PG=C01 [X(C4H6N2O4)]\NImag=0\
 \0.50710412,0.16191636,0.17915709,0.20762925,0.19088532,0.47032484,-0.
 24253950,-0.14377598,-0.23668952,0.50726039,-0.14395640,-0.06104392,-0
 .20133219,0.16192931,0.17904673,-0.23663027,-0.20147841,-0.41247633,0.
 20786016,0.19049875,0.47031495,-0.14089803,-0.00788064,0.01846687,-0.0
 5066681,-0.00566354,-0.01173447,0.59162227,0.02083488,-0.05624524,-0.0
 0697359,-0.02390321,-0.03666529,0.00354644,0.10440000,0.92301811,0.051
 83149,-0.00522775,-0.09764272,-0.05118548,0.00356680,0.00792805,-0.056
 87464,-0.09333578,0.25859345,-0.05068181,-0.00569095,-0.01162876,-0.14
 101253,-0.00792349,0.01841774,-0.01537581,-0.00818117,0.00509248,0.591
 57860,-0.02396367,-0.03664617,0.00347378,0.02073489,-0.05628293,-0.007
 05104,-0.00818548,0.02236932,-0.00908837,0.10331166,0.92175380,-0.0511
 4445,0.00359675,0.00795373,0.05170348,-0.00522234,-0.09756208,0.005095
 51,-0.00910994,-0.00196573,-0.05705980,-0.09873599,0.26010283,-0.00170
 126,-0.01022704,0.00354129,-0.02220181,-0.04276259,0.01395866,0.006158
 05,0.00733275,-0.00527705,-0.18138740,-0.20851317,0.04963605,0.1770524
 5,0.00365630,-0.00241856,0.00212028,-0.03670233,-0.01898607,0.01522563
 ,0.00283013,0.00307163,-0.00288194,-0.20260930,-0.60445038,0.10401220,
 0.23334906,0.72343834,0.00728605,0.00153466,-0.00095432,0.00995801,0.0
 1532487,0.01637923,-0.00191539,-0.00088521,0.00161913,0.04363409,0.104
 02672,-0.10195042,-0.05912688,-0.13653158,0.06123624,-0.02227060,-0.04
 290344,0.01368701,-0.00177713,-0.01021624,0.00356296,-0.18202339,-0.20
 953352,0.04832878,0.00616878,0.00733434,-0.00528817,-0.00190956,-0.001
 22435,0.00077605,0.17782359,-0.03673896,-0.01909398,0.01491738,0.00354
 859,-0.00241766,0.00216419,-0.20358335,-0.60527747,0.10023872,0.002842
 16,0.00307142,-0.00288622,-0.00122325,-0.00085066,0.00070666,0.2346648
 8,0.72465761,0.00978718,0.01514144,0.01655561,0.00733164,0.00147605,-0
 .00092929,0.04231617,0.10020815,-0.10044889,-0.00190878,-0.00083924,0.
 00159344,0.00077268,0.00070364,-0.00032596,-0.05772116,-0.13152209,0.0
 5929446,-0.00484187,0.01052386,0.00046593,-0.04805460,0.03589423,0.004
 11314,0.01064270,-0.00487478,-0.00129430,-0.17159545,0.10077306,0.0035
 1104,0.02394501,0.01553032,-0.00272599,-0.00582173,-0.00299015,0.00140
 918,0.44278793,-0.00032482,0.00027834,0.00020311,0.01672876,0.00015142
 ,-0.00460601,-0.00316303,-0.00085153,0.00174414,0.07739898,-0.24670770
 ,0.01279808,0.01897663,-0.10342553,0.01751310,0.00122621,0.00065179,-0
 .00040002,-0.11570266,0.42092096,0.00218659,-0.00202496,-0.00099751,0.
 00874019,-0.00318035,0.01039189,-0.00085688,0.00103073,0.00018874,0.00
 337098,0.00878692,-0.06779341,-0.00254175,0.01589579,0.02811719,0.0006
 5232,0.00032996,-0.00018372,-0.04054009,-0.02892875,0.08600533,-0.0479
 7382,0.03586389,0.00448448,-0.00482669,0.01056609,0.00044825,-0.171248
 13,0.10051695,0.00439445,0.01062389,-0.00485205,-0.00128225,-0.0057971
 8,-0.00297656,0.00143222,0.02399323,0.01535805,-0.00256570,-0.00322296
 ,0.00159869,0.00019015,0.44234086,0.01674434,0.00011508,-0.00468432,-0
 .00035023,0.00028138,0.00018969,0.07717160,-0.24710827,0.01124542,-0.0
 0315447,-0.00084991,0.00174817,0.00122116,0.00064496,-0.00040410,0.018
 79431,-0.10375832,0.01646350,0.00160360,-0.00048010,-0.00020965,-0.115
 36003,0.42171460,0.00893667,-0.00331115,0.01027227,0.00213974,-0.00202
 820,-0.00099130,0.00411894,0.00722435,-0.06761325,-0.00087701,0.001035
 39,0.00019764,0.00066325,0.00033487,-0.00019099,-0.00235645,0.01486278
 ,0.02837009,0.00020052,-0.00021330,-0.00004069,-0.04181131,-0.02607120
 ,0.08567200,0.00462770,-0.00003849,-0.00025949,0.00190112,-0.00040617,
 0.00026607,-0.04559522,0.03673828,0.00124707,-0.00310568,-0.00009260,0
 .00053209,0.00137386,0.00077575,-0.00032481,0.00162746,-0.01885227,0.0
 0215643,0.00137815,-0.00049117,-0.00008944,-0.15654337,-0.00893672,0.0
 1557610,0.40177075,0.00096075,-0.00315950,0.00103481,0.00099878,-0.001
 00883,0.00049847,0.04240636,-0.00536650,-0.00603324,-0.00047031,0.0009
 4141,-0.00004013,0.00048459,0.00023702,-0.00010258,0.00178311,0.001584
 91,-0.00094141,-0.00001694,-0.00009541,0.00000152,-0.03322984,-0.07858
 769,0.00641097,-0.01837988,0.63371818,-0.00222784,0.00167422,0.0077516
 5,0.00244696,-0.00019672,-0.00031475,0.00077764,-0.00562707,-0.0019363
 4,0.00023564,0.00068230,-0.00006108,0.00013192,0.00001573,-0.00003727,
 -0.00149974,0.00214662,-0.00410512,-0.00019725,-0.00003864,0.00001153,
 0.01885200,0.00282614,-0.06627973,0.03163016,-0.00168856,0.59804332,-0
 .00075975,0.00124828,0.00014122,-0.00030306,0.00044252,-0.00016150,-0.
 00555346,-0.00514300,0.00130523,0.00069865,-0.00029468,-0.00004970,-0.
 00038510,-0.00020970,0.00008717,0.00180777,0.00124823,-0.00038063,-0.0
 0021938,0.00010929,0.00000640,-0.02788652,0.03657506,-0.00167180,-0.07
 000659,0.07463369,-0.01049084,0.09186896,-0.00009657,0.00014812,0.0000
 2267,0.00006360,0.00007759,0.00000969,-0.00258488,0.00113672,0.0002568
 7,-0.00010890,-0.00005706,0.00003131,0.00003829,0.00002446,-0.00000582
 ,0.00108552,0.00017951,-0.00011448,0.00006128,-0.00002021,-0.00000600,
 -0.00238463,0.00556333,-0.00069430,0.08903936,-0.30810165,0.03116180,-
 0.09246974,0.32090804,-0.00008333,-0.00029884,0.00033731,0.00016606,-0
 .00001758,0.00000541,0.00149028,0.00032782,-0.00030219,-0.00012076,0.0
 0009459,0.00000816,0.00008275,0.00003968,-0.00001979,-0.00032320,-0.00
 013298,0.00036078,0.00003029,-0.00002035,0.00000028,0.00451250,-0.0062
 6205,0.00076653,-0.01287284,0.03336686,-0.05646589,0.00916978,-0.03397
 455,0.05088731,-0.00101169,0.00040903,0.00143763,0.00045765,0.00019194
 ,0.00003731,0.00185417,-0.00973279,-0.00129253,0.00049445,0.00008609,-
 0.00005241,-0.00017848,-0.00011366,0.00004210,0.00106251,0.00287791,-0
 .00058436,-0.00021728,0.00006733,0.00001001,-0.03434777,-0.01640021,-0
 .02018291,-0.08542125,-0.05933864,-0.06776229,0.00687731,0.00551050,0.
 00793257,0.10560516,0.00001368,-0.00028583,-0.00067132,-0.00028970,0.0
 0012288,0.00002210,0.00260599,0.00056030,0.00126523,0.00007090,-0.0000
 2453,-0.00003531,-0.00004427,-0.00002996,0.00001453,-0.00048146,0.0005
 4601,-0.00026578,-0.00003618,0.00001555,0.00000895,-0.00259362,0.00191
 095,0.00290747,-0.06603324,-0.15692876,-0.11829722,-0.01133791,-0.0136
 4412,-0.02029071,0.07285371,0.15979888,0.00003285,-0.00002799,-0.00057
 921,-0.00011828,0.00008880,-0.00000683,-0.00062336,-0.00052479,0.00131
 812,-0.00006791,-0.00007822,0.00002594,0.00001158,0.00001184,-0.000003
 70,0.00103931,0.00012475,-0.00034680,0.00004980,-0.00000938,-0.0000030
 2,0.00486828,0.00648864,0.00829875,-0.07504790,-0.11825378,-0.18434657
 ,0.00286278,0.00396882,0.00447158,0.07786349,0.12701291,0.18773648,-0.
 00048943,0.00012668,-0.00150562,-0.00059830,0.00017690,0.00007994,0.00
 235488,-0.00794646,0.00338629,0.00064224,-0.00020390,-0.00009445,-0.00
 035087,-0.00018274,0.00009021,0.00085972,0.00257914,-0.00050922,-0.000
 23520,0.00011204,0.00001250,-0.02581731,-0.00770642,0.03532703,-0.0518
 3148,-0.00978932,0.02809115,0.00381691,0.00185214,-0.00997591,0.004796
 75,0.00526911,-0.01086686,0.06681215,0.00004362,0.00001728,0.00050347,
 0.00010498,-0.00001506,-0.00001224,0.00207833,0.00041591,-0.00167130,0
 .00007923,0.00007934,-0.00003541,-0.00000943,-0.00000947,-0.00000101,-
 0.00100200,0.00048291,0.00018319,-0.00005295,0.00001062,0.00000610,-0.
 00246365,0.00064488,-0.00046808,-0.01327517,-0.08325281,0.08733196,-0.
 00479995,-0.00621062,0.02716710,0.00358405,0.00795637,-0.01879832,0.01
 570928,0.07987686,-0.00003776,-0.00028565,-0.00018065,-0.00004412,-0.0
 0008756,-0.00004000,-0.00018208,0.00340425,0.00029756,-0.00013798,0.00
 003544,-0.00001279,0.00006573,0.00003120,-0.00000801,-0.00114033,-0.00
 104312,0.00023146,0.00004565,-0.00002160,0.00000197,0.00654783,-0.0012
 4134,0.00152857,0.03717608,0.08574231,-0.29226116,-0.00081246,-0.00065
 489,-0.00005116,0.00255736,0.00832892,-0.01656401,-0.04402981,-0.09420
 839,0.30705606,0.00188272,-0.00037882,0.00027273,0.00462104,-0.0000605
 8,-0.00027471,-0.00310498,-0.00009357,0.00053600,-0.04573012,0.0366740
 1,0.00091663,0.00166243,-0.01883031,0.00230647,0.00137514,0.00077564,-
 0.00031890,-0.15646592,-0.00894860,0.01557562,0.00137628,-0.00049053,-
 0.00009370,-0.00041656,-0.00005300,0.00005242,0.00008936,-0.00001585,-
 0.00001455,0.00006923,0.00000876,-0.00001240,0.00008272,0.00001236,-0.
 00001637,0.40175765,0.00103368,-0.00100621,0.00048211,0.00095081,-0.00
 314153,0.00114285,-0.00047571,0.00094535,-0.00003898,0.04233860,-0.005
 29644,-0.00598210,0.00176465,0.00155707,-0.00097953,0.00048964,0.00023
 959,-0.00010079,-0.03322548,-0.07858507,0.00650935,-0.00001478,-0.0000
 9731,0.00000115,-0.00005329,0.00001746,0.00000726,-0.00000010,-0.00000
 424,0.00000078,0.00000518,0.00000264,-0.00000287,0.00000584,0.00000378
 ,0.00000035,-0.01852706,0.63361210,0.00243017,-0.00016064,-0.00032195,
 -0.00222379,0.00172192,0.00771831,0.00024437,0.00066272,-0.00005749,0.
 00038749,-0.00551809,-0.00183938,-0.00151024,0.00207821,-0.00411160,0.
 00012403,0.00001150,-0.00003537,0.01903159,0.00293722,-0.06630847,-0.0
 0019520,-0.00003811,0.00001132,0.00005333,0.00000643,-0.00000553,-0.00
 001358,0.00000097,0.00000236,-0.00001356,-0.00000024,0.00000072,-0.000
 01274,0.00000141,0.00000392,0.03160171,-0.00191156,0.59811119,-0.00030
 723,0.00044133,-0.00015800,-0.00075850,0.00124970,0.00012558,0.0006991
 5,-0.00029540,-0.00005002,-0.00554159,-0.00514648,0.00134475,0.0018040
 5,0.00124928,-0.00038962,-0.00038613,-0.00021025,0.00008534,-0.0279491
 9,0.03650304,-0.00199836,-0.00021935,0.00010954,0.00000712,0.00008939,
 -0.00000022,-0.00001373,-0.00001567,0.00000377,0.00000191,-0.00001449,
 -0.00000229,0.00000321,-0.00001500,-0.00000343,0.00000291,-0.07028077,
 0.07494408,-0.01118164,0.09218241,0.00006365,0.00007883,0.00000951,-0.
 00009805,0.00014778,0.00002421,-0.00010824,-0.00005689,0.00003142,-0.0
 0258539,0.00112630,0.00024614,0.00108568,0.00018254,-0.00011320,0.0000
 3809,0.00002429,-0.00000569,-0.00240698,0.00556855,-0.00074046,0.00006
 091,-0.00002012,-0.00000619,-0.00001578,-0.00000422,0.00000089,0.00000
 375,-0.00000072,-0.00000086,0.00000238,0.00000037,-0.00000053,0.000003
 72,0.00000047,-0.00000070,0.08933011,-0.30725158,0.03330818,-0.0927730
 0,0.31998942,0.00016510,-0.00001641,0.00000371,-0.00008032,-0.00029737
 ,0.00033931,-0.00011839,0.00009422,0.00000803,0.00150241,0.00031195,-0
 .00030421,-0.00032780,-0.00012971,0.00036129,0.00008176,0.00003911,-0.
 00001920,0.00451890,-0.00626118,0.00082912,0.00002941,-0.00002005,0.00
 000018,-0.00001423,0.00000080,0.00000237,0.00000185,-0.00000086,0.0000
 0027,0.00000236,0.00000029,-0.00000058,0.00000200,0.00000079,-0.000000
 36,-0.01368500,0.03549389,-0.05703580,0.01003511,-0.03628110,0.0514828
 0,-0.00059612,0.00016942,0.00008024,-0.00049314,0.00012380,-0.00150363
 ,0.00063987,-0.00020218,-0.00009542,0.00234944,-0.00791761,0.00345501,
 0.00085449,0.00258106,-0.00052718,-0.00035026,-0.00018237,0.00008857,-
 0.02582779,-0.00745539,0.03535706,-0.00023465,0.00011185,0.00001332,0.
 00008246,0.00000586,-0.00001266,-0.00001498,0.00000372,0.00000205,-0.0
 0001328,-0.00000226,0.00000302,-0.00001448,-0.00000368,0.00000250,-0.0
 5185491,-0.00956255,0.02823975,0.00383393,0.00178831,-0.01003825,0.066
 85130,0.00010382,-0.00001571,-0.00001303,0.00004398,0.00002018,0.00049
 825,0.00007949,0.00007816,-0.00003532,0.00208445,0.00041065,-0.0016653
 6,-0.00100214,0.00047815,0.00017767,-0.00000989,-0.00000959,-0.0000008
 5,-0.00246248,0.00061761,-0.00039680,-0.00005254,0.00001063,0.00000624
 ,0.00001238,0.00000372,0.00000146,-0.00000341,0.00000047,0.00000079,-0
 .00000157,-0.00000032,0.00000008,-0.00000368,-0.00000012,0.00000065,-0
 .01297079,-0.08186059,0.08560485,-0.00481237,-0.00599636,0.02720061,0.
 01537860,0.07837670,-0.00004617,-0.00008643,-0.00003972,-0.00003770,-0
 .00028911,-0.00018441,-0.00013708,0.00003513,-0.00001252,-0.00020021,0
 .00339354,0.00028050,-0.00112763,-0.00104612,0.00023481,0.00006516,0.0
 0003085,-0.00000766,0.00654116,-0.00123027,0.00159019,0.00004537,-0.00
 002144,0.00000179,-0.00001626,0.00000036,0.00000391,0.00000289,-0.0000
 0070,-0.00000037,0.00000284,0.00000012,-0.00000053,0.00000249,0.000000
 65,-0.00000086,0.03734781,0.08404179,-0.29364324,-0.00076689,-0.000603
 94,-0.00028439,-0.04420694,-0.09235966,0.30854277,0.00045657,0.0001965
 2,0.00003475,-0.00100813,0.00041452,0.00143475,0.00049475,0.00008322,-
 0.00005235,0.00187435,-0.00974441,-0.00122334,0.00106133,0.00287705,-0
 .00060249,-0.00017940,-0.00011400,0.00004156,-0.03430242,-0.01663530,-
 0.02007529,-0.00021650,0.00006714,0.00001048,0.00006925,0.00000501,-0.
 00001352,-0.00001444,0.00000240,0.00000241,-0.00001298,-0.00000123,0.0
 0000240,-0.00001330,-0.00000158,0.00000286,-0.08506332,-0.05967350,-0.
 06696168,0.00687899,0.00561084,0.00792508,0.00478815,0.00361617,0.0025
 3115,0.10518711,-0.00029065,0.00012038,0.00002200,0.00001580,-0.000286
 66,-0.00067258,0.00007299,-0.00002431,-0.00003593,0.00259801,0.0005628
 7,0.00128016,-0.00047091,0.00053647,-0.00027517,-0.00004520,-0.0000303
 5,0.00001438,-0.00261776,0.00195070,0.00291766,-0.00003689,0.00001592,
 0.00000919,0.00000900,0.00000268,-0.00000017,-0.00000234,0.00000038,0.
 00000030,-0.00000125,-0.00000044,0.00000004,-0.00000232,-0.00000033,0.
 00000014,-0.06643176,-0.15913502,-0.11870479,-0.01125731,-0.01378866,-
 0.02013499,0.00516342,0.00788644,0.00813522,0.07329716,0.16218991,-0.0
 0011554,0.00008584,-0.00000671,0.00003298,-0.00002578,-0.00057217,-0.0
 0006749,-0.00007745,0.00002607,-0.00063962,-0.00052967,0.00132687,0.00
 104743,0.00012027,-0.00034582,0.00001169,0.00001189,-0.00000382,0.0048
 4044,0.00653385,0.00819058,0.00004951,-0.00000931,-0.00000318,-0.00001
 235,-0.00000283,0.00000067,0.00000319,-0.00000052,-0.00000059,0.000002
 38,0.00000003,-0.00000034,0.00000302,0.00000008,-0.00000053,-0.0741937
 5,-0.11866370,-0.18248898,0.00295232,0.00413231,0.00461746,-0.01085746
 ,-0.01901957,-0.01648027,0.07694325,0.12744456,0.18574076\\-0.00000009
 ,-0.00000651,0.00000655,0.00000331,0.00000066,-0.00000570,0.00000080,0
 .00000107,0.00000536,-0.00000261,0.00000589,-0.00000995,-0.00000093,-0
 .00000236,-0.00001420,0.00000193,0.00000077,0.00001238,-0.00000265,0.0
 0000290,0.00001349,0.00000025,-0.00000258,-0.00000595,-0.00000300,-0.0
 0000143,0.00000038,-0.00000042,-0.00000233,-0.00000978,-0.00000046,-0.
 00000694,0.00000273,0.00000052,0.00000605,0.00000036,0.00000321,0.0000
 0153,-0.00000254,0.00000013,0.00000235,0.00000895,-0.00000029,-0.00000
 537,0.00000006,0.00000030,0.00000630,-0.00000214\\\@


 WHAT THE SLIME CONTAINS, THE GLOWING REVEALS
 BY THE FLAME'S BRIGHT HUE WHEN YOU IGNITE IT.
   --  LEONARD THURNEYSSER, 1531-1596
 DESCRIBING HIS FLAME PHOTOLYSIS ANALYTIC METHOD
 Job cpu time:       0 days  0 hours 10 minutes 55.7 seconds.
 File lengths (MBytes):  RWF=    112 Int=      0 D2E=      0 Chk=      9 Scr=      1
 Normal termination of Gaussian 09 at Thu Sep 17 15:29:02 2020.
