 Entering Gaussian System, Link 0=g09
 Input=freq_b3lyp_m062x_TS_associated_cycloaddition_PM6_toluene_3_water.com
 Output=freq_b3lyp_m062x_TS_associated_cycloaddition_PM6_toluene_3_water.log
 Initial command:
 /apps/applications/gaussian/G09.D01/2/default/g09/l1.exe "/local/746256.1.40core-192G.q/Gau-332176.inp" -scrdir="/local/746256.1.40core-192G.q/"
 Entering Link 1 = /apps/applications/gaussian/G09.D01/2/default/g09/l1.exe PID=    332177.
  
 Copyright (c) 1988,1990,1992,1993,1995,1998,2003,2009,2013,
            Gaussian, Inc.  All Rights Reserved.
  
 This is part of the Gaussian(R) 09 program.  It is based on
 the Gaussian(R) 03 system (copyright 2003, Gaussian, Inc.),
 the Gaussian(R) 98 system (copyright 1998, Gaussian, Inc.),
 the Gaussian(R) 94 system (copyright 1995, Gaussian, Inc.),
 the Gaussian 92(TM) system (copyright 1992, Gaussian, Inc.),
 the Gaussian 90(TM) system (copyright 1990, Gaussian, Inc.),
 the Gaussian 88(TM) system (copyright 1988, Gaussian, Inc.),
 the Gaussian 86(TM) system (copyright 1986, Carnegie Mellon
 University), and the Gaussian 82(TM) system (copyright 1983,
 Carnegie Mellon University). Gaussian is a federally registered
 trademark of Gaussian, Inc.
  
 This software contains proprietary and confidential information,
 including trade secrets, belonging to Gaussian, Inc.
  
 This software is provided under written license and may be
 used, copied, transmitted, or stored only in accord with that
 written license.
  
 The following legend is applicable only to US Government
 contracts under FAR:
  
                    RESTRICTED RIGHTS LEGEND
  
 Use, reproduction and disclosure by the US Government is
 subject to restrictions as set forth in subparagraphs (a)
 and (c) of the Commercial Computer Software - Restricted
 Rights clause in FAR 52.227-19.
  
 Gaussian, Inc.
 340 Quinnipiac St., Bldg. 40, Wallingford CT 06492
  
  
 ---------------------------------------------------------------
 Warning -- This program may not be used in any manner that
 competes with the business of Gaussian, Inc. or will provide
 assistance to any competitor of Gaussian, Inc.  The licensee
 of this program is prohibited from giving any competitor of
 Gaussian, Inc. access to this program.  By using this program,
 the user acknowledges that Gaussian, Inc. is engaged in the
 business of creating and licensing software in the field of
 computational chemistry and represents and warrants to the
 licensee that it is not a competitor of Gaussian, Inc. and that
 it will not use this program in any manner prohibited above.
 ---------------------------------------------------------------
  

 Cite this work as:
 Gaussian 09, Revision D.01,
 M. J. Frisch, G. W. Trucks, H. B. Schlegel, G. E. Scuseria, 
 M. A. Robb, J. R. Cheeseman, G. Scalmani, V. Barone, B. Mennucci, 
 G. A. Petersson, H. Nakatsuji, M. Caricato, X. Li, H. P. Hratchian, 
 A. F. Izmaylov, J. Bloino, G. Zheng, J. L. Sonnenberg, M. Hada, 
 M. Ehara, K. Toyota, R. Fukuda, J. Hasegawa, M. Ishida, T. Nakajima, 
 Y. Honda, O. Kitao, H. Nakai, T. Vreven, J. A. Montgomery, Jr., 
 J. E. Peralta, F. Ogliaro, M. Bearpark, J. J. Heyd, E. Brothers, 
 K. N. Kudin, V. N. Staroverov, T. Keith, R. Kobayashi, J. Normand, 
 K. Raghavachari, A. Rendell, J. C. Burant, S. S. Iyengar, J. Tomasi, 
 M. Cossi, N. Rega, J. M. Millam, M. Klene, J. E. Knox, J. B. Cross, 
 V. Bakken, C. Adamo, J. Jaramillo, R. Gomperts, R. E. Stratmann, 
 O. Yazyev, A. J. Austin, R. Cammi, C. Pomelli, J. W. Ochterski, 
 R. L. Martin, K. Morokuma, V. G. Zakrzewski, G. A. Voth, 
 P. Salvador, J. J. Dannenberg, S. Dapprich, A. D. Daniels, 
 O. Farkas, J. B. Foresman, J. V. Ortiz, J. Cioslowski, 
 and D. J. Fox, Gaussian, Inc., Wallingford CT, 2013.
 
 ******************************************
 Gaussian 09:  ES64L-G09RevD.01 24-Apr-2013
                17-Sep-2020 
 ******************************************
 %nprocshared=4
 Will use up to    4 processors via shared memory.
 %chk=freq_b3lyp_m062x_TS_associated_cycloaddition_PM6_toluene_3_water.chk
 ----------------------------------------------------------------------
 # freq b3lyp/6-31+g(d,p) scrf=(cpcm,solvent=water) geom=connectivity e
 mpiricaldispersion=gd3
 ----------------------------------------------------------------------
 1/10=4,30=1,38=1,57=2/1,3;
 2/12=2,17=6,18=5,40=1/2;
 3/5=1,6=6,7=111,11=2,16=1,25=1,30=1,70=2101,71=2,72=1,74=-5,124=31,140=1/1,2,3;
 4//1;
 5/5=2,38=5,53=1,98=1/2;
 8/6=4,10=90,11=11/1;
 11/6=1,8=1,9=11,15=111,16=1/1,2,10;
 10/6=1/2;
 6/7=2,8=2,9=2,10=2,18=1,28=1/1;
 7/8=1,10=1,25=1/1,2,3,16;
 1/10=4,30=1/3;
 99//99;
 -------------------
 Title Card Required
 -------------------
 Symbolic Z-matrix:
 Charge =  0 Multiplicity = 1
 C                     0.49049   0.86118  -0.87664 
 C                     1.73169   1.37652  -0.11665 
 C                    -0.07384   2.32836   0.96664 
 C                    -0.6415    1.67481  -0.27219 
 H                     0.50659   0.49971  -1.89331 
 H                    -1.68879   1.53945  -0.49687 
 C                     1.25497   1.66469   1.31112 
 H                     1.94164   2.34252   1.82655 
 H                     1.12396   0.75266   1.89635 
 C                     1.3       2.48935  -0.96312 
 H                     1.70343   2.74221  -1.93474 
 C                     0.0739    3.06089  -0.34102 
 H                    -0.41436   3.98094  -0.63045 
 H                     2.67179   0.87738  -0.32373 
 H                    -0.75504   2.70427   1.7199 
 N                    -0.82086  -0.90855   0.85521 
 N                    -0.01432  -1.07995  -0.15708 
 C                    -2.17283  -0.83477   0.50125 
 C                     1.2809   -1.51922   0.24818 
 O                     1.64299  -1.81558   1.37359 
 O                    -3.0413   -0.71762   1.36292 
 O                     2.04852  -1.64732  -0.84778 
 O                    -2.45654  -0.92348  -0.81764 
 C                    -3.85399  -0.84806  -1.16904 
 H                    -3.88356  -0.93843  -2.25439 
 H                    -4.41117  -1.6634   -0.70163 
 H                    -4.2759    0.10974  -0.85363 
 C                     3.38476  -2.1506   -0.62834 
 H                     3.93385  -1.49429   0.05105 
 H                     3.34476  -3.15925  -0.21055 
 H                     3.85258  -2.16102  -1.6114 
 

 GradGradGradGradGradGradGradGradGradGradGradGradGradGradGradGradGradGrad
 Berny optimization.
 Initialization pass.
 Trust Radius=3.00D-01 FncErr=1.00D-07 GrdErr=1.00D-07
 Number of steps in this run=      2 maximum allowed number of steps=      2.
 GradGradGradGradGradGradGradGradGradGradGradGradGradGradGradGradGradGrad

                          Input orientation:                          
 ---------------------------------------------------------------------
 Center     Atomic      Atomic             Coordinates (Angstroms)
 Number     Number       Type             X           Y           Z
 ---------------------------------------------------------------------
      1          6           0        0.490487    0.861180   -0.876644
      2          6           0        1.731686    1.376515   -0.116647
      3          6           0       -0.073840    2.328364    0.966639
      4          6           0       -0.641502    1.674806   -0.272192
      5          1           0        0.506593    0.499709   -1.893307
      6          1           0       -1.688790    1.539451   -0.496873
      7          6           0        1.254966    1.664689    1.311115
      8          1           0        1.941641    2.342519    1.826545
      9          1           0        1.123960    0.752664    1.896349
     10          6           0        1.299999    2.489347   -0.963115
     11          1           0        1.703433    2.742212   -1.934737
     12          6           0        0.073903    3.060892   -0.341020
     13          1           0       -0.414359    3.980938   -0.630450
     14          1           0        2.671785    0.877379   -0.323734
     15          1           0       -0.755043    2.704272    1.719903
     16          7           0       -0.820863   -0.908550    0.855208
     17          7           0       -0.014322   -1.079947   -0.157082
     18          6           0       -2.172830   -0.834773    0.501253
     19          6           0        1.280900   -1.519216    0.248184
     20          8           0        1.642985   -1.815576    1.373589
     21          8           0       -3.041302   -0.717616    1.362924
     22          8           0        2.048523   -1.647320   -0.847781
     23          8           0       -2.456538   -0.923476   -0.817635
     24          6           0       -3.853994   -0.848058   -1.169036
     25          1           0       -3.883558   -0.938431   -2.254389
     26          1           0       -4.411168   -1.663395   -0.701632
     27          1           0       -4.275903    0.109743   -0.853634
     28          6           0        3.384755   -2.150600   -0.628337
     29          1           0        3.933852   -1.494293    0.051046
     30          1           0        3.344758   -3.159250   -0.210551
     31          1           0        3.852580   -2.161024   -1.611398
 ---------------------------------------------------------------------
                    Distance matrix (angstroms):
                    1          2          3          4          5
     1  C    0.000000
     2  C    1.543937   0.000000
     3  C    2.422558   2.310725   0.000000
     4  C    1.519457   2.396913   1.511317   0.000000
     5  H    1.079131   2.329412   3.443860   2.308027   0.000000
     6  H    2.313769   3.445399   2.317825   1.079636   2.801928
     7  C    2.452824   1.532583   1.524747   2.470537   3.490782
     8  H    3.406970   2.180193   2.191302   3.394579   4.392335
     9  H    2.846499   2.193325   2.186759   2.944448   3.847937
    10  C    1.820361   1.463303   2.374300   2.215915   2.335254
    11  H    2.475698   2.274066   3.427529   3.066290   2.542236
    12  C    2.301992   2.373966   1.506120   1.561338   3.025967
    13  H    3.257645   3.413579   2.323284   2.344821   3.816008
    14  H    2.250341   1.084347   3.362867   3.408287   2.700787
    15  H    3.419121   3.364473   1.082936   2.245247   4.416685
    16  N    2.801945   3.561114   3.323864   2.824346   3.361498
    17  N    2.130863   3.014031   3.589272   2.827591   2.404401
    18  C    3.445013   4.529552   3.824628   3.039929   3.833284
    19  C    2.748868   2.953230   4.141904   3.764067   3.043287
    20  O    3.681959   3.523935   4.503924   4.484444   4.162276
    21  O    4.470100   5.418111   4.270933   3.762490   4.967140
    22  O    2.953114   3.127063   4.858252   4.313242   2.842606
    23  O    3.445785   4.829344   4.408554   3.216043   3.458709
    24  C    4.677767   6.103775   5.379622   4.182018   4.621230
    25  H    4.926363   6.438935   5.963298   4.611837   4.633795
    26  H    5.516369   6.878802   6.126147   5.053552   5.503043
    27  H    4.825315   6.183768   5.088517   3.999546   4.909711
    28  C    4.184407   3.928741   5.879366   5.565188   4.111946
    29  H    4.273830   3.622043   5.613610   5.575082   4.416181
    30  H    4.975379   4.814975   6.571643   6.265953   4.926949
    31  H    4.580093   4.387101   6.497511   6.058369   4.284227
                    6          7          8          9         10
     6  H    0.000000
     7  C    3.456907   0.000000
     8  H    4.384429   1.093912   0.000000
     9  H    3.775991   1.091536   1.789166   0.000000
    10  C    3.170575   2.419548   2.866263   3.350163   0.000000
    11  H    3.875728   3.449309   3.789952   4.355607   1.082012
    12  C    2.333701   2.464517   2.950058   3.381768   1.488952
    13  H    2.757331   3.452728   3.777827   4.378686   2.296635
    14  H    4.413947   2.302165   2.702489   2.709259   2.211119
    15  H    2.672599   2.299560   2.722929   2.714877   3.386440
    16  N    2.928161   3.337436   4.375428   2.761511   4.398870
    17  N    3.127387   3.361506   4.412917   2.978377   3.888057
    18  C    2.620590   4.318909   5.364742   3.916002   5.025404
    19  C    4.327772   3.356746   4.223837   2.811142   4.187623
    20  O    5.084836   3.502386   4.193342   2.671801   4.910213
    21  O    3.222186   4.912838   5.865926   4.449233   5.877241
    22  O    4.924038   4.032365   4.804400   3.760983   4.205426
    23  O    2.599680   5.000544   6.082959   4.795323   5.077410
    24  C    3.292432   6.210195   7.262415   6.061264   6.143641
    25  H    3.747768   6.774473   7.832726   6.720392   6.347150
    26  H    4.208502   6.872581   7.924469   6.574533   7.066192
    27  H    2.977331   6.139585   7.129271   6.093790   6.063430
    28  C    6.274920   4.780576   5.319506   4.462530   5.097783
    29  H    6.412326   4.329362   4.673588   4.043446   4.882120
    30  H    6.891762   5.472941   6.032243   4.967297   6.054258
    31  H    6.755921   5.470353   5.979385   5.314060   5.344333
                   11         12         13         14         15
    11  H    0.000000
    12  C    2.301491   0.000000
    13  H    2.778606   1.081043   0.000000
    14  H    2.647761   3.393673   4.387532   0.000000
    15  H    4.404763   2.249830   2.696312   4.388296   0.000000
    16  N    5.242511   4.241231   5.126355   4.096100   3.715442
    17  N    4.551883   4.145861   5.098692   3.327772   4.288596
    18  C    5.809844   4.575308   5.250147   5.204072   4.002508
    19  C    4.806605   4.772986   5.822164   2.829367   4.914150
    20  O    5.632238   5.402022   6.469035   3.345346   5.128304
    21  O    6.734797   5.185080   5.740277   6.166700   4.130827
    22  O    4.535257   5.130613   6.147382   2.652769   5.778351
    23  O    5.656018   4.743994   5.315902   5.457721   4.742862
    24  C    6.660430   5.603024   5.953181   6.802754   5.528880
    25  H    6.698043   5.942816   6.234798   7.070864   6.233128
    26  H    7.636640   6.524170   6.916505   7.534359   6.189313
    27  H    6.622019   5.281370   5.472429   7.010023   5.074557
    28  C    5.336022   6.180934   7.213115   3.125662   6.798672
    29  H    5.183250   5.983530   7.024922   2.712582   6.511434
    30  H    6.363491   7.028917   8.080196   4.093907   7.410527
    31  H    5.363311   6.569678   7.542727   3.504889   7.483239
                   16         17         18         19         20
    16  N    0.000000
    17  N    1.305610   0.000000
    18  C    1.399479   2.269950   0.000000
    19  C    2.271299   1.426463   3.529980   0.000000
    20  O    2.676184   2.372924   4.035268   1.218799   0.000000
    21  O    2.285734   3.406510   1.229002   4.535046   4.811255
    22  O    3.417503   2.248179   4.505546   1.344171   2.264344
    23  O    2.339671   2.534804   1.351970   3.931834   4.733222
    24  C    3.647068   3.977550   2.369885   5.368995   6.133336
    25  H    4.364698   4.403375   3.245135   5.768172   6.668904
    26  H    3.985453   4.468691   2.672771   5.772571   6.401755
    27  H    3.986774   4.479020   2.674088   5.894537   6.610644
    28  C    4.629343   3.594733   5.821866   2.364982   2.674642
    29  H    4.857683   3.975309   6.158670   2.660383   2.664660
    30  H    4.853235   3.950921   6.029398   2.675754   2.685329
    31  H    5.430829   4.270444   6.521334   3.237823   3.729851
                   21         22         23         24         25
    21  O    0.000000
    22  O    5.626534   0.000000
    23  O    2.266973   4.562941   0.000000
    24  C    2.662387   5.965042   1.442932   0.000000
    25  H    3.720633   6.137642   2.025061   1.089510   0.000000
    26  H    2.652060   6.461364   2.093207   1.092558   1.793042
    27  H    2.668687   6.563967   2.092588   1.093100   1.792963
    28  C    6.878428   1.444632   5.971798   7.374853   7.545977
    29  H    7.139820   2.094224   6.474374   7.909283   8.169205
    30  H    7.015637   2.090985   6.246781   7.621177   7.833126
    31  H    7.645628   2.025247   6.478160   7.830124   7.858499
                   26         27         28         29         30
    26  H    0.000000
    27  H    1.784774   0.000000
    28  C    7.811476   7.990344   0.000000
    29  H    8.380601   8.413766   1.092615   0.000000
    30  H    7.914110   8.317112   1.092483   1.785370   0.000000
    31  H    8.328556   8.473655   1.088751   1.793002   1.793519
                   31
    31  H    0.000000
 Stoichiometry    C11H14N2O4
 Framework group  C1[X(C11H14N2O4)]
 Deg. of freedom    87
 Full point group                 C1      NOp   1
 Largest Abelian subgroup         C1      NOp   1
 Largest concise Abelian subgroup C1      NOp   1
                         Standard orientation:                         
 ---------------------------------------------------------------------
 Center     Atomic      Atomic             Coordinates (Angstroms)
 Number     Number       Type             X           Y           Z
 ---------------------------------------------------------------------
      1          6           0        0.490487    0.861180   -0.876644
      2          6           0        1.731686    1.376515   -0.116647
      3          6           0       -0.073840    2.328364    0.966639
      4          6           0       -0.641502    1.674806   -0.272192
      5          1           0        0.506593    0.499709   -1.893307
      6          1           0       -1.688790    1.539451   -0.496873
      7          6           0        1.254966    1.664689    1.311115
      8          1           0        1.941641    2.342519    1.826545
      9          1           0        1.123960    0.752664    1.896349
     10          6           0        1.299999    2.489347   -0.963115
     11          1           0        1.703433    2.742212   -1.934737
     12          6           0        0.073903    3.060892   -0.341020
     13          1           0       -0.414359    3.980938   -0.630450
     14          1           0        2.671785    0.877379   -0.323734
     15          1           0       -0.755043    2.704272    1.719903
     16          7           0       -0.820863   -0.908550    0.855208
     17          7           0       -0.014322   -1.079947   -0.157082
     18          6           0       -2.172830   -0.834773    0.501253
     19          6           0        1.280900   -1.519216    0.248184
     20          8           0        1.642985   -1.815576    1.373589
     21          8           0       -3.041302   -0.717615    1.362924
     22          8           0        2.048523   -1.647320   -0.847781
     23          8           0       -2.456538   -0.923476   -0.817635
     24          6           0       -3.853994   -0.848057   -1.169036
     25          1           0       -3.883558   -0.938430   -2.254389
     26          1           0       -4.411168   -1.663394   -0.701632
     27          1           0       -4.275903    0.109744   -0.853634
     28          6           0        3.384755   -2.150600   -0.628337
     29          1           0        3.933852   -1.494293    0.051046
     30          1           0        3.344757   -3.159250   -0.210551
     31          1           0        3.852580   -2.161024   -1.611398
 ---------------------------------------------------------------------
 Rotational constants (GHZ):      0.5901472      0.4384089      0.3136717
 Standard basis: 6-31+G(d,p) (6D, 7F)
 There are   393 symmetry adapted cartesian basis functions of A   symmetry.
 There are   393 symmetry adapted basis functions of A   symmetry.
   393 basis functions,   642 primitive gaussians,   393 cartesian basis functions
    63 alpha electrons       63 beta electrons
       nuclear repulsion energy      1296.1008299028 Hartrees.
 NAtoms=   31 NActive=   31 NUniq=   31 SFac= 1.00D+00 NAtFMM=   60 NAOKFM=F Big=F
 Integral buffers will be    131072 words long.
 Raffenetti 2 integral format.
 Two-electron integral symmetry is turned on.
 Nuclear repulsion after empirical dispersion term =     1296.0676171541 Hartrees.
 Force inversion solution in PCM.
 ------------------------------------------------------------------------------
 Polarizable Continuum Model (PCM)
 =================================
 Model                : C-PCM.
 Atomic radii         : UFF (Universal Force Field).
 Polarization charges : Total charges.
 Charge compensation  : None.
 Solution method      : Matrix inversion.
 Cavity type          : Scaled VdW (van der Waals Surface) (Alpha=1.100).
 Cavity algorithm     : GePol (No added spheres)
                        Default sphere list used, NSphG=   31.
                        Lebedev-Laikov grids with approx.  5.0 points / Ang**2.
                        Smoothing algorithm: Karplus/York (Gamma=1.0000).
                        Polarization charges: spherical gaussians, with
                                              point-specific exponents (IZeta= 3).
                        Self-potential: point-specific (ISelfS= 7).
                        Self-field    : sphere-specific E.n sum rule (ISelfD= 2).
 1st derivatives      : Analytical E(r).r(x)/FMM algorithm (CHGder, D1EAlg=3).
                        Cavity 1st derivative terms included.
 2nd derivatives      : Analytical E(r).r(xy)/FMM algorithm (CHGder, D2EAlg=3).
                        Cavity 2nd derivative terms included.
 Solvent              : Water, Eps=  78.355300 Eps(inf)=   1.777849
 ------------------------------------------------------------------------------
 One-electron integrals computed using PRISM.
 NBasis=   393 RedAO= T EigKep=  5.98D-06  NBF=   393
 NBsUse=   393 1.00D-06 EigRej= -1.00D+00 NBFU=   393
 ExpMin= 4.38D-02 ExpMax= 5.48D+03 ExpMxC= 8.25D+02 IAcc=2 IRadAn=         4 AccDes= 0.00D+00
 Harris functional with IExCor=  402 and IRadAn=       4 diagonalized for initial guess.
 HarFok:  IExCor=  402 AccDes= 0.00D+00 IRadAn=         4 IDoV= 1 UseB2=F ITyADJ=14
 ICtDFT=  3500011 ScaDFX=  1.000000  1.000000  1.000000  1.000000
 FoFCou: FMM=F IPFlag=           0 FMFlag=      100000 FMFlg1=           0
         NFxFlg=           0 DoJE=T BraDBF=F KetDBF=T FulRan=T
         wScrn=  0.000000 ICntrl=     500 IOpCl=  0 I1Cent=   200000004 NGrid=           0
         NMat0=    1 NMatS0=      1 NMatT0=    0 NMatD0=    1 NMtDS0=    0 NMtDT0=    0
 Petite list used in FoFCou.
 Requested convergence on RMS density matrix=1.00D-08 within 128 cycles.
 Requested convergence on MAX density matrix=1.00D-06.
 Requested convergence on             energy=1.00D-06.
 No special actions if energy rises.
 Inv3:  Mode=1 IEnd=    15897612.
 Iteration    1 A*A^-1 deviation from unit magnitude is 4.88D-15 for   2287.
 Iteration    1 A*A^-1 deviation from orthogonality  is 2.43D-15 for   2275    622.
 Iteration    1 A^-1*A deviation from unit magnitude is 4.88D-15 for   2287.
 Iteration    1 A^-1*A deviation from orthogonality  is 2.32D-15 for   2297    576.
 Error on total polarization charges =  0.01550
 SCF Done:  E(RB3LYP) =  -837.895195767     A.U. after   18 cycles
            NFock= 18  Conv=0.26D-08     -V/T= 2.0093
 DoSCS=F DFT=T ScalE2(SS,OS)=  1.000000  1.000000
 Range of M.O.s used for correlation:     1   393
 NBasis=   393 NAE=    63 NBE=    63 NFC=     0 NFV=     0
 NROrb=    393 NOA=    63 NOB=    63 NVA=   330 NVB=   330

 **** Warning!!: The largest alpha MO coefficient is  0.69332411D+02


 **** Warning!!: The smallest alpha delta epsilon is  0.92903250D-01

 PrsmSu:  requested number of processors reduced to:   3 ShMem   1 Linda.
 Symmetrizing basis deriv contribution to polar:
 IMax=3 JMax=2 DiffMx= 0.00D+00
 G2DrvN: will do    16 centers at a time, making    2 passes.
 Calling FoFCou, ICntrl=  3107 FMM=F I1Cent=   0 AccDes= 0.00D+00.
 Calling FoFCou, ICntrl=  3107 FMM=F I1Cent=   0 AccDes= 0.00D+00.
 NEqPCM:  Using equilibrium solvation (IEInf=0, Eps=  78.3553, EpsInf=   1.7778)
 G2PCM: DoFxE=T DoFxN=T DoGrad=T DoDP/DQ/DG/TGxP=FFFF NFrqRd=   0 IEInf=0 SqF1=F DoCFld=F IF1Alg=4.
 End of G2Drv F.D. properties file   721 does not exist.
 End of G2Drv F.D. properties file   722 does not exist.
 End of G2Drv F.D. properties file   788 does not exist.
          IDoAtm=1111111111111111111111111111111
 NEqPCM:  Using equilibrium solvation (IEInf=0, Eps=  78.3553, EpsInf=   1.7778)
          Differentiating once with respect to electric field.
                with respect to dipole field.
          Differentiating once with respect to nuclear coordinates.
          There are    96 degrees of freedom in the 1st order CPHF.  IDoFFX=6 NUNeed=     3.
     96 vectors produced by pass  0 Test12= 2.17D-14 1.04D-09 XBig12= 4.72D+02 1.39D+01.
 AX will form    48 AO Fock derivatives at one time.
     96 vectors produced by pass  1 Test12= 2.17D-14 1.04D-09 XBig12= 9.62D+01 1.82D+00.
     93 vectors produced by pass  2 Test12= 2.17D-14 1.04D-09 XBig12= 1.03D+00 8.92D-02.
     93 vectors produced by pass  3 Test12= 2.17D-14 1.04D-09 XBig12= 4.54D-03 5.95D-03.
     93 vectors produced by pass  4 Test12= 2.17D-14 1.04D-09 XBig12= 9.72D-06 2.76D-04.
     89 vectors produced by pass  5 Test12= 2.17D-14 1.04D-09 XBig12= 1.28D-08 7.01D-06.
     40 vectors produced by pass  6 Test12= 2.17D-14 1.04D-09 XBig12= 1.64D-11 2.47D-07.
      5 vectors produced by pass  7 Test12= 2.17D-14 1.04D-09 XBig12= 2.19D-13 3.86D-08.
      3 vectors produced by pass  8 Test12= 2.17D-14 1.04D-09 XBig12= 7.66D-16 2.30D-09.
      3 vectors produced by pass  9 Test12= 2.17D-14 1.04D-09 XBig12= 1.31D-15 3.16D-09.
      3 vectors produced by pass 10 Test12= 2.17D-14 1.04D-09 XBig12= 1.27D-14 1.17D-08.
      3 vectors produced by pass 11 Test12= 2.17D-14 1.04D-09 XBig12= 4.67D-15 7.13D-09.
      3 vectors produced by pass 12 Test12= 2.17D-14 1.04D-09 XBig12= 1.76D-14 1.42D-08.
      3 vectors produced by pass 13 Test12= 2.17D-14 1.04D-09 XBig12= 4.70D-15 6.33D-09.
      3 vectors produced by pass 14 Test12= 2.17D-14 1.04D-09 XBig12= 9.94D-15 7.31D-09.
      3 vectors produced by pass 15 Test12= 2.17D-14 1.04D-09 XBig12= 9.76D-15 8.71D-09.
      3 vectors produced by pass 16 Test12= 2.17D-14 1.04D-09 XBig12= 2.40D-15 3.81D-09.
      3 vectors produced by pass 17 Test12= 2.17D-14 1.04D-09 XBig12= 5.33D-15 6.14D-09.
      3 vectors produced by pass 18 Test12= 2.17D-14 1.04D-09 XBig12= 9.21D-15 8.43D-09.
      3 vectors produced by pass 19 Test12= 2.17D-14 1.04D-09 XBig12= 2.76D-15 5.02D-09.
      3 vectors produced by pass 20 Test12= 2.17D-14 1.04D-09 XBig12= 9.48D-15 9.54D-09.
      1 vectors produced by pass 21 Test12= 2.17D-14 1.04D-09 XBig12= 5.66D-16 1.74D-09.
 InvSVY:  IOpt=1 It=  1 EMax= 3.55D-14
 Solved reduced A of dimension   645 with    96 vectors.
 Isotropic polarizability for W=    0.000000      258.86 Bohr**3.
 End of Minotr F.D. properties file   721 does not exist.
 End of Minotr F.D. properties file   722 does not exist.
 End of Minotr F.D. properties file   788 does not exist.

 **********************************************************************

            Population analysis using the SCF density.

 **********************************************************************

 Orbital symmetries:
       Occupied  (A) (A) (A) (A) (A) (A) (A) (A) (A) (A) (A) (A)
                 (A) (A) (A) (A) (A) (A) (A) (A) (A) (A) (A) (A)
                 (A) (A) (A) (A) (A) (A) (A) (A) (A) (A) (A) (A)
                 (A) (A) (A) (A) (A) (A) (A) (A) (A) (A) (A) (A)
                 (A) (A) (A) (A) (A) (A) (A) (A) (A) (A) (A) (A)
                 (A) (A) (A)
       Virtual   (A) (A) (A) (A) (A) (A) (A) (A) (A) (A) (A) (A)
                 (A) (A) (A) (A) (A) (A) (A) (A) (A) (A) (A) (A)
                 (A) (A) (A) (A) (A) (A) (A) (A) (A) (A) (A) (A)
                 (A) (A) (A) (A) (A) (A) (A) (A) (A) (A) (A) (A)
                 (A) (A) (A) (A) (A) (A) (A) (A) (A) (A) (A) (A)
                 (A) (A) (A) (A) (A) (A) (A) (A) (A) (A) (A) (A)
                 (A) (A) (A) (A) (A) (A) (A) (A) (A) (A) (A) (A)
                 (A) (A) (A) (A) (A) (A) (A) (A) (A) (A) (A) (A)
                 (A) (A) (A) (A) (A) (A) (A) (A) (A) (A) (A) (A)
                 (A) (A) (A) (A) (A) (A) (A) (A) (A) (A) (A) (A)
                 (A) (A) (A) (A) (A) (A) (A) (A) (A) (A) (A) (A)
                 (A) (A) (A) (A) (A) (A) (A) (A) (A) (A) (A) (A)
                 (A) (A) (A) (A) (A) (A) (A) (A) (A) (A) (A) (A)
                 (A) (A) (A) (A) (A) (A) (A) (A) (A) (A) (A) (A)
                 (A) (A) (A) (A) (A) (A) (A) (A) (A) (A) (A) (A)
                 (A) (A) (A) (A) (A) (A) (A) (A) (A) (A) (A) (A)
                 (A) (A) (A) (A) (A) (A) (A) (A) (A) (A) (A) (A)
                 (A) (A) (A) (A) (A) (A) (A) (A) (A) (A) (A) (A)
                 (A) (A) (A) (A) (A) (A) (A) (A) (A) (A) (A) (A)
                 (A) (A) (A) (A) (A) (A) (A) (A) (A) (A) (A) (A)
                 (A) (A) (A) (A) (A) (A) (A) (A) (A) (A) (A) (A)
                 (A) (A) (A) (A) (A) (A) (A) (A) (A) (A) (A) (A)
                 (A) (A) (A) (A) (A) (A) (A) (A) (A) (A) (A) (A)
                 (A) (A) (A) (A) (A) (A) (A) (A) (A) (A) (A) (A)
                 (A) (A) (A) (A) (A) (A) (A) (A) (A) (A) (A) (A)
                 (A) (A) (A) (A) (A) (A) (A) (A) (A) (A) (A) (A)
                 (A) (A) (A) (A) (A) (A) (A) (A) (A) (A) (A) (A)
                 (A) (A) (A) (A) (A) (A)
 The electronic state is 1-A.
 Alpha  occ. eigenvalues --  -19.21359 -19.20457 -19.16036 -19.14683 -14.40297
 Alpha  occ. eigenvalues --  -14.37351 -10.35118 -10.33934 -10.25704 -10.25062
 Alpha  occ. eigenvalues --  -10.24751 -10.24297 -10.23883 -10.23329 -10.23034
 Alpha  occ. eigenvalues --  -10.22324 -10.20525  -1.12959  -1.11588  -1.03955
 Alpha  occ. eigenvalues --   -1.02176  -1.00716  -0.97616  -0.81467  -0.80247
 Alpha  occ. eigenvalues --   -0.75518  -0.73517  -0.70686  -0.70026  -0.60166
 Alpha  occ. eigenvalues --   -0.59759  -0.57744  -0.57034  -0.56253  -0.56026
 Alpha  occ. eigenvalues --   -0.54141  -0.50503  -0.50075  -0.49202  -0.48292
 Alpha  occ. eigenvalues --   -0.47509  -0.46479  -0.46084  -0.44798  -0.43513
 Alpha  occ. eigenvalues --   -0.42878  -0.42068  -0.41366  -0.40711  -0.40240
 Alpha  occ. eigenvalues --   -0.37915  -0.37433  -0.36614  -0.36384  -0.35522
 Alpha  occ. eigenvalues --   -0.32489  -0.32245  -0.31497  -0.31145  -0.30497
 Alpha  occ. eigenvalues --   -0.29493  -0.25519  -0.21151
 Alpha virt. eigenvalues --   -0.11861  -0.01304   0.00057   0.01217   0.01540
 Alpha virt. eigenvalues --    0.01924   0.02317   0.02737   0.03353   0.03729
 Alpha virt. eigenvalues --    0.04001   0.04267   0.04513   0.04886   0.06208
 Alpha virt. eigenvalues --    0.06436   0.06743   0.07331   0.07794   0.08246
 Alpha virt. eigenvalues --    0.08974   0.09707   0.09880   0.10597   0.10803
 Alpha virt. eigenvalues --    0.10936   0.11304   0.11916   0.12148   0.12839
 Alpha virt. eigenvalues --    0.13243   0.13409   0.14011   0.14312   0.14565
 Alpha virt. eigenvalues --    0.14985   0.15594   0.15821   0.16247   0.16812
 Alpha virt. eigenvalues --    0.17239   0.18084   0.18203   0.18585   0.18694
 Alpha virt. eigenvalues --    0.19260   0.19701   0.19898   0.20244   0.20862
 Alpha virt. eigenvalues --    0.21081   0.21450   0.21839   0.22168   0.22597
 Alpha virt. eigenvalues --    0.22962   0.23493   0.23560   0.24436   0.24998
 Alpha virt. eigenvalues --    0.25103   0.25252   0.26184   0.26731   0.26894
 Alpha virt. eigenvalues --    0.27812   0.28270   0.28499   0.29622   0.29663
 Alpha virt. eigenvalues --    0.30062   0.30281   0.30808   0.31525   0.31760
 Alpha virt. eigenvalues --    0.32022   0.32744   0.33216   0.33500   0.33618
 Alpha virt. eigenvalues --    0.34355   0.34553   0.34898   0.35651   0.36245
 Alpha virt. eigenvalues --    0.36688   0.37571   0.37880   0.38596   0.40129
 Alpha virt. eigenvalues --    0.40528   0.41342   0.42252   0.42763   0.43422
 Alpha virt. eigenvalues --    0.44075   0.44320   0.45500   0.47956   0.48642
 Alpha virt. eigenvalues --    0.50082   0.52762   0.54876   0.58966   0.64634
 Alpha virt. eigenvalues --    0.64790   0.65996   0.67090   0.67885   0.69024
 Alpha virt. eigenvalues --    0.70691   0.72106   0.73225   0.74231   0.74939
 Alpha virt. eigenvalues --    0.75825   0.76555   0.77216   0.78305   0.78899
 Alpha virt. eigenvalues --    0.80099   0.80443   0.80565   0.81709   0.82388
 Alpha virt. eigenvalues --    0.83344   0.85117   0.87690   0.88691   0.89715
 Alpha virt. eigenvalues --    0.90732   0.91604   0.92410   0.93107   0.95117
 Alpha virt. eigenvalues --    0.95352   0.96263   0.96546   0.97174   0.98757
 Alpha virt. eigenvalues --    0.99843   1.01011   1.01725   1.03395   1.04369
 Alpha virt. eigenvalues --    1.06237   1.07137   1.07737   1.09577   1.09926
 Alpha virt. eigenvalues --    1.11247   1.12410   1.13951   1.15037   1.16295
 Alpha virt. eigenvalues --    1.17554   1.18797   1.20951   1.21917   1.22716
 Alpha virt. eigenvalues --    1.24397   1.24779   1.25809   1.26384   1.28744
 Alpha virt. eigenvalues --    1.29244   1.30525   1.31267   1.32628   1.33150
 Alpha virt. eigenvalues --    1.33546   1.35109   1.35430   1.36780   1.37820
 Alpha virt. eigenvalues --    1.39651   1.41478   1.43099   1.45519   1.46462
 Alpha virt. eigenvalues --    1.47586   1.49102   1.49669   1.50346   1.51333
 Alpha virt. eigenvalues --    1.54511   1.54963   1.56427   1.58306   1.61134
 Alpha virt. eigenvalues --    1.63989   1.66432   1.68061   1.70625   1.71279
 Alpha virt. eigenvalues --    1.73852   1.74651   1.76026   1.77644   1.79214
 Alpha virt. eigenvalues --    1.79729   1.80861   1.81696   1.83205   1.85571
 Alpha virt. eigenvalues --    1.87222   1.87570   1.87929   1.89487   1.90345
 Alpha virt. eigenvalues --    1.91795   1.92991   1.93493   1.93850   1.96030
 Alpha virt. eigenvalues --    1.96188   1.96831   1.98829   1.99231   2.00868
 Alpha virt. eigenvalues --    2.01471   2.02415   2.02574   2.04426   2.05207
 Alpha virt. eigenvalues --    2.06049   2.06694   2.07995   2.09672   2.10510
 Alpha virt. eigenvalues --    2.11640   2.12839   2.13783   2.14722   2.15474
 Alpha virt. eigenvalues --    2.16716   2.20153   2.20820   2.23411   2.26629
 Alpha virt. eigenvalues --    2.31248   2.32334   2.35376   2.36284   2.38989
 Alpha virt. eigenvalues --    2.39435   2.40491   2.41568   2.41896   2.43635
 Alpha virt. eigenvalues --    2.44736   2.45514   2.47593   2.49050   2.50094
 Alpha virt. eigenvalues --    2.51203   2.51974   2.53496   2.54192   2.54598
 Alpha virt. eigenvalues --    2.56343   2.58314   2.58746   2.60055   2.60620
 Alpha virt. eigenvalues --    2.61797   2.62990   2.63466   2.64771   2.65162
 Alpha virt. eigenvalues --    2.67175   2.69177   2.69671   2.72392   2.73769
 Alpha virt. eigenvalues --    2.75531   2.76400   2.78563   2.78628   2.80009
 Alpha virt. eigenvalues --    2.81031   2.82877   2.83506   2.84695   2.86263
 Alpha virt. eigenvalues --    2.86707   2.90863   2.91893   2.94741   2.97205
 Alpha virt. eigenvalues --    3.02576   3.06188   3.08291   3.10364   3.14561
 Alpha virt. eigenvalues --    3.16975   3.20763   3.25311   3.26329   3.28763
 Alpha virt. eigenvalues --    3.31260   3.31915   3.32282   3.35714   3.40396
 Alpha virt. eigenvalues --    3.42577   3.42872   3.46112   3.47107   3.50590
 Alpha virt. eigenvalues --    3.51825   3.64707   3.70413   4.25955   4.38554
 Alpha virt. eigenvalues --    4.41133   4.45509   4.48274   4.51616   4.57476
 Alpha virt. eigenvalues --    4.58314   4.60184   4.62107   4.64627   4.68332
 Alpha virt. eigenvalues --    4.71811   4.77033   4.81333   4.89817   4.98362
          Condensed to atoms (all electrons):
               1          2          3          4          5          6
     1  C   10.093081  -0.914875   1.383819  -4.724806   0.315147   0.129560
     2  C   -0.914875   7.873589  -0.322136   0.283410  -0.031888  -0.021170
     3  C    1.383819  -0.322136   7.351170  -2.442798  -0.018790   0.050875
     4  C   -4.724806   0.283410  -2.442798  13.845293   0.042888   0.134337
     5  H    0.315147  -0.031888  -0.018790   0.042888   0.490217  -0.002954
     6  H    0.129560  -0.021170   0.050875   0.134337  -0.002954   0.497937
     7  C   -0.380596  -0.367751  -0.554450   1.103110   0.013493  -0.004551
     8  H    0.005715  -0.076402  -0.031188  -0.003099  -0.000070  -0.000079
     9  H   -0.036967   0.000390   0.009052  -0.072014   0.000033   0.000078
    10  C   -1.891230  -0.933453  -0.534212   2.456626   0.052588  -0.044759
    11  H    0.113691   0.034915   0.008105  -0.069000  -0.002843   0.000000
    12  C    2.380347   0.111304   0.986078  -4.822316  -0.035768   0.078177
    13  H   -0.017433  -0.011037   0.011618   0.076715   0.000046  -0.002825
    14  H    0.054378   0.176402   0.033991  -0.023451  -0.001806  -0.000026
    15  H   -0.028674   0.016875   0.206870   0.030166  -0.000040  -0.002531
    16  N    0.123473   0.046469   0.064245  -0.118961   0.006071   0.017018
    17  N   -0.253684   0.045060  -0.100497   0.290353  -0.024888  -0.021797
    18  C    0.043455   0.093680  -0.102150   0.000477  -0.001994  -0.003105
    19  C   -0.055036  -0.066285   0.101864  -0.168790  -0.006804   0.004919
    20  O   -0.014202   0.021022   0.017680  -0.022454  -0.000559  -0.000029
    21  O   -0.006615   0.003475  -0.015257  -0.005061  -0.000033  -0.000306
    22  O   -0.066545  -0.036529   0.016083   0.049589   0.002945  -0.000312
    23  O    0.017463   0.014604   0.006221  -0.017495  -0.000043   0.004685
    24  C   -0.007711  -0.008390  -0.015242   0.032113   0.000391   0.003181
    25  H   -0.001417  -0.000103  -0.000517   0.002735  -0.000003  -0.000036
    26  H    0.000024   0.000168   0.000523  -0.002620   0.000000  -0.000001
    27  H    0.001864  -0.000517  -0.001658   0.002016  -0.000001   0.000373
    28  C   -0.006660   0.030024   0.002880   0.002230   0.000847  -0.000014
    29  H   -0.000367   0.002396  -0.000490   0.000709   0.000004   0.000000
    30  H   -0.000391  -0.001383   0.000070  -0.000250  -0.000003   0.000000
    31  H    0.000506   0.000982   0.000147  -0.000421   0.000004   0.000000
               7          8          9         10         11         12
     1  C   -0.380596   0.005715  -0.036967  -1.891230   0.113691   2.380347
     2  C   -0.367751  -0.076402   0.000390  -0.933453   0.034915   0.111304
     3  C   -0.554450  -0.031188   0.009052  -0.534212   0.008105   0.986078
     4  C    1.103110  -0.003099  -0.072014   2.456626  -0.069000  -4.822316
     5  H    0.013493  -0.000070   0.000033   0.052588  -0.002843  -0.035768
     6  H   -0.004551  -0.000079   0.000078  -0.044759   0.000000   0.078177
     7  C    5.974741   0.411596   0.375075   0.456883  -0.005949  -0.626131
     8  H    0.411596   0.535967  -0.024756   0.019676  -0.000020  -0.001606
     9  H    0.375075  -0.024756   0.514921   0.007130  -0.000085   0.035159
    10  C    0.456883   0.019676   0.007130   7.967662   0.175531  -1.572408
    11  H   -0.005949  -0.000020  -0.000085   0.175531   0.491314   0.064843
    12  C   -0.626131  -0.001606   0.035159  -1.572408   0.064843   9.325319
    13  H    0.003527   0.000079  -0.000076   0.044079  -0.002683   0.227105
    14  H   -0.008723  -0.001083  -0.000961   0.096465  -0.002824  -0.002492
    15  H    0.038371  -0.001385  -0.001355   0.002538  -0.000038   0.066669
    16  N   -0.112190  -0.000803  -0.020449  -0.055887  -0.000082   0.228747
    17  N    0.110326  -0.001153   0.031988   0.006486   0.000593  -0.153962
    18  C    0.058259  -0.001313  -0.001704  -0.043448   0.000524  -0.107610
    19  C   -0.096352   0.003079   0.002628  -0.144779   0.002827   0.136077
    20  O   -0.067620   0.000435   0.000554  -0.009123  -0.000001   0.018891
    21  O    0.003410  -0.000018  -0.000294   0.003113   0.000000  -0.019123
    22  O   -0.013608   0.000502  -0.001078   0.075895  -0.000471  -0.023389
    23  O    0.003214  -0.000022  -0.000046   0.000315   0.000020  -0.019391
    24  C    0.003065   0.000017  -0.000276   0.000000  -0.000008   0.009344
    25  H    0.000073   0.000000   0.000000  -0.000056   0.000000   0.001116
    26  H   -0.000029   0.000000   0.000000   0.000005   0.000000  -0.000389
    27  H    0.000211   0.000000   0.000000   0.000089   0.000000  -0.000127
    28  C   -0.013341  -0.000224   0.000223   0.020753   0.000016  -0.008199
    29  H   -0.000286   0.000000   0.000001  -0.002079   0.000000   0.000130
    30  H    0.000082   0.000000   0.000002  -0.000149   0.000000   0.000119
    31  H   -0.000378   0.000000   0.000000   0.000501   0.000000  -0.000131
              13         14         15         16         17         18
     1  C   -0.017433   0.054378  -0.028674   0.123473  -0.253684   0.043455
     2  C   -0.011037   0.176402   0.016875   0.046469   0.045060   0.093680
     3  C    0.011618   0.033991   0.206870   0.064245  -0.100497  -0.102150
     4  C    0.076715  -0.023451   0.030166  -0.118961   0.290353   0.000477
     5  H    0.000046  -0.001806  -0.000040   0.006071  -0.024888  -0.001994
     6  H   -0.002825  -0.000026  -0.002531   0.017018  -0.021797  -0.003105
     7  C    0.003527  -0.008723   0.038371  -0.112190   0.110326   0.058259
     8  H    0.000079  -0.001083  -0.001385  -0.000803  -0.001153  -0.001313
     9  H   -0.000076  -0.000961  -0.001355  -0.020449   0.031988  -0.001704
    10  C    0.044079   0.096465   0.002538  -0.055887   0.006486  -0.043448
    11  H   -0.002683  -0.002824  -0.000038  -0.000082   0.000593   0.000524
    12  C    0.227105  -0.002492   0.066669   0.228747  -0.153962  -0.107610
    13  H    0.500429  -0.000023  -0.002427   0.000440  -0.000343  -0.001442
    14  H   -0.000023   0.508322  -0.000120   0.002552  -0.022046  -0.002726
    15  H   -0.002427  -0.000120   0.506911  -0.003759   0.001203   0.003095
    16  N    0.000440   0.002552  -0.003759   9.173290  -1.165561  -0.024791
    17  N   -0.000343  -0.022046   0.001203  -1.165561   8.722265  -0.035128
    18  C   -0.001442  -0.002726   0.003095  -0.024791  -0.035128   5.235988
    19  C    0.000462  -0.001635  -0.000831  -0.308478   0.060888  -0.164746
    20  O    0.000005   0.002044  -0.000078   0.025023  -0.140083  -0.031885
    21  O    0.000016   0.000002   0.000028  -0.079043  -0.014671   0.566478
    22  O    0.000026   0.010223  -0.000058  -0.046415  -0.210146  -0.045748
    23  O   -0.000091  -0.000099   0.000026  -0.104984   0.057638   0.269488
    24  C    0.000003   0.000036  -0.000167   0.065328  -0.056618  -0.144605
    25  H    0.000000   0.000000   0.000000   0.001605  -0.005008   0.004920
    26  H    0.000000   0.000000   0.000000   0.000822  -0.002182  -0.004421
    27  H    0.000000   0.000000  -0.000001  -0.000411  -0.001087  -0.021232
    28  C   -0.000006   0.000548  -0.000007   0.008354  -0.047370  -0.004742
    29  H    0.000000   0.000233   0.000000  -0.000914   0.001879   0.000084
    30  H    0.000000   0.000024   0.000000   0.001541  -0.002969  -0.000314
    31  H    0.000000  -0.000077   0.000000  -0.000682  -0.004463  -0.000060
              19         20         21         22         23         24
     1  C   -0.055036  -0.014202  -0.006615  -0.066545   0.017463  -0.007711
     2  C   -0.066285   0.021022   0.003475  -0.036529   0.014604  -0.008390
     3  C    0.101864   0.017680  -0.015257   0.016083   0.006221  -0.015242
     4  C   -0.168790  -0.022454  -0.005061   0.049589  -0.017495   0.032113
     5  H   -0.006804  -0.000559  -0.000033   0.002945  -0.000043   0.000391
     6  H    0.004919  -0.000029  -0.000306  -0.000312   0.004685   0.003181
     7  C   -0.096352  -0.067620   0.003410  -0.013608   0.003214   0.003065
     8  H    0.003079   0.000435  -0.000018   0.000502  -0.000022   0.000017
     9  H    0.002628   0.000554  -0.000294  -0.001078  -0.000046  -0.000276
    10  C   -0.144779  -0.009123   0.003113   0.075895   0.000315   0.000000
    11  H    0.002827  -0.000001   0.000000  -0.000471   0.000020  -0.000008
    12  C    0.136077   0.018891  -0.019123  -0.023389  -0.019391   0.009344
    13  H    0.000462   0.000005   0.000016   0.000026  -0.000091   0.000003
    14  H   -0.001635   0.002044   0.000002   0.010223  -0.000099   0.000036
    15  H   -0.000831  -0.000078   0.000028  -0.000058   0.000026  -0.000167
    16  N   -0.308478   0.025023  -0.079043  -0.046415  -0.104984   0.065328
    17  N    0.060888  -0.140083  -0.014671  -0.210146   0.057638  -0.056618
    18  C   -0.164746  -0.031885   0.566478  -0.045748   0.269488  -0.144605
    19  C    5.480102   0.684541  -0.003508   0.265705  -0.052533  -0.000234
    20  O    0.684541   8.179320   0.001763  -0.169206  -0.005171  -0.000602
    21  O   -0.003508   0.001763   8.281044   0.001422  -0.182646  -0.039058
    22  O    0.265705  -0.169206   0.001422   8.438005  -0.012656  -0.001291
    23  O   -0.052533  -0.005171  -0.182646  -0.012656   8.512033  -0.005645
    24  C   -0.000234  -0.000602  -0.039058  -0.001291  -0.005645   5.058721
    25  H   -0.000646  -0.000003  -0.000017  -0.000012  -0.065868   0.421582
    26  H    0.000018  -0.000003   0.002671  -0.000005  -0.040647   0.408963
    27  H   -0.000086  -0.000001   0.003821  -0.000004  -0.042072   0.423364
    28  C   -0.195562  -0.046551  -0.000124   0.080070   0.000221  -0.000177
    29  H   -0.018678   0.001726   0.000000  -0.038058   0.000002  -0.000005
    30  H   -0.013550   0.004751   0.000000  -0.038125   0.000004   0.000010
    31  H    0.008683   0.000088   0.000000  -0.058358  -0.000006  -0.000002
              25         26         27         28         29         30
     1  C   -0.001417   0.000024   0.001864  -0.006660  -0.000367  -0.000391
     2  C   -0.000103   0.000168  -0.000517   0.030024   0.002396  -0.001383
     3  C   -0.000517   0.000523  -0.001658   0.002880  -0.000490   0.000070
     4  C    0.002735  -0.002620   0.002016   0.002230   0.000709  -0.000250
     5  H   -0.000003   0.000000  -0.000001   0.000847   0.000004  -0.000003
     6  H   -0.000036  -0.000001   0.000373  -0.000014   0.000000   0.000000
     7  C    0.000073  -0.000029   0.000211  -0.013341  -0.000286   0.000082
     8  H    0.000000   0.000000   0.000000  -0.000224   0.000000   0.000000
     9  H    0.000000   0.000000   0.000000   0.000223   0.000001   0.000002
    10  C   -0.000056   0.000005   0.000089   0.020753  -0.002079  -0.000149
    11  H    0.000000   0.000000   0.000000   0.000016   0.000000   0.000000
    12  C    0.001116  -0.000389  -0.000127  -0.008199   0.000130   0.000119
    13  H    0.000000   0.000000   0.000000  -0.000006   0.000000   0.000000
    14  H    0.000000   0.000000   0.000000   0.000548   0.000233   0.000024
    15  H    0.000000   0.000000  -0.000001  -0.000007   0.000000   0.000000
    16  N    0.001605   0.000822  -0.000411   0.008354  -0.000914   0.001541
    17  N   -0.005008  -0.002182  -0.001087  -0.047370   0.001879  -0.002969
    18  C    0.004920  -0.004421  -0.021232  -0.004742   0.000084  -0.000314
    19  C   -0.000646   0.000018  -0.000086  -0.195562  -0.018678  -0.013550
    20  O   -0.000003  -0.000003  -0.000001  -0.046551   0.001726   0.004751
    21  O   -0.000017   0.002671   0.003821  -0.000124   0.000000   0.000000
    22  O   -0.000012  -0.000005  -0.000004   0.080070  -0.038058  -0.038125
    23  O   -0.065868  -0.040647  -0.042072   0.000221   0.000002   0.000004
    24  C    0.421582   0.408963   0.423364  -0.000177  -0.000005   0.000010
    25  H    0.535646  -0.027374  -0.028163  -0.000002   0.000000   0.000000
    26  H   -0.027374   0.532918  -0.032742   0.000002   0.000000   0.000000
    27  H   -0.028163  -0.032742   0.534383   0.000000   0.000000   0.000000
    28  C   -0.000002   0.000002   0.000000   5.064804   0.417381   0.414943
    29  H    0.000000   0.000000   0.000000   0.417381   0.529319  -0.032720
    30  H    0.000000   0.000000   0.000000   0.414943  -0.032720   0.526305
    31  H    0.000000   0.000000   0.000000   0.415105  -0.027554  -0.027143
              31
     1  C    0.000506
     2  C    0.000982
     3  C    0.000147
     4  C   -0.000421
     5  H    0.000004
     6  H    0.000000
     7  C   -0.000378
     8  H    0.000000
     9  H    0.000000
    10  C    0.000501
    11  H    0.000000
    12  C   -0.000131
    13  H    0.000000
    14  H   -0.000077
    15  H    0.000000
    16  N   -0.000682
    17  N   -0.004463
    18  C   -0.000060
    19  C    0.008683
    20  O    0.000088
    21  O    0.000000
    22  O   -0.058358
    23  O   -0.000006
    24  C   -0.000002
    25  H    0.000000
    26  H    0.000000
    27  H    0.000000
    28  C    0.415105
    29  H   -0.027554
    30  H   -0.027143
    31  H    0.525455
 Mulliken charges:
               1
     1  C   -0.255315
     2  C    0.037156
     3  C   -0.111906
     4  C    0.140769
     5  H    0.203813
     6  H    0.183354
     7  C   -0.303484
     8  H    0.166154
     9  H    0.182828
    10  C   -0.154751
    11  H    0.191625
    12  C   -0.276382
    13  H    0.173834
    14  H    0.182871
    15  H    0.168719
    16  N   -0.721568
    17  N   -0.065022
    18  C    0.466715
    19  C    0.546740
    20  O   -0.450272
    21  O   -0.501468
    22  O   -0.178450
    23  O   -0.336518
    24  C   -0.146085
    25  H    0.161547
    26  H    0.164299
    27  H    0.161981
    28  C   -0.135419
    29  H    0.167288
    30  H    0.169146
    31  H    0.167802
 Sum of Mulliken charges =   0.00000
 Mulliken charges with hydrogens summed into heavy atoms:
               1
     1  C   -0.051502
     2  C    0.220027
     3  C    0.056813
     4  C    0.324123
     7  C    0.045498
    10  C    0.036873
    12  C   -0.102548
    16  N   -0.721568
    17  N   -0.065022
    18  C    0.466715
    19  C    0.546740
    20  O   -0.450272
    21  O   -0.501468
    22  O   -0.178450
    23  O   -0.336518
    24  C    0.341742
    28  C    0.368817
 APT charges:
               1
     1  C   -1.011527
     2  C    0.303980
     3  C    0.078466
     4  C   -0.498640
     5  H    0.135722
     6  H    0.135371
     7  C    0.045953
     8  H   -0.002727
     9  H    0.048644
    10  C    0.293427
    11  H    0.095569
    12  C    0.367064
    13  H    0.051168
    14  H    0.068473
    15  H    0.073549
    16  N   -0.911415
    17  N    0.184628
    18  C    2.034543
    19  C    1.788029
    20  O   -1.043192
    21  O   -1.253931
    22  O   -1.040768
    23  O   -1.090367
    24  C    0.634610
    25  H   -0.006373
    26  H   -0.031892
    27  H   -0.028972
    28  C    0.616301
    29  H   -0.019723
    30  H   -0.023601
    31  H    0.007634
 Sum of APT charges =   0.00000
 APT charges with hydrogens summed into heavy atoms:
               1
     1  C   -0.875805
     2  C    0.372453
     3  C    0.152014
     4  C   -0.363269
     7  C    0.091870
    10  C    0.388996
    12  C    0.418232
    16  N   -0.911415
    17  N    0.184628
    18  C    2.034543
    19  C    1.788029
    20  O   -1.043192
    21  O   -1.253931
    22  O   -1.040768
    23  O   -1.090367
    24  C    0.567373
    28  C    0.580611
 Electronic spatial extent (au):  <R**2>=           3796.8663
 Charge=              0.0000 electrons
 Dipole moment (field-independent basis, Debye):
    X=              5.0120    Y=              8.0266    Z=             -7.8047  Tot=             12.2663
 Quadrupole moment (field-independent basis, Debye-Ang):
   XX=            -86.5883   YY=            -86.6151   ZZ=           -106.7220
   XY=             -2.4884   XZ=              5.9459   YZ=              4.9239
 Traceless Quadrupole moment (field-independent basis, Debye-Ang):
   XX=              6.7202   YY=              6.6934   ZZ=            -13.4135
   XY=             -2.4884   XZ=              5.9459   YZ=              4.9239
 Octapole moment (field-independent basis, Debye-Ang**2):
  XXX=             39.7279  YYY=             18.9921  ZZZ=            -30.5842  XYY=              7.5604
  XXY=            -15.5455  XXZ=            -66.3250  XZZ=             10.5792  YZZ=             22.5785
  YYZ=            -20.6552  XYZ=             -2.2829
 Hexadecapole moment (field-independent basis, Debye-Ang**3):
 XXXX=          -2288.2291 YYYY=          -1648.4441 ZZZZ=           -626.2169 XXXY=            -74.8525
 XXXZ=            121.4466 YYYX=            -46.0027 YYYZ=            -11.2115 ZZZX=             15.7534
 ZZZY=             25.9045 XXYY=           -644.7602 XXZZ=           -546.2138 YYZZ=           -400.7819
 XXYZ=             63.2886 YYXZ=            -34.1970 ZZXY=             13.3145
 N-N= 1.296067617154D+03 E-N=-4.546344231357D+03  KE= 8.302093387529D+02
  Exact polarizability: 258.730  54.421 316.061 -28.073 -44.409 201.802
 Approx polarizability: 297.654 109.154 446.023 -59.975 -98.646 258.872
 D2PCM: C-PCM CHGder 2nd derivatives, FixD1E=F FixD2E=F DoIter=F DoCFld=F I1PDM=0
 Calling FoFJK, ICntrl=    100127 FMM=F ISym2X=0 I1Cent= 0 IOpClX= 0 NMat=1 NMatS=1 NMatT=0.
 Full mass-weighted force constant matrix:
 Low frequencies --- -460.7501   -8.2878    0.0004    0.0009    0.0011    6.6912
 Low frequencies ---   12.6123   32.5812   55.4945
 ******    1 imaginary frequencies (negative Signs) ****** 
 Diagonal vibrational polarizability:
      130.0545055     365.6361464      65.0909064
 Harmonic frequencies (cm**-1), IR intensities (KM/Mole), Raman scattering
 activities (A**4/AMU), depolarization ratios for plane and unpolarized
 incident light, reduced masses (AMU), force constants (mDyne/A),
 and normal coordinates:
                      1                      2                      3
                      A                      A                      A
 Frequencies --   -460.7496                31.4640                55.4185
 Red. masses --      9.5499                 3.7216                 5.0901
 Frc consts  --      1.1945                 0.0022                 0.0092
 IR Inten    --   1910.9186                 0.7548                 3.2920
  Atom  AN      X      Y      Z        X      Y      Z        X      Y      Z
     1   6     0.19   0.61  -0.26    -0.09   0.02  -0.01    -0.02  -0.06   0.02
     2   6     0.07  -0.01   0.10     0.02   0.00  -0.18    -0.03  -0.02   0.01
     3   6     0.02   0.01   0.04     0.17   0.00   0.09    -0.05   0.01  -0.04
     4   6    -0.04   0.10  -0.03     0.00   0.01   0.16    -0.03  -0.04  -0.03
     5   1     0.08  -0.29   0.08    -0.23   0.03  -0.02     0.00  -0.07   0.02
     6   1    -0.03  -0.14   0.09    -0.04   0.02   0.30    -0.02  -0.05  -0.03
     7   6     0.01   0.00   0.04     0.22  -0.01  -0.11    -0.05   0.02   0.00
     8   1    -0.01   0.01   0.06     0.29  -0.01  -0.20    -0.06   0.04  -0.02
     9   1     0.01   0.01   0.07     0.30  -0.01  -0.09    -0.05   0.04   0.02
    10   6    -0.08  -0.20  -0.12    -0.10   0.01  -0.10    -0.02  -0.05  -0.03
    11   1     0.16   0.02   0.05    -0.24   0.03  -0.16    -0.01  -0.08  -0.03
    12   6    -0.09   0.00   0.03    -0.01   0.01   0.07    -0.03  -0.04  -0.07
    13   1     0.07   0.14   0.20    -0.05   0.01   0.15    -0.03  -0.05  -0.11
    14   1     0.05  -0.04   0.11    -0.02   0.00  -0.32    -0.02  -0.02   0.04
    15   1     0.01  -0.04   0.06     0.28  -0.01   0.19    -0.06   0.04  -0.07
    16   7     0.07  -0.07  -0.03    -0.04   0.00   0.00     0.00  -0.10   0.02
    17   7    -0.15  -0.34   0.07    -0.02  -0.01   0.01     0.01  -0.05   0.01
    18   6    -0.07   0.01  -0.04    -0.03  -0.03  -0.03     0.01  -0.08   0.02
    19   6     0.03  -0.05   0.03    -0.02   0.01   0.04     0.03   0.02   0.02
    20   8     0.03   0.03   0.03    -0.05   0.00   0.05     0.10   0.17   0.04
    21   8     0.04   0.01   0.01    -0.06  -0.10  -0.04    -0.01  -0.26   0.03
    22   8    -0.03  -0.01   0.02     0.01   0.03   0.06    -0.01  -0.09   0.00
    23   8    -0.01   0.00   0.02     0.00   0.03  -0.04     0.02   0.18   0.00
    24   6    -0.02   0.00  -0.01     0.01  -0.01  -0.07     0.03   0.33  -0.01
    25   1     0.01   0.00  -0.01     0.04   0.06  -0.08     0.04   0.57  -0.03
    26   1     0.00   0.00   0.00     0.03  -0.06  -0.13    -0.03   0.27  -0.20
    27   1     0.00   0.00  -0.01    -0.04  -0.04  -0.02     0.08   0.29   0.19
    28   6    -0.01   0.00  -0.01     0.01   0.04   0.09     0.02  -0.01   0.00
    29   1    -0.02   0.01  -0.01    -0.02   0.03   0.11     0.02   0.10  -0.10
    30   1     0.00   0.00  -0.01     0.00   0.03   0.08     0.08   0.05   0.13
    31   1    -0.03   0.01  -0.01     0.03   0.05   0.11    -0.02  -0.11  -0.02
                      4                      5                      6
                      A                      A                      A
 Frequencies --     58.2637                77.9337                94.2933
 Red. masses --      5.9653                 4.5936                 3.7359
 Frc consts  --      0.0119                 0.0164                 0.0196
 IR Inten    --      1.4580                 0.6717                 3.4115
  Atom  AN      X      Y      Z        X      Y      Z        X      Y      Z
     1   6     0.04   0.01   0.06     0.05   0.04   0.01    -0.03   0.07   0.01
     2   6     0.05   0.01   0.05     0.05  -0.01   0.05    -0.04   0.10  -0.01
     3   6     0.06   0.03   0.05     0.05   0.12  -0.06    -0.05   0.07   0.01
     4   6     0.06   0.03   0.05     0.06   0.11  -0.06    -0.05   0.04   0.02
     5   1     0.05   0.06   0.04     0.08   0.00   0.02    -0.04   0.05   0.02
     6   1     0.06   0.05   0.05     0.06   0.12  -0.08    -0.05   0.01   0.04
     7   6     0.05   0.01   0.06     0.00   0.06   0.02    -0.03   0.10  -0.01
     8   1     0.06   0.01   0.05     0.01   0.04   0.03    -0.04   0.12  -0.02
     9   1     0.05   0.02   0.06    -0.08   0.09   0.04     0.00   0.10   0.00
    10   6     0.07   0.02   0.06     0.14  -0.02  -0.02    -0.08   0.08  -0.02
    11   1     0.08   0.02   0.06     0.20  -0.07   0.00    -0.10   0.08  -0.02
    12   6     0.08   0.03   0.05     0.13   0.06  -0.09    -0.08   0.06   0.00
    13   1     0.09   0.03   0.05     0.20   0.09  -0.14    -0.11   0.04  -0.01
    14   1     0.05   0.00   0.06     0.03  -0.06   0.10    -0.03   0.10  -0.01
    15   1     0.07   0.04   0.05     0.04   0.19  -0.11    -0.04   0.06   0.01
    16   7    -0.04   0.03  -0.02    -0.03   0.03   0.00     0.04   0.04   0.05
    17   7    -0.04   0.04  -0.03    -0.03   0.05   0.00     0.05   0.05   0.05
    18   6    -0.04  -0.02  -0.03    -0.04  -0.06   0.02     0.05   0.00   0.01
    19   6    -0.02   0.10  -0.02    -0.04   0.00   0.00     0.03  -0.02   0.02
    20   8     0.10   0.38   0.02    -0.09  -0.12  -0.02     0.02  -0.10   0.00
    21   8    -0.05  -0.05  -0.04    -0.04  -0.28   0.05     0.02  -0.06  -0.01
    22   8    -0.12  -0.17  -0.07    -0.01   0.10   0.01     0.00  -0.02   0.01
    23   8    -0.03  -0.06  -0.03    -0.05   0.09   0.01     0.10   0.03   0.00
    24   6    -0.04  -0.22  -0.04    -0.07  -0.14   0.06     0.12  -0.02  -0.06
    25   1    -0.03  -0.23  -0.04    -0.08   0.08   0.04     0.17   0.02  -0.07
    26   1     0.06  -0.29  -0.03     0.12  -0.37  -0.10     0.14  -0.07  -0.12
    27   1    -0.15  -0.27  -0.04    -0.28  -0.31   0.27     0.05  -0.06  -0.04
    28   6    -0.10  -0.12  -0.08    -0.03   0.04   0.01    -0.10  -0.32  -0.06
    29   1    -0.03   0.04  -0.30    -0.04  -0.06   0.12     0.05  -0.49  -0.01
    30   1    -0.06  -0.02   0.18    -0.07  -0.01  -0.13    -0.30  -0.34  -0.14
    31   1    -0.20  -0.37  -0.12     0.02   0.16   0.03    -0.12  -0.34  -0.07
                      7                      8                      9
                      A                      A                      A
 Frequencies --    106.6505               138.9237               152.2249
 Red. masses --      4.0089                 2.7123                 1.4186
 Frc consts  --      0.0269                 0.0308                 0.0194
 IR Inten    --      3.5058                10.7007                 3.2122
  Atom  AN      X      Y      Z        X      Y      Z        X      Y      Z
     1   6     0.05   0.04  -0.09    -0.03  -0.01  -0.07    -0.02   0.00  -0.03
     2   6     0.02   0.05  -0.05    -0.03  -0.07  -0.03    -0.01  -0.05  -0.01
     3   6    -0.04  -0.11   0.00    -0.03  -0.10   0.00     0.00  -0.03   0.00
     4   6     0.01  -0.04  -0.06    -0.03  -0.02  -0.05    -0.01   0.01  -0.02
     5   1     0.08   0.10  -0.11    -0.04  -0.03  -0.06    -0.02   0.00  -0.03
     6   1     0.02  -0.05  -0.10    -0.03   0.01  -0.07    -0.01   0.03  -0.03
     7   6    -0.01  -0.07  -0.03    -0.04  -0.14  -0.02    -0.01  -0.07  -0.01
     8   1    -0.05  -0.07   0.02    -0.04  -0.17   0.02     0.00  -0.10   0.01
     9   1     0.03  -0.12  -0.09    -0.06  -0.16  -0.06    -0.04  -0.08  -0.03
    10   6    -0.02   0.11   0.04    -0.02  -0.04   0.01     0.02  -0.02   0.01
    11   1    -0.04   0.20   0.06    -0.01   0.00   0.02     0.02  -0.01   0.01
    12   6    -0.05   0.01   0.07     0.00  -0.03   0.04     0.03  -0.01   0.01
    13   1    -0.09   0.00   0.14     0.02  -0.01   0.08     0.05   0.02   0.04
    14   1     0.04   0.11  -0.08    -0.04  -0.08  -0.05    -0.02  -0.07  -0.02
    15   1    -0.07  -0.22   0.03    -0.03  -0.13   0.01     0.01  -0.04   0.00
    16   7     0.04   0.05  -0.12     0.02   0.10   0.05     0.00   0.02   0.01
    17   7     0.04   0.03  -0.12     0.00   0.02   0.06     0.00   0.02   0.01
    18   6     0.03   0.03  -0.04     0.02   0.09   0.03     0.00  -0.01   0.01
    19   6     0.02   0.02  -0.04     0.00   0.01   0.03     0.01   0.05   0.01
    20   8    -0.07   0.05   0.00     0.03   0.01   0.02     0.02   0.09   0.01
    21   8     0.09  -0.04   0.04    -0.01   0.04   0.00    -0.01  -0.02   0.01
    22   8     0.10  -0.04   0.03    -0.04   0.00   0.01     0.01   0.06   0.01
    23   8    -0.09   0.08  -0.02     0.08   0.17   0.01     0.00  -0.02   0.01
    24   6    -0.14  -0.01   0.14     0.08  -0.09  -0.04     0.01   0.02   0.00
    25   1    -0.25   0.12   0.13     0.16   0.27  -0.07     0.00  -0.12   0.01
    26   1     0.00  -0.12   0.11     0.29  -0.42  -0.35    -0.05   0.11   0.10
    27   1    -0.19  -0.09   0.31    -0.22  -0.33   0.27     0.07   0.08  -0.13
    28   6     0.05  -0.14   0.19    -0.01   0.06  -0.04    -0.03  -0.04  -0.01
    29   1     0.04  -0.14   0.19     0.00   0.10  -0.09    -0.13  -0.38   0.41
    30   1    -0.08  -0.11   0.25     0.05   0.07   0.00    -0.11  -0.25  -0.51
    31   1     0.14  -0.25   0.23    -0.06   0.04  -0.06     0.14   0.43   0.06
                     10                     11                     12
                      A                      A                      A
 Frequencies --    160.2592               173.2577               182.9689
 Red. masses --      1.5312                 3.0812                 2.5596
 Frc consts  --      0.0232                 0.0545                 0.0505
 IR Inten    --      0.5702                 2.7761                 1.7304
  Atom  AN      X      Y      Z        X      Y      Z        X      Y      Z
     1   6     0.02  -0.03   0.06     0.18  -0.03  -0.01    -0.07   0.00   0.04
     2   6     0.01   0.03   0.03     0.11   0.12  -0.01    -0.05  -0.03   0.02
     3   6     0.00   0.03   0.01    -0.02  -0.11  -0.02     0.00   0.07   0.02
     4   6     0.01  -0.04   0.05     0.09  -0.14  -0.05    -0.05   0.02   0.07
     5   1     0.02  -0.03   0.06     0.26  -0.07   0.01    -0.11   0.01   0.04
     6   1     0.01  -0.07   0.06     0.11  -0.24  -0.10    -0.06   0.06   0.09
     7   6     0.02   0.09   0.02     0.07   0.07  -0.01    -0.03   0.03   0.02
     8   1     0.01   0.13  -0.02    -0.03   0.17  -0.01     0.01   0.02  -0.01
     9   1     0.06   0.11   0.06     0.20   0.05   0.00    -0.06   0.06   0.05
    10   6    -0.02  -0.01  -0.01    -0.02   0.09   0.00    -0.03  -0.05  -0.01
    11   1    -0.04  -0.03  -0.02    -0.07   0.14   0.00    -0.01  -0.08  -0.02
    12   6    -0.03  -0.02  -0.03    -0.08  -0.06   0.01     0.00   0.00  -0.02
    13   1    -0.07  -0.05  -0.07    -0.19  -0.11   0.02     0.01   0.00  -0.06
    14   1     0.03   0.05   0.04     0.17   0.23   0.00    -0.07  -0.06   0.03
    15   1     0.00   0.05   0.00    -0.09  -0.23  -0.02     0.02   0.13   0.01
    16   7    -0.01  -0.05  -0.02    -0.02   0.07   0.03     0.02  -0.02  -0.03
    17   7     0.00  -0.04  -0.02    -0.02   0.00   0.05     0.01  -0.03  -0.04
    18   6     0.00   0.01  -0.02    -0.03   0.03   0.01     0.03   0.06  -0.02
    19   6     0.01  -0.03  -0.01    -0.03  -0.03   0.04     0.01  -0.06  -0.03
    20   8     0.02   0.01   0.00    -0.01  -0.03   0.03     0.01  -0.01  -0.02
    21   8     0.01   0.08  -0.02    -0.05  -0.06   0.01     0.04   0.00   0.00
    22   8     0.01  -0.04  -0.01    -0.08  -0.04   0.01     0.01  -0.13  -0.02
    23   8    -0.02   0.00  -0.02     0.00   0.08   0.01     0.02   0.20  -0.03
    24   6    -0.04  -0.01   0.01     0.00  -0.01  -0.02    -0.01  -0.08   0.02
    25   1    -0.03   0.41  -0.02     0.01  -0.30   0.00    -0.06  -0.56   0.06
    26   1     0.07  -0.26  -0.30    -0.01   0.12   0.19     0.09   0.08   0.41
    27   1    -0.15  -0.19   0.40     0.01   0.08  -0.29    -0.07   0.02  -0.38
    28   6     0.02   0.00  -0.01    -0.04   0.06  -0.06     0.06   0.02   0.04
    29   1    -0.10  -0.17   0.25    -0.11   0.01   0.04    -0.09   0.01   0.17
    30   1     0.04  -0.13  -0.31     0.07  -0.01  -0.23     0.15  -0.03  -0.09
    31   1     0.13   0.32   0.04    -0.03   0.26  -0.06     0.15   0.20   0.08
                     13                     14                     15
                      A                      A                      A
 Frequencies --    201.8077               251.1551               268.0507
 Red. masses --      4.0608                 5.0113                 6.8615
 Frc consts  --      0.0974                 0.1862                 0.2905
 IR Inten    --     29.5985                11.3387                 6.5142
  Atom  AN      X      Y      Z        X      Y      Z        X      Y      Z
     1   6     0.02  -0.07   0.06    -0.04   0.01  -0.03    -0.03   0.06   0.00
     2   6     0.02  -0.05   0.06    -0.03   0.03  -0.08    -0.03  -0.08   0.08
     3   6     0.01  -0.03   0.01     0.00   0.01  -0.01     0.00   0.03   0.03
     4   6     0.00  -0.11   0.06     0.00   0.11  -0.07    -0.05  -0.08   0.11
     5   1     0.02  -0.12   0.08    -0.04   0.06  -0.05    -0.08  -0.03   0.03
     6   1     0.01  -0.15   0.08    -0.01   0.15  -0.08    -0.05  -0.06   0.12
     7   6     0.03   0.03   0.04    -0.03  -0.06  -0.06    -0.01   0.02   0.06
     8   1     0.02   0.09  -0.02    -0.01  -0.13   0.02     0.02   0.05  -0.01
     9   1     0.07   0.07   0.11    -0.07  -0.10  -0.14    -0.03   0.07   0.14
    10   6    -0.03  -0.13  -0.03     0.04   0.13   0.03    -0.07  -0.18  -0.04
    11   1    -0.03  -0.17  -0.03     0.01   0.16   0.02    -0.01  -0.20  -0.02
    12   6    -0.03  -0.11  -0.04     0.03   0.09   0.03    -0.01  -0.07  -0.01
    13   1    -0.05  -0.13  -0.09     0.05   0.12   0.09    -0.01  -0.09  -0.07
    14   1     0.02  -0.05   0.07    -0.03   0.03  -0.10    -0.05  -0.12   0.09
    15   1     0.01   0.01  -0.01     0.01  -0.01   0.01     0.02   0.09   0.01
    16   7    -0.02  -0.02  -0.03    -0.05  -0.12   0.02     0.07   0.45  -0.08
    17   7     0.00  -0.05   0.01     0.08  -0.02   0.10     0.08   0.11   0.01
    18   6    -0.03   0.04  -0.05    -0.03  -0.02  -0.09     0.06   0.05  -0.11
    19   6     0.05   0.09   0.03     0.09  -0.06   0.17     0.02   0.00   0.06
    20   8     0.05   0.03   0.01     0.13  -0.07   0.16    -0.04  -0.05   0.07
    21   8    -0.02   0.04  -0.04    -0.07   0.03  -0.13     0.05  -0.12  -0.11
    22   8     0.10   0.28   0.04     0.01  -0.06   0.12    -0.03  -0.10   0.04
    23   8    -0.05   0.13  -0.05    -0.07   0.03  -0.09     0.00  -0.15  -0.09
    24   6    -0.09  -0.04   0.02    -0.14   0.00   0.11    -0.06   0.08   0.12
    25   1    -0.15  -0.21   0.04    -0.31  -0.04   0.12    -0.24   0.18   0.12
    26   1     0.01  -0.01   0.20    -0.05   0.01   0.24    -0.11   0.12   0.14
    27   1    -0.14  -0.02  -0.10    -0.11   0.00   0.16     0.14   0.11   0.28
    28   6    -0.02  -0.09  -0.07     0.08  -0.01  -0.18     0.04   0.03  -0.11
    29   1     0.29  -0.14  -0.28     0.19  -0.03  -0.25     0.04   0.06  -0.14
    30   1    -0.27  -0.01   0.11     0.22  -0.05  -0.26     0.20   0.00  -0.16
    31   1    -0.18  -0.41  -0.14    -0.13   0.09  -0.28    -0.06   0.13  -0.16
                     16                     17                     18
                      A                      A                      A
 Frequencies --    323.6852               329.7807               415.9429
 Red. masses --      5.4151                 5.3062                 8.0262
 Frc consts  --      0.3343                 0.3400                 0.8181
 IR Inten    --     26.3426                12.6929                61.8278
  Atom  AN      X      Y      Z        X      Y      Z        X      Y      Z
     1   6     0.01   0.02  -0.01    -0.01   0.01   0.00     0.00   0.06  -0.01
     2   6     0.01   0.01   0.00    -0.01   0.00   0.00     0.03  -0.01   0.03
     3   6     0.00  -0.01   0.00     0.00   0.02   0.00     0.01  -0.05   0.01
     4   6     0.00   0.00  -0.02    -0.01   0.00   0.02    -0.03   0.04  -0.04
     5   1     0.02  -0.06   0.02    -0.03   0.02  -0.01     0.03  -0.07   0.05
     6   1     0.01  -0.01  -0.03    -0.01   0.03   0.00    -0.04  -0.09   0.05
     7   6     0.00  -0.01   0.00    -0.01   0.00   0.00     0.03  -0.01   0.02
     8   1    -0.01   0.00   0.01     0.00  -0.03   0.01     0.00   0.03   0.00
     9   1     0.01  -0.01  -0.01    -0.04  -0.01  -0.01     0.09   0.00   0.05
    10   6    -0.01  -0.02  -0.01     0.00   0.00   0.00    -0.03  -0.11  -0.04
    11   1    -0.02  -0.02  -0.01     0.01   0.01   0.01    -0.05  -0.17  -0.06
    12   6     0.00   0.00   0.01     0.01   0.01   0.00    -0.05  -0.06  -0.02
    13   1     0.00   0.01   0.02     0.00   0.00  -0.01     0.06   0.02   0.07
    14   1     0.01   0.01   0.00    -0.02  -0.01   0.00     0.01  -0.05   0.01
    15   1    -0.01  -0.03   0.00     0.00   0.03   0.00     0.02  -0.05   0.02
    16   7    -0.03   0.06   0.12    -0.04   0.17  -0.02     0.04  -0.20  -0.05
    17   7    -0.01   0.02   0.13     0.03   0.00   0.04     0.16   0.31   0.06
    18   6    -0.03   0.01  -0.03    -0.13   0.04   0.06     0.07  -0.05  -0.11
    19   6     0.03   0.01  -0.07     0.10  -0.03   0.00     0.02   0.09   0.11
    20   8     0.28  -0.08  -0.17     0.21  -0.07  -0.04     0.12  -0.09   0.04
    21   8    -0.17  -0.01  -0.17    -0.04  -0.01   0.16     0.30   0.02   0.09
    22   8    -0.03   0.01  -0.13     0.11  -0.06  -0.01    -0.21   0.00   0.02
    23   8     0.04  -0.01  -0.04    -0.21  -0.01   0.08    -0.09   0.01  -0.10
    24   6    -0.02   0.02   0.15    -0.14   0.00  -0.28    -0.13  -0.01  -0.13
    25   1    -0.19   0.02   0.16     0.18   0.01  -0.29    -0.09  -0.02  -0.13
    26   1     0.04   0.03   0.24    -0.28  -0.01  -0.45    -0.11  -0.02  -0.13
    27   1     0.05   0.02   0.23    -0.22   0.01  -0.40    -0.14  -0.01  -0.14
    28   6    -0.08   0.00   0.23     0.13  -0.05   0.02    -0.25   0.09   0.09
    29   1    -0.26   0.04   0.33     0.11  -0.04   0.03    -0.35   0.12   0.14
    30   1    -0.20   0.05   0.31     0.14  -0.05   0.02    -0.23   0.10   0.13
    31   1     0.19  -0.08   0.36     0.15  -0.04   0.02    -0.15   0.08   0.14
                     19                     20                     21
                      A                      A                      A
 Frequencies --    426.4044               437.0471               509.0531
 Red. masses --      5.1840                 2.1876                 3.0032
 Frc consts  --      0.5553                 0.2462                 0.4585
 IR Inten    --     70.7821                23.9309                24.9631
  Atom  AN      X      Y      Z        X      Y      Z        X      Y      Z
     1   6    -0.01   0.08  -0.05    -0.06  -0.04  -0.04    -0.06   0.12  -0.09
     2   6     0.03  -0.04   0.06    -0.07  -0.10  -0.02    -0.02  -0.05  -0.01
     3   6    -0.02  -0.12   0.01    -0.06  -0.08   0.00     0.01  -0.02   0.00
     4   6    -0.03   0.07  -0.12    -0.02   0.03  -0.08    -0.07  -0.08   0.10
     5   1     0.07  -0.10   0.02    -0.02   0.01  -0.06    -0.16   0.24  -0.14
     6   1    -0.04  -0.04  -0.05    -0.02   0.15  -0.15    -0.09  -0.18   0.25
     7   6     0.08   0.08   0.03     0.06   0.14  -0.01     0.03   0.01  -0.02
     8   1    -0.01   0.34  -0.19     0.01   0.49  -0.40     0.08   0.06  -0.15
     9   1     0.34   0.18   0.25     0.37   0.32   0.33     0.09   0.07   0.10
    10   6    -0.06  -0.17  -0.03     0.04   0.01   0.07     0.20   0.11   0.10
    11   1    -0.09  -0.21  -0.05     0.06   0.08   0.10     0.53   0.31   0.28
    12   6    -0.02  -0.04   0.05     0.06   0.03   0.09    -0.09  -0.16  -0.15
    13   1     0.15   0.10   0.19     0.10   0.06   0.12    -0.11  -0.17  -0.16
    14   1    -0.01  -0.11   0.03    -0.09  -0.12  -0.01    -0.07  -0.13  -0.01
    15   1    -0.05  -0.18   0.02    -0.08  -0.12   0.01     0.09   0.10   0.00
    16   7    -0.02  -0.14   0.07     0.00   0.04  -0.02     0.01  -0.03   0.00
    17   7     0.03   0.30   0.02    -0.02  -0.09  -0.01     0.02   0.05   0.00
    18   6    -0.06  -0.02   0.05     0.02   0.00  -0.01    -0.02  -0.01   0.01
    19   6     0.05   0.09  -0.05    -0.01  -0.03   0.02     0.01   0.02   0.01
    20   8    -0.11   0.01  -0.04     0.04  -0.01   0.01     0.00  -0.01   0.00
    21   8    -0.15   0.03  -0.04     0.04  -0.01   0.01    -0.04   0.01  -0.01
    22   8     0.10  -0.10  -0.02    -0.02   0.02   0.01     0.00  -0.01   0.00
    23   8     0.00   0.01   0.06     0.00  -0.01  -0.02     0.00   0.01   0.02
    24   6     0.01   0.00   0.02     0.00   0.00  -0.01     0.01   0.00   0.01
    25   1     0.04  -0.01   0.02    -0.01   0.00  -0.01     0.02   0.00   0.01
    26   1     0.01  -0.01   0.02     0.00   0.00   0.00     0.01   0.00   0.01
    27   1    -0.01  -0.01   0.01     0.01   0.00   0.00     0.00   0.00   0.00
    28   6     0.18  -0.05  -0.05    -0.04   0.01   0.01     0.00   0.00   0.00
    29   1     0.15  -0.02  -0.06    -0.03   0.00   0.01    -0.01   0.01   0.00
    30   1     0.24  -0.06  -0.07    -0.05   0.01   0.01     0.01   0.00   0.00
    31   1     0.13   0.00  -0.07    -0.03   0.00   0.01     0.00   0.01   0.00
                     22                     23                     24
                      A                      A                      A
 Frequencies --    597.2806               635.0376               646.1980
 Red. masses --      9.7443                 4.9981                 5.6502
 Frc consts  --      2.0481                 1.1876                 1.3901
 IR Inten    --     25.2996                34.4912               165.5433
  Atom  AN      X      Y      Z        X      Y      Z        X      Y      Z
     1   6    -0.03  -0.04   0.07    -0.14   0.01   0.21    -0.03   0.11  -0.03
     2   6    -0.01   0.01  -0.01     0.15   0.22   0.04     0.09   0.13  -0.07
     3   6     0.01  -0.02   0.01    -0.05  -0.21   0.01    -0.17  -0.12  -0.03
     4   6    -0.03   0.07  -0.04    -0.19   0.18  -0.07    -0.06  -0.20   0.23
     5   1    -0.03  -0.21   0.14    -0.13   0.05   0.19    -0.28   0.20  -0.06
     6   1    -0.03   0.00   0.02    -0.20   0.14  -0.03    -0.01   0.17  -0.18
     7   6     0.03  -0.02  -0.02     0.07  -0.04   0.02    -0.16   0.07  -0.07
     8   1     0.03  -0.02  -0.01    -0.22   0.09   0.23    -0.41   0.25   0.03
     9   1     0.06  -0.04  -0.03     0.35  -0.21  -0.17     0.05   0.00  -0.13
    10   6     0.06   0.07   0.03     0.12  -0.01  -0.08     0.09  -0.03  -0.16
    11   1     0.13   0.11   0.07     0.06  -0.16  -0.15    -0.02   0.00  -0.19
    12   6    -0.06  -0.03  -0.05     0.00  -0.14  -0.11     0.32   0.02   0.11
    13   1    -0.01   0.02   0.03     0.25   0.10   0.22     0.16  -0.11   0.00
    14   1    -0.02  -0.01  -0.04     0.03   0.01  -0.02     0.04  -0.03   0.08
    15   1     0.04  -0.01   0.04     0.13   0.07   0.04    -0.07   0.15  -0.07
    16   7     0.06   0.06   0.40    -0.06   0.06  -0.06     0.07  -0.04   0.05
    17   7    -0.05  -0.10   0.38    -0.09  -0.05  -0.04     0.11  -0.01   0.03
    18   6     0.11  -0.03  -0.09    -0.03   0.04  -0.02     0.04  -0.04   0.04
    19   6    -0.01   0.03  -0.12    -0.02  -0.03   0.00     0.01  -0.01  -0.01
    20   8    -0.24   0.09  -0.05     0.05  -0.01  -0.02    -0.06   0.01   0.03
    21   8     0.22  -0.01  -0.04     0.03  -0.01   0.04    -0.04   0.01  -0.05
    22   8     0.07   0.00  -0.18     0.01   0.00   0.04     0.00   0.00  -0.05
    23   8    -0.05   0.00  -0.17     0.03  -0.02  -0.03    -0.04   0.02   0.04
    24   6    -0.22   0.01  -0.11     0.05   0.00   0.02    -0.05   0.00  -0.02
    25   1    -0.24   0.01  -0.11    -0.02   0.01   0.02     0.04  -0.01  -0.03
    26   1    -0.17   0.00  -0.08     0.06   0.01   0.05    -0.07   0.00  -0.06
    27   1    -0.17   0.01  -0.09     0.07   0.00   0.06    -0.09   0.00  -0.07
    28   6     0.13  -0.04  -0.01     0.03  -0.01   0.00    -0.04   0.02   0.00
    29   1     0.04  -0.01   0.03     0.06  -0.02  -0.01    -0.06   0.02   0.02
    30   1     0.05  -0.02   0.03     0.03  -0.02  -0.02    -0.05   0.02   0.02
    31   1     0.24  -0.09   0.04    -0.03   0.01  -0.02     0.03  -0.01   0.03
                     25                     26                     27
                      A                      A                      A
 Frequencies --    687.1719               733.9981               757.8175
 Red. masses --      7.4621                 5.7850                 3.9159
 Frc consts  --      2.0761                 1.8363                 1.3250
 IR Inten    --     26.5474                30.3358               135.3455
  Atom  AN      X      Y      Z        X      Y      Z        X      Y      Z
     1   6    -0.04  -0.06   0.07     0.10   0.11   0.13     0.12   0.09   0.21
     2   6     0.00   0.04   0.05    -0.03  -0.12  -0.05    -0.02  -0.15  -0.06
     3   6     0.05  -0.01   0.01    -0.06   0.02   0.04    -0.10   0.01   0.06
     4   6    -0.06   0.14  -0.13     0.00   0.00   0.02     0.00   0.05   0.03
     5   1     0.07  -0.03   0.06     0.09  -0.19   0.25     0.08  -0.26   0.35
     6   1    -0.08   0.05   0.02     0.07   0.09  -0.37     0.09   0.08  -0.40
     7   6     0.09  -0.03   0.05    -0.01  -0.02  -0.09    -0.02  -0.03  -0.14
     8   1     0.09  -0.05   0.08     0.02   0.00  -0.17     0.01   0.00  -0.23
     9   1     0.10  -0.06   0.01     0.03   0.01  -0.04     0.05   0.00  -0.07
    10   6    -0.01   0.00   0.03     0.06   0.06  -0.02     0.07   0.06  -0.01
    11   1    -0.01  -0.08   0.01    -0.23  -0.11  -0.19    -0.21  -0.12  -0.18
    12   6    -0.10  -0.04  -0.06    -0.03  -0.03   0.01    -0.05  -0.02   0.00
    13   1     0.06   0.09   0.10    -0.21  -0.15  -0.08    -0.20  -0.14  -0.12
    14   1    -0.01   0.04  -0.04    -0.10  -0.25  -0.01    -0.05  -0.22  -0.03
    15   1     0.08  -0.01   0.03     0.03   0.06   0.11     0.04   0.04   0.18
    16   7     0.30   0.03  -0.03     0.05  -0.11   0.06    -0.04   0.03  -0.10
    17   7     0.21  -0.12  -0.08    -0.02   0.12  -0.03     0.05  -0.04   0.04
    18   6     0.14  -0.01   0.09     0.07   0.40  -0.02    -0.08  -0.07  -0.02
    19   6     0.14  -0.06   0.01    -0.12  -0.28  -0.04     0.12   0.18   0.04
    20   8    -0.09   0.02   0.11     0.05   0.08  -0.01    -0.06  -0.05   0.05
    21   8    -0.15  -0.01  -0.21     0.00  -0.12  -0.04    -0.02   0.03   0.05
    22   8    -0.03   0.03  -0.10     0.02   0.07   0.05    -0.01  -0.03  -0.11
    23   8    -0.12   0.03   0.23    -0.02  -0.09   0.03     0.01   0.02   0.00
    24   6    -0.10   0.00  -0.04    -0.04   0.00  -0.01     0.06   0.00   0.02
    25   1     0.28  -0.02  -0.05     0.04   0.04  -0.02     0.00   0.00   0.03
    26   1    -0.23  -0.01  -0.21    -0.11   0.01  -0.07     0.08   0.00   0.06
    27   1    -0.22   0.01  -0.21     0.01   0.01  -0.02     0.06  -0.01   0.05
[...]
 00016960,0.00018210,-0.00000993,-0.00000502,-0.00002091,0.00023854,0.0
 0013199,-0.00001590,-0.00001099,-0.00002311,-0.00002772,-0.00001425,0.
 00000198,-0.00002685,-0.00000650,0.00000559,-0.00002280,-0.00113168,0.
 00007744,-0.00046652,0.00045360,0.00014845,-0.00034326,0.00080563,0.00
 018911,0.00324891,0.00011856,-0.00014847,-0.00007444,-0.00010719,0.000
 06890,-0.00002177,-0.00099229,-0.00000254,-0.00045201,-0.00008732,0.00
 005003,0.00003025,-0.00515953,-0.00035662,-0.00841597,-0.00144764,-0.0
 2332529,-0.32699056,0.00648580,0.02535930,0.34924568,-0.00035344,-0.00
 050996,0.00022160,0.00005654,0.00014201,-0.00000449,-0.00000864,-0.000
 04133,-0.00003138,0.00015473,-0.00046879,0.00001323,0.00001582,0.00002
 717,-0.00004961,-0.00013182,0.00017433,-0.00010792,-0.00002562,-0.0000
 0800,-0.00002439,-0.00001246,-0.00001760,-0.00002053,0.00000306,0.0000
 1189,0.00000610,-0.00011448,0.00028437,0.00025674,-0.00001674,-0.00000
 558,-0.00002943,0.00033581,0.00017286,-0.00007072,-0.00001952,-0.00003
 555,-0.00004052,-0.00002283,0.00000509,-0.00004218,-0.00001317,0.00001
 172,-0.00003873,-0.00170899,0.00086564,-0.00024239,0.00043821,0.000294
 98,-0.00092703,0.00082873,-0.00063005,0.00987533,0.00027859,-0.0003101
 5,-0.00015019,-0.00024227,0.00015469,-0.00009834,0.00140523,-0.0000616
 0,-0.00232087,-0.00015915,0.00008062,0.00006468,-0.03500578,-0.0237817
 3,0.00354971,-0.10685823,-0.09335591,0.05464382,0.00242125,0.00096574,
 0.00039065,0.13032551,0.00000395,0.00001346,-0.00002463,-0.00000285,0.
 00001923,-0.00000051,-0.00000976,0.00000868,0.00000854,0.00000690,0.00
 004884,0.00000483,-0.00000329,-0.00000412,0.00000069,0.00017588,0.0000
 7763,0.00003677,-0.00000243,-0.00000398,-0.00000079,-0.00000235,-0.000
 00060,0.00000068,0.00000215,-0.00000069,0.00000163,0.00003155,-0.00001
 446,-0.00001628,0.00000354,0.00000256,0.00000323,-0.00002104,-0.000018
 56,0.00001007,-0.00000034,-0.00000069,-0.00000012,-0.00000247,-0.00000
 254,-0.00000161,-0.00000118,-0.00000037,0.00000266,0.00000088,-0.00042
 201,-0.00030716,0.00009977,-0.00003209,-0.00003805,-0.00116810,0.00107
 633,0.00238702,0.00002995,-0.00000485,-0.00001896,-0.00001334,0.000012
 48,-0.00000609,0.00173742,0.00004695,-0.00006332,-0.00000694,0.0000003
 6,0.00000774,0.00018260,0.00739358,-0.00471716,-0.09904713,-0.20765782
 ,0.09005905,0.00320579,0.00412639,-0.00226052,0.10795837,0.21445504,-0
 .00012795,-0.00018030,0.00005911,0.00002260,0.00007733,-0.00000652,0.0
 0000381,-0.00000589,-0.00001602,0.00000938,-0.00015870,0.00002988,0.00
 000326,0.00000426,-0.00000469,0.00004096,0.00001441,-0.00003342,-0.000
 00850,-0.00000143,-0.00000719,-0.00000111,-0.00000449,-0.00000563,-0.0
 0000165,0.00000234,-0.00000092,-0.00000996,0.00008781,0.00008835,-0.00
 000684,-0.00000512,-0.00000916,0.00012305,0.00005048,-0.00001960,-0.00
 000608,-0.00001141,-0.00001500,-0.00000874,-0.00000188,-0.00001239,-0.
 00000316,0.00000222,-0.00000984,-0.00039404,0.00083901,0.00016222,0.00
 005436,0.00017455,-0.00035005,-0.00181749,-0.00157484,0.00171643,0.000
 08165,-0.00009833,-0.00001234,-0.00004181,0.00002439,-0.00001163,0.000
 19765,-0.00010924,-0.00021839,-0.00001435,0.00000382,0.00000895,-0.007
 51889,-0.00953979,0.00453413,0.05973436,0.09324211,-0.10418551,0.01440
 899,0.02386638,-0.01002224,-0.06004836,-0.09824246,0.10350443,-0.00043
 820,-0.00055188,0.00029897,0.00007329,0.00010149,-0.00002687,0.0000176
 8,-0.00003886,-0.00008774,0.00003489,-0.00034971,-0.00002023,0.0000086
 4,0.00002619,-0.00004906,-0.00033351,-0.00001250,-0.00006819,-0.000017
 14,0.00002552,-0.00002056,-0.00000267,-0.00001571,-0.00000830,0.000009
 67,0.00000304,0.00000036,-0.00015815,0.00029923,0.00028772,-0.00000779
 ,-0.00000629,-0.00003056,0.00045361,0.00023568,-0.00003236,-0.00001513
 ,-0.00003316,-0.00004933,-0.00001377,0.00000881,-0.00003762,-0.0000134
 7,0.00000587,-0.00002953,-0.00203094,-0.00059140,0.00006320,0.00060691
 ,0.00002361,-0.00103630,0.00123957,0.00234133,0.00904882,0.00012306,-0
 .00022792,-0.00016807,-0.00014611,0.00012360,-0.00005036,0.00114005,-0
 .00038295,-0.00225783,-0.00009031,0.00006662,0.00002576,-0.03061103,0.
 02988908,-0.00047931,-0.07934041,0.07797299,0.02703778,0.00199267,-0.0
 0085223,0.00071515,0.00839300,-0.01316126,-0.00467718,0.09910099,-0.00
 001716,-0.00000121,-0.00004379,0.00000612,0.00005615,-0.00001709,0.000
 01885,0.00005205,-0.00002569,-0.00015097,0.00006169,0.00000317,0.00000
 179,-0.00000877,0.00001264,0.00020951,0.00006046,0.00007778,-0.0000021
 5,0.00000489,0.00000322,0.00000527,0.00000440,0.00000584,-0.00000134,-
 0.00000277,-0.00000424,0.00006120,-0.00002440,-0.00001714,0.00000625,-
 0.00000196,0.00000402,0.00005724,-0.00000771,0.00006480,-0.00000245,-0
 .00000349,-0.00000614,-0.00000079,-0.00000716,-0.00000017,-0.00000149,
 -0.00000767,0.00001174,0.00020715,-0.00040292,0.00049562,-0.00013596,0
 .00004894,0.00007438,0.00052860,0.00073066,-0.00379080,-0.00005009,0.0
 0006441,0.00004007,0.00005483,-0.00003214,0.00001958,-0.00163752,0.000
 30704,0.00038369,0.00004060,-0.00002186,-0.00001774,0.00475346,0.00531
 175,0.00412726,0.08383391,-0.26263518,-0.07069637,-0.00097598,0.000242
 56,0.00037400,0.00809133,-0.01911694,-0.00845411,-0.09489019,0.2753290
 4,-0.00017790,-0.00022735,0.00009217,0.00002044,0.00006813,-0.00000861
 ,-0.00000588,-0.00001479,-0.00002900,0.00001784,-0.00011094,-0.0000073
 1,-0.00000344,0.00001069,-0.00001276,0.00002305,-0.00004262,-0.0000226
 1,-0.00000633,0.00000232,-0.00000644,-0.00000101,-0.00000229,-0.000002
 77,0.00000050,0.00000037,-0.00000361,-0.00002962,0.00009511,0.00010351
 ,-0.00000101,-0.00000278,-0.00000897,0.00016048,0.00007133,-0.00001499
 ,-0.00000397,-0.00001131,-0.00001673,-0.00000850,-0.00000266,-0.000014
 22,-0.00000645,0.00000234,-0.00000780,-0.00055854,-0.00053598,0.000259
 23,0.00015426,-0.00007254,-0.00036787,-0.00171644,0.00215567,0.0019768
 5,0.00006521,0.00000948,-0.00003867,-0.00002106,0.00000577,-0.00000243
 ,0.00044971,-0.00006104,0.00002274,0.00000520,0.00001325,-0.00000560,-
 0.00636860,0.01017867,0.00211357,0.03035090,-0.07444866,-0.07557630,0.
 01079376,-0.02762976,-0.00582653,-0.00478230,0.01317550,0.00483580,-0.
 02835370,0.07737768,0.07257064,-0.00110273,-0.00078141,-0.00046569,0.0
 0058953,0.00045346,0.00012189,0.00001021,0.00010091,-0.00030865,0.0000
 7466,-0.00232256,0.00034305,-0.00013632,0.00032731,-0.00050185,0.00008
 163,0.00015780,-0.00026046,0.00009144,-0.00010188,-0.00008869,-0.00003
 430,-0.00015437,-0.00008982,-0.00009702,0.00012275,0.00018330,-0.00014
 191,0.00098120,0.00051790,0.00004727,0.00001281,-0.00002714,0.00180162
 ,0.00031389,0.00013177,-0.00010514,-0.00024559,-0.00028612,0.00063552,
 0.00057616,0.00013608,-0.00002158,-0.00002367,-0.00011232,0.00024588,0
 .00079908,-0.00006102,0.00637472,-0.00172300,0.00104277,-0.00092234,-0
 .00053000,0.00024310,-0.04977940,0.01333482,0.02826700,0.00073401,0.00
 023610,-0.01666835,0.00073184,-0.00002230,-0.00030083,-0.16146970,0.03
 792583,-0.01354862,0.00066104,0.00007617,0.00030833,-0.00026834,0.0000
 1785,-0.00011090,0.00004179,0.00000356,0.00003642,0.00006759,0.0000053
 0,0.00001008,0.00004498,-0.00001795,0.00000525,0.44790091,0.00128695,0
 .00074129,-0.00052013,0.00015359,-0.00001050,-0.00000514,-0.00004944,0
 .00000018,0.00023072,-0.00019603,0.00088477,-0.00002503,0.00001601,0.0
 0003800,-0.00002196,-0.00004647,-0.00007834,0.00013376,-0.00010015,0.0
 0002756,-0.00007350,0.00001653,0.00006384,0.00003815,0.00004513,-0.000
 04282,-0.00006804,0.00007710,-0.00063408,-0.00026869,0.00000199,0.0000
 2838,0.00002879,-0.00088576,-0.00029365,-0.00009287,0.00001977,0.00008
 200,0.00010966,-0.00011224,-0.00096542,0.00001497,0.00000356,0.0000112
 3,0.00005633,0.00049682,0.00054025,0.00011515,-0.00447989,0.00487323,0
 .00165921,0.00041172,0.00010477,-0.00007918,0.01359197,-0.00546625,-0.
 01030074,-0.00246274,-0.00371834,0.00504455,-0.00026347,-0.00002778,0.
 00007669,0.04182272,-0.07741750,0.00811821,-0.00024065,-0.00001960,-0.
 00013269,0.00009709,-0.00000123,0.00003825,-0.00001500,-0.00000176,-0.
 00001408,-0.00002592,-0.00000255,-0.00000263,-0.00001534,0.00000341,-0
 .00000383,0.05549946,0.57046308,-0.00030897,0.00016106,-0.00009021,0.0
 0009400,-0.00022928,-0.00005030,-0.00006066,0.00002945,-0.00000386,0.0
 0002085,-0.00009701,0.00003193,0.00002699,-0.00012363,0.00011638,-0.00
 000067,0.00003700,-0.00003035,0.00002134,0.00000125,-0.00007789,-0.000
 00864,-0.00000287,0.00000868,0.00000219,0.00000883,0.00001221,-0.00006
 063,0.00016641,0.00002709,0.00000665,0.00002312,0.00000364,0.00009780,
 0.00005063,-0.00000573,-0.00001625,-0.00001257,-0.00001838,0.00006644,
 -0.00017733,0.00017022,-0.00000849,0.00001449,-0.00000844,0.00165606,-
 0.00030583,0.00091465,0.00254682,0.00027816,-0.00455657,0.00006128,-0.
 00018498,-0.00029901,0.03402287,-0.01274108,0.00424008,0.00340755,-0.0
 0160281,-0.00063057,0.00031336,0.00003316,-0.00006744,-0.03891968,0.01
 679510,-0.08883460,0.00013171,0.00002742,0.00006711,-0.00004706,0.0000
 0672,-0.00000459,0.00000946,-0.00000032,0.00000710,0.00001129,-0.00000
 100,0.00000075,0.00000886,-0.00000329,-0.00000192,-0.03587325,0.007943
 63,0.62250009,0.00048232,0.00051547,-0.00020300,-0.00036032,-0.0001834
 0,0.00007263,-0.00000186,-0.00003519,0.00006537,-0.00004586,0.00057666
 ,-0.00001959,0.00005587,-0.00006479,0.00008326,-0.00001014,-0.00005396
 ,0.00005582,0.00005187,0.00002100,0.00008324,0.00000331,0.00001087,0.0
 0001464,0.00000658,-0.00001678,0.00000054,0.00013703,-0.00031878,-0.00
 033929,0.00001706,-0.00000118,0.00003364,-0.00047229,-0.00021481,0.000
 02800,0.00004391,0.00005184,0.00006020,-0.00003609,0.00033263,-0.00003
 083,0.00002855,-0.00000608,0.00003945,0.00045615,-0.00012759,-0.000167
 62,-0.00180241,0.00110713,0.00080837,-0.00004146,0.00012786,-0.0000481
 7,0.00298540,-0.00167831,-0.00886854,0.00083023,-0.00036015,0.00257176
 ,-0.00004009,-0.00001760,-0.00001323,-0.03416624,-0.01184752,-0.017222
 21,-0.00006185,-0.00001468,0.00000815,0.00002580,-0.00000122,0.0000124
 9,-0.00000335,-0.00000108,-0.00000387,-0.00000698,-0.00000117,-0.00000
 003,-0.00000387,0.00000174,-0.00000034,-0.10615665,-0.07641831,-0.0747
 3867,0.12721638,-0.00004523,-0.00014319,0.00016350,0.00013244,0.000154
 17,-0.00014466,0.00000118,0.00000493,0.00001170,0.00002858,-0.00024810
 ,-0.00000332,-0.00002847,0.00002363,-0.00001711,-0.00000514,0.00001997
 ,-0.00000696,-0.00009065,0.00003917,-0.00004962,-0.00000312,0.00000245
 ,0.00000303,-0.00000183,0.00000390,0.00000228,-0.00012528,0.00011426,0
 .00022166,-0.00003382,-0.00001226,-0.00003139,0.00019849,0.00015910,-0
 .00004646,-0.00002822,-0.00000549,0.00000076,0.00024971,-0.00069532,0.
 00003309,-0.00001860,0.00000533,-0.00002078,-0.00023780,-0.00001561,0.
 00012021,0.00059352,-0.00065211,-0.00016551,0.00008311,-0.00001542,0.0
 0004460,-0.00058146,0.00161688,-0.00012333,0.00117463,-0.00040509,0.00
 000807,-0.00003221,0.00000740,0.00002155,0.01152716,0.01109558,0.01067
 841,0.00000030,0.00000187,-0.00002110,0.00000261,-0.00000028,0.0000004
 1,-0.00000010,-0.00000003,-0.00000017,-0.00000018,0.00000024,-0.000000
 51,-0.00000084,-0.00000006,-0.00000030,-0.08256096,-0.15765331,-0.1062
 4888,0.08225917,0.16100379,0.00011928,-0.00008419,0.00002252,-0.000155
 02,0.00005385,-0.00001419,0.00000403,-0.00001483,-0.00000536,0.0000108
 7,0.00000044,0.00002937,0.00001877,-0.00001063,0.00001975,-0.00000198,
 -0.00000955,0.00001055,0.00000890,-0.00001134,0.00004785,-0.00000003,0
 .00000585,-0.00000146,0.00000298,-0.00000835,-0.00001249,0.00002970,-0
 .00002571,-0.00002383,-0.00000691,-0.00001071,-0.00000240,0.00000472,-
 0.00000246,-0.00001541,0.00000554,0.00001011,0.00000954,0.00000817,0.0
 0012383,-0.00001293,0.00000694,-0.00000196,0.00000425,0.00008537,-0.00
 000636,0.00001283,-0.00066376,-0.00025017,0.00002041,0.00002681,0.0000
 4300,-0.00001617,0.00311241,0.00030059,-0.00106057,-0.00000921,-0.0001
 3390,0.00087985,-0.00004352,-0.00000833,0.00001809,-0.00672776,0.00213
 473,-0.00007056,-0.00004140,-0.00000287,-0.00001221,0.00001404,-0.0000
 0048,0.00000739,-0.00000171,-0.00000024,-0.00000201,-0.00000393,-0.000
 00003,-0.00000006,-0.00000348,0.00000110,0.00000018,-0.08019464,-0.105
 31979,-0.15557401,0.09097360,0.11287594,0.16113777,0.00009902,0.000261
 80,0.00015102,-0.00028367,-0.00019747,-0.00001092,-0.00000347,-0.00003
 863,0.00004336,-0.00000047,0.00048982,-0.00008788,0.00003899,-0.000108
 14,0.00014999,-0.00001402,-0.00002681,0.00004664,0.00001420,0.00001100
 ,0.00002141,0.00000329,0.00002021,0.00002242,0.00000745,-0.00001925,-0
 .00001603,0.00004039,-0.00015698,-0.00016329,-0.00000703,-0.00000327,0
 .00001092,-0.00035193,-0.00005513,-0.00000652,0.00002894,0.00005388,0.
 00006047,-0.00008435,-0.00000454,-0.00002767,0.00000902,0.00000387,0.0
 0002365,-0.00002137,-0.00026029,-0.00021327,-0.00090279,-0.00049171,0.
 00003767,0.00017378,0.00015197,0.00001911,0.00364437,0.00200019,-0.006
 85875,0.00009053,-0.00030580,0.00225931,-0.00015102,0.00000005,0.00005
 053,-0.01461222,0.03819765,-0.01136359,-0.00010951,-0.00001455,-0.0000
 5701,0.00005099,-0.00000348,0.00002304,-0.00000743,-0.00000040,-0.0000
 0659,-0.00001224,-0.00000051,-0.00000270,-0.00000787,0.00000345,-0.000
 00109,-0.04998754,-0.02612257,0.01065687,0.00152564,-0.01339578,0.0069
 5182,0.05980790,0.00001235,-0.00004171,-0.00008125,-0.00004347,0.00013
 608,0.00001433,0.00000247,-0.00000709,-0.00003231,0.00000888,-0.000274
 47,0.00006970,-0.00002196,0.00005864,-0.00007309,0.00000916,0.00001199
 ,-0.00002785,-0.00000651,-0.00000693,0.00002242,-0.00000161,-0.0000154
 1,-0.00001425,-0.00001321,0.00000539,0.00001517,-0.00001513,0.00009750
 ,0.00004269,0.,-0.00000297,-0.00000563,0.00022143,0.00004654,-0.000000
 22,-0.00000923,-0.00002110,-0.00002673,0.00001093,0.00018293,-0.000023
 98,0.00000039,-0.00000309,-0.00001202,0.00014004,0.00007071,0.00005262
 ,0.00038063,-0.00043503,-0.00038408,-0.00013346,-0.00004502,-0.0000345
 2,-0.00182042,0.00024407,0.00560174,-0.00129319,0.00083943,-0.00164673
 ,0.00010476,-0.00000617,-0.00003699,0.01184740,-0.00820359,0.00187970,
 0.00005918,0.00000501,0.00004168,-0.00003102,0.00000220,-0.00001031,0.
 00000414,0.00000025,0.00000400,0.00000702,0.00000030,0.00000089,0.0000
 0452,-0.00000181,0.00000061,-0.01837158,-0.27992958,0.09327172,-0.0022
 9521,-0.01572586,0.00805797,0.01225702,0.29960865,0.00003301,-0.000077
 41,0.00001613,-0.00007216,0.00002999,0.00000465,0.00000662,-0.00000410
 ,0.00000506,0.00002465,0.00006196,-0.00000301,0.00001465,-0.00000987,0
 .00001701,-0.00000240,-0.00000785,0.00001018,-0.00000568,0.00001175,0.
 00003150,0.00000085,0.00001037,0.,0.00000991,-0.00000682,-0.00001932,-
 0.00000024,-0.00003944,-0.00000074,-0.00000367,-0.00000603,-0.00000301
 ,-0.00003749,0.00000459,-0.00000812,0.00000526,0.00000834,0.00000940,-
 0.00006489,0.00005080,-0.00004422,0.00000349,0.00000062,0.00000375,-0.
 00010384,0.00005559,-0.00004966,-0.00016186,0.00047935,0.00015275,0.00
 007240,-0.00003440,0.00000855,0.00219568,-0.00181771,-0.00045391,-0.00
 047137,0.00012887,0.00055603,-0.00005374,0.00000746,0.00001787,-0.0050
 3594,0.00427084,-0.00040765,-0.00003908,-0.00000149,-0.00002409,0.0000
 1315,-0.00000106,0.00000238,-0.00000230,0.00000008,-0.00000222,-0.0000
 0350,-0.00000015,-0.00000003,-0.00000222,0.00000082,0.00000001,0.00776
 232,0.09509912,-0.09009882,-0.00087525,-0.01912785,0.00856117,-0.00476
 341,-0.10521562,0.08941183,0.00028305,0.00022853,-0.00002855,-0.000057
 13,-0.00013484,-0.00000155,-0.00000261,-0.00001583,0.00004844,-0.00005
 034,0.00042696,-0.00004603,0.00001766,-0.00003064,0.00004764,-0.000010
 95,-0.00003931,0.00004822,0.00001309,-0.00000547,0.00000873,0.00000573
 ,0.00001867,0.00001201,0.00000664,-0.00001426,-0.00001715,0.00007653,-
 0.00020030,-0.00015366,0.00000472,0.00000172,0.00001607,-0.00035684,-0
 .00012709,-0.00000782,0.00002224,0.00003672,0.00004248,-0.00003989,-0.
 00002720,0.00000241,0.00000744,-0.00000055,0.00002393,-0.00036672,-0.0
 0000043,-0.00037150,-0.00143419,0.00031720,0.00175414,0.00013209,0.000
 13881,0.00010224,-0.00266412,0.00170075,-0.00617218,0.00137472,-0.0004
 4200,0.00103127,-0.00019366,-0.00001184,0.00004040,-0.02903114,0.00565
 406,0.03256719,-0.00012466,-0.00001940,-0.00006284,0.00004871,-0.00000
 274,0.00001570,-0.00000845,-0.00000067,-0.00000719,-0.00001171,0.00000
 008,-0.00000130,-0.00000864,0.00000274,-0.00000039,-0.08991168,-0.0021
 0641,0.09688056,0.00934336,0.00093880,-0.01353059,0.00102243,-0.001014
 33,0.00155704,0.11191434,-0.00009768,-0.00004310,0.00000517,0.00001510
 ,0.00003895,0.00001051,0.00000171,0.00000840,-0.00001651,0.00001542,-0
 .00012223,0.00001624,-0.00000737,0.00000854,-0.00000621,0.00000454,0.0
 0001065,-0.00001540,-0.00000435,0.00000412,0.00000059,-0.00000215,-0.0
 0000624,-0.00000450,-0.00000555,0.00000485,0.00000728,-0.00001744,0.00
 006926,0.00004097,-0.00000020,-0.00000051,-0.00000375,0.00010687,0.000
 03079,0.00000812,-0.00000552,-0.00001136,-0.00001376,-0.00002081,0.000
 07082,-0.00004526,-0.00000228,-0.00000007,-0.00000752,0.00019627,-0.00
 000240,0.00012457,0.00049165,0.00015415,-0.00069338,-0.00005451,-0.000
 08890,-0.00004327,0.00159820,-0.00057378,0.00216064,-0.00049309,0.0007
 2280,-0.00034251,0.00007491,0.00000950,-0.00001869,0.01112359,-0.00174
 054,-0.01279536,0.00004417,0.00000055,0.00002917,-0.00001926,0.0000025
 5,-0.00000631,0.00000366,0.00000048,0.00000268,0.00000451,0.00000019,0
 .00000113,0.00000268,-0.00000136,-0.00000009,-0.00408920,-0.05159928,0
 .00288273,0.00865345,0.00131944,-0.01770549,-0.01224561,0.00341014,0.0
 2612924,-0.00527174,0.04832359,-0.00005271,-0.00005539,0.00000877,0.00
 000999,0.00003562,0.00001548,0.00000469,0.00000732,-0.00001376,0.00000
 599,-0.00011108,0.00000723,-0.00000300,0.00001022,-0.00002264,0.000003
 65,0.00000672,-0.00001167,0.00000294,0.00000776,-0.00000192,-0.0000026
 6,-0.00000850,-0.00000321,-0.00000643,0.00000923,0.00001456,-0.0000045
 6,0.00004611,0.00002197,0.00000070,-0.00000187,-0.00000213,0.00008938,
 0.00001510,0.00001159,-0.00000452,-0.00001089,-0.00001131,-0.00000581,
 0.00007668,-0.00004198,-0.00000074,-0.00000239,-0.00000548,-0.00007454
 ,0.00004319,0.00002625,0.00005414,-0.00000227,0.00030529,-0.00008670,-
 0.00002909,0.00003655,-0.00299514,0.00109621,-0.00009058,0.00153168,-0
 .00055173,0.00039388,0.00002269,-0.00000191,-0.00001171,-0.00518751,0.
 00052516,0.00861097,0.00004200,0.00000088,0.00002215,-0.00001315,0.000
 00228,-0.00000546,0.00000240,-0.00000007,0.00000192,0.00000367,0.00000
 042,0.00000055,0.00000218,-0.00000085,0.00000042,0.10978911,-0.0017789
 2,-0.28774725,0.00761950,0.00182274,-0.01395788,0.00305048,-0.00144964
 ,-0.00769348,-0.11379773,0.00029898,0.30014291\\-0.00000198,-0.0000049
 5,0.00000198,0.00000064,-0.00000104,-0.00000179,-0.00000025,0.00000159
 ,-0.00000622,0.00000079,0.00000203,-0.00000626,0.00000177,-0.00000052,
 -0.00000196,0.00000008,-0.00000314,-0.00000297,-0.00000282,0.00000327,
 -0.00000247,-0.00000187,0.00000512,-0.00000338,-0.00000208,0.00000474,
 -0.00000064,0.00000040,-0.00000186,-0.00000448,0.00000215,-0.00000452,
 -0.00000466,-0.00000047,-0.00000123,-0.00000880,0.00000155,-0.00000025
 ,-0.00000936,-0.00000001,-0.00000195,0.00000161,-0.00000216,0.00000550
 ,-0.00000721,-0.00000129,0.00000438,0.00000258,0.00000307,0.00000055,0
 .00000044,-0.00000003,0.00000114,0.00000063,-0.00000128,-0.00000102,0.
 00000752,-0.00000135,0.00000423,0.00000660,-0.00000170,0.00000393,-0.0
 0000097,0.00000125,-0.00000136,0.00000702,0.00000067,0.00000127,0.0000
 0018,0.00000114,-0.00000255,-0.00000195,0.00000201,-0.00000553,-0.0000
 0078,0.00000018,-0.00000077,0.00000068,0.00000074,-0.00000130,-0.00000
 457,-0.00000023,-0.00000226,0.00000945,-0.00000005,0.00000082,0.000008
 15,-0.00000025,-0.00000022,0.00001212,0.00000136,-0.00000409,0.0000094
 9\\\@


 YOU CAN LEAD A BOY TO COLLEGE....
 BUT YOU CANNOT MAKE HIM THINK....
           ELBERT HUBBARD
 Job cpu time:       0 days  2 hours 22 minutes  1.1 seconds.
 File lengths (MBytes):  RWF=    515 Int=      0 D2E=      0 Chk=     17 Scr=      1
 Normal termination of Gaussian 09 at Thu Sep 17 16:08:51 2020.
