 Entering Gaussian System, Link 0=g09
 Input=b3lyp_sm_claisen_PM6_toluene_water.com
 Output=b3lyp_sm_claisen_PM6_toluene_water.log
 Initial command:
 /apps/applications/gaussian/G09.D01/2/default/g09/l1.exe "/local/714071.1.40core-192G.q/Gau-397939.inp" -scrdir="/local/714071.1.40core-192G.q/"
 Entering Link 1 = /apps/applications/gaussian/G09.D01/2/default/g09/l1.exe PID=    397940.
  
 Copyright (c) 1988,1990,1992,1993,1995,1998,2003,2009,2013,
            Gaussian, Inc.  All Rights Reserved.
  
 This is part of the Gaussian(R) 09 program.  It is based on
 the Gaussian(R) 03 system (copyright 2003, Gaussian, Inc.),
 the Gaussian(R) 98 system (copyright 1998, Gaussian, Inc.),
 the Gaussian(R) 94 system (copyright 1995, Gaussian, Inc.),
 the Gaussian 92(TM) system (copyright 1992, Gaussian, Inc.),
 the Gaussian 90(TM) system (copyright 1990, Gaussian, Inc.),
 the Gaussian 88(TM) system (copyright 1988, Gaussian, Inc.),
 the Gaussian 86(TM) system (copyright 1986, Carnegie Mellon
 University), and the Gaussian 82(TM) system (copyright 1983,
 Carnegie Mellon University). Gaussian is a federally registered
 trademark of Gaussian, Inc.
  
 This software contains proprietary and confidential information,
 including trade secrets, belonging to Gaussian, Inc.
  
 This software is provided under written license and may be
 used, copied, transmitted, or stored only in accord with that
 written license.
  
 The following legend is applicable only to US Government
 contracts under FAR:
  
                    RESTRICTED RIGHTS LEGEND
  
 Use, reproduction and disclosure by the US Government is
 subject to restrictions as set forth in subparagraphs (a)
 and (c) of the Commercial Computer Software - Restricted
 Rights clause in FAR 52.227-19.
  
 Gaussian, Inc.
 340 Quinnipiac St., Bldg. 40, Wallingford CT 06492
  
  
 ---------------------------------------------------------------
 Warning -- This program may not be used in any manner that
 competes with the business of Gaussian, Inc. or will provide
 assistance to any competitor of Gaussian, Inc.  The licensee
 of this program is prohibited from giving any competitor of
 Gaussian, Inc. access to this program.  By using this program,
 the user acknowledges that Gaussian, Inc. is engaged in the
 business of creating and licensing software in the field of
 computational chemistry and represents and warrants to the
 licensee that it is not a competitor of Gaussian, Inc. and that
 it will not use this program in any manner prohibited above.
 ---------------------------------------------------------------
  

 Cite this work as:
 Gaussian 09, Revision D.01,
 M. J. Frisch, G. W. Trucks, H. B. Schlegel, G. E. Scuseria, 
 M. A. Robb, J. R. Cheeseman, G. Scalmani, V. Barone, B. Mennucci, 
 G. A. Petersson, H. Nakatsuji, M. Caricato, X. Li, H. P. Hratchian, 
 A. F. Izmaylov, J. Bloino, G. Zheng, J. L. Sonnenberg, M. Hada, 
 M. Ehara, K. Toyota, R. Fukuda, J. Hasegawa, M. Ishida, T. Nakajima, 
 Y. Honda, O. Kitao, H. Nakai, T. Vreven, J. A. Montgomery, Jr., 
 J. E. Peralta, F. Ogliaro, M. Bearpark, J. J. Heyd, E. Brothers, 
 K. N. Kudin, V. N. Staroverov, T. Keith, R. Kobayashi, J. Normand, 
 K. Raghavachari, A. Rendell, J. C. Burant, S. S. Iyengar, J. Tomasi, 
 M. Cossi, N. Rega, J. M. Millam, M. Klene, J. E. Knox, J. B. Cross, 
 V. Bakken, C. Adamo, J. Jaramillo, R. Gomperts, R. E. Stratmann, 
 O. Yazyev, A. J. Austin, R. Cammi, C. Pomelli, J. W. Ochterski, 
 R. L. Martin, K. Morokuma, V. G. Zakrzewski, G. A. Voth, 
 P. Salvador, J. J. Dannenberg, S. Dapprich, A. D. Daniels, 
 O. Farkas, J. B. Foresman, J. V. Ortiz, J. Cioslowski, 
 and D. J. Fox, Gaussian, Inc., Wallingford CT, 2013.
 
 ******************************************
 Gaussian 09:  ES64L-G09RevD.01 24-Apr-2013
                27-Aug-2020 
 ******************************************
 %nprocshared=4
 Will use up to    4 processors via shared memory.
 %chk=b3lyp_sm_claisen_PM6_toluene_water.chk
 ----------------------------------------------------------------------
 # opt freq b3lyp/6-31+g(d,p) scrf=(cpcm,solvent=water) geom=connectivi
 ty empiricaldispersion=gd3
 ----------------------------------------------------------------------
 1/14=-1,18=20,19=15,26=3,38=1,57=2/1,3;
 2/9=110,12=2,17=6,18=5,40=1/2;
 3/5=1,6=6,7=111,11=2,16=1,25=1,30=1,70=2101,71=1,72=1,74=-5,124=31/1,2,3;
 4//1;
 5/5=2,38=5,53=1/2;
 6/7=2,8=2,9=2,10=2,28=1/1;
 7//1,2,3,16;
 1/14=-1,18=20,19=15,26=3/3(2);
 2/9=110/2;
 99//99;
 2/9=110/2;
 3/5=1,6=6,7=111,11=2,16=1,25=1,30=1,70=2105,71=1,72=1,74=-5,124=31/1,2,3;
 4/5=5,16=3,69=1/1;
 5/5=2,38=5,53=1/2;
 7//1,2,3,16;
 1/14=-1,18=20,19=15,26=3/3(-5);
 2/9=110/2;
 6/7=2,8=2,9=2,10=2,19=2,28=1/1;
 99/9=1/99;
 -------------------
 Title Card Required
 -------------------
 Symbolic Z-matrix:
 Charge =  0 Multiplicity = 1
 C                    -2.81783   2.50221   0.1242 
 C                    -3.004     1.14029   0.07519 
 C                    -1.88382   0.26079  -0.02273 
 C                    -0.57984   0.81941  -0.06905 
 C                    -0.41472   2.23461  -0.01492 
 C                    -1.51001   3.05888   0.07941 
 H                    -3.67328   3.17656   0.19849 
 H                    -4.0121    0.72694   0.11122 
 H                     0.6007    2.63785  -0.05038 
 H                    -1.39449   4.14199   0.12109 
 C                     0.55653  -0.07391  -0.16972 
 C                    -2.00222  -1.16528  -0.07665 
 C                     0.3942   -1.44446  -0.22042 
 H                     1.24588  -2.11908  -0.29479 
 C                    -0.91017  -1.99319  -0.17293 
 H                    -1.02378  -3.07928  -0.21362 
 O                     1.73288   0.60694  -0.20367 
 Cl                   -3.57668  -1.87533  -0.01449 
 C                     3.05931  -0.07076  -0.28518 
 C                     3.27586  -0.97403   0.90589 
 H                     3.94994  -1.81209   0.7116 
 C                     3.15003  -0.80271  -1.61583 
 H                     4.1924   -1.0208   -1.8849 
 H                     2.61433  -1.76155  -1.6127 
 H                     2.72804  -0.2034   -2.43367 
 C                     3.96696   1.15636  -0.21951 
 H                     3.72796   1.78415   0.64978 
 H                     5.02153   0.86512  -0.13577 
 H                     3.86612   1.78874  -1.11029 
 C                     2.73787  -0.77069   2.10503 
 H                     2.91879  -1.41755   2.95363 
 H                     2.06956   0.05235   2.3292 
 

 GradGradGradGradGradGradGradGradGradGradGradGradGradGradGradGradGradGrad
 Berny optimization.
 Initialization pass.
                           ----------------------------
                           !    Initial Parameters    !
                           ! (Angstroms and Degrees)  !
 --------------------------                            --------------------------
 ! Name  Definition              Value          Derivative Info.                !
 --------------------------------------------------------------------------------
 ! R1    R(1,2)                  1.3755         estimate D2E/DX2                !
 ! R2    R(1,6)                  1.4221         estimate D2E/DX2                !
 ! R3    R(1,7)                  1.0918         estimate D2E/DX2                !
 ! R4    R(2,3)                  1.4276         estimate D2E/DX2                !
 ! R5    R(2,8)                  1.0901         estimate D2E/DX2                !
 ! R6    R(3,4)                  1.4193         estimate D2E/DX2                !
 ! R7    R(3,12)                 1.432          estimate D2E/DX2                !
 ! R8    R(4,5)                  1.4258         estimate D2E/DX2                !
 ! R9    R(4,11)                 1.449          estimate D2E/DX2                !
 ! R10   R(5,6)                  1.374          estimate D2E/DX2                !
 ! R11   R(5,9)                  1.0931         estimate D2E/DX2                !
 ! R12   R(6,10)                 1.0901         estimate D2E/DX2                !
 ! R13   R(11,13)                1.3811         estimate D2E/DX2                !
 ! R14   R(11,17)                1.3596         estimate D2E/DX2                !
 ! R15   R(12,15)                1.3738         estimate D2E/DX2                !
 ! R16   R(12,18)                1.7283         estimate D2E/DX2                !
 ! R17   R(13,14)                1.089          estimate D2E/DX2                !
 ! R18   R(13,15)                1.4159         estimate D2E/DX2                !
 ! R19   R(15,16)                1.0928         estimate D2E/DX2                !
 ! R20   R(17,19)                1.4918         estimate D2E/DX2                !
 ! R21   R(19,20)                1.5104         estimate D2E/DX2                !
 ! R22   R(19,22)                1.5214         estimate D2E/DX2                !
 ! R23   R(19,26)                1.5277         estimate D2E/DX2                !
 ! R24   R(20,21)                1.0929         estimate D2E/DX2                !
 ! R25   R(20,30)                1.3299         estimate D2E/DX2                !
 ! R26   R(22,23)                1.0984         estimate D2E/DX2                !
 ! R27   R(22,24)                1.0983         estimate D2E/DX2                !
 ! R28   R(22,25)                1.0982         estimate D2E/DX2                !
 ! R29   R(26,27)                1.0986         estimate D2E/DX2                !
 ! R30   R(26,28)                1.0972         estimate D2E/DX2                !
 ! R31   R(26,29)                1.0971         estimate D2E/DX2                !
 ! R32   R(30,31)                1.0823         estimate D2E/DX2                !
 ! R33   R(30,32)                1.0836         estimate D2E/DX2                !
 ! A1    A(2,1,6)              120.7274         estimate D2E/DX2                !
 ! A2    A(2,1,7)              120.5264         estimate D2E/DX2                !
 ! A3    A(6,1,7)              118.7462         estimate D2E/DX2                !
 ! A4    A(1,2,3)              120.4145         estimate D2E/DX2                !
 ! A5    A(1,2,8)              119.9621         estimate D2E/DX2                !
 ! A6    A(3,2,8)              119.6234         estimate D2E/DX2                !
 ! A7    A(2,3,4)              118.729          estimate D2E/DX2                !
 ! A8    A(2,3,12)             123.4519         estimate D2E/DX2                !
 ! A9    A(4,3,12)             117.819          estimate D2E/DX2                !
 ! A10   A(3,4,5)              119.7224         estimate D2E/DX2                !
 ! A11   A(3,4,11)             118.6939         estimate D2E/DX2                !
 ! A12   A(5,4,11)             121.5837         estimate D2E/DX2                !
 ! A13   A(4,5,6)              120.3782         estimate D2E/DX2                !
 ! A14   A(4,5,9)              118.1954         estimate D2E/DX2                !
 ! A15   A(6,5,9)              121.4264         estimate D2E/DX2                !
 ! A16   A(1,6,5)              120.0284         estimate D2E/DX2                !
 ! A17   A(1,6,10)             119.0271         estimate D2E/DX2                !
 ! A18   A(5,6,10)             120.9446         estimate D2E/DX2                !
 ! A19   A(4,11,13)            121.4804         estimate D2E/DX2                !
 ! A20   A(4,11,17)            111.8113         estimate D2E/DX2                !
 ! A21   A(13,11,17)           126.7083         estimate D2E/DX2                !
 ! A22   A(3,12,15)            122.4847         estimate D2E/DX2                !
 ! A23   A(3,12,18)            118.8891         estimate D2E/DX2                !
 ! A24   A(15,12,18)           118.6261         estimate D2E/DX2                !
 ! A25   A(11,13,14)           121.6909         estimate D2E/DX2                !
 ! A26   A(11,13,15)           119.4492         estimate D2E/DX2                !
 ! A27   A(14,13,15)           118.8599         estimate D2E/DX2                !
 ! A28   A(12,15,13)           120.0727         estimate D2E/DX2                !
 ! A29   A(12,15,16)           121.2609         estimate D2E/DX2                !
 ! A30   A(13,15,16)           118.6664         estimate D2E/DX2                !
 ! A31   A(11,17,19)           122.9011         estimate D2E/DX2                !
 ! A32   A(17,19,20)           110.8594         estimate D2E/DX2                !
 ! A33   A(17,19,22)           108.6254         estimate D2E/DX2                !
 ! A34   A(17,19,26)            99.266          estimate D2E/DX2                !
 ! A35   A(20,19,22)           113.1682         estimate D2E/DX2                !
 ! A36   A(20,19,26)           111.1785         estimate D2E/DX2                !
 ! A37   A(22,19,26)           112.8676         estimate D2E/DX2                !
 ! A38   A(19,20,21)           114.0046         estimate D2E/DX2                !
 ! A39   A(19,20,30)           124.1648         estimate D2E/DX2                !
 ! A40   A(21,20,30)           121.8047         estimate D2E/DX2                !
 ! A41   A(19,22,23)           111.4915         estimate D2E/DX2                !
 ! A42   A(19,22,24)           112.8564         estimate D2E/DX2                !
 ! A43   A(19,22,25)           111.4608         estimate D2E/DX2                !
 ! A44   A(23,22,24)           106.8711         estimate D2E/DX2                !
 ! A45   A(23,22,25)           106.8927         estimate D2E/DX2                !
 ! A46   A(24,22,25)           106.9244         estimate D2E/DX2                !
 ! A47   A(19,26,27)           111.3315         estimate D2E/DX2                !
 ! A48   A(19,26,28)           111.1671         estimate D2E/DX2                !
 ! A49   A(19,26,29)           111.9314         estimate D2E/DX2                !
 ! A50   A(27,26,28)           107.4803         estimate D2E/DX2                !
 ! A51   A(27,26,29)           107.043          estimate D2E/DX2                !
 ! A52   A(28,26,29)           107.6566         estimate D2E/DX2                !
 ! A53   A(20,30,31)           123.2287         estimate D2E/DX2                !
 ! A54   A(20,30,32)           123.5127         estimate D2E/DX2                !
 ! A55   A(31,30,32)           113.2569         estimate D2E/DX2                !
 ! D1    D(6,1,2,3)             -0.0466         estimate D2E/DX2                !
 ! D2    D(6,1,2,8)            179.95           estimate D2E/DX2                !
 ! D3    D(7,1,2,3)            179.9633         estimate D2E/DX2                !
 ! D4    D(7,1,2,8)             -0.0401         estimate D2E/DX2                !
 ! D5    D(2,1,6,5)              0.0531         estimate D2E/DX2                !
 ! D6    D(2,1,6,10)          -179.9403         estimate D2E/DX2                !
 ! D7    D(7,1,6,5)           -179.9566         estimate D2E/DX2                !
 ! D8    D(7,1,6,10)             0.05           estimate D2E/DX2                !
 ! D9    D(1,2,3,4)             -0.0384         estimate D2E/DX2                !
 ! D10   D(1,2,3,12)           179.9295         estimate D2E/DX2                !
 ! D11   D(8,2,3,4)            179.965          estimate D2E/DX2                !
 ! D12   D(8,2,3,12)            -0.0671         estimate D2E/DX2                !
 ! D13   D(2,3,4,5)              0.1163         estimate D2E/DX2                !
 ! D14   D(2,3,4,11)          -179.9424         estimate D2E/DX2                !
 ! D15   D(12,3,4,5)          -179.8534         estimate D2E/DX2                !
 ! D16   D(12,3,4,11)            0.0879         estimate D2E/DX2                !
 ! D17   D(2,3,12,15)          179.8982         estimate D2E/DX2                !
 ! D18   D(2,3,12,18)           -0.2603         estimate D2E/DX2                !
 ! D19   D(4,3,12,15)           -0.1337         estimate D2E/DX2                !
 ! D20   D(4,3,12,18)          179.7078         estimate D2E/DX2                !
 ! D21   D(3,4,5,6)             -0.1116         estimate D2E/DX2                !
 ! D22   D(3,4,5,9)            179.8793         estimate D2E/DX2                !
 ! D23   D(11,4,5,6)           179.9488         estimate D2E/DX2                !
 ! D24   D(11,4,5,9)            -0.0603         estimate D2E/DX2                !
 ! D25   D(3,4,11,13)           -0.0176         estimate D2E/DX2                !
 ! D26   D(3,4,11,17)         -179.995          estimate D2E/DX2                !
 ! D27   D(5,4,11,13)          179.9226         estimate D2E/DX2                !
 ! D28   D(5,4,11,17)           -0.0548         estimate D2E/DX2                !
 ! D29   D(4,5,6,1)              0.0267         estimate D2E/DX2                !
 ! D30   D(4,5,6,10)          -179.9801         estimate D2E/DX2                !
 ! D31   D(9,5,6,1)           -179.9639         estimate D2E/DX2                !
 ! D32   D(9,5,6,10)             0.0293         estimate D2E/DX2                !
 ! D33   D(4,11,13,14)        -179.92           estimate D2E/DX2                !
 ! D34   D(4,11,13,15)          -0.0153         estimate D2E/DX2                !
 ! D35   D(17,11,13,14)          0.0538         estimate D2E/DX2                !
 ! D36   D(17,11,13,15)        179.9585         estimate D2E/DX2                !
 ! D37   D(4,11,17,19)         179.0862         estimate D2E/DX2                !
 ! D38   D(13,11,17,19)         -0.8897         estimate D2E/DX2                !
 ! D39   D(3,12,15,13)           0.1032         estimate D2E/DX2                !
 ! D40   D(3,12,15,16)        -179.9433         estimate D2E/DX2                !
 ! D41   D(18,12,15,13)       -179.7387         estimate D2E/DX2                !
 ! D42   D(18,12,15,16)          0.2147         estimate D2E/DX2                !
 ! D43   D(11,13,15,12)         -0.0264         estimate D2E/DX2                !
 ! D44   D(11,13,15,16)       -179.981          estimate D2E/DX2                !
 ! D45   D(14,13,15,12)        179.881          estimate D2E/DX2                !
 ! D46   D(14,13,15,16)         -0.0736         estimate D2E/DX2                !
 ! D47   D(11,17,19,20)        -60.316          estimate D2E/DX2                !
 ! D48   D(11,17,19,22)         64.6243         estimate D2E/DX2                !
 ! D49   D(11,17,19,26)       -177.3098         estimate D2E/DX2                !
 ! D50   D(17,19,20,21)        153.1532         estimate D2E/DX2                !
 ! D51   D(17,19,20,30)        -28.6731         estimate D2E/DX2                !
 ! D52   D(22,19,20,21)         30.8208         estimate D2E/DX2                !
 ! D53   D(22,19,20,30)       -151.0056         estimate D2E/DX2                !
 ! D54   D(26,19,20,21)        -97.4305         estimate D2E/DX2                !
 ! D55   D(26,19,20,30)         80.7431         estimate D2E/DX2                !
 ! D56   D(17,19,22,23)        160.3493         estimate D2E/DX2                !
 ! D57   D(17,19,22,24)        -79.3558         estimate D2E/DX2                !
 ! D58   D(17,19,22,25)         40.986          estimate D2E/DX2                !
 ! D59   D(20,19,22,23)        -76.0813         estimate D2E/DX2                !
 ! D60   D(20,19,22,24)         44.2137         estimate D2E/DX2                !
 ! D61   D(20,19,22,25)        164.5555         estimate D2E/DX2                !
 ! D62   D(26,19,22,23)         51.2895         estimate D2E/DX2                !
 ! D63   D(26,19,22,24)        171.5844         estimate D2E/DX2                !
 ! D64   D(26,19,22,25)        -68.0737         estimate D2E/DX2                !
 ! D65   D(17,19,26,27)         52.8762         estimate D2E/DX2                !
 ! D66   D(17,19,26,28)        172.6789         estimate D2E/DX2                !
 ! D67   D(17,19,26,29)        -66.8877         estimate D2E/DX2                !
 ! D68   D(20,19,26,27)        -63.8756         estimate D2E/DX2                !
 ! D69   D(20,19,26,28)         55.9271         estimate D2E/DX2                !
 ! D70   D(20,19,26,29)        176.3605         estimate D2E/DX2                !
 ! D71   D(22,19,26,27)        167.7116         estimate D2E/DX2                !
 ! D72   D(22,19,26,28)        -72.4858         estimate D2E/DX2                !
 ! D73   D(22,19,26,29)         47.9476         estimate D2E/DX2                !
 ! D74   D(19,20,30,31)       -178.769          estimate D2E/DX2                !
 ! D75   D(19,20,30,32)          1.7387         estimate D2E/DX2                !
 ! D76   D(21,20,30,31)         -0.7322         estimate D2E/DX2                !
 ! D77   D(21,20,30,32)        179.7755         estimate D2E/DX2                !
 --------------------------------------------------------------------------------
 Trust Radius=3.00D-01 FncErr=1.00D-07 GrdErr=1.00D-06
 Number of steps in this run=    175 maximum allowed number of steps=    192.
 GradGradGradGradGradGradGradGradGradGradGradGradGradGradGradGradGradGrad

                          Input orientation:                          
 ---------------------------------------------------------------------
 Center     Atomic      Atomic             Coordinates (Angstroms)
 Number     Number       Type             X           Y           Z
 ---------------------------------------------------------------------
      1          6           0       -2.817830    2.502214    0.124197
      2          6           0       -3.004004    1.140288    0.075194
      3          6           0       -1.883815    0.260793   -0.022726
      4          6           0       -0.579842    0.819412   -0.069053
      5          6           0       -0.414716    2.234611   -0.014916
      6          6           0       -1.510013    3.058882    0.079412
      7          1           0       -3.673275    3.176561    0.198489
      8          1           0       -4.012097    0.726939    0.111221
      9          1           0        0.600700    2.637848   -0.050375
     10          1           0       -1.394485    4.141993    0.121091
     11          6           0        0.556526   -0.073914   -0.169717
     12          6           0       -2.002218   -1.165277   -0.076653
     13          6           0        0.394202   -1.444460   -0.220422
     14          1           0        1.245880   -2.119075   -0.294792
     15          6           0       -0.910171   -1.993194   -0.172930
     16          1           0       -1.023778   -3.079280   -0.213615
     17          8           0        1.732882    0.606943   -0.203671
     18         17           0       -3.576679   -1.875334   -0.014485
     19          6           0        3.059306   -0.070757   -0.285176
     20          6           0        3.275860   -0.974029    0.905889
     21          1           0        3.949942   -1.812092    0.711599
     22          6           0        3.150033   -0.802712   -1.615833
     23          1           0        4.192405   -1.020800   -1.884896
     24          1           0        2.614334   -1.761553   -1.612701
     25          1           0        2.728038   -0.203395   -2.433671
     26          6           0        3.966957    1.156361   -0.219514
     27          1           0        3.727956    1.784152    0.649776
     28          1           0        5.021527    0.865120   -0.135771
     29          1           0        3.866119    1.788742   -1.110292
     30          6           0        2.737870   -0.770690    2.105034
     31          1           0        2.918792   -1.417546    2.953631
     32          1           0        2.069559    0.052351    2.329197
 ---------------------------------------------------------------------
                    Distance matrix (angstroms):
                    1          2          3          4          5
     1  C    0.000000
     2  C    1.375465   0.000000
     3  C    2.432681   1.427558   0.000000
     4  C    2.806734   2.449557   1.419347   0.000000
     5  C    2.421966   2.812486   2.460543   1.425828   0.000000
     6  C    1.422065   2.431672   2.824794   2.429503   1.374044
     7  H    1.091810   2.146982   3.428237   3.898340   3.398679
     8  H    2.139636   1.090141   2.182846   3.438230   3.902581
     9  H    3.425671   3.905425   3.438600   2.168118   1.093127
    10  H    2.171358   3.406302   3.914568   3.426272   2.148616
    11  C    4.255479   3.769833   2.467570   1.448964   2.509295
    12  C    3.762453   2.518385   1.431993   2.441762   3.752761
    13  C    5.100211   4.279733   2.852426   2.469168   3.772551
    14  H    6.168112   5.368599   3.941165   3.466832   4.668029
    15  C    4.892458   3.776826   2.459878   2.833842   4.259669
    16  H    5.872462   4.670060   3.454300   3.926548   5.352371
    17  O    4.940499   4.774967   3.637727   2.326361   2.701316
    18  Cl   4.444998   3.070826   2.725600   4.030591   5.185524
    19  C    6.428724   6.193563   4.961174   3.752667   4.178109
    20  C    7.058921   6.678105   5.386034   4.362726   4.976304
    21  H    8.047423   7.581486   6.234485   5.296525   5.996154
    22  C    7.040286   6.671356   5.385969   4.351526   4.949313
    23  H    8.098857   7.765343   6.483102   5.427523   5.943071
    24  H    7.120739   6.544875   5.181819   4.387139   5.262831
    25  H    6.679795   6.399703   5.224683   4.192806   4.655228
    26  C    6.925517   6.977206   5.922187   4.561749   4.517028
    27  H    6.605994   6.787046   5.853619   4.472646   4.219770
    28  H    8.012689   8.033018   6.932657   5.601953   5.607392
    29  H    6.834338   7.001747   6.048072   4.668013   4.441193
    30  C    6.745474   6.382884   5.191463   4.273440   4.844050
    31  H    7.501936   7.064519   5.894112   5.136248   5.767391
    32  H    5.894949   5.657312   4.604797   3.655039   4.053239
                    6          7          8          9         10
     6  C    0.000000
     7  H    2.169730   0.000000
     8  H    3.420438   2.474483   0.000000
     9  H    2.156206   4.314975   4.995556   0.000000
    10  H    1.090052   2.476072   4.302858   2.504519   0.000000
    11  C    3.761258   5.347184   4.646785   2.714746   4.654555
    12  C    4.255601   4.660439   2.766838   4.608648   5.345611
    13  C    4.898574   6.170388   4.923457   4.091063   5.875754
    14  H    5.877603   7.244665   5.992576   4.806695   6.807750
    15  C    5.093816   5.873590   4.135434   4.872812   6.161293
    16  H    6.164359   6.806263   4.850038   5.945682   7.238524
    17  O    4.075354   5.999267   5.754854   2.330217   4.731012
    18  Cl   5.350366   5.057305   2.641442   6.149845   6.402232
    19  C    5.550337   7.490437   7.127285   3.665572   6.143986
    20  C    6.312845   8.125164   7.525896   4.595278   6.971493
    21  H    7.344192   9.124877   8.378615   5.621387   8.022638
    22  C    6.285045   8.104561   7.524537   4.559299   6.936833
    23  H    7.281475   9.155722   8.622814   5.445321   7.867131
    24  H    6.565827   8.197524   7.285196   5.084320   7.343604
    25  H    5.909240   7.702544   7.264394   4.275316   6.511866
    26  C    5.805699   7.913854   7.997443   3.681725   6.146143
    27  H    5.420938   7.544580   7.830464   3.316435   5.663773
    28  H    6.893469   9.003003   9.038056   4.763777   7.208959
    29  H    5.650792   7.776980   8.042749   3.536576   5.893051
    30  C    6.067395   7.766498   7.195849   4.564144   6.719140
    31  H    6.921984   8.494232   7.792004   5.553722   7.585256
    32  H    5.187880   6.876100   6.508535   3.808504   5.796594
                   11         12         13         14         15
    11  C    0.000000
    12  C    2.783326   0.000000
    13  C    1.381056   2.416907   0.000000
    14  H    2.161836   3.392264   1.089032   0.000000
    15  C    2.415543   1.373784   1.415893   2.163158   0.000000
    16  H    3.395808   2.153952   2.164105   2.465752   1.092769
    17  O    1.359608   4.136166   2.449612   2.770676   3.707747
    18  Cl   4.511385   1.728286   3.999495   4.836844   2.673810
    19  C    2.505444   5.182710   2.999005   2.735729   4.411928
    20  C    3.059724   5.372157   3.129510   2.621752   4.441329
    21  H    3.913215   6.038867   3.694199   2.901553   4.943267
    22  C    3.057561   5.389454   3.154935   2.665288   4.470400
    23  H    4.130139   6.454763   4.168490   3.523726   5.469247
    24  H    3.027359   4.901790   2.639692   1.933229   3.814280
    25  H    3.139700   5.371785   3.447536   3.231319   4.642294
    26  C    3.625892   6.406361   4.419146   4.258921   5.805880
    27  H    3.765892   6.485501   4.721768   4.721026   6.037997
    28  H    4.562803   7.311566   5.172375   4.815207   6.584556
    29  H    3.912490   6.650716   4.826973   4.775115   6.163979
    30  C    3.227731   5.232962   3.369643   3.131029   4.471223
    31  H    4.140163   5.784687   4.055723   3.720622   4.976717
    32  H    2.924001   4.883656   3.398209   3.504120   4.395871
                   16         17         18         19         20
    16  H    0.000000
    17  O    4.602990   0.000000
    18  Cl   2.829566   5.864207   0.000000
    19  C    5.072268   1.491751   6.882301   0.000000
    20  C    4.916529   2.472120   6.972570   1.510441   0.000000
    21  H    5.215331   3.406583   7.561827   2.195231   1.092925
    22  C    4.956781   2.447375   6.997391   1.521393   2.530665
    23  H    5.851417   3.394896   8.036624   2.178440   2.937809
    24  H    4.114572   2.893458   6.394989   2.195248   2.720497
    25  H    5.222594   2.572913   6.956817   2.177926   3.470828
    26  C    6.545848   2.300696   8.132629   1.527730   2.506533
    27  H    6.854005   2.468707   8.196998   2.182181   2.806697
    28  H    7.218730   3.299462   9.025184   2.179105   2.741328
    29  H    6.957928   2.601790   8.367884   2.188493   3.470777
    30  C    4.985551   2.870190   6.751750   2.511241   1.329936
    31  H    5.323219   3.933636   7.156146   3.510478   2.125430
    32  H    5.083477   2.614640   6.410056   2.798160   2.129419
                   21         22         23         24         25
    21  H    0.000000
    22  C    2.660008   0.000000
    23  H    2.725200   1.098406   0.000000
    24  H    2.681189   1.098344   1.764402   0.000000
    25  H    3.738138   1.098235   1.764561   1.764873   0.000000
    26  C    3.111105   2.540677   2.750337   3.504965   2.878602
    27  H    3.603619   3.486953   3.808941   4.350975   3.802345
    28  H    3.005627   2.911140   2.702513   3.856853   3.417918
    29  H    4.036374   2.735687   2.932576   3.797891   2.648617
    30  C    2.120212   3.743762   4.254147   3.849497   4.574031
    31  H    2.499129   4.616437   5.019048   4.589382   5.525719
    32  H    3.103000   4.178734   4.839081   4.373281   4.814968
                   26         27         28         29         30
    26  C    0.000000
    27  H    1.098594   0.000000
    28  H    1.097248   1.770602   0.000000
    29  H    1.097069   1.765488   1.771366   0.000000
    30  C    3.260016   3.102461   3.593351   4.261685   0.000000
    31  H    4.218115   4.026582   4.379094   5.262431   1.082253
    32  H    3.363761   2.927434   3.930747   4.251208   1.083644
                   31         32
    31  H    0.000000
    32  H    1.808787   0.000000
 Stoichiometry    C15H15ClO
 Framework group  C1[X(C15H15ClO)]
 Deg. of freedom    90
 Full point group                 C1      NOp   1
 Largest Abelian subgroup         C1      NOp   1
 Largest concise Abelian subgroup C1      NOp   1
                         Standard orientation:                         
 ---------------------------------------------------------------------
 Center     Atomic      Atomic             Coordinates (Angstroms)
 Number     Number       Type             X           Y           Z
 ---------------------------------------------------------------------
      1          6           0       -2.817830    2.502214    0.124197
      2          6           0       -3.004004    1.140288    0.075194
      3          6           0       -1.883815    0.260793   -0.022726
      4          6           0       -0.579842    0.819412   -0.069053
      5          6           0       -0.414716    2.234611   -0.014916
      6          6           0       -1.510013    3.058882    0.079412
      7          1           0       -3.673275    3.176561    0.198489
      8          1           0       -4.012097    0.726939    0.111221
      9          1           0        0.600700    2.637848   -0.050375
     10          1           0       -1.394485    4.141993    0.121091
     11          6           0        0.556526   -0.073914   -0.169717
     12          6           0       -2.002218   -1.165277   -0.076653
     13          6           0        0.394202   -1.444460   -0.220422
     14          1           0        1.245880   -2.119075   -0.294792
     15          6           0       -0.910171   -1.993194   -0.172930
     16          1           0       -1.023778   -3.079280   -0.213615
     17          8           0        1.732882    0.606943   -0.203671
     18         17           0       -3.576679   -1.875334   -0.014485
     19          6           0        3.059306   -0.070757   -0.285176
     20          6           0        3.275860   -0.974029    0.905889
     21          1           0        3.949942   -1.812092    0.711599
     22          6           0        3.150033   -0.802712   -1.615833
     23          1           0        4.192405   -1.020800   -1.884896
     24          1           0        2.614334   -1.761553   -1.612701
     25          1           0        2.728038   -0.203395   -2.433671
     26          6           0        3.966957    1.156361   -0.219514
     27          1           0        3.727956    1.784152    0.649776
     28          1           0        5.021527    0.865119   -0.135771
     29          1           0        3.866119    1.788742   -1.110292
     30          6           0        2.737870   -0.770690    2.105034
     31          1           0        2.918792   -1.417546    2.953631
     32          1           0        2.069559    0.052351    2.329197
 ---------------------------------------------------------------------
 Rotational constants (GHZ):      0.6977979      0.2883555      0.2273797
 Standard basis: 6-31+G(d,p) (6D, 7F)
 There are   402 symmetry adapted cartesian basis functions of A   symmetry.
 There are   402 symmetry adapted basis functions of A   symmetry.
   402 basis functions,   673 primitive gaussians,   402 cartesian basis functions
    65 alpha electrons       65 beta electrons
       nuclear repulsion energy      1274.8222477385 Hartrees.
 NAtoms=   32 NActive=   32 NUniq=   32 SFac= 1.00D+00 NAtFMM=   60 NAOKFM=F Big=F
 Integral buffers will be    131072 words long.
 Raffenetti 2 integral format.
 Two-electron integral symmetry is turned on.
 Nuclear repulsion after empirical dispersion term =     1274.7884753833 Hartrees.
 ------------------------------------------------------------------------------
 Polarizable Continuum Model (PCM)
 =================================
 Model                : C-PCM.
 Atomic radii         : UFF (Universal Force Field).
 Polarization charges : Total charges.
 Charge compensation  : None.
 Solution method      : On-the-fly selection.
 Cavity type          : Scaled VdW (van der Waals Surface) (Alpha=1.100).
 Cavity algorithm     : GePol (No added spheres)
                        Default sphere list used, NSphG=   32.
                        Lebedev-Laikov grids with approx.  5.0 points / Ang**2.
                        Smoothing algorithm: Karplus/York (Gamma=1.0000).
                        Polarization charges: spherical gaussians, with
                                              point-specific exponents (IZeta= 3).
                        Self-potential: point-specific (ISelfS= 7).
                        Self-field    : sphere-specific E.n sum rule (ISelfD= 2).
 1st derivatives      : Analytical E(r).r(x)/FMM algorithm (CHGder, D1EAlg=3).
                        Cavity 1st derivative terms included.
 Solvent              : Water, Eps=  78.355300 Eps(inf)=   1.777849
 ------------------------------------------------------------------------------
 One-electron integrals computed using PRISM.
 NBasis=   402 RedAO= T EigKep=  1.26D-06  NBF=   402
 NBsUse=   399 1.00D-06 EigRej=  6.81D-07 NBFU=   399
 ExpMin= 4.38D-02 ExpMax= 2.52D+04 ExpMxC= 3.78D+03 IAcc=2 IRadAn=         4 AccDes= 0.00D+00
 Harris functional with IExCor=  402 and IRadAn=       4 diagonalized for initial guess.
 HarFok:  IExCor=  402 AccDes= 0.00D+00 IRadAn=         4 IDoV= 1 UseB2=F ITyADJ=14
 ICtDFT=  3500011 ScaDFX=  1.000000  1.000000  1.000000  1.000000
 FoFCou: FMM=F IPFlag=           0 FMFlag=      100000 FMFlg1=           0
         NFxFlg=           0 DoJE=T BraDBF=F KetDBF=T FulRan=T
         wScrn=  0.000000 ICntrl=     500 IOpCl=  0 I1Cent=   200000004 NGrid=           0
         NMat0=    1 NMatS0=      1 NMatT0=    0 NMatD0=    1 NMtDS0=    0 NMtDT0=    0
 Petite list used in FoFCou.
 Requested convergence on RMS density matrix=1.00D-08 within 128 cycles.
 Requested convergence on MAX density matrix=1.00D-06.
 Requested convergence on             energy=1.00D-06.
 No special actions if energy rises.
 Inv3:  Mode=1 IEnd=    17208075.
 Iteration    1 A*A^-1 deviation from unit magnitude is 7.99D-15 for   2387.
 Iteration    1 A*A^-1 deviation from orthogonality  is 2.63D-15 for   2384   1389.
 Iteration    1 A^-1*A deviation from unit magnitude is 7.77D-15 for   2387.
 Iteration    1 A^-1*A deviation from orthogonality  is 2.33D-15 for   2384   1389.
 Error on total polarization charges =  0.02205
 SCF Done:  E(RB3LYP) =  -1116.10843142     A.U. after   15 cycles
            NFock= 15  Conv=0.65D-08     -V/T= 2.0070

 **********************************************************************

            Population analysis using the SCF density.

 **********************************************************************

 Orbital symmetries:
       Occupied  (A) (A) (A) (A) (A) (A) (A) (A) (A) (A) (A) (A)
                 (A) (A) (A) (A) (A) (A) (A) (A) (A) (A) (A) (A)
                 (A) (A) (A) (A) (A) (A) (A) (A) (A) (A) (A) (A)
                 (A) (A) (A) (A) (A) (A) (A) (A) (A) (A) (A) (A)
                 (A) (A) (A) (A) (A) (A) (A) (A) (A) (A) (A) (A)
                 (A) (A) (A) (A) (A)
       Virtual   (A) (A) (A) (A) (A) (A) (A) (A) (A) (A) (A) (A)
                 (A) (A) (A) (A) (A) (A) (A) (A) (A) (A) (A) (A)
                 (A) (A) (A) (A) (A) (A) (A) (A) (A) (A) (A) (A)
                 (A) (A) (A) (A) (A) (A) (A) (A) (A) (A) (A) (A)
                 (A) (A) (A) (A) (A) (A) (A) (A) (A) (A) (A) (A)
                 (A) (A) (A) (A) (A) (A) (A) (A) (A) (A) (A) (A)
                 (A) (A) (A) (A) (A) (A) (A) (A) (A) (A) (A) (A)
                 (A) (A) (A) (A) (A) (A) (A) (A) (A) (A) (A) (A)
                 (A) (A) (A) (A) (A) (A) (A) (A) (A) (A) (A) (A)
                 (A) (A) (A) (A) (A) (A) (A) (A) (A) (A) (A) (A)
                 (A) (A) (A) (A) (A) (A) (A) (A) (A) (A) (A) (A)
                 (A) (A) (A) (A) (A) (A) (A) (A) (A) (A) (A) (A)
                 (A) (A) (A) (A) (A) (A) (A) (A) (A) (A) (A) (A)
                 (A) (A) (A) (A) (A) (A) (A) (A) (A) (A) (A) (A)
                 (A) (A) (A) (A) (A) (A) (A) (A) (A) (A) (A) (A)
                 (A) (A) (A) (A) (A) (A) (A) (A) (A) (A) (A) (A)
                 (A) (A) (A) (A) (A) (A) (A) (A) (A) (A) (A) (A)
                 (A) (A) (A) (A) (A) (A) (A) (A) (A) (A) (A) (A)
                 (A) (A) (A) (A) (A) (A) (A) (A) (A) (A) (A) (A)
                 (A) (A) (A) (A) (A) (A) (A) (A) (A) (A) (A) (A)
                 (A) (A) (A) (A) (A) (A) (A) (A) (A) (A) (A) (A)
                 (A) (A) (A) (A) (A) (A) (A) (A) (A) (A) (A) (A)
                 (A) (A) (A) (A) (A) (A) (A) (A) (A) (A) (A) (A)
                 (A) (A) (A) (A) (A) (A) (A) (A) (A) (A) (A) (A)
                 (A) (A) (A) (A) (A) (A) (A) (A) (A) (A) (A) (A)
                 (A) (A) (A) (A) (A) (A) (A) (A) (A) (A) (A) (A)
                 (A) (A) (A) (A) (A) (A) (A) (A) (A) (A) (A) (A)
                 (A) (A) (A) (A) (A) (A) (A) (A) (A) (A)
 The electronic state is 1-A.
 Alpha  occ. eigenvalues -- -101.55955 -19.18598 -10.27000 -10.26400 -10.25173
 Alpha  occ. eigenvalues --  -10.22027 -10.21417 -10.21136 -10.20475 -10.20409
 Alpha  occ. eigenvalues --  -10.20338 -10.20299 -10.20259 -10.20026 -10.19200
 Alpha  occ. eigenvalues --  -10.18750 -10.18570  -9.47511  -7.23887  -7.22958
 Alpha  occ. eigenvalues --   -7.22929  -1.06701  -0.90702  -0.86483  -0.83536
 Alpha  occ. eigenvalues --   -0.81764  -0.76684  -0.75817  -0.75368  -0.71898
 Alpha  occ. eigenvalues --   -0.69924  -0.64187  -0.63515  -0.62100  -0.60209
 Alpha  occ. eigenvalues --   -0.56071  -0.52738  -0.52259  -0.50715  -0.48799
 Alpha  occ. eigenvalues --   -0.48050  -0.46897  -0.44645  -0.44327  -0.43862
 Alpha  occ. eigenvalues --   -0.43345  -0.42452  -0.42103  -0.40593  -0.40151
 Alpha  occ. eigenvalues --   -0.39271  -0.38471  -0.38270  -0.37188  -0.36257
 Alpha  occ. eigenvalues --   -0.35787  -0.35024  -0.34659  -0.32606  -0.32041
 Alpha  occ. eigenvalues --   -0.30917  -0.27492  -0.27235  -0.25966  -0.21244
 Alpha virt. eigenvalues --   -0.05411  -0.02936  -0.01613   0.00199   0.00879
 Alpha virt. eigenvalues --    0.01570   0.01579   0.01952   0.02317   0.02742
 Alpha virt. eigenvalues --    0.03531   0.03860   0.04748   0.05056   0.05620
 Alpha virt. eigenvalues --    0.05824   0.06392   0.06720   0.06900   0.07182
 Alpha virt. eigenvalues --    0.08105   0.08165   0.08272   0.08794   0.08892
 Alpha virt. eigenvalues --    0.09985   0.10477   0.10774   0.11035   0.11294
 Alpha virt. eigenvalues --    0.11803   0.12428   0.12953   0.12995   0.13620
 Alpha virt. eigenvalues --    0.14271   0.14540   0.14962   0.15163   0.15509
 Alpha virt. eigenvalues --    0.16269   0.16555   0.17024   0.17424   0.17741
 Alpha virt. eigenvalues --    0.18145   0.18256   0.18788   0.19217   0.19498
 Alpha virt. eigenvalues --    0.19918   0.20052   0.20420   0.20777   0.21310
 Alpha virt. eigenvalues --    0.21776   0.22269   0.22374   0.22827   0.22915
 Alpha virt. eigenvalues --    0.23629   0.24025   0.24237   0.24763   0.25290
 Alpha virt. eigenvalues --    0.25492   0.25683   0.26086   0.26425   0.27057
 Alpha virt. eigenvalues --    0.27172   0.27705   0.28177   0.28272   0.29225
 Alpha virt. eigenvalues --    0.30173   0.30319   0.30510   0.31037   0.31310
 Alpha virt. eigenvalues --    0.31835   0.31936   0.33252   0.33583   0.34277
 Alpha virt. eigenvalues --    0.34714   0.35733   0.36303   0.37305   0.37786
 Alpha virt. eigenvalues --    0.38341   0.39025   0.40934   0.41695   0.42506
 Alpha virt. eigenvalues --    0.43244   0.45198   0.46589   0.48394   0.50722
 Alpha virt. eigenvalues --    0.51951   0.54557   0.56851   0.59081   0.61098
 Alpha virt. eigenvalues --    0.63379   0.64137   0.64948   0.65924   0.66939
 Alpha virt. eigenvalues --    0.67684   0.68514   0.68531   0.69552   0.70240
 Alpha virt. eigenvalues --    0.71062   0.71568   0.72574   0.72947   0.73359
 Alpha virt. eigenvalues --    0.73707   0.74581   0.75258   0.75503   0.76392
 Alpha virt. eigenvalues --    0.76747   0.77163   0.78889   0.79495   0.80255
 Alpha virt. eigenvalues --    0.80937   0.81688   0.82660   0.83766   0.84165
 Alpha virt. eigenvalues --    0.85515   0.86690   0.87364   0.88473   0.88854
 Alpha virt. eigenvalues --    0.89696   0.91621   0.92305   0.92550   0.94210
 Alpha virt. eigenvalues --    0.94444   0.96055   0.96946   0.97638   0.98648
 Alpha virt. eigenvalues --    0.99421   1.00413   1.01057   1.02190   1.03019
 Alpha virt. eigenvalues --    1.03929   1.04829   1.07644   1.08696   1.09590
 Alpha virt. eigenvalues --    1.11159   1.12312   1.13394   1.14195   1.15026
 Alpha virt. eigenvalues --    1.15937   1.17524   1.18897   1.19538   1.21393
 Alpha virt. eigenvalues --    1.21971   1.22903   1.23320   1.24143   1.24389
 Alpha virt. eigenvalues --    1.24847   1.26475   1.27860   1.29712   1.31027
 Alpha virt. eigenvalues --    1.34119   1.34824   1.35947   1.36578   1.38130
 Alpha virt. eigenvalues --    1.39139   1.39582   1.40437   1.41297   1.43121
 Alpha virt. eigenvalues --    1.44803   1.46256   1.46739   1.48740   1.51374
 Alpha virt. eigenvalues --    1.52552   1.53966   1.56445   1.59278   1.62580
 Alpha virt. eigenvalues --    1.65244   1.67358   1.72215   1.78052   1.79277
 Alpha virt. eigenvalues --    1.80272   1.80716   1.81107   1.82252   1.84456
 Alpha virt. eigenvalues --    1.85715   1.86850   1.87946   1.88393   1.90147
 Alpha virt. eigenvalues --    1.90773   1.92200   1.92216   1.93261   1.96398
 Alpha virt. eigenvalues --    1.96952   1.97682   1.98147   1.99712   2.00179
 Alpha virt. eigenvalues --    2.02367   2.03432   2.03989   2.04737   2.05391
 Alpha virt. eigenvalues --    2.06056   2.07877   2.08583   2.10310   2.11770
 Alpha virt. eigenvalues --    2.12610   2.13936   2.15638   2.16479   2.17917
 Alpha virt. eigenvalues --    2.20034   2.21277   2.23355   2.23686   2.25061
 Alpha virt. eigenvalues --    2.25509   2.27508   2.28920   2.30966   2.33368
 Alpha virt. eigenvalues --    2.36274   2.36871   2.37263   2.38248   2.38406
 Alpha virt. eigenvalues --    2.41468   2.42239   2.43669   2.44352   2.45746
 Alpha virt. eigenvalues --    2.46612   2.48951   2.50827   2.51699   2.53836
 Alpha virt. eigenvalues --    2.55862   2.56861   2.57460   2.58595   2.60459
 Alpha virt. eigenvalues --    2.60969   2.63880   2.64186   2.64626   2.66250
 Alpha virt. eigenvalues --    2.67265   2.67753   2.70647   2.71160   2.72065
 Alpha virt. eigenvalues --    2.73016   2.75553   2.78130   2.78876   2.80955
 Alpha virt. eigenvalues --    2.81543   2.82767   2.85765   2.85982   2.88243
 Alpha virt. eigenvalues --    2.90310   2.95248   2.97447   3.01795   3.05438
 Alpha virt. eigenvalues --    3.06626   3.10955   3.15679   3.18561   3.20679
 Alpha virt. eigenvalues --    3.25329   3.26302   3.27413   3.28013   3.30426
 Alpha virt. eigenvalues --    3.33861   3.34735   3.39175   3.43113   3.45998
 Alpha virt. eigenvalues --    3.47282   3.50037   3.50542   3.52558   3.69787
 Alpha virt. eigenvalues --    3.71926   3.84895   4.25764   4.29875   4.34600
 Alpha virt. eigenvalues --    4.36082   4.36306   4.41092   4.43404   4.46388
 Alpha virt. eigenvalues --    4.49624   4.51109   4.55131   4.56165   4.62878
 Alpha virt. eigenvalues --    4.68531   4.75116   4.88109   4.95329
          Condensed to atoms (all electrons):
               1          2          3          4          5          6
     1  C    7.223919  -1.882977   1.169738   1.153686  -0.847535   0.921234
     2  C   -1.882977  14.718415  -6.622549  -2.609648   2.747017  -1.383205
     3  C    1.169738  -6.622549  14.716672   2.479971  -2.216625   0.676679
     4  C    1.153686  -2.609648   2.479971  10.321063  -2.686383  -0.038824
     5  C   -0.847535   2.747017  -2.216625  -2.686383  12.253322  -2.220301
     6  C    0.921234  -1.383205   0.676679  -0.038824  -2.220301   7.665069
     7  H    0.321583  -0.045743   0.035977  -0.007460   0.044141  -0.022556
     8  H    0.139491   0.183034   0.007731   0.043043   0.002805   0.007957
     9  H    0.004743   0.008060   0.014677  -0.078616   0.251830   0.082868
    10  H   -0.012362   0.036934  -0.012443   0.017106   0.011226   0.286503
    11  C   -0.167739  -1.162615  -0.423269   0.200466  -0.453759  -0.018869
    12  C   -0.647052   0.447144  -1.198746  -0.635854  -0.729168   0.199895
    13  C   -0.512340   0.935616  -1.108476  -1.813408  -0.629368   0.150627
    14  H    0.001994  -0.002728  -0.006215   0.037207   0.013310  -0.000405
    15  C   -0.376797   1.151709  -2.077915  -0.290329   0.757489  -0.077899
    16  H    0.002586  -0.000176   0.097223   0.023223   0.000458  -0.000339
    17  O   -0.018920   0.025738  -0.015775  -0.425151   0.009597   0.065335
    18  Cl   0.041635   0.008906  -0.084425   0.018632  -0.058228   0.010218
    19  C    0.018148  -0.193391  -0.372447   0.227512  -0.224553   0.149597
    20  C    0.000138   0.075033   0.311470   0.005616  -0.121247  -0.076083
    21  H   -0.000033  -0.000170  -0.004123  -0.003216   0.001867   0.000278
    22  C   -0.006226  -0.007054   0.026640  -0.020417  -0.046540  -0.028133
    23  H   -0.000033   0.000039  -0.000487  -0.003777  -0.000009   0.000226
    24  H    0.000289  -0.000135   0.006657   0.015014  -0.000698  -0.001753
    25  H   -0.000159  -0.000171  -0.005353  -0.003657  -0.000683   0.003665
    26  C   -0.002275   0.029918   0.047129  -0.088802   0.117423  -0.034797
    27  H   -0.000091   0.000379   0.001353   0.006677  -0.008806  -0.000347
    28  H    0.000011  -0.000023  -0.000110   0.000857   0.000816   0.000272
    29  H    0.000180  -0.000254  -0.000433  -0.013506   0.012402   0.003880
    30  C    0.000380  -0.030572  -0.127602   0.032813   0.063636   0.066037
    31  H   -0.000098  -0.000024  -0.001060  -0.001392  -0.001834   0.000002
    32  H   -0.000851  -0.002780  -0.028214  -0.019782   0.016337   0.012016
               7          8          9         10         11         12
     1  C    0.321583   0.139491   0.004743  -0.012362  -0.167739  -0.647052
     2  C   -0.045743   0.183034   0.008060   0.036934  -1.162615   0.447144
     3  C    0.035977   0.007731   0.014677  -0.012443  -0.423269  -1.198746
     4  C   -0.007460   0.043043  -0.078616   0.017106   0.200466  -0.635854
     5  C    0.044141   0.002805   0.251830   0.011226  -0.453759  -0.729168
     6  C   -0.022556   0.007957   0.082868   0.286503  -0.018869   0.199895
     7  H    0.546150  -0.004972  -0.000154  -0.004609  -0.001451  -0.008070
     8  H   -0.004972   0.547909   0.000013  -0.000155  -0.007195  -0.072068
     9  H   -0.000154   0.000013   0.547075  -0.004871  -0.011666  -0.000352
    10  H   -0.004609  -0.000155  -0.004871   0.546760  -0.009213  -0.002025
    11  C   -0.001451  -0.007195  -0.011666  -0.009213  12.361757   1.263513
    12  C   -0.008070  -0.072068  -0.000352  -0.002025   1.263513  10.024076
    13  C   -0.001658  -0.013228   0.036616   0.000291  -2.513894  -1.680172
    14  H    0.000000   0.000000  -0.000009   0.000000   0.135142   0.046114
    15  C    0.001076   0.020139  -0.001794  -0.000692  -2.526227  -0.672633
    16  H    0.000000  -0.000005   0.000000   0.000000   0.026771   0.035203
    17  O    0.000004   0.000025  -0.002299   0.000426  -0.034620  -0.029557
    18  Cl   0.000293  -0.007635   0.000044   0.000080   0.003121  -0.169441
    19  C    0.000006  -0.000038  -0.003867   0.000391  -0.648580   0.132090
    20  C   -0.000001  -0.000018  -0.001544  -0.000003   0.454662  -0.053279
    21  H    0.000000   0.000000   0.000000   0.000000  -0.054890  -0.000106
    22  C   -0.000002   0.000001  -0.000881  -0.000003   0.503193  -0.054939
    23  H    0.000000   0.000000   0.000000   0.000000  -0.029476   0.000067
    24  H    0.000000   0.000000  -0.000001   0.000000   0.163408  -0.007772
    25  H    0.000000   0.000000  -0.000016   0.000000  -0.105391   0.005497
    26  C    0.000002  -0.000007   0.001987  -0.000243   0.237174  -0.039848
    27  H    0.000000   0.000000   0.000175   0.000000  -0.013644  -0.000301
    28  H    0.000000   0.000000   0.000000   0.000000  -0.002467   0.000079
    29  H    0.000000   0.000000   0.000041   0.000000   0.013956   0.000138
    30  C   -0.000002   0.000027   0.001358  -0.000002  -0.768400   0.070548
    31  H    0.000000   0.000000   0.000000   0.000000  -0.007020  -0.000263
    32  H    0.000000   0.000000  -0.000034   0.000000  -0.106699   0.004671
              13         14         15         16         17         18
     1  C   -0.512340   0.001994  -0.376797   0.002586  -0.018920   0.041635
     2  C    0.935616  -0.002728   1.151709  -0.000176   0.025738   0.008906
     3  C   -1.108476  -0.006215  -2.077915   0.097223  -0.015775  -0.084425
     4  C   -1.813408   0.037207  -0.290329   0.023223  -0.425151   0.018632
     5  C   -0.629368   0.013310   0.757489   0.000458   0.009597  -0.058228
     6  C    0.150627  -0.000405  -0.077899  -0.000339   0.065335   0.010218
     7  H   -0.001658   0.000000   0.001076   0.000000   0.000004   0.000293
     8  H   -0.013228   0.000000   0.020139  -0.000005   0.000025  -0.007635
     9  H    0.036616  -0.000009  -0.001794   0.000000  -0.002299   0.000044
    10  H    0.000291   0.000000  -0.000692   0.000000   0.000426   0.000080
    11  C   -2.513894   0.135142  -2.526227   0.026771  -0.034620   0.003121
    12  C   -1.680172   0.046114  -0.672633   0.035203  -0.029557  -0.169441
    13  C   12.958567   0.107234  -0.087439  -0.051219   0.120490  -0.045705
    14  H    0.107234   0.569939  -0.017640  -0.005592  -0.005978   0.001644
    15  C   -0.087439  -0.017640  10.465638   0.196256   0.076347  -0.140527
    16  H   -0.051219  -0.005592   0.196256   0.524220  -0.001091  -0.008448
    17  O    0.120490  -0.005978   0.076347  -0.001091   8.685946  -0.000262
    18  Cl  -0.045705   0.001644  -0.140527  -0.008448  -0.000262  17.152090
    19  C   -0.096501  -0.012098  -0.031815   0.003128  -0.033941   0.004090
    20  C    0.259857  -0.005423   0.039952  -0.001672  -0.052719  -0.001981
    21  H    0.032438   0.000058   0.008259  -0.000001   0.006873   0.000004
    22  C   -0.091760  -0.006838  -0.356017  -0.002035  -0.008829  -0.002933
    23  H    0.021187   0.000283  -0.000928   0.000000   0.007667   0.000001
    24  H   -0.134165   0.004754  -0.039524  -0.000010  -0.012635   0.000017
    25  H    0.084012  -0.000252   0.031501   0.000000   0.005127   0.000000
    26  C   -0.103847  -0.006582  -0.020254   0.000093  -0.090271  -0.000061
    27  H    0.011089  -0.000004   0.000593   0.000000  -0.010443   0.000001
    28  H   -0.002832   0.000005  -0.000558   0.000000   0.007919   0.000000
    29  H   -0.018693   0.000000  -0.003186   0.000000  -0.004641  -0.000001
    30  C   -0.055835   0.017269   0.307432   0.000565   0.039201   0.002211
    31  H    0.010264  -0.000062  -0.007033   0.000000  -0.002523   0.000005
    32  H    0.043504  -0.000024   0.021669  -0.000001   0.018599   0.000025
              19         20         21         22         23         24
     1  C    0.018148   0.000138  -0.000033  -0.006226  -0.000033   0.000289
     2  C   -0.193391   0.075033  -0.000170  -0.007054   0.000039  -0.000135
     3  C   -0.372447   0.311470  -0.004123   0.026640  -0.000487   0.006657
     4  C    0.227512   0.005616  -0.003216  -0.020417  -0.003777   0.015014
     5  C   -0.224553  -0.121247   0.001867  -0.046540  -0.000009  -0.000698
     6  C    0.149597  -0.076083   0.000278  -0.028133   0.000226  -0.001753
     7  H    0.000006  -0.000001   0.000000  -0.000002   0.000000   0.000000
     8  H   -0.000038  -0.000018   0.000000   0.000001   0.000000   0.000000
     9  H   -0.003867  -0.001544   0.000000  -0.000881   0.000000  -0.000001
    10  H    0.000391  -0.000003   0.000000  -0.000003   0.000000   0.000000
    11  C   -0.648580   0.454662  -0.054890   0.503193  -0.029476   0.163408
    12  C    0.132090  -0.053279  -0.000106  -0.054939   0.000067  -0.007772
    13  C   -0.096501   0.259857   0.032438  -0.091760   0.021187  -0.134165
    14  H   -0.012098  -0.005423   0.000058  -0.006838   0.000283   0.004754
    15  C   -0.031815   0.039952   0.008259  -0.356017  -0.000928  -0.039524
    16  H    0.003128  -0.001672  -0.000001  -0.002035   0.000000  -0.000010
    17  O   -0.033941  -0.052719   0.006873  -0.008829   0.007667  -0.012635
    18  Cl   0.004090  -0.001981   0.000004  -0.002933   0.000001   0.000017
    19  C   10.070115  -2.478703   0.013491  -0.761395  -0.028632  -0.122274
    20  C   -2.478703   8.524873   0.296776   0.421819  -0.006107   0.006378
    21  H    0.013491   0.296776   0.547079   0.000116   0.000418  -0.000294
    22  C   -0.761395   0.421819   0.000116   6.723691   0.400118   0.452295
    23  H   -0.028632  -0.006107   0.000418   0.400118   0.525057  -0.026937
    24  H   -0.122274   0.006378  -0.000294   0.452295  -0.026937   0.554799
    25  H   -0.052859   0.026038   0.000204   0.454001  -0.024474  -0.030208
    26  C   -0.686276  -0.353619  -0.017027  -0.761843  -0.008326   0.038272
    27  H   -0.085003  -0.022911   0.000076   0.001930   0.000147  -0.000147
    28  H   -0.079181   0.003980   0.000220  -0.017603   0.000826  -0.000031
    29  H   -0.078033  -0.003532  -0.000071   0.002043  -0.000086   0.000127
    30  C    1.008889  -0.851803   0.022980  -0.357464   0.002937  -0.016313
    31  H    0.053400  -0.091663  -0.005736  -0.006658   0.000001  -0.000018
    32  H    0.087397  -0.196489   0.004553  -0.000876  -0.000006  -0.000016
              25         26         27         28         29         30
     1  C   -0.000159  -0.002275  -0.000091   0.000011   0.000180   0.000380
     2  C   -0.000171   0.029918   0.000379  -0.000023  -0.000254  -0.030572
     3  C   -0.005353   0.047129   0.001353  -0.000110  -0.000433  -0.127602
     4  C   -0.003657  -0.088802   0.006677   0.000857  -0.013506   0.032813
     5  C   -0.000683   0.117423  -0.008806   0.000816   0.012402   0.063636
     6  C    0.003665  -0.034797  -0.000347   0.000272   0.003880   0.066037
     7  H    0.000000   0.000002   0.000000   0.000000   0.000000  -0.000002
     8  H    0.000000  -0.000007   0.000000   0.000000   0.000000   0.000027
     9  H   -0.000016   0.001987   0.000175   0.000000   0.000041   0.001358
    10  H    0.000000  -0.000243   0.000000   0.000000   0.000000  -0.000002
    11  C   -0.105391   0.237174  -0.013644  -0.002467   0.013956  -0.768400
    12  C    0.005497  -0.039848  -0.000301   0.000079   0.000138   0.070548
    13  C    0.084012  -0.103847   0.011089  -0.002832  -0.018693  -0.055835
    14  H   -0.000252  -0.006582  -0.000004   0.000005   0.000000   0.017269
    15  C    0.031501  -0.020254   0.000593  -0.000558  -0.003186   0.307432
    16  H    0.000000   0.000093   0.000000   0.000000   0.000000   0.000565
    17  O    0.005127  -0.090271  -0.010443   0.007919  -0.004641   0.039201
    18  Cl   0.000000  -0.000061   0.000001   0.000000  -0.000001   0.002211
    19  C   -0.052859  -0.686276  -0.085003  -0.079181  -0.078033   1.008889
    20  C    0.026038  -0.353619  -0.022911   0.003980  -0.003532  -0.851803
    21  H    0.000204  -0.017027   0.000076   0.000220  -0.000071   0.022980
    22  C    0.454001  -0.761843   0.001930  -0.017603   0.002043  -0.357464
    23  H   -0.024474  -0.008326   0.000147   0.000826  -0.000086   0.002937
    24  H   -0.030208   0.038272  -0.000147  -0.000031   0.000127  -0.016313
    25  H    0.532377  -0.084556  -0.000015   0.000211   0.002002  -0.002488
    26  C   -0.084556   6.809568   0.467272   0.440041   0.441365   0.130201
    27  H   -0.000015   0.467272   0.524925  -0.025110  -0.028025   0.011061
    28  H    0.000211   0.440041  -0.025110   0.535761  -0.027120   0.003381
    29  H    0.002002   0.441365  -0.028025  -0.027120   0.540624   0.000493
    30  C   -0.002488   0.130201   0.011061   0.003381   0.000493   5.777811
    31  H    0.000002   0.013365  -0.000044  -0.000009   0.000004   0.401232
    32  H    0.000004  -0.016381   0.000196   0.000019  -0.000021   0.516769
              31         32
     1  C   -0.000098  -0.000851
     2  C   -0.000024  -0.002780
     3  C   -0.001060  -0.028214
     4  C   -0.001392  -0.019782
     5  C   -0.001834   0.016337
     6  C    0.000002   0.012016
     7  H    0.000000   0.000000
     8  H    0.000000   0.000000
     9  H    0.000000  -0.000034
    10  H    0.000000   0.000000
    11  C   -0.007020  -0.106699
    12  C   -0.000263   0.004671
    13  C    0.010264   0.043504
    14  H   -0.000062  -0.000024
    15  C   -0.007033   0.021669
    16  H    0.000000  -0.000001
    17  O   -0.002523   0.018599
    18  Cl   0.000005   0.000025
    19  C    0.053400   0.087397
    20  C   -0.091663  -0.196489
    21  H   -0.005736   0.004553
    22  C   -0.006658  -0.000876
    23  H    0.000001  -0.000006
    24  H   -0.000018  -0.000016
    25  H    0.000002   0.000004
    26  C    0.013365  -0.016381
    27  H   -0.000044   0.000196
    28  H   -0.000009   0.000019
    29  H    0.000004  -0.000021
    30  C    0.401232   0.516769
    31  H    0.537148  -0.036467
    32  H   -0.036467   0.536991
 Mulliken charges:
               1
     1  C   -0.524267
     2  C   -0.423727
     3  C    0.714349
     4  C    0.157334
     5  C   -0.057940
     6  C   -0.398846
     7  H    0.147446
     8  H    0.153146
     9  H    0.156619
    10  H    0.146902
    11  C   -0.296081
    12  C   -0.227389
    13  C    0.188744
    14  H    0.134896
    15  C   -0.348854
    16  H    0.160862
    17  O   -0.319641
    18  Cl   0.276633
    19  C    0.221330
    20  C   -0.107794
    21  H    0.149977
    22  C   -0.447403
    23  H    0.170306
    24  H    0.150922
    25  H    0.165640
    26  C   -0.458796
    27  H    0.169018
    28  H    0.160646
    29  H    0.160345
    30  C   -0.266751
    31  H    0.146483
    32  H    0.145891
 Sum of Mulliken charges =   0.00000
 Mulliken charges with hydrogens summed into heavy atoms:
               1
     1  C   -0.376821
     2  C   -0.270581
     3  C    0.714349
     4  C    0.157334
     5  C    0.098679
     6  C   -0.251944
    11  C   -0.296081
    12  C   -0.227389
    13  C    0.323640
    15  C   -0.187992
    17  O   -0.319641
    18  Cl   0.276633
    19  C    0.221330
    20  C    0.042183
    22  C    0.039465
    26  C    0.031213
    30  C    0.025622
 Electronic spatial extent (au):  <R**2>=           4834.4141
 Charge=              0.0000 electrons
 Dipole moment (field-independent basis, Debye):
    X=              4.4202    Y=              0.1003    Z=             -0.3135  Tot=              4.4324
 Quadrupole moment (field-independent basis, Debye-Ang):
   XX=           -100.6982   YY=           -100.4505   ZZ=           -110.6838
   XY=             -9.7440   XZ=             -2.9447   YZ=              0.8537
 Traceless Quadrupole moment (field-independent basis, Debye-Ang):
   XX=              3.2460   YY=              3.4937   ZZ=             -6.7397
   XY=             -9.7440   XZ=             -2.9447   YZ=              0.8537
 Octapole moment (field-independent basis, Debye-Ang**2):
  XXX=             43.0720  YYY=              9.0129  ZZZ=              2.8571  XYY=              3.6857
  XXY=             11.6627  XXZ=            -10.4234  XZZ=             13.6567  YZZ=             -8.2927
  YYZ=              0.2569  XYZ=             -2.1857
 Hexadecapole moment (field-independent basis, Debye-Ang**3):
 XXXX=          -4229.6294 YYYY=          -1591.4962 ZZZZ=           -495.6701 XXXY=            -92.4430
 XXXZ=            -74.6917 YYYX=            -32.3224 YYYZ=             11.4974 ZZZX=              1.2445
 ZZZY=            -14.2376 XXYY=           -983.0870 XXZZ=           -845.4620 YYZZ=           -397.5417
 XXYZ=             -0.5124 YYXZ=             -3.4462 ZZXY=              9.6150
 N-N= 1.274788475383D+03 E-N=-5.163679337563D+03  KE= 1.108336275517D+03
 D1PCM: C-PCM CHGder 1st derivatives, ID1Alg=3 FixD1E=F DoIter=F DoCFld=F I1PDM=0.
 Calling FoFJK, ICntrl=      2127 FMM=F ISym2X=0 I1Cent= 0 IOpClX= 0 NMat=1 NMatS=1 NMatT=0.
 ***** Axes restored to original set *****
 -------------------------------------------------------------------
 Center     Atomic                   Forces (Hartrees/Bohr)
 Number     Number              X              Y              Z
 -------------------------------------------------------------------
      1        6           0.000588889    0.007717139    0.000256401
      2        6          -0.001819774   -0.003457518   -0.000021209
      3        6          -0.007926348   -0.003842050    0.000239154
      4        6           0.009950919   -0.004961098   -0.000704001
      5        6           0.008537757   -0.003464608   -0.000554999
      6        6          -0.006542062    0.003477111    0.000560568
      7        1           0.002055385   -0.003622263   -0.000256413
      8        1           0.004350463    0.001571955   -0.000153020
      9        1          -0.006796303   -0.001545236    0.000231811
     10        1           0.001056812   -0.003005314   -0.000189277
     11        6          -0.000253484    0.013196441   -0.000705113
     12        6           0.008371469    0.005799913   -0.000076832
     13        6           0.000094981   -0.002277265   -0.000199219
     14        1          -0.007055241    0.004245604    0.002613826
     15        6           0.004010224   -0.001412616   -0.000577198
     16        1          -0.001442646    0.005907914    0.000396729
     17        8           0.007023629   -0.011921842    0.001078878
     18       17          -0.017810517   -0.010261359    0.000494648
     19        6          -0.018131089    0.015752074    0.000731803
     20        6           0.005727899   -0.000866101   -0.002473031
     21        1          -0.001866491    0.001137668    0.003226121
     22        6           0.004008867   -0.008433442   -0.013045944
     23        1          -0.000883731    0.001188021    0.003865610
     24        1           0.003913833    0.004462208    0.000053243
     25        1           0.001023366    0.001612924    0.004609992
     26        6           0.013611690    0.005821052   -0.000573640
     27        1          -0.001332415   -0.005602974   -0.000752020
     28        1          -0.001761894   -0.001327822   -0.000764778
     29        1          -0.001956331   -0.003576361   -0.000828197
     30        6          -0.000865466   -0.000622278    0.009322567
     31        1           0.003862742   -0.004913232   -0.000552719
     32        1          -0.001745134    0.003223356   -0.005253743
 -------------------------------------------------------------------
 Cartesian Forces:  Max     0.018131089 RMS     0.005548695

 GradGradGradGradGradGradGradGradGradGradGradGradGradGradGradGradGradGrad
 Berny optimization.
 FormGI is forming the generalized inverse of G from B-inverse, IUseBI=4.
 Internal  Forces:  Max     0.023120928 RMS     0.003908106
 Search for a local minimum.
 Step number   1 out of a maximum of  175
 All quantities printed in internal units (Hartrees-Bohrs-Radians)
 Mixed Optimization -- RFO/linear search
 Second derivative matrix not updated -- first step.
 ITU=  0
     Eigenvalues ---    0.00399   0.00478   0.00483   0.00628   0.01642
     Eigenvalues ---    0.01668   0.01696   0.01746   0.01893   0.01948
     Eigenvalues ---    0.01976   0.01984   0.02031   0.02084   0.02112
     Eigenvalues ---    0.02118   0.02138   0.02178   0.02226   0.02248
     Eigenvalues ---    0.02265   0.03016   0.03016   0.04233   0.05352
     Eigenvalues ---    0.05422   0.05494   0.05510   0.06378   0.07930
     Eigenvalues ---    0.15995   0.16000   0.16000   0.16000   0.16000
     Eigenvalues ---    0.16000   0.16000   0.16000   0.16000   0.16000
     Eigenvalues ---    0.16000   0.16000   0.16000   0.16000   0.16000
     Eigenvalues ---    0.16633   0.17404   0.22000   0.22001   0.22497
     Eigenvalues ---    0.22559   0.24488   0.24504   0.25000   0.25000
     Eigenvalues ---    0.25000   0.25000   0.29634   0.30233   0.31306
     Eigenvalues ---    0.32690   0.33258   0.33838   0.33859   0.33866
     Eigenvalues ---    0.33878   0.33988   0.34008   0.34454   0.34477
     Eigenvalues ---    0.34495   0.34604   0.34796   0.34807   0.34925
     Eigenvalues ---    0.35558   0.35723   0.36798   0.37716   0.39309
     Eigenvalues ---    0.39796   0.41262   0.41794   0.42737   0.47445
     Eigenvalues ---    0.48168   0.49276   0.49490   0.53027   0.59521
 RFO step:  Lambda=-1.25477690D-02 EMin= 3.99126339D-03
 Linear search not attempted -- first point.
 Iteration  1 RMS(Cart)=  0.19221085 RMS(Int)=  0.00633692
 Iteration  2 RMS(Cart)=  0.01354887 RMS(Int)=  0.00039032
 Iteration  3 RMS(Cart)=  0.00006208 RMS(Int)=  0.00038913
 Iteration  4 RMS(Cart)=  0.00000001 RMS(Int)=  0.00038913
 Variable       Old X    -DE/DX   Delta X   Delta X   Delta X     New X
                                 (Linear)    (Quad)   (Total)
    R1        2.59925   0.00198   0.00000   0.00356   0.00355   2.60281
    R2        2.68731  -0.00353   0.00000  -0.00880  -0.00880   2.67852
    R3        2.06322  -0.00386   0.00000  -0.01078  -0.01078   2.05244
    R4        2.69769  -0.00166   0.00000  -0.00358  -0.00358   2.69411
    R5        2.06007  -0.00463   0.00000  -0.01283  -0.01283   2.04724
    R6        2.68218   0.01126   0.00000   0.02730   0.02729   2.70947
    R7        2.70607  -0.00124   0.00000  -0.00248  -0.00249   2.70358
    R8        2.69442  -0.00254   0.00000  -0.00558  -0.00557   2.68885
    R9        2.73815  -0.00407   0.00000  -0.00980  -0.00980   2.72835
   R10        2.59657   0.00356   0.00000   0.00665   0.00665   2.60322
   R11        2.06571  -0.00689   0.00000  -0.01929  -0.01929   2.04642
   R12        2.05990  -0.00288   0.00000  -0.00798  -0.00798   2.05192
   R13        2.60982   0.00057   0.00000   0.00071   0.00072   2.61054
   R14        2.56929   0.00717   0.00000   0.01321   0.01321   2.58250
   R15        2.59608  -0.00073   0.00000  -0.00179  -0.00179   2.59428
   R16        3.26599   0.02046   0.00000   0.06027   0.06027   3.32626
   R17        2.05797  -0.00833   0.00000  -0.02302  -0.02302   2.03496
   R18        2.67565   0.00173   0.00000   0.00298   0.00299   2.67864
   R19        2.06503  -0.00574   0.00000  -0.01605  -0.01605   2.04898
   R20        2.81900  -0.00022   0.00000  -0.00064  -0.00064   2.81836
   R21        2.85432   0.00533   0.00000   0.01638   0.01638   2.87070
   R22        2.87502   0.00499   0.00000   0.01586   0.01586   2.89088
   R23        2.88699   0.00119   0.00000   0.00386   0.00386   2.89085
   R24        2.06533  -0.00259   0.00000  -0.00726  -0.00726   2.05807
   R25        2.51321   0.00231   0.00000   0.00380   0.00380   2.51701
   R26        2.07569  -0.00202   0.00000  -0.00576  -0.00576   2.06993
   R27        2.07557  -0.00581   0.00000  -0.01653  -0.01653   2.05904
   R28        2.07536  -0.00295   0.00000  -0.00838  -0.00838   2.06698
   R29        2.07604  -0.00351   0.00000  -0.00999  -0.00999   2.06605
   R30        2.07350  -0.00140   0.00000  -0.00396  -0.00396   2.06953
   R31        2.07316  -0.00121   0.00000  -0.00344  -0.00344   2.06972
   R32        2.04516   0.00315   0.00000   0.00852   0.00852   2.05369
   R33        2.04779   0.00243   0.00000   0.00661   0.00661   2.05440
    A1        2.10709  -0.00044   0.00000  -0.00374  -0.00375   2.10334
    A2        2.10358  -0.00140   0.00000  -0.00750  -0.00750   2.09608
    A3        2.07251   0.00184   0.00000   0.01124   0.01125   2.08376
    A4        2.10163   0.00177   0.00000   0.00760   0.00758   2.10921
    A5        2.09373  -0.00069   0.00000  -0.00265  -0.00264   2.09109
    A6        2.08782  -0.00108   0.00000  -0.00495  -0.00494   2.08288
    A7        2.07221  -0.00103   0.00000  -0.00317  -0.00317   2.06904
    A8        2.15464   0.00016   0.00000  -0.00128  -0.00127   2.15338
    A9        2.05633   0.00087   0.00000   0.00446   0.00444   2.06077
   A10        2.08955  -0.00291   0.00000  -0.01024  -0.01024   2.07931
   A11        2.07160   0.00616   0.00000   0.02451   0.02449   2.09609
   A12        2.12204  -0.00325   0.00000  -0.01426  -0.01426   2.10778
   A13        2.10100   0.00185   0.00000   0.00808   0.00809   2.10909
   A14        2.06290   0.00018   0.00000   0.00237   0.00236   2.06526
   A15        2.11929  -0.00203   0.00000  -0.01045  -0.01045   2.10884
   A16        2.09489   0.00076   0.00000   0.00148   0.00148   2.09637
   A17        2.07741   0.00104   0.00000   0.00747   0.00746   2.08488
   A18        2.11088  -0.00179   0.00000  -0.00894  -0.00895   2.10193
   A19        2.12023  -0.00980   0.00000  -0.03792  -0.03794   2.08230
   A20        1.95148   0.00479   0.00000   0.01854   0.01850   1.96997
   A21        2.21148   0.00501   0.00000   0.01938   0.01934   2.23081
   A22        2.13776  -0.00782   0.00000  -0.03019  -0.03020   2.10756
   A23        2.07501   0.00724   0.00000   0.02777   0.02777   2.10278
   A24        2.07042   0.00058   0.00000   0.00240   0.00241   2.07282
   A25        2.12391  -0.00151   0.00000  -0.00327  -0.00336   2.12055
   A26        2.08478   0.00519   0.00000   0.01908   0.01903   2.10381
   A27        2.07450  -0.00368   0.00000  -0.01583  -0.01591   2.05858
   A28        2.09566   0.00540   0.00000   0.02008   0.02008   2.11575
   A29        2.11640  -0.00483   0.00000  -0.02237  -0.02238   2.09403
   A30        2.07112  -0.00057   0.00000   0.00228   0.00227   2.07339
   A31        2.14503   0.02312   0.00000   0.08806   0.08806   2.23309
   A32        1.93486  -0.00097   0.00000   0.02291   0.02278   1.95764
   A33        1.89587   0.00227   0.00000   0.03862   0.03923   1.93510
   A34        1.73252   0.00397   0.00000   0.03563   0.03699   1.76950
   A35        1.97516   0.00329   0.00000   0.00342   0.00016   1.97532
   A36        1.94043  -0.00088   0.00000  -0.02922  -0.03089   1.90954
   A37        1.96991  -0.00757   0.00000  -0.06392  -0.06489   1.90502
   A38        1.98976   0.00119   0.00000   0.00949   0.00948   1.99924
   A39        2.16708   0.00360   0.00000   0.01542   0.01541   2.18249
   A40        2.12589  -0.00479   0.00000  -0.02517  -0.02518   2.10071
   A41        1.94589  -0.00459   0.00000  -0.03076  -0.03102   1.91487
   A42        1.96972   0.00251   0.00000   0.01809   0.01824   1.98796
   A43        1.94536  -0.00475   0.00000  -0.02685  -0.02711   1.91825
   A44        1.86525   0.00104   0.00000   0.00487   0.00501   1.87026
   A45        1.86563   0.00400   0.00000   0.01649   0.01580   1.88143
   A46        1.86618   0.00236   0.00000   0.02131   0.02145   1.88764
   A47        1.94310  -0.00482   0.00000  -0.02749  -0.02768   1.91542
   A48        1.94023  -0.00079   0.00000  -0.00551  -0.00562   1.93461
   A49        1.95357  -0.00407   0.00000  -0.02309  -0.02327   1.93031
   A50        1.87589   0.00284   0.00000   0.01557   0.01545   1.89134
   A51        1.86825   0.00502   0.00000   0.03081   0.03054   1.89880
   A52        1.87896   0.00249   0.00000   0.01362   0.01353   1.89249
   A53        2.15075  -0.00341   0.00000  -0.01977  -0.01980   2.13094
   A54        2.15570  -0.00429   0.00000  -0.02492  -0.02495   2.13075
   A55        1.97671   0.00770   0.00000   0.04457   0.04454   2.02124
    D1       -0.00081   0.00002   0.00000   0.00037   0.00037  -0.00045
    D2        3.14072  -0.00001   0.00000  -0.00032  -0.00033   3.14039
    D3        3.14095   0.00002   0.00000   0.00051   0.00050   3.14146
    D4       -0.00070   0.00000   0.00000  -0.00019  -0.00019  -0.00089
    D5        0.00093   0.00002   0.00000   0.00046   0.00045   0.00138
    D6       -3.14055  -0.00001   0.00000  -0.00048  -0.00048  -3.14103
    D7       -3.14084   0.00001   0.00000   0.00032   0.00032  -3.14052
    D8        0.00087  -0.00002   0.00000  -0.00062  -0.00062   0.00025
    D9       -0.00067  -0.00001   0.00000  -0.00027  -0.00027  -0.00094
   D10        3.14036  -0.00003   0.00000  -0.00121  -0.00122   3.13914
   D11        3.14098   0.00001   0.00000   0.00042   0.00042   3.14141
   D12       -0.00117  -0.00001   0.00000  -0.00051  -0.00052  -0.00170
   D13        0.00203  -0.00002   0.00000  -0.00064  -0.00062   0.00141
   D14       -3.14059   0.00010   0.00000   0.00299   0.00305  -3.13754
   D15       -3.13903   0.00000   0.00000   0.00025   0.00028  -3.13876
   D16        0.00153   0.00012   0.00000   0.00388   0.00395   0.00548
   D17        3.13982   0.00022   0.00000   0.00662   0.00668  -3.13669
   D18       -0.00454   0.00005   0.00000   0.00175   0.00173  -0.00281
   D19       -0.00233   0.00020   0.00000   0.00569   0.00573   0.00340
   D20        3.13649   0.00003   0.00000   0.00082   0.00078   3.13728
   D21       -0.00195   0.00005   0.00000   0.00146   0.00144  -0.00051
   D22        3.13949   0.00007   0.00000   0.00183   0.00182   3.14130
   D23        3.14070  -0.00008   0.00000  -0.00230  -0.00228   3.13842
   D24       -0.00105  -0.00007   0.00000  -0.00192  -0.00190  -0.00295
   D25       -0.00031  -0.00046   0.00000  -0.01431  -0.01421  -0.01451
   D26       -3.14151  -0.00001   0.00000  -0.00027  -0.00035   3.14133
   D27        3.14024  -0.00033   0.00000  -0.01061  -0.01047   3.12977
   D28       -0.00096   0.00011   0.00000   0.00343   0.00338   0.00242
   D29        0.00047  -0.00005   0.00000  -0.00136  -0.00135  -0.00089
   D30       -3.14124  -0.00001   0.00000  -0.00040  -0.00040   3.14154
   D31       -3.14096  -0.00006   0.00000  -0.00175  -0.00174   3.14048
   D32        0.00051  -0.00003   0.00000  -0.00079  -0.00079  -0.00028
   D33       -3.14020   0.00127   0.00000   0.03760   0.03756  -3.10264
   D34       -0.00027   0.00049   0.00000   0.01502   0.01493   0.01466
   D35        0.00094   0.00075   0.00000   0.02134   0.02140   0.02233
   D36        3.14087  -0.00003   0.00000  -0.00124  -0.00123   3.13964
   D37        3.12564   0.00327   0.00000   0.09332   0.09314  -3.06440
   D38       -0.01553   0.00375   0.00000   0.10826   0.10844   0.09292
   D39        0.00180  -0.00018   0.00000  -0.00518  -0.00523  -0.00342
   D40       -3.14060  -0.00043   0.00000  -0.01179  -0.01181   3.13078
   D41       -3.13703  -0.00001   0.00000  -0.00036  -0.00040  -3.13743
   D42        0.00375  -0.00026   0.00000  -0.00697  -0.00698  -0.00323
   D43       -0.00046  -0.00018   0.00000  -0.00530  -0.00543  -0.00589
   D44       -3.14126   0.00007   0.00000   0.00115   0.00109  -3.14017
   D45        3.13952  -0.00093   0.00000  -0.02723  -0.02725   3.11226
   D46       -0.00128  -0.00068   0.00000  -0.02077  -0.02074  -0.02202
   D47       -1.05271   0.00051   0.00000   0.09702   0.09709  -0.95562
   D48        1.12791   0.00561   0.00000   0.14392   0.14355   1.27145
   D49       -3.09464  -0.00015   0.00000   0.10334   0.10364  -2.99100
   D50        2.67303   0.00054   0.00000   0.02014   0.02025   2.69328
   D51       -0.50044   0.00023   0.00000   0.01064   0.01068  -0.48976
   D52        0.53792  -0.00408   0.00000  -0.04987  -0.05011   0.48781
   D53       -2.63554  -0.00439   0.00000  -0.05937  -0.05969  -2.69523
   D54       -1.70048   0.00430   0.00000   0.05962   0.05987  -1.64062
   D55        1.40923   0.00399   0.00000   0.05012   0.05029   1.45953
   D56        2.79862  -0.00039   0.00000  -0.00813  -0.00831   2.79031
   D57       -1.38502  -0.00058   0.00000  -0.01123  -0.01163  -1.39665
   D58        0.71534   0.00082   0.00000   0.00973   0.00910   0.72444
   D59       -1.32787   0.00230   0.00000   0.05219   0.05238  -1.27548
   D60        0.77167   0.00211   0.00000   0.04909   0.04906   0.82074
   D61        2.87203   0.00351   0.00000   0.07005   0.06979   2.94183
   D62        0.89517  -0.00261   0.00000  -0.04036  -0.03970   0.85547
   D63        2.99471  -0.00280   0.00000  -0.04346  -0.04303   2.95169
   D64       -1.18811  -0.00140   0.00000  -0.02250  -0.02229  -1.21040
   D65        0.92286   0.00003   0.00000   0.01904   0.01917   0.94203
   D66        3.01382  -0.00013   0.00000   0.01662   0.01672   3.03053
   D67       -1.16741  -0.00028   0.00000   0.01436   0.01440  -1.15301
   D68       -1.11484  -0.00058   0.00000  -0.01435  -0.01341  -1.12825
   D69        0.97611  -0.00074   0.00000  -0.01677  -0.01586   0.96025
   D70        3.07807  -0.00089   0.00000  -0.01903  -0.01817   3.05990
   D71        2.92712   0.00195   0.00000   0.05866   0.05771   2.98482
   D72       -1.26512   0.00179   0.00000   0.05624   0.05525  -1.20986
   D73        0.83684   0.00164   0.00000   0.05398   0.05294   0.88978
   D74       -3.12011   0.00020   0.00000   0.00703   0.00698  -3.11313
   D75        0.03035   0.00089   0.00000   0.02311   0.02306   0.05341
   D76       -0.01278  -0.00001   0.00000  -0.00251  -0.00246  -0.01524
   D77        3.13767   0.00068   0.00000   0.01358   0.01363  -3.13188
         Item               Value     Threshold  Converged?
[...]
 0000129,0.00000047,-0.00003525,0.00002413,-0.00001492,0.00000166,-0.00
 000280,-0.00000027,0.00001766,0.00006441,-0.00005288,-0.00000443,-0.00
 000901,-0.00000431,0.00017455,0.00005893,-0.00000240,0.00001253,0.0000
 3875,-0.00003341,-0.00002686,0.00003616,0.00001274,0.00001118,0.000006
 50,0.00000181,0.00145519,-0.00017203,-0.00043365,0.00002805,0.00001249
 ,0.00000059,-0.00241295,-0.00961167,-0.01781902,-0.00010387,0.00117275
 ,-0.00057239,0.00003516,0.00001130,-0.00000536,-0.00240681,-0.00308181
 ,0.00077401,0.00029891,-0.00002622,-0.00010312,0.00010510,-0.00074153,
 -0.00106196,0.00005019,0.00009542,0.00032224,-0.04618941,0.00197633,0.
 00143451,0.04721570,-0.00001118,-0.00000239,0.00000341,-0.00000395,0.0
 0000863,0.00000362,-0.00000340,-0.00001429,-0.00001994,0.00000697,-0.0
 0001914,-0.00003277,-0.00001975,0.00001609,0.00001150,0.00000217,-0.00
 000278,-0.00000287,-0.00000179,0.00000053,-0.00000040,-0.00000144,-0.0
 0000001,-0.00000174,-0.00000617,-0.00001478,-0.00000078,0.00000012,0.0
 0000133,-0.00000086,0.00020752,0.00027735,0.00020796,-0.00000769,0.000
 02662,-0.00000039,0.00010830,-0.00001373,0.00002537,0.00000931,0.00005
 000,-0.00004320,0.00003397,0.00003717,0.00000227,0.00000216,-0.0000010
 8,0.00000010,0.00161553,0.00092384,0.00054710,-0.00001249,-0.00000509,
 0.00000060,0.00104381,-0.01342966,-0.02336648,-0.00006565,0.00056799,-
 0.00205444,-0.00010214,-0.00006350,-0.00002287,-0.00358896,-0.00413307
 ,0.00108621,0.00001407,0.00017110,0.00043949,-0.00041713,-0.00033129,-
 0.00169495,-0.00014191,0.00013594,-0.00015366,0.00002930,-0.09814819,-
 0.10351292,0.00246344,0.10709813,-0.00000405,-0.00000320,-0.00000438,-
 0.00000148,0.00000447,0.00000547,-0.00000857,-0.00000912,-0.00002380,-
 0.00001964,-0.00004353,0.00000850,-0.00001018,-0.00001336,0.00000440,0
 .00001125,0.00001034,0.00000529,0.00000023,0.00000136,0.00000002,-0.00
 000179,0.00000080,-0.00000134,0.00000274,0.00001575,-0.00001061,-0.000
 00060,0.00000139,-0.00000065,-0.00006822,0.00025081,0.00022478,-0.0000
 1192,0.00002490,-0.00000173,0.00005188,0.00002946,0.00003785,0.0000039
 1,0.00002374,0.00000730,0.00003455,0.00002087,-0.00001889,0.00000129,-
 0.00000086,0.00000099,-0.00009805,0.00042208,0.00058933,-0.00001334,-0
 .00000611,0.00000099,0.00057777,0.00143848,-0.00053815,-0.00001560,0.0
 0095819,0.00080225,0.00004333,0.00009957,0.00004931,-0.00046265,-0.000
 83145,0.00101008,0.00007506,0.00026515,0.00011129,0.00016655,-0.000109
 75,-0.00005500,0.00019655,0.00015746,0.00026461,-0.00034951,-0.1069807
 8,-0.26665691,-0.00043528,0.11594217,0.28545931,0.00000539,0.00002448,
 0.00000435,-0.00002639,-0.00002120,-0.00000470,-0.00003471,0.00004811,
 -0.00003030,-0.00034503,-0.00015953,0.00001449,-0.00000533,-0.00006249
 ,0.00001605,-0.00002995,0.00004975,-0.00000243,-0.00001112,0.00000923,
 -0.00000224,-0.00001803,0.00000718,-0.00000459,0.00003321,-0.00005378,
 -0.00000532,-0.00000604,0.00001644,-0.00000255,0.00154324,0.00091297,0
 .00097167,0.00004658,0.00005048,0.00000932,-0.00038789,-0.00035842,-0.
 00011379,0.00000105,0.00001985,0.00002507,0.00009718,-0.00003739,-0.00
 005803,-0.00004107,-0.00002801,-0.00000052,-0.00592477,-0.00356585,-0.
 00016363,-0.00015292,-0.00006285,-0.00000437,-0.01417644,0.00850167,0.
 00389709,-0.00011317,0.00076538,-0.00051650,0.00045024,-0.00025580,0.0
 0007051,-0.00010014,0.00072887,0.00044612,0.00053504,-0.00034457,-0.00
 056164,0.00036347,-0.00019849,-0.00006576,0.00004707,-0.00009645,0.000
 03501,-0.28043317,0.06929888,0.05646718,0.00207706,-0.00048427,-0.0004
 9679,0.30405502,0.00000840,0.00001327,0.00000580,-0.00002423,-0.000027
 34,-0.00000345,-0.00004979,0.00007292,-0.00004913,-0.00034175,-0.00024
 464,0.00000079,-0.00001200,-0.00007185,0.00001519,-0.00001048,0.000046
 02,-0.00000085,-0.00000471,0.00000703,-0.00000144,-0.00001549,0.000008
 30,-0.00000486,0.00000470,0.00001800,0.00000074,-0.00000493,0.00001045
 ,-0.00000276,-0.00030317,0.00098331,0.00074649,0.00002748,0.00003689,0
 .00000713,-0.00012615,-0.00008042,-0.00006598,0.00002225,-0.00001562,0
 .00000191,0.00006185,-0.00001725,-0.00002939,-0.00002212,-0.00001737,0
 .00000283,-0.00647725,-0.00321661,0.00019037,-0.00009113,-0.00004058,-
 0.00000318,-0.02016005,0.00851946,0.00545948,-0.00035126,-0.00017933,0
 .00061611,-0.00016471,-0.00056983,0.00046420,-0.00000956,0.00049690,0.
 00018544,-0.00035003,-0.00058053,-0.00065785,0.00024386,0.00004841,0.0
 0022770,-0.00004010,-0.00001091,-0.00006733,0.07315863,-0.07066385,-0.
 01796497,0.01287291,-0.00410816,-0.00163023,-0.07623993,0.07480311,0.0
 0000098,-0.00000487,-0.00000002,0.00000836,0.00001016,-0.00000017,0.00
 001228,-0.00003637,-0.00001017,0.00007726,0.00006654,0.00000646,-0.000
 00091,0.00001333,0.00000384,0.00000398,-0.00000442,0.00000607,0.000001
 27,-0.00000131,-0.00000040,0.00000442,-0.00000287,-0.00000292,0.000000
 75,0.00000241,-0.00001289,0.00000137,-0.00000282,0.00000045,-0.0001555
 6,-0.00014989,0.00042365,-0.00001709,-0.00000407,0.00000397,0.00005670
 ,0.00001554,0.00000195,-0.00000302,0.00000256,0.00002492,0.00000327,0.
 00002774,-0.00005043,0.00000888,0.00000390,0.00000271,0.00083538,0.000
 28756,0.00071879,0.00001412,0.00000632,0.00000357,-0.00047187,-0.00067
 771,-0.00259618,0.00046422,0.00035987,-0.00009117,-0.00005376,0.000300
 46,-0.00005961,-0.00037155,-0.00027241,-0.00032895,-0.00060168,-0.0007
 2851,-0.00031942,0.00008128,0.00013879,0.00002041,-0.00008522,-0.00005
 143,0.00005437,0.05698594,-0.01662566,-0.06008534,0.02698821,-0.006756
 21,-0.00486954,-0.06238473,0.01914760,0.06110973,-0.00000076,0.0000015
 8,-0.00000265,0.00000745,-0.00000032,0.00000484,0.00000327,-0.00001055
 ,-0.00000657,0.00008451,0.00002839,-0.00000373,0.00002372,0.00004196,0
 .00002932,0.00000026,-0.00001494,-0.00001091,0.00000098,-0.00000153,0.
 00000176,0.00000305,-0.00000161,0.00000041,0.00000495,-0.00001966,-0.0
 0003109,0.00000174,-0.00000225,0.00000143,-0.00009524,-0.00006646,-0.0
 0012029,-0.00000451,-0.00001206,0.00000353,0.00014809,0.00007297,0.000
 03892,0.00004802,0.00003942,0.00001319,-0.00003101,0.00002754,0.000011
 26,0.00000748,0.00000495,-0.00000287,0.00200434,-0.00015352,-0.0002217
 2,0.00002127,0.00000983,0.00000002,0.00362192,-0.01517956,0.01410090,-
 0.00219633,-0.00179415,-0.00062545,0.00018557,-0.00022998,0.00011061,0
 .00071819,0.00041983,0.00080382,0.00003357,0.00003538,-0.00014584,-0.0
 0006137,0.00018125,0.00018216,-0.00012060,-0.00005062,-0.00039765,-0.0
 7477082,0.05815926,-0.06087399,-0.00045722,-0.00071340,0.00085333,-0.0
 0769131,0.01837342,-0.02129253,0.07811621,-0.00001194,-0.00000563,-0.0
 0000767,-0.00000693,0.00000653,0.00000976,-0.00001214,0.00000007,-0.00
 002067,-0.00002627,-0.00006206,-0.00000029,-0.00002729,-0.00000839,-0.
 00003187,0.00001004,0.00000555,0.00001097,0.00000060,0.00000094,0.0000
 0008,-0.00000260,0.00000138,0.00000071,-0.00002137,0.00001984,0.000016
 53,-0.00000036,0.00000121,-0.00000026,-0.00013069,0.00026884,-0.000163
 66,-0.00001480,0.00002979,0.00000171,0.00009337,-0.00000266,-0.0000316
 9,0.00007312,0.00007856,0.00004270,0.00001938,0.00004149,0.00001397,0.
 00000142,-0.00000097,-0.00000020,0.00139718,0.00126420,-0.00101993,-0.
 00000928,-0.00000267,-0.00000040,0.00920622,-0.01979146,0.01823420,-0.
 00524172,-0.00272563,-0.00014636,0.00028474,0.00018708,-0.00012949,0.0
 0092969,0.00070954,0.00099928,-0.00001205,-0.00000532,-0.00009894,-0.0
 0010440,0.00049346,-0.00008753,-0.00052569,-0.00024143,-0.00101600,0.0
 5555093,-0.15748088,0.11713164,-0.00531612,0.01052898,-0.00976803,0.00
 180406,-0.00523077,0.00499543,-0.05867779,0.17252534,0.00000434,0.0000
 0814,-0.00000865,0.00000159,-0.00000596,0.00000471,0.00000662,0.000003
 23,0.00000651,0.00001518,0.00003528,-0.00001072,0.00002652,0.00003738,
 0.00000131,-0.00002115,-0.00002106,0.00001211,-0.00000238,-0.00000098,
 0.00000040,0.00000085,-0.00000099,0.00000018,-0.00000769,-0.00004492,-
 0.00000863,0.00000099,-0.00000012,0.00000087,0.00006921,-0.00018887,0.
 00001863,0.00000894,-0.00001515,-0.00000578,-0.00003167,0.00000811,-0.
 00000070,-0.00000864,-0.00003232,0.00001070,-0.00000871,-0.00002667,-0
 .00000220,-0.00000188,0.00000002,0.00000004,0.00025197,-0.00012431,0.0
 0008052,0.00000954,0.00000231,0.00000121,-0.00071417,-0.00055081,-0.00
 116702,0.00079503,0.00066997,0.00007018,-0.00018617,0.00005745,-0.0000
 9534,0.00003766,-0.00120626,0.00048993,0.00011890,0.00004463,0.0000041
 9,0.00018931,0.00001099,0.00008599,-0.00030483,-0.00043718,0.00016124,
 -0.05995120,0.11871906,-0.17542760,-0.00919883,0.01881981,-0.01695327,
 0.00232003,-0.00623336,0.00599946,0.06669402,-0.12988912,0.18611523,-0
 .00005453,0.00000566,-0.00000356,0.00000764,0.00004431,-0.00000682,-0.
 00007114,-0.00006891,-0.00002814,0.00011255,-0.00005437,0.00025968,-0.
 00006116,0.00004345,-0.00004146,0.00003725,0.00000927,0.00001071,-0.00
 000516,0.00000733,-0.00000195,-0.00000929,-0.00000105,-0.00000050,0.00
 000335,-0.00000514,-0.00000862,-0.00000368,0.00001329,0.00000350,-0.00
 067328,0.00029843,-0.00035294,-0.00002914,0.00004897,0.00005997,-0.001
 38440,-0.00150343,-0.00151340,-0.00171340,0.00048311,-0.00072489,-0.00
 020740,0.00052295,-0.00019198,0.00002007,-0.00002840,-0.00004374,0.000
 77850,-0.00078151,-0.00076415,-0.00017399,-0.00003402,0.00002706,0.010
 52843,0.00054374,-0.00933207,-0.14440314,0.00656913,0.15731700,-0.0043
 2507,-0.00333553,0.02646941,-0.00094921,0.00150342,-0.00162252,0.00016
 398,-0.00001273,-0.00016926,-0.00000200,-0.00003062,0.00013891,-0.0000
 9302,-0.00004625,-0.00100552,-0.00063237,0.00064494,-0.00110940,0.0000
 6093,0.00009134,0.00004445,0.00028136,0.00006889,-0.00010336,0.0003351
 2,0.00068179,-0.00011953,0.47924631,-0.00007048,-0.00003057,-0.0000055
 5,0.00000687,0.00007411,0.00000368,-0.00008039,-0.00017608,0.00004285,
 0.00044030,-0.00005782,-0.00006519,-0.00006554,0.00012131,0.00000182,0
 .00007580,-0.00000729,-0.00001149,-0.00000103,0.00000114,0.00000057,-0
 .00000022,-0.00000284,0.00000201,-0.00000797,0.00004309,0.00000030,0.0
 0000091,0.00000465,-0.00000003,-0.00160174,-0.00090447,-0.00026294,-0.
 00007755,0.00015603,0.00003024,-0.00025667,-0.00019822,-0.00096049,-0.
 00061203,0.00043509,-0.00008065,0.00005900,0.00030658,-0.00002479,0.00
 001721,-0.00001105,-0.00000891,0.00038394,0.00032089,0.00164400,-0.000
 05510,-0.00000368,-0.00000316,-0.00791756,0.00056700,0.02226573,0.0043
 3265,-0.08786748,0.07616974,0.00761547,0.00739917,-0.01518846,0.001451
 77,-0.00340649,0.00036573,-0.00031120,0.00009544,0.00009034,0.00009926
 ,0.00024703,0.00016097,0.00001821,0.00061322,0.00119065,0.00201763,-0.
 00090295,0.00215372,0.00008711,0.00041724,-0.00018130,-0.00020670,0.00
 002989,-0.00005149,-0.00055701,-0.00082048,0.00040685,-0.22158895,0.36
 789034,-0.00000539,0.00000685,-0.00000528,-0.00001715,0.00001454,0.000
 00865,0.00001692,0.00001318,-0.00000895,-0.00015424,-0.00011523,-0.000
 03616,-0.00001077,-0.00005897,0.00000196,-0.00001240,0.00002600,0.0000
 2141,-0.00000831,0.00000694,-0.00000122,-0.00001185,0.00000273,-0.0000
 0152,0.00001539,-0.00003798,0.00000536,-0.00000470,0.00001248,-0.00000
 279,0.00143565,0.00102737,0.00003454,0.00002405,0.00006294,-0.00002256
 ,-0.00037300,-0.00040647,-0.00022398,-0.00135143,-0.00024384,-0.000818
 68,0.00016884,-0.00004444,0.00004018,-0.00001792,-0.00001087,0.0000268
 0,-0.00004796,-0.00108922,-0.00208767,-0.00008792,-0.00004522,-0.00001
 601,0.00596685,0.01003170,-0.02090715,0.16096183,0.07296500,-0.4846538
 7,0.00260886,0.00389099,-0.00732591,-0.00132073,0.00252559,0.00109384,
 0.00018243,-0.00010832,0.00023213,-0.00006971,-0.00042030,-0.00014416,
 -0.00004290,-0.00045193,-0.00082229,-0.00322106,-0.00179361,-0.0012812
 2,0.00020815,0.00054298,0.00047131,0.00023297,-0.00027038,-0.00001119,
 0.00070231,0.00053746,0.00067117,-0.17282800,-0.16598790,0.75857915,-0
 .00001809,-0.00000530,-0.00000544,-0.00000240,0.00001990,0.00000252,-0
 .00002184,-0.00005246,-0.00000285,0.00005050,-0.00003999,0.00001578,-0
 .00002275,0.00001846,-0.00000140,0.00001702,0.00001014,0.00000849,-0.0
 0000339,0.00000287,-0.00000094,-0.00000428,0.00000027,-0.00000082,0.00
 000478,-0.00000811,0.00000103,-0.00000118,0.00000484,-0.00000071,0.000
 53464,0.00004800,0.00016295,-0.00001545,0.00006698,0.00001456,-0.00011
 878,-0.00018675,-0.00001410,-0.00006421,0.00009785,0.00002862,0.000081
 51,0.00003457,-0.00006065,-0.00000832,-0.00000839,-0.00000029,0.000193
 92,-0.00006739,-0.00090109,-0.00005323,-0.00002041,0.00000182,0.003158
 30,0.00553234,0.00502469,0.00799313,-0.00871547,0.00942596,-0.00215467
 ,-0.00405459,-0.00198998,0.00059674,-0.00130060,0.00085184,-0.00004030
 ,-0.00000306,-0.00000958,0.00001381,-0.00004288,-0.00005664,-0.0000198
 1,0.00014161,0.00051055,-0.00047442,0.00098707,-0.00111571,-0.00007407
 ,-0.00003948,-0.00002948,-0.00001900,-0.00005359,-0.00001020,0.0002435
 3,0.00031834,-0.00000622,-0.10525784,0.09554447,-0.07464700,0.10091993
 ,0.00000728,-0.00000166,0.00000257,0.00000516,-0.00001009,-0.00000082,
 0.00000993,0.00001938,-0.00000419,0.00003618,0.00001448,-0.00001289,0.
 00001421,0.00000781,0.00001248,-0.00000078,-0.00001042,-0.00000306,0.0
 0000342,-0.00000293,0.00000034,0.00000467,-0.00000084,-0.00000013,-0.0
 0000428,0.00001415,-0.00000358,0.00000173,-0.00000543,0.00000046,-0.00
 051269,-0.00022087,-0.00007617,0.00000293,-0.00004627,0.00000295,0.000
 00499,-0.00004056,0.00006760,-0.00004868,-0.00004023,-0.00004820,-0.00
 008912,-0.00001405,-0.00002556,0.00000952,0.00000809,-0.00000320,0.000
 34274,-0.00003497,0.00048108,0.00004293,0.00001772,0.00000628,0.004913
 50,0.00761571,0.00309978,0.00294238,0.00054173,0.00017686,-0.00413352,
 -0.00374025,-0.00214404,0.00057784,-0.00146143,0.00106677,-0.00004923,
 0.00001027,0.00000595,0.00002069,-0.00007185,-0.00009234,-0.00007168,0
 .00019028,0.00052212,-0.00067730,0.00118258,-0.00137606,-0.00005186,-0
 .00001174,-0.00003603,-0.00002997,-0.00006894,-0.00000427,0.00030627,0
 .00043302,-0.00002308,0.09369813,-0.16897755,0.12166073,-0.10122795,0.
 16991942,-0.00000244,0.00000617,-0.00000236,-0.00000549,-0.00000159,0.
 00000158,-0.00001124,0.00000585,-0.00000539,-0.00009087,-0.00002801,0.
 00000105,-0.00000512,-0.00001296,-0.00000741,-0.00000797,0.00000828,0.
 00000509,-0.00000325,0.00000236,-0.00000054,-0.00000502,0.00000170,-0.
 00000052,0.00000451,-0.00001653,0.00000079,-0.00000164,0.00000463,-0.0
 0000066,0.00032192,0.00021911,0.00011625,-0.00000017,0.00001597,-0.000
 00094,-0.00009879,-0.00022220,-0.00005771,0.00001762,0.00007793,-0.000
 01072,0.00001240,0.00003708,-0.00001106,-0.00000620,-0.00000728,-0.000
 00240,-0.00039113,-0.00046598,0.00082508,-0.00004523,-0.00001626,0.000
 00016,0.00627019,0.00071303,-0.00030675,-0.01397095,0.02123813,-0.0159
 0513,-0.00175066,-0.00237595,-0.00015534,-0.00017357,0.00042930,0.0001
 1911,0.00002251,-0.00000793,0.00002656,-0.00000666,-0.00011487,-0.0000
 4688,-0.00009713,-0.00004573,-0.00022571,-0.00078508,0.00066918,-0.001
 04132,0.00002398,0.00003371,0.00004392,0.00001913,-0.00005130,0.000003
 70,0.00027938,0.00050848,-0.00004228,-0.07149468,0.11829042,-0.1576333
 8,0.07694767,-0.13187143,0.16591971,0.00000824,0.00000521,0.00000498,0
 .00000544,-0.00000845,0.00000662,0.00002615,0.00004717,-0.00001080,0.0
 0000261,0.00003992,-0.00004467,0.00001901,-0.00002595,0.00002526,-0.00
 001415,-0.00001359,-0.00000827,0.00000232,-0.00000155,0.00000058,0.000
 00261,-0.00000004,0.00000174,0.00000248,-0.00000111,0.00000461,0.00000
 115,-0.00000312,-0.00000010,-0.00020642,0.00022032,-0.00083017,0.00002
 578,-0.00004894,0.00004620,-0.00010091,0.00006990,-0.00009033,-0.00002
 686,-0.00000130,-0.00012743,-0.00001142,-0.00004073,-0.00006606,0.0000
 0549,0.00000984,0.00001094,-0.00017948,-0.00006790,-0.00134268,0.00003
 897,0.00001693,0.00000206,-0.00330147,-0.00220344,-0.00231945,-0.00510
 187,0.00717934,0.00412568,0.00443789,0.00400958,0.00366031,-0.00015333
 ,0.00028404,-0.00034452,0.00005643,-0.00001416,-0.00004485,-0.00002014
 ,0.00006510,0.00001464,0.00012532,-0.00009026,-0.00008744,0.00024529,-
 0.00040292,0.00065648,0.00004693,-0.00000723,-0.00003575,-0.00001941,0
 .00001005,0.00000282,-0.00018408,-0.00022945,0.00001236,-0.23152627,0.
 12125955,0.08170822,-0.00543376,0.00395256,0.00503399,0.24122747,0.000
 03750,0.00001076,-0.00000354,-0.00000022,-0.00003531,0.00001045,0.0000
 3686,0.00005514,-0.00000471,-0.00024869,0.00006426,-0.00006290,0.00003
 582,-0.00006298,-0.00001823,-0.00003960,0.00001018,0.00000307,0.000000
 07,-0.00000187,0.00000058,0.00000173,0.00000126,0.00000133,-0.00001162
 ,-0.00000316,-0.00000380,-0.00000113,-0.00000277,0.00000055,0.00079112
 ,0.00038616,0.00048492,0.00001046,-0.00007593,-0.00001487,-0.00003098,
 0.00018967,0.00025664,0.00019018,-0.00029796,-0.00015093,0.00001090,-0
 .00010847,0.00002312,-0.00000027,0.00000724,0.00001238,-0.00080144,-0.
 00081878,0.00107032,0.00002313,0.00000441,-0.00000302,-0.00280552,-0.0
 0469545,-0.00151835,-0.00283151,0.00796927,0.00097169,0.00415710,0.006
 42940,0.00386590,0.00002835,0.00058716,-0.00058515,-0.00000183,-0.0000
 1350,-0.00011935,-0.00002669,0.00006042,0.00001181,0.00008268,-0.00008
 560,-0.00019102,0.00037011,-0.00049987,0.00067219,0.00006971,0.0000379
 6,-0.00005325,-0.00003165,0.00005003,-0.00000390,-0.00021665,-0.000217
 48,-0.00002206,0.12221276,-0.11535527,-0.04224278,0.01299869,-0.005214
 54,-0.00702328,-0.13400937,0.11162563,0.00004254,0.00000845,0.00000564
 ,0.00000969,-0.00005516,0.00001018,0.00005889,0.00015954,-0.00000446,-
 0.00005006,0.00007194,-0.00007587,0.00006894,-0.00004266,0.00002112,-0
 .00002541,-0.00004199,-0.00002865,0.00001192,-0.00000882,0.00000299,0.
 00001350,-0.00000066,0.00000149,-0.00000100,0.00001084,0.00001000,0.00
 000584,-0.00001743,0.00000168,-0.00194192,-0.00013560,-0.00112801,0.00
 006319,-0.00020581,-0.00001552,0.00019204,0.00036124,0.00013282,0.0000
 2448,-0.00018654,-0.00031703,-0.00027363,-0.00009838,0.00007936,0.0000
 2921,0.00003024,-0.00000015,0.00006002,0.00055883,0.00081268,0.0001708
 5,0.00006669,0.00000630,0.00009164,-0.00310187,-0.00072490,0.02515927,
 -0.01470471,-0.00590258,0.00359782,0.00406428,-0.00301884,-0.00015945,
 0.00021434,-0.00013669,-0.00007542,0.00004643,0.00008455,0.00000418,0.
 00003152,0.00000929,0.00000299,-0.00001514,-0.00008384,0.00010911,-0.0
 0014963,0.00029516,-0.00000963,-0.00000183,0.00003730,-0.00011112,-0.0
 0003531,0.00005438,-0.00009592,-0.00009080,-0.00001240,0.07713581,-0.0
 3998729,-0.08518252,-0.01414342,0.00861908,0.00839349,-0.08996495,0.04
 463620,0.08667305\\0.00000160,0.00000246,0.00000064,0.00000090,0.00000
 018,0.00000396,0.00000343,0.00000355,0.00000466,-0.00000402,-0.0000006
 6,0.00000200,0.00000130,-0.00000023,-0.00000028,-0.00000077,0.00000114
 ,-0.00000197,0.00000018,0.00000081,0.00000097,-0.00000045,0.00000170,0
 .00000484,0.00000126,0.00000039,-0.00000371,0.00000179,0.00000053,-0.0
 0000275,0.00001497,0.00000827,-0.00000552,-0.00001133,-0.00000603,0.00
 000329,-0.00000292,-0.00000194,0.00000277,-0.00000130,-0.00000017,0.00
 000429,0.00000144,0.00000331,0.00000618,-0.00000086,0.00000030,0.00000
 731,-0.00001287,-0.00000171,0.00000078,0.00000556,0.00000467,0.0000089
 0,0.00001049,-0.00000492,-0.00000159,0.00000006,0.00000167,-0.00000615
 ,-0.00000006,-0.00000094,-0.00000031,-0.00000604,-0.00000456,-0.000003
 79,-0.00000195,-0.00000313,-0.00000076,-0.00000219,-0.00000205,0.00000
 060,-0.00000227,-0.00000421,-0.00000193,-0.00000361,0.00000020,-0.0000
 0567,0.00000194,0.00000003,-0.00000617,-0.00000075,-0.00000326,-0.0000
 0582,-0.00000082,-0.00000245,-0.00000542,0.00000037,0.00000133,0.00000
 368,0.00000379,0.00000318,-0.00000192,0.00000318,0.00000253,-0.0000011
 4\\\@


 A MUSTACHE HAIR ACROSS A CHIP IS LIKE A REDWOOD
 TREE FALLING THROUGH A HOUSING PROJECT.
 - AN IBM MANAGER IN EAST FISHKILL, NEW YORK
   AS QUOTED IN "FROM SANDS TO CIRCUITS", IBM INNOVATION JANUARY 1985.
 Job cpu time:       0 days  3 hours 36 minutes  5.4 seconds.
 File lengths (MBytes):  RWF=    555 Int=      0 D2E=      0 Chk=     21 Scr=      1
 Normal termination of Gaussian 09 at Thu Aug 27 19:23:13 2020.
