 Entering Gaussian System, Link 0=g09
 Input=b3lyp_pr_claisen_PM6_toluene_water.com
 Output=b3lyp_pr_claisen_PM6_toluene_water.log
 Initial command:
 /apps/applications/gaussian/G09.D01/2/default/g09/l1.exe "/local/714068.1.40core-192G.q/Gau-169960.inp" -scrdir="/local/714068.1.40core-192G.q/"
 Entering Link 1 = /apps/applications/gaussian/G09.D01/2/default/g09/l1.exe PID=    169961.
  
 Copyright (c) 1988,1990,1992,1993,1995,1998,2003,2009,2013,
            Gaussian, Inc.  All Rights Reserved.
  
 This is part of the Gaussian(R) 09 program.  It is based on
 the Gaussian(R) 03 system (copyright 2003, Gaussian, Inc.),
 the Gaussian(R) 98 system (copyright 1998, Gaussian, Inc.),
 the Gaussian(R) 94 system (copyright 1995, Gaussian, Inc.),
 the Gaussian 92(TM) system (copyright 1992, Gaussian, Inc.),
 the Gaussian 90(TM) system (copyright 1990, Gaussian, Inc.),
 the Gaussian 88(TM) system (copyright 1988, Gaussian, Inc.),
 the Gaussian 86(TM) system (copyright 1986, Carnegie Mellon
 University), and the Gaussian 82(TM) system (copyright 1983,
 Carnegie Mellon University). Gaussian is a federally registered
 trademark of Gaussian, Inc.
  
 This software contains proprietary and confidential information,
 including trade secrets, belonging to Gaussian, Inc.
  
 This software is provided under written license and may be
 used, copied, transmitted, or stored only in accord with that
 written license.
  
 The following legend is applicable only to US Government
 contracts under FAR:
  
                    RESTRICTED RIGHTS LEGEND
  
 Use, reproduction and disclosure by the US Government is
 subject to restrictions as set forth in subparagraphs (a)
 and (c) of the Commercial Computer Software - Restricted
 Rights clause in FAR 52.227-19.
  
 Gaussian, Inc.
 340 Quinnipiac St., Bldg. 40, Wallingford CT 06492
  
  
 ---------------------------------------------------------------
 Warning -- This program may not be used in any manner that
 competes with the business of Gaussian, Inc. or will provide
 assistance to any competitor of Gaussian, Inc.  The licensee
 of this program is prohibited from giving any competitor of
 Gaussian, Inc. access to this program.  By using this program,
 the user acknowledges that Gaussian, Inc. is engaged in the
 business of creating and licensing software in the field of
 computational chemistry and represents and warrants to the
 licensee that it is not a competitor of Gaussian, Inc. and that
 it will not use this program in any manner prohibited above.
 ---------------------------------------------------------------
  

 Cite this work as:
 Gaussian 09, Revision D.01,
 M. J. Frisch, G. W. Trucks, H. B. Schlegel, G. E. Scuseria, 
 M. A. Robb, J. R. Cheeseman, G. Scalmani, V. Barone, B. Mennucci, 
 G. A. Petersson, H. Nakatsuji, M. Caricato, X. Li, H. P. Hratchian, 
 A. F. Izmaylov, J. Bloino, G. Zheng, J. L. Sonnenberg, M. Hada, 
 M. Ehara, K. Toyota, R. Fukuda, J. Hasegawa, M. Ishida, T. Nakajima, 
 Y. Honda, O. Kitao, H. Nakai, T. Vreven, J. A. Montgomery, Jr., 
 J. E. Peralta, F. Ogliaro, M. Bearpark, J. J. Heyd, E. Brothers, 
 K. N. Kudin, V. N. Staroverov, T. Keith, R. Kobayashi, J. Normand, 
 K. Raghavachari, A. Rendell, J. C. Burant, S. S. Iyengar, J. Tomasi, 
 M. Cossi, N. Rega, J. M. Millam, M. Klene, J. E. Knox, J. B. Cross, 
 V. Bakken, C. Adamo, J. Jaramillo, R. Gomperts, R. E. Stratmann, 
 O. Yazyev, A. J. Austin, R. Cammi, C. Pomelli, J. W. Ochterski, 
 R. L. Martin, K. Morokuma, V. G. Zakrzewski, G. A. Voth, 
 P. Salvador, J. J. Dannenberg, S. Dapprich, A. D. Daniels, 
 O. Farkas, J. B. Foresman, J. V. Ortiz, J. Cioslowski, 
 and D. J. Fox, Gaussian, Inc., Wallingford CT, 2013.
 
 ******************************************
 Gaussian 09:  ES64L-G09RevD.01 24-Apr-2013
                27-Aug-2020 
 ******************************************
 %nprocshared=4
 Will use up to    4 processors via shared memory.
 %chk=b3lyp_pr_claisen_PM6_toluene_water.chk
 ----------------------------------------------------------------------
 # opt freq b3lyp/6-31+g(d,p) scrf=(cpcm,solvent=water) geom=connectivi
 ty empiricaldispersion=gd3
 ----------------------------------------------------------------------
 1/14=-1,18=20,19=15,26=3,38=1,57=2/1,3;
 2/9=110,12=2,17=6,18=5,40=1/2;
 3/5=1,6=6,7=111,11=2,16=1,25=1,30=1,70=2101,71=1,72=1,74=-5,124=31/1,2,3;
 4//1;
 5/5=2,38=5,53=1/2;
 6/7=2,8=2,9=2,10=2,28=1/1;
 7//1,2,3,16;
 1/14=-1,18=20,19=15,26=3/3(2);
 2/9=110/2;
 99//99;
 2/9=110/2;
 3/5=1,6=6,7=111,11=2,16=1,25=1,30=1,70=2105,71=1,72=1,74=-5,124=31/1,2,3;
 4/5=5,16=3,69=1/1;
 5/5=2,38=5,53=1/2;
 7//1,2,3,16;
 1/14=-1,18=20,19=15,26=3/3(-5);
 2/9=110/2;
 6/7=2,8=2,9=2,10=2,19=2,28=1/1;
 99/9=1/99;
 -------------------
 Title Card Required
 -------------------
 Symbolic Z-matrix:
 Charge =  0 Multiplicity = 1
 C                     4.28713  -0.46774   0.45019 
 C                     3.37898   0.5767    0.25815 
 C                     2.03425   0.29631  -0.0265 
 C                     1.60925  -1.0492   -0.11439 
 C                     2.53407  -2.08837   0.07639 
 C                     3.86872  -1.79996   0.35948 
 H                     5.33291  -0.24072   0.67253 
 H                     3.73545   1.60524   0.33716 
 H                     2.19661  -3.12616   0.00216 
 H                     4.58444  -2.60951   0.50964 
 C                     0.19442  -1.38851  -0.40984 
 C                     1.03218   1.34461  -0.23591 
 C                    -0.84973  -0.27643  -0.36167 
 C                    -0.27877   1.10603  -0.38708 
 H                    -1.01097   1.90716  -0.52638 
 O                    -0.14653  -2.52798  -0.68064 
 Cl                    1.60605   2.97485  -0.29564 
 C                    -4.10899   0.00064   0.23412 
 C                    -2.96761   0.36444   0.84278 
 H                    -2.88504   1.32841   1.34334 
 C                    -5.3041    0.90216   0.22797 
 H                    -6.1334    0.46849   0.80593 
 H                    -5.10086   1.89214   0.65684 
 H                    -5.68013   1.06574  -0.79213 
 C                    -4.28803  -1.29901  -0.48313 
 H                    -4.098    -1.18155  -1.56057 
 H                    -3.60405  -2.08042  -0.12194 
 H                    -5.30754  -1.69482  -0.38201 
 C                    -1.72901  -0.47316   0.90134 
 H                    -1.13849  -0.22488   1.80706 
 H                    -1.99008  -1.55071   0.99831 
 H                    -1.50793  -0.39818  -1.27038 
 

 GradGradGradGradGradGradGradGradGradGradGradGradGradGradGradGradGradGrad
 Berny optimization.
 Initialization pass.
                           ----------------------------
                           !    Initial Parameters    !
                           ! (Angstroms and Degrees)  !
 --------------------------                            --------------------------
 ! Name  Definition              Value          Derivative Info.                !
 --------------------------------------------------------------------------------
 ! R1    R(1,2)                  1.3973         estimate D2E/DX2                !
 ! R2    R(1,6)                  1.3993         estimate D2E/DX2                !
 ! R3    R(1,7)                  1.093          estimate D2E/DX2                !
 ! R4    R(2,3)                  1.4028         estimate D2E/DX2                !
 ! R5    R(2,8)                  1.0914         estimate D2E/DX2                !
 ! R6    R(3,4)                  1.4138         estimate D2E/DX2                !
 ! R7    R(3,12)                 1.4652         estimate D2E/DX2                !
 ! R8    R(4,5)                  1.4041         estimate D2E/DX2                !
 ! R9    R(4,11)                 1.4846         estimate D2E/DX2                !
 ! R10   R(5,6)                  1.3945         estimate D2E/DX2                !
 ! R11   R(5,9)                  1.0938         estimate D2E/DX2                !
 ! R12   R(6,10)                 1.0909         estimate D2E/DX2                !
 ! R13   R(11,13)                1.5262         estimate D2E/DX2                !
 ! R14   R(11,16)                1.2198         estimate D2E/DX2                !
 ! R15   R(12,14)                1.341          estimate D2E/DX2                !
 ! R16   R(12,17)                1.7293         estimate D2E/DX2                !
 ! R17   R(13,14)                1.4959         estimate D2E/DX2                !
 ! R18   R(13,29)                1.5515         estimate D2E/DX2                !
 ! R19   R(13,32)                1.1286         estimate D2E/DX2                !
 ! R20   R(14,15)                1.0942         estimate D2E/DX2                !
 ! R21   R(18,19)                1.3437         estimate D2E/DX2                !
 ! R22   R(18,21)                1.497          estimate D2E/DX2                !
 ! R23   R(18,25)                1.4952         estimate D2E/DX2                !
 ! R24   R(19,20)                1.0893         estimate D2E/DX2                !
 ! R25   R(19,29)                1.4964         estimate D2E/DX2                !
 ! R26   R(21,22)                1.0999         estimate D2E/DX2                !
 ! R27   R(21,23)                1.0979         estimate D2E/DX2                !
 ! R28   R(21,24)                1.0994         estimate D2E/DX2                !
 ! R29   R(25,26)                1.1004         estimate D2E/DX2                !
 ! R30   R(25,27)                1.0995         estimate D2E/DX2                !
 ! R31   R(25,28)                1.0983         estimate D2E/DX2                !
 ! R32   R(29,30)                1.1094         estimate D2E/DX2                !
 ! R33   R(29,31)                1.113          estimate D2E/DX2                !
 ! A1    A(2,1,6)              120.5553         estimate D2E/DX2                !
 ! A2    A(2,1,7)              119.6413         estimate D2E/DX2                !
 ! A3    A(6,1,7)              119.8035         estimate D2E/DX2                !
 ! A4    A(1,2,3)              120.0996         estimate D2E/DX2                !
 ! A5    A(1,2,8)              118.8272         estimate D2E/DX2                !
 ! A6    A(3,2,8)              121.0729         estimate D2E/DX2                !
 ! A7    A(2,3,4)              119.4064         estimate D2E/DX2                !
 ! A8    A(2,3,12)             122.7909         estimate D2E/DX2                !
 ! A9    A(4,3,12)             117.8023         estimate D2E/DX2                !
 ! A10   A(3,4,5)              119.8613         estimate D2E/DX2                !
 ! A11   A(3,4,11)             121.0886         estimate D2E/DX2                !
 ! A12   A(5,4,11)             119.0499         estimate D2E/DX2                !
 ! A13   A(4,5,6)              120.3249         estimate D2E/DX2                !
 ! A14   A(4,5,9)              119.325          estimate D2E/DX2                !
 ! A15   A(6,5,9)              120.3501         estimate D2E/DX2                !
 ! A16   A(1,6,5)              119.7516         estimate D2E/DX2                !
 ! A17   A(1,6,10)             120.0915         estimate D2E/DX2                !
 ! A18   A(5,6,10)             120.1569         estimate D2E/DX2                !
 ! A19   A(4,11,13)            118.6307         estimate D2E/DX2                !
 ! A20   A(4,11,16)            121.6029         estimate D2E/DX2                !
 ! A21   A(13,11,16)           119.7653         estimate D2E/DX2                !
 ! A22   A(3,12,14)            123.875          estimate D2E/DX2                !
 ! A23   A(3,12,17)            116.9001         estimate D2E/DX2                !
 ! A24   A(14,12,17)           119.224          estimate D2E/DX2                !
 ! A25   A(11,13,14)           114.3135         estimate D2E/DX2                !
 ! A26   A(11,13,29)           108.7253         estimate D2E/DX2                !
 ! A27   A(11,13,32)           107.1558         estimate D2E/DX2                !
 ! A28   A(14,13,29)           110.3239         estimate D2E/DX2                !
 ! A29   A(14,13,32)           107.9746         estimate D2E/DX2                !
 ! A30   A(29,13,32)           108.1348         estimate D2E/DX2                !
 ! A31   A(12,14,13)           122.3853         estimate D2E/DX2                !
 ! A32   A(12,14,15)           122.5634         estimate D2E/DX2                !
 ! A33   A(13,14,15)           115.0477         estimate D2E/DX2                !
 ! A34   A(19,18,21)           121.1265         estimate D2E/DX2                !
 ! A35   A(19,18,25)           123.6654         estimate D2E/DX2                !
 ! A36   A(21,18,25)           115.207          estimate D2E/DX2                !
 ! A37   A(18,19,20)           120.8056         estimate D2E/DX2                !
 ! A38   A(18,19,29)           124.6998         estimate D2E/DX2                !
 ! A39   A(20,19,29)           114.4946         estimate D2E/DX2                !
 ! A40   A(18,21,22)           111.2422         estimate D2E/DX2                !
 ! A41   A(18,21,23)           113.1815         estimate D2E/DX2                !
 ! A42   A(18,21,24)           111.4974         estimate D2E/DX2                !
 ! A43   A(22,21,23)           106.8484         estimate D2E/DX2                !
 ! A44   A(22,21,24)           106.7574         estimate D2E/DX2                !
 ! A45   A(23,21,24)           106.954          estimate D2E/DX2                !
 ! A46   A(18,25,26)           110.8702         estimate D2E/DX2                !
 ! A47   A(18,25,27)           112.6856         estimate D2E/DX2                !
 ! A48   A(18,25,28)           112.3488         estimate D2E/DX2                !
 ! A49   A(26,25,27)           106.8632         estimate D2E/DX2                !
 ! A50   A(26,25,28)           106.7936         estimate D2E/DX2                !
 ! A51   A(27,25,28)           106.9231         estimate D2E/DX2                !
 ! A52   A(13,29,19)           111.4859         estimate D2E/DX2                !
 ! A53   A(13,29,30)           109.5469         estimate D2E/DX2                !
 ! A54   A(13,29,31)           109.065          estimate D2E/DX2                !
 ! A55   A(19,29,30)           110.3216         estimate D2E/DX2                !
 ! A56   A(19,29,31)           110.5597         estimate D2E/DX2                !
 ! A57   A(30,29,31)           105.6895         estimate D2E/DX2                !
 ! D1    D(6,1,2,3)              0.0904         estimate D2E/DX2                !
 ! D2    D(6,1,2,8)            179.8908         estimate D2E/DX2                !
 ! D3    D(7,1,2,3)           -179.9421         estimate D2E/DX2                !
 ! D4    D(7,1,2,8)             -0.1417         estimate D2E/DX2                !
 ! D5    D(2,1,6,5)             -0.0638         estimate D2E/DX2                !
 ! D6    D(2,1,6,10)           179.9284         estimate D2E/DX2                !
 ! D7    D(7,1,6,5)            179.9687         estimate D2E/DX2                !
 ! D8    D(7,1,6,10)            -0.0391         estimate D2E/DX2                !
 ! D9    D(1,2,3,4)              0.1034         estimate D2E/DX2                !
 ! D10   D(1,2,3,12)           179.8859         estimate D2E/DX2                !
 ! D11   D(8,2,3,4)           -179.6925         estimate D2E/DX2                !
 ! D12   D(8,2,3,12)             0.0899         estimate D2E/DX2                !
 ! D13   D(2,3,4,5)             -0.3229         estimate D2E/DX2                !
 ! D14   D(2,3,4,11)           179.8254         estimate D2E/DX2                !
 ! D15   D(12,3,4,5)           179.8838         estimate D2E/DX2                !
 ! D16   D(12,3,4,11)            0.0321         estimate D2E/DX2                !
 ! D17   D(2,3,12,14)         -173.6306         estimate D2E/DX2                !
 ! D18   D(2,3,12,17)            6.7203         estimate D2E/DX2                !
 ! D19   D(4,3,12,14)            6.1551         estimate D2E/DX2                !
 ! D20   D(4,3,12,17)         -173.494          estimate D2E/DX2                !
 ! D21   D(3,4,5,6)              0.3522         estimate D2E/DX2                !
 ! D22   D(3,4,5,9)           -179.7383         estimate D2E/DX2                !
 ! D23   D(11,4,5,6)          -179.7931         estimate D2E/DX2                !
 ! D24   D(11,4,5,9)             0.1165         estimate D2E/DX2                !
 ! D25   D(3,4,11,13)          -11.2574         estimate D2E/DX2                !
 ! D26   D(3,4,11,16)          169.1202         estimate D2E/DX2                !
 ! D27   D(5,4,11,13)          168.8898         estimate D2E/DX2                !
 ! D28   D(5,4,11,16)          -10.7327         estimate D2E/DX2                !
 ! D29   D(4,5,6,1)             -0.1585         estimate D2E/DX2                !
 ! D30   D(4,5,6,10)           179.8493         estimate D2E/DX2                !
 ! D31   D(9,5,6,1)            179.9328         estimate D2E/DX2                !
 ! D32   D(9,5,6,10)            -0.0594         estimate D2E/DX2                !
 ! D33   D(4,11,13,14)          16.014          estimate D2E/DX2                !
 ! D34   D(4,11,13,29)        -107.7368         estimate D2E/DX2                !
 ! D35   D(4,11,13,32)         135.6095         estimate D2E/DX2                !
 ! D36   D(16,11,13,14)       -164.3564         estimate D2E/DX2                !
 ! D37   D(16,11,13,29)         71.8928         estimate D2E/DX2                !
 ! D38   D(16,11,13,32)        -44.761          estimate D2E/DX2                !
 ! D39   D(3,12,14,13)          -0.28           estimate D2E/DX2                !
 ! D40   D(3,12,14,15)         178.9926         estimate D2E/DX2                !
 ! D41   D(17,12,14,13)        179.3614         estimate D2E/DX2                !
 ! D42   D(17,12,14,15)         -1.366          estimate D2E/DX2                !
 ! D43   D(11,13,14,12)        -10.7216         estimate D2E/DX2                !
 ! D44   D(11,13,14,15)        169.9551         estimate D2E/DX2                !
 ! D45   D(29,13,14,12)        112.1668         estimate D2E/DX2                !
 ! D46   D(29,13,14,15)        -67.1565         estimate D2E/DX2                !
 ! D47   D(32,13,14,12)       -129.8565         estimate D2E/DX2                !
 ! D48   D(32,13,14,15)         50.8203         estimate D2E/DX2                !
 ! D49   D(11,13,29,19)       -166.0711         estimate D2E/DX2                !
 ! D50   D(11,13,29,30)         71.5305         estimate D2E/DX2                !
 ! D51   D(11,13,29,31)        -43.7035         estimate D2E/DX2                !
 ! D52   D(14,13,29,19)         67.8318         estimate D2E/DX2                !
 ! D53   D(14,13,29,30)        -54.5666         estimate D2E/DX2                !
 ! D54   D(14,13,29,31)       -169.8006         estimate D2E/DX2                !
 ! D55   D(32,13,29,19)        -50.0464         estimate D2E/DX2                !
 ! D56   D(32,13,29,30)       -172.4448         estimate D2E/DX2                !
 ! D57   D(32,13,29,31)         72.3212         estimate D2E/DX2                !
 ! D58   D(21,18,19,20)         -0.2567         estimate D2E/DX2                !
 ! D59   D(21,18,19,29)        179.8187         estimate D2E/DX2                !
 ! D60   D(25,18,19,20)        179.3423         estimate D2E/DX2                !
 ! D61   D(25,18,19,29)         -0.5822         estimate D2E/DX2                !
 ! D62   D(19,18,21,22)       -113.7925         estimate D2E/DX2                !
 ! D63   D(19,18,21,23)          6.5215         estimate D2E/DX2                !
 ! D64   D(19,18,21,24)        127.158          estimate D2E/DX2                !
 ! D65   D(25,18,21,22)         66.5763         estimate D2E/DX2                !
 ! D66   D(25,18,21,23)       -173.1097         estimate D2E/DX2                !
 ! D67   D(25,18,21,24)        -52.4732         estimate D2E/DX2                !
 ! D68   D(19,18,25,26)        -95.1977         estimate D2E/DX2                !
 ! D69   D(19,18,25,27)         24.529          estimate D2E/DX2                !
 ! D70   D(19,18,25,28)        145.3911         estimate D2E/DX2                !
 ! D71   D(21,18,25,26)         84.4229         estimate D2E/DX2                !
 ! D72   D(21,18,25,27)       -155.8504         estimate D2E/DX2                !
 ! D73   D(21,18,25,28)        -34.9882         estimate D2E/DX2                !
 ! D74   D(18,19,29,13)         85.3871         estimate D2E/DX2                !
 ! D75   D(18,19,29,30)       -152.661          estimate D2E/DX2                !
 ! D76   D(18,19,29,31)        -36.1165         estimate D2E/DX2                !
 ! D77   D(20,19,29,13)        -94.5417         estimate D2E/DX2                !
 ! D78   D(20,19,29,30)         27.4102         estimate D2E/DX2                !
 ! D79   D(20,19,29,31)        143.9547         estimate D2E/DX2                !
 --------------------------------------------------------------------------------
 Trust Radius=3.00D-01 FncErr=1.00D-07 GrdErr=1.00D-06
 Number of steps in this run=    179 maximum allowed number of steps=    192.
 GradGradGradGradGradGradGradGradGradGradGradGradGradGradGradGradGradGrad

                          Input orientation:                          
 ---------------------------------------------------------------------
 Center     Atomic      Atomic             Coordinates (Angstroms)
 Number     Number       Type             X           Y           Z
 ---------------------------------------------------------------------
      1          6           0        4.287134   -0.467740    0.450187
      2          6           0        3.378975    0.576696    0.258147
      3          6           0        2.034254    0.296312   -0.026498
      4          6           0        1.609249   -1.049198   -0.114388
      5          6           0        2.534070   -2.088365    0.076391
      6          6           0        3.868718   -1.799959    0.359479
      7          1           0        5.332907   -0.240724    0.672534
      8          1           0        3.735447    1.605237    0.337158
      9          1           0        2.196613   -3.126163    0.002161
     10          1           0        4.584437   -2.609505    0.509636
     11          6           0        0.194416   -1.388507   -0.409840
     12          6           0        1.032175    1.344613   -0.235907
     13          6           0       -0.849727   -0.276427   -0.361668
     14          6           0       -0.278770    1.106030   -0.387084
     15          1           0       -1.010968    1.907160   -0.526380
     16          8           0       -0.146531   -2.527984   -0.680639
     17         17           0        1.606046    2.974853   -0.295635
     18          6           0       -4.108992    0.000637    0.234120
     19          6           0       -2.967614    0.364440    0.842776
     20          1           0       -2.885038    1.328412    1.343341
     21          6           0       -5.304095    0.902161    0.227968
     22          1           0       -6.133404    0.468489    0.805925
     23          1           0       -5.100857    1.892135    0.656838
     24          1           0       -5.680126    1.065742   -0.792129
     25          6           0       -4.288034   -1.299007   -0.483130
     26          1           0       -4.098004   -1.181550   -1.560569
     27          1           0       -3.604045   -2.080416   -0.121944
     28          1           0       -5.307539   -1.694822   -0.382013
     29          6           0       -1.729005   -0.473161    0.901342
     30          1           0       -1.138487   -0.224882    1.807055
     31          1           0       -1.990082   -1.550711    0.998305
     32          1           0       -1.507934   -0.398175   -1.270382
 ---------------------------------------------------------------------
                    Distance matrix (angstroms):
                    1          2          3          4          5
     1  C    0.000000
     2  C    1.397311   0.000000
     3  C    2.426205   1.402823   0.000000
     4  C    2.797840   2.431922   1.413772   0.000000
     5  C    2.416481   2.801687   2.438665   1.404122   0.000000
     6  C    1.399324   2.428704   2.812221   2.427631   1.394490
     7  H    1.092985   2.158180   3.414406   3.890823   3.406267
     8  H    2.148108   1.091426   2.177059   3.430836   3.892814
     9  H    3.411483   3.895468   3.426444   2.161565   1.093806
    10  H    2.163118   3.415884   3.903158   3.416973   2.159466
    11  C    4.282266   3.801269   2.523999   1.484646   2.490021
    12  C    3.788153   2.518185   1.465247   2.465383   3.760127
    13  C    5.204138   4.358200   2.959344   2.589379   3.863301
    14  C    4.901556   3.751748   2.477044   2.878192   4.281476
    15  H    5.887590   4.653731   3.481105   3.971817   5.375393
    16  O    5.018043   4.790569   3.627723   2.364363   2.819926
    17  Cl   4.426729   3.033333   2.725872   4.028132   5.160989
    18  C    8.411955   7.510131   6.155877   5.824250   6.965564
    19  C    7.312867   6.376993   5.077299   4.884896   6.072242
    20  H    7.447411   6.401608   5.209714   5.289293   6.530410
    21  C    9.691114   8.689220   7.367711   7.191616   8.390653
    22  H   10.468557   9.528752   8.211773   7.943489   9.066136
    23  H    9.682256   8.590511   7.343256   7.366936   8.629798
    24  H   10.160767   9.132883   7.790370   7.620190   8.841704
    25  C    8.665771   7.927848   6.536427   5.914078   6.890374
    26  H    8.652352   7.893312   6.491690   5.889117   6.891035
    27  H    8.074575   7.481128   6.119507   5.314311   6.141324
    28  H    9.708555   9.001396   7.615309   6.952008   7.864849
    29  C    6.033034   5.254271   3.951594   3.536590   4.632843
    30  H    5.597985   4.842428   3.701330   3.452752   4.467151
    31  H    6.393489   5.822411   4.544997   3.800630   4.648328
    32  H    6.045495   5.212356   3.817939   3.387770   4.583485
                    6          7          8          9         10
     6  C    0.000000
     7  H    2.161728   0.000000
     8  H    3.407876   2.464128   0.000000
     9  H    2.163892   4.314105   4.986620   0.000000
    10  H    1.090947   2.489551   4.302858   2.495229   0.000000
    11  C    3.776459   5.375224   4.696745   2.682906   4.648500
    12  C    4.276540   4.672778   2.775609   4.626060   5.367443
    13  C    5.010482   6.268637   5.005281   4.187309   5.977672
    14  C    5.118963   5.867491   4.109461   4.918383   6.185474
    15  H    6.191834   6.804083   4.833768   5.991850   7.265132
    16  O    4.211186   6.089900   5.761005   2.512839   4.879084
    17  Cl   5.324255   5.016650   2.609717   6.136762   6.379994
    18  C    8.179347   9.455153   8.007533   7.042112   9.080994
    19  C    7.187046   8.324293   6.835660   6.289689   8.123349
    20  H    7.507857   8.393259   6.702228   6.889498   8.485005
    21  C    9.563433  10.707457   9.067500   8.516983  10.497343
    22  H   10.265847  11.488998   9.945158   9.108059  11.154997
    23  H    9.704291  10.649543   8.846738   8.880596  10.681355
    24  H   10.035879  11.186554   9.498387   8.958012  10.980131
    25  C    8.215446   9.747719   8.572267   6.754602   9.023510
    26  H    8.218131   9.737247   8.528218   6.770956   9.039335
    27  H    7.493505   9.158863   8.225750   5.895475   8.229828
    28  H    9.206767  10.790994   9.653144   7.649093   9.974110
    29  C    5.778279   7.069440   5.873523   4.822595   6.676597
    30  H    5.445039   6.570109   5.409729   4.774722   6.334160
    31  H    5.898793   7.446366   6.571058   4.582878   6.677136
    32  H    5.790495   7.113144   5.838740   4.773359   6.721267
                   11         12         13         14         15
    11  C    0.000000
    12  C    2.863920   0.000000
    13  C    1.526197   2.486995   0.000000
    14  C    2.539121   1.341027   1.495936   0.000000
    15  H    3.511119   2.138987   2.195719   1.094224   0.000000
    16  O    1.219830   4.072363   2.380281   3.648249   4.521233
    17  Cl   4.587445   1.729329   4.075046   2.655823   2.835837
    18  C    4.567683   5.334679   3.324836   4.034649   3.716308
    19  C    3.826265   4.257066   2.519294   3.048343   2.843068
    20  H    4.465236   4.223606   3.102427   3.136313   2.709787
    21  C    5.990625   6.368615   4.645227   5.066926   4.473254
    22  H    6.705805   7.293732   5.462181   6.008866   5.484903
    23  H    6.319836   6.221805   4.879767   4.996024   4.257631
    24  H    6.378066   6.741078   5.031845   5.416672   4.751804
    25  C    4.483942   5.945962   3.589203   4.676283   4.584816
    26  H    4.448806   5.869835   3.578815   4.603981   4.487702
    27  H    3.871683   5.765271   3.301229   4.613154   4.773718
    28  H    5.510546   7.032175   4.678071   5.756155   5.608533
    29  C    2.501321   3.495962   1.551460   2.501413   2.867036
    30  H    2.836420   3.368795   2.188469   2.706416   3.163350
    31  H    2.604076   4.363510   2.184888   3.450531   3.903870
    32  H    2.149252   3.249554   1.128636   2.133938   2.472870
                   16         17         18         19         20
    16  O    0.000000
    17  Cl   5.788002   0.000000
    18  C    4.788716   6.464384   0.000000
    19  C    4.318034   5.387820   1.343711   0.000000
    20  H    5.144677   5.056367   2.119297   1.089324   0.000000
    21  C    6.260346   7.233275   1.497015   2.475132   2.697700
    22  H    6.857942   8.209408   2.155015   3.167714   3.402964
    23  H    6.772861   6.860177   2.177212   2.630428   2.387242
    24  H    6.599089   7.548478   2.157799   3.243834   3.527286
    25  C    4.324516   7.282940   1.495185   2.503716   3.493955
    26  H    4.266298   7.170211   2.149092   3.073098   4.025405
    27  H    3.530844   7.261609   2.170837   2.704265   3.779436
    28  H    5.236348   8.343320   2.165806   3.349017   4.240908
    29  C    3.037957   4.944099   2.516745   1.496382   2.185736
    30  H    3.532262   4.710846   3.368810   2.150079   2.382896
    31  H    2.678170   5.923440   2.735039   2.155820   3.034690
    32  H    2.595631   4.693008   3.031185   2.679120   3.421851
                   21         22         23         24         25
    21  C    0.000000
    22  H    1.099936   0.000000
    23  H    1.097854   1.764978   0.000000
    24  H    1.099434   1.765205   1.765781   0.000000
    25  C    2.526496   2.862009   3.484766   2.761420   0.000000
    26  H    2.999229   3.530691   3.920478   2.853757   1.100356
    27  H    3.450851   3.708843   4.316029   3.828521   1.099498
    28  H    2.667660   2.602530   3.740079   2.815622   1.098310
    29  C    3.889243   4.504946   4.125990   4.565898   3.024469
    30  H    4.595218   5.141228   4.637363   5.389615   4.039596
    31  H    4.194363   4.613165   4.652602   4.864967   2.745649
    32  H    4.283312   5.143649   4.676408   4.447355   3.026586
                   26         27         28         29         30
    26  H    0.000000
    27  H    1.766804   0.000000
    28  H    1.765054   1.765846   0.000000
    29  C    3.489266   2.673230   3.993164   0.000000
    30  H    4.584195   3.639096   4.932924   1.109356   0.000000
    31  H    3.335783   2.034803   3.596049   1.112959   1.771190
    32  H    2.721461   2.922760   4.111872   2.184235   3.104374
                   31         32
    31  H    0.000000
    32  H    2.589932   0.000000
 Stoichiometry    C15H15ClO
 Framework group  C1[X(C15H15ClO)]
 Deg. of freedom    90
 Full point group                 C1      NOp   1
 Largest Abelian subgroup         C1      NOp   1
 Largest concise Abelian subgroup C1      NOp   1
                         Standard orientation:                         
 ---------------------------------------------------------------------
 Center     Atomic      Atomic             Coordinates (Angstroms)
 Number     Number       Type             X           Y           Z
 ---------------------------------------------------------------------
      1          6           0        4.287134   -0.467740    0.450187
      2          6           0        3.378975    0.576696    0.258147
      3          6           0        2.034254    0.296312   -0.026498
      4          6           0        1.609249   -1.049198   -0.114388
      5          6           0        2.534070   -2.088365    0.076391
      6          6           0        3.868718   -1.799959    0.359479
      7          1           0        5.332907   -0.240724    0.672534
      8          1           0        3.735447    1.605237    0.337158
      9          1           0        2.196613   -3.126163    0.002161
     10          1           0        4.584437   -2.609505    0.509636
     11          6           0        0.194416   -1.388507   -0.409840
     12          6           0        1.032175    1.344613   -0.235907
     13          6           0       -0.849727   -0.276427   -0.361668
     14          6           0       -0.278770    1.106030   -0.387084
     15          1           0       -1.010968    1.907160   -0.526380
     16          8           0       -0.146531   -2.527984   -0.680639
     17         17           0        1.606046    2.974853   -0.295635
     18          6           0       -4.108992    0.000637    0.234120
     19          6           0       -2.967614    0.364440    0.842776
     20          1           0       -2.885038    1.328412    1.343341
     21          6           0       -5.304095    0.902161    0.227968
     22          1           0       -6.133404    0.468489    0.805925
     23          1           0       -5.100857    1.892135    0.656838
     24          1           0       -5.680126    1.065742   -0.792129
     25          6           0       -4.288034   -1.299007   -0.483130
     26          1           0       -4.098004   -1.181550   -1.560569
     27          1           0       -3.604045   -2.080416   -0.121944
     28          1           0       -5.307539   -1.694822   -0.382013
     29          6           0       -1.729005   -0.473161    0.901342
     30          1           0       -1.138487   -0.224882    1.807055
     31          1           0       -1.990082   -1.550711    0.998305
     32          1           0       -1.507934   -0.398175   -1.270382
 ---------------------------------------------------------------------
 Rotational constants (GHZ):      0.7056928      0.2518705      0.1937340
 Standard basis: 6-31+G(d,p) (6D, 7F)
 There are   402 symmetry adapted cartesian basis functions of A   symmetry.
 There are   402 symmetry adapted basis functions of A   symmetry.
   402 basis functions,   673 primitive gaussians,   402 cartesian basis functions
    65 alpha electrons       65 beta electrons
       nuclear repulsion energy      1237.7538031482 Hartrees.
 NAtoms=   32 NActive=   32 NUniq=   32 SFac= 1.00D+00 NAtFMM=   60 NAOKFM=F Big=F
 Integral buffers will be    131072 words long.
 Raffenetti 2 integral format.
 Two-electron integral symmetry is turned on.
 Nuclear repulsion after empirical dispersion term =     1237.7223540591 Hartrees.
 ------------------------------------------------------------------------------
 Polarizable Continuum Model (PCM)
 =================================
 Model                : C-PCM.
 Atomic radii         : UFF (Universal Force Field).
 Polarization charges : Total charges.
 Charge compensation  : None.
 Solution method      : On-the-fly selection.
 Cavity type          : Scaled VdW (van der Waals Surface) (Alpha=1.100).
 Cavity algorithm     : GePol (No added spheres)
                        Default sphere list used, NSphG=   32.
                        Lebedev-Laikov grids with approx.  5.0 points / Ang**2.
                        Smoothing algorithm: Karplus/York (Gamma=1.0000).
                        Polarization charges: spherical gaussians, with
                                              point-specific exponents (IZeta= 3).
                        Self-potential: point-specific (ISelfS= 7).
                        Self-field    : sphere-specific E.n sum rule (ISelfD= 2).
 1st derivatives      : Analytical E(r).r(x)/FMM algorithm (CHGder, D1EAlg=3).
                        Cavity 1st derivative terms included.
 Solvent              : Water, Eps=  78.355300 Eps(inf)=   1.777849
 ------------------------------------------------------------------------------
 One-electron integrals computed using PRISM.
 NBasis=   402 RedAO= T EigKep=  1.00D-06  NBF=   402
 NBsUse=   400 1.00D-06 EigRej=  9.11D-07 NBFU=   400
 ExpMin= 4.38D-02 ExpMax= 2.52D+04 ExpMxC= 3.78D+03 IAcc=2 IRadAn=         4 AccDes= 0.00D+00
 Harris functional with IExCor=  402 and IRadAn=       4 diagonalized for initial guess.
 HarFok:  IExCor=  402 AccDes= 0.00D+00 IRadAn=         4 IDoV= 1 UseB2=F ITyADJ=14
 ICtDFT=  3500011 ScaDFX=  1.000000  1.000000  1.000000  1.000000
 FoFCou: FMM=F IPFlag=           0 FMFlag=      100000 FMFlg1=           0
         NFxFlg=           0 DoJE=T BraDBF=F KetDBF=T FulRan=T
         wScrn=  0.000000 ICntrl=     500 IOpCl=  0 I1Cent=   200000004 NGrid=           0
         NMat0=    1 NMatS0=      1 NMatT0=    0 NMatD0=    1 NMtDS0=    0 NMtDT0=    0
 Petite list used in FoFCou.
 Requested convergence on RMS density matrix=1.00D-08 within 128 cycles.
 Requested convergence on MAX density matrix=1.00D-06.
 Requested convergence on             energy=1.00D-06.
 No special actions if energy rises.
 Inv3:  Mode=1 IEnd=    17308812.
 Iteration    1 A*A^-1 deviation from unit magnitude is 5.77D-15 for   2374.
 Iteration    1 A*A^-1 deviation from orthogonality  is 1.81D-15 for   2180   1389.
 Iteration    1 A^-1*A deviation from unit magnitude is 5.77D-15 for   2374.
 Iteration    1 A^-1*A deviation from orthogonality  is 2.05D-15 for   1891    869.
 Error on total polarization charges =  0.02164
 SCF Done:  E(RB3LYP) =  -1116.11426260     A.U. after   15 cycles
            NFock= 15  Conv=0.88D-08     -V/T= 2.0070

 **********************************************************************

            Population analysis using the SCF density.

 **********************************************************************

 Orbital symmetries:
       Occupied  (A) (A) (A) (A) (A) (A) (A) (A) (A) (A) (A) (A)
                 (A) (A) (A) (A) (A) (A) (A) (A) (A) (A) (A) (A)
                 (A) (A) (A) (A) (A) (A) (A) (A) (A) (A) (A) (A)
                 (A) (A) (A) (A) (A) (A) (A) (A) (A) (A) (A) (A)
                 (A) (A) (A) (A) (A) (A) (A) (A) (A) (A) (A) (A)
                 (A) (A) (A) (A) (A)
       Virtual   (A) (A) (A) (A) (A) (A) (A) (A) (A) (A) (A) (A)
                 (A) (A) (A) (A) (A) (A) (A) (A) (A) (A) (A) (A)
                 (A) (A) (A) (A) (A) (A) (A) (A) (A) (A) (A) (A)
                 (A) (A) (A) (A) (A) (A) (A) (A) (A) (A) (A) (A)
                 (A) (A) (A) (A) (A) (A) (A) (A) (A) (A) (A) (A)
                 (A) (A) (A) (A) (A) (A) (A) (A) (A) (A) (A) (A)
                 (A) (A) (A) (A) (A) (A) (A) (A) (A) (A) (A) (A)
                 (A) (A) (A) (A) (A) (A) (A) (A) (A) (A) (A) (A)
                 (A) (A) (A) (A) (A) (A) (A) (A) (A) (A) (A) (A)
                 (A) (A) (A) (A) (A) (A) (A) (A) (A) (A) (A) (A)
                 (A) (A) (A) (A) (A) (A) (A) (A) (A) (A) (A) (A)
                 (A) (A) (A) (A) (A) (A) (A) (A) (A) (A) (A) (A)
                 (A) (A) (A) (A) (A) (A) (A) (A) (A) (A) (A) (A)
                 (A) (A) (A) (A) (A) (A) (A) (A) (A) (A) (A) (A)
                 (A) (A) (A) (A) (A) (A) (A) (A) (A) (A) (A) (A)
                 (A) (A) (A) (A) (A) (A) (A) (A) (A) (A) (A) (A)
                 (A) (A) (A) (A) (A) (A) (A) (A) (A) (A) (A) (A)
                 (A) (A) (A) (A) (A) (A) (A) (A) (A) (A) (A) (A)
                 (A) (A) (A) (A) (A) (A) (A) (A) (A) (A) (A) (A)
                 (A) (A) (A) (A) (A) (A) (A) (A) (A) (A) (A) (A)
                 (A) (A) (A) (A) (A) (A) (A) (A) (A) (A) (A) (A)
                 (A) (A) (A) (A) (A) (A) (A) (A) (A) (A) (A) (A)
                 (A) (A) (A) (A) (A) (A) (A) (A) (A) (A) (A) (A)
                 (A) (A) (A) (A) (A) (A) (A) (A) (A) (A) (A) (A)
                 (A) (A) (A) (A) (A) (A) (A) (A) (A) (A) (A) (A)
                 (A) (A) (A) (A) (A) (A) (A) (A) (A) (A) (A) (A)
                 (A) (A) (A) (A) (A) (A) (A) (A) (A) (A) (A) (A)
                 (A) (A) (A) (A) (A) (A) (A) (A) (A) (A) (A)
 The electronic state is 1-A.
 Alpha  occ. eigenvalues -- -101.56388 -19.15868 -10.29241 -10.26488 -10.23482
 Alpha  occ. eigenvalues --  -10.22067 -10.21927 -10.21660 -10.21635 -10.21525
 Alpha  occ. eigenvalues --  -10.21279 -10.21083 -10.20424 -10.20129 -10.18360
 Alpha  occ. eigenvalues --  -10.18347 -10.18182  -9.47950  -7.24335  -7.23394
 Alpha  occ. eigenvalues --   -7.23358  -1.06068  -0.91299  -0.87115  -0.84245
 Alpha  occ. eigenvalues --   -0.81447  -0.77949  -0.77242  -0.74066  -0.70259
 Alpha  occ. eigenvalues --   -0.69573  -0.65228  -0.64070  -0.61908  -0.58840
 Alpha  occ. eigenvalues --   -0.53879  -0.52989  -0.51480  -0.50690  -0.48312
 Alpha  occ. eigenvalues --   -0.46481  -0.45876  -0.45704  -0.44683  -0.44377
 Alpha  occ. eigenvalues --   -0.43839  -0.42900  -0.41969  -0.41116  -0.39986
 Alpha  occ. eigenvalues --   -0.39046  -0.38906  -0.37819  -0.37190  -0.36890
 Alpha  occ. eigenvalues --   -0.36044  -0.35949  -0.34970  -0.33421  -0.32391
 Alpha  occ. eigenvalues --   -0.29735  -0.27519  -0.27070  -0.24707  -0.23632
 Alpha virt. eigenvalues --   -0.08457  -0.05063  -0.00229   0.00306   0.00679
 Alpha virt. eigenvalues --    0.01368   0.01516   0.01937   0.02331   0.02682
 Alpha virt. eigenvalues --    0.02998   0.03497   0.04224   0.04713   0.05025
 Alpha virt. eigenvalues --    0.05381   0.05731   0.06146   0.06875   0.07176
 Alpha virt. eigenvalues --    0.07309   0.07798   0.09006   0.09191   0.09375
 Alpha virt. eigenvalues --    0.09591   0.10345   0.10582   0.10906   0.11166
 Alpha virt. eigenvalues --    0.12090   0.12180   0.12808   0.13531   0.13714
 Alpha virt. eigenvalues --    0.14080   0.14455   0.14886   0.15332   0.15584
 Alpha virt. eigenvalues --    0.15964   0.16274   0.16581   0.16798   0.17726
 Alpha virt. eigenvalues --    0.17937   0.18442   0.18832   0.19327   0.19582
 Alpha virt. eigenvalues --    0.19859   0.20039   0.20607   0.20847   0.21361
 Alpha virt. eigenvalues --    0.21663   0.22228   0.22289   0.22870   0.23035
 Alpha virt. eigenvalues --    0.23443   0.23632   0.24081   0.24270   0.24606
 Alpha virt. eigenvalues --    0.25255   0.25390   0.26036   0.26090   0.26584
 Alpha virt. eigenvalues --    0.27097   0.27187   0.27758   0.27974   0.28684
 Alpha virt. eigenvalues --    0.28940   0.29189   0.29253   0.30296   0.30487
 Alpha virt. eigenvalues --    0.30915   0.31618   0.31792   0.32589   0.33195
 Alpha virt. eigenvalues --    0.33496   0.34024   0.34399   0.34768   0.35656
 Alpha virt. eigenvalues --    0.36505   0.37141   0.38018   0.39231   0.40221
 Alpha virt. eigenvalues --    0.41883   0.42344   0.44204   0.45551   0.46843
 Alpha virt. eigenvalues --    0.48121   0.49041   0.50218   0.56139   0.58678
 Alpha virt. eigenvalues --    0.61008   0.61876   0.63114   0.65256   0.65727
 Alpha virt. eigenvalues --    0.66172   0.67249   0.67612   0.68462   0.68716
 Alpha virt. eigenvalues --    0.69082   0.69664   0.70223   0.71141   0.71705
 Alpha virt. eigenvalues --    0.72873   0.73214   0.73910   0.74032   0.74390
 Alpha virt. eigenvalues --    0.74922   0.75612   0.76280   0.77672   0.77872
 Alpha virt. eigenvalues --    0.79144   0.79715   0.81174   0.81964   0.82687
 Alpha virt. eigenvalues --    0.83150   0.84245   0.85351   0.85810   0.86762
 Alpha virt. eigenvalues --    0.88373   0.88594   0.88989   0.90415   0.91984
 Alpha virt. eigenvalues --    0.92212   0.92622   0.94568   0.95210   0.95871
 Alpha virt. eigenvalues --    0.96936   0.98744   0.99709   1.00451   1.00986
 Alpha virt. eigenvalues --    1.01438   1.01966   1.03918   1.05071   1.06021
 Alpha virt. eigenvalues --    1.09270   1.09988   1.11051   1.11420   1.12311
 Alpha virt. eigenvalues --    1.13476   1.13725   1.14733   1.15094   1.16012
 Alpha virt. eigenvalues --    1.18407   1.20227   1.21168   1.21479   1.23353
 Alpha virt. eigenvalues --    1.24531   1.26556   1.26968   1.27967   1.29464
 Alpha virt. eigenvalues --    1.32354   1.33772   1.34199   1.34395   1.35767
 Alpha virt. eigenvalues --    1.36105   1.36865   1.38521   1.39661   1.39768
 Alpha virt. eigenvalues --    1.41168   1.43235   1.45078   1.46362   1.47827
 Alpha virt. eigenvalues --    1.48361   1.49813   1.53255   1.54170   1.55708
 Alpha virt. eigenvalues --    1.63344   1.67220   1.71092   1.71449   1.73044
 Alpha virt. eigenvalues --    1.73075   1.74256   1.76430   1.79255   1.80792
 Alpha virt. eigenvalues --    1.81940   1.82402   1.83853   1.85396   1.86327
 Alpha virt. eigenvalues --    1.87977   1.88503   1.89747   1.90157   1.92307
 Alpha virt. eigenvalues --    1.92616   1.94695   1.96012   1.97441   1.98982
 Alpha virt. eigenvalues --    1.99699   2.00273   2.01752   2.02457   2.03434
 Alpha virt. eigenvalues --    2.04255   2.04989   2.05825   2.06566   2.07294
 Alpha virt. eigenvalues --    2.10260   2.11135   2.12369   2.14350   2.15351
 Alpha virt. eigenvalues --    2.15693   2.16918   2.19983   2.22319   2.23579
 Alpha virt. eigenvalues --    2.25036   2.26622   2.28019   2.28652   2.31659
 Alpha virt. eigenvalues --    2.33224   2.33874   2.34655   2.36240   2.37442
 Alpha virt. eigenvalues --    2.40491   2.41153   2.42188   2.44559   2.45872
 Alpha virt. eigenvalues --    2.46610   2.47425   2.47974   2.50964   2.51730
 Alpha virt. eigenvalues --    2.53648   2.55086   2.55696   2.56170   2.57648
 Alpha virt. eigenvalues --    2.57753   2.58710   2.60425   2.63976   2.64563
 Alpha virt. eigenvalues --    2.65624   2.66882   2.67592   2.69954   2.70494
 Alpha virt. eigenvalues --    2.71843   2.72829   2.74261   2.76086   2.78108
 Alpha virt. eigenvalues --    2.79057   2.82579   2.84382   2.85426   2.86887
 Alpha virt. eigenvalues --    2.88427   2.90970   2.91776   2.93293   2.98638
 Alpha virt. eigenvalues --    3.03150   3.05572   3.09815   3.12273   3.13588
 Alpha virt. eigenvalues --    3.19750   3.23385   3.24583   3.25125   3.26386
 Alpha virt. eigenvalues --    3.32635   3.32979   3.36435   3.39652   3.43612
 Alpha virt. eigenvalues --    3.45926   3.46907   3.47830   3.48182   3.51114
 Alpha virt. eigenvalues --    3.53125   3.57433   3.83417   4.24774   4.29017
 Alpha virt. eigenvalues --    4.32455   4.33503   4.34057   4.36055   4.38498
 Alpha virt. eigenvalues --    4.41050   4.48551   4.50289   4.52602   4.53732
 Alpha virt. eigenvalues --    4.61821   4.64705   4.74077   4.80871   4.92334
          Condensed to atoms (all electrons):
               1          2          3          4          5          6
     1  C    6.184969  -0.799203   0.682243  -0.445344  -0.057763   0.706382
     2  C   -0.799203  10.157766  -3.053638   0.122438   0.039647  -0.345672
     3  C    0.682243  -3.053638  20.322257  -0.102415  -5.794055   1.046323
     4  C   -0.445344   0.122438  -0.102415  14.093334  -5.356229   0.990080
     5  C   -0.057763   0.039647  -5.794055  -5.356229  16.208769  -2.515763
     6  C    0.706382  -0.345672   1.046323   0.990080  -2.515763   6.681500
     7  H    0.287317   0.000216   0.020888  -0.006848   0.014749   0.001911
     8  H    0.145360   0.159258  -0.004078   0.015259   0.022220  -0.007756
     9  H    0.004396  -0.009514   0.059875   0.036123   0.249975  -0.031308
    10  H   -0.023233   0.048236  -0.007254   0.038946  -0.074122   0.346727
    11  C    0.093592  -0.202370  -6.109232  -3.585575   4.569958  -0.794033
    12  C   -0.180656   1.043144   0.087839  -0.871035  -1.375953   0.377752
    13  C   -0.225840   0.458817   3.283254  -0.344168  -2.061572   0.183013
    14  C    0.057616  -1.460527  -4.627684   1.813631   2.214419  -0.409838
    15  H    0.001994  -0.000244   0.064966  -0.018559   0.000913  -0.000345
    16  O   -0.007069   0.006020  -0.087687  -0.380604   0.066472   0.005722
    17  Cl   0.007883   0.138529  -0.184057  -0.054823  -0.072519   0.012793
    18  C   -0.001405  -0.007854   0.008199   0.078495  -0.044158   0.005252
    19  C   -0.009193   0.032073  -0.131116  -0.031749   0.048967   0.025046
    20  H    0.000027  -0.000143  -0.005577   0.001034   0.000448  -0.000087
    21  C   -0.000382   0.002752   0.012139   0.000594  -0.002533   0.000881
    22  H    0.000000   0.000000  -0.000088  -0.000003   0.000015   0.000000
    23  H   -0.000001   0.000004  -0.000033  -0.000028  -0.000003   0.000001
    24  H    0.000000   0.000007   0.000262  -0.000071  -0.000023   0.000000
    25  C    0.000557  -0.001680   0.008795  -0.020308   0.004721  -0.000085
    26  H   -0.000003   0.000077   0.002379   0.000468  -0.000892  -0.000014
    27  H    0.000029  -0.000272  -0.003726  -0.003654   0.002191  -0.000067
    28  H    0.000000   0.000006   0.000164   0.000076   0.000027   0.000003
    29  C   -0.001161   0.069075   0.122084  -0.066121  -0.018538  -0.028059
    30  H    0.001734  -0.000183  -0.023202  -0.035021   0.008675  -0.000015
    31  H    0.000292  -0.003776  -0.007892   0.030225   0.016602  -0.000965
    32  H    0.000363   0.002143  -0.041451  -0.032959   0.010896  -0.000912
               7          8          9         10         11         12
     1  C    0.287317   0.145360   0.004396  -0.023233   0.093592  -0.180656
     2  C    0.000216   0.159258  -0.009514   0.048236  -0.202370   1.043144
     3  C    0.020888  -0.004078   0.059875  -0.007254  -6.109232   0.087839
     4  C   -0.006848   0.015259   0.036123   0.038946  -3.585575  -0.871035
     5  C    0.014749   0.022220   0.249975  -0.074122   4.569958  -1.375953
     6  C    0.001911  -0.007756  -0.031308   0.346727  -0.794033   0.377752
     7  H    0.535449  -0.004908  -0.000146  -0.004541  -0.000844  -0.000576
     8  H   -0.004908   0.536733   0.000013  -0.000148   0.010539  -0.052866
     9  H   -0.000146   0.000013   0.530338  -0.004501  -0.026808  -0.006172
    10  H   -0.004541  -0.000148  -0.004501   0.536947  -0.013482   0.002211
    11  C   -0.000844   0.010539  -0.026808  -0.013482  13.923716   0.318170
    12  C   -0.000576  -0.052866  -0.006172   0.002211   0.318170   9.960877
    13  C   -0.000619  -0.007057   0.031329   0.000522  -3.978658  -0.137637
    14  C    0.000950   0.033718  -0.004176  -0.001272   1.637202  -2.991412
    15  H    0.000000  -0.000005   0.000000   0.000000  -0.022756   0.004232
    16  O    0.000006   0.000026   0.004005   0.000140   0.680603  -0.047189
    17  Cl   0.000242  -0.008683   0.000065   0.000093  -0.012270  -0.208182
    18  C    0.000000  -0.000004  -0.000053   0.000001   0.100573  -0.071395
    19  C   -0.000006   0.000029   0.000816   0.000001   0.190239   0.001009
    20  H    0.000000   0.000000   0.000000   0.000000  -0.002131  -0.000357
    21  C    0.000000   0.000000   0.000004   0.000000   0.051849   0.028712
    22  H    0.000000   0.000000   0.000000   0.000000   0.001709  -0.000213
    23  H    0.000000   0.000000   0.000000   0.000000   0.001398   0.000025
    24  H    0.000000   0.000000   0.000000   0.000000  -0.001710   0.001133
    25  C    0.000000  -0.000001   0.000022   0.000000   0.036052  -0.008095
    26  H    0.000000   0.000000   0.000000   0.000000  -0.040326   0.002618
    27  H    0.000000   0.000000   0.000000   0.000000   0.002616  -0.003370
    28  H    0.000000   0.000000   0.000000   0.000000   0.009579   0.000178
    29  C   -0.000013   0.000074   0.000654  -0.000028  -0.851274   0.140497
    30  H    0.000000   0.000000  -0.000001   0.000000   0.138875   0.044613
    31  H    0.000000   0.000000   0.000002   0.000000  -0.000522  -0.028724
    32  H    0.000000   0.000000  -0.000004   0.000000   0.057266   0.044731
              13         14         15         16         17         18
     1  C   -0.225840   0.057616   0.001994  -0.007069   0.007883  -0.001405
     2  C    0.458817  -1.460527  -0.000244   0.006020   0.138529  -0.007854
     3  C    3.283254  -4.627684   0.064966  -0.087687  -0.184057   0.008199
     4  C   -0.344168   1.813631  -0.018559  -0.380604  -0.054823   0.078495
     5  C   -2.061572   2.214419   0.000913   0.066472  -0.072519  -0.044158
     6  C    0.183013  -0.409838  -0.000345   0.005722   0.012793   0.005252
     7  H   -0.000619   0.000950   0.000000   0.000006   0.000242   0.000000
     8  H   -0.007057   0.033718  -0.000005   0.000026  -0.008683  -0.000004
     9  H    0.031329  -0.004176   0.000000   0.004005   0.000065  -0.000053
    10  H    0.000522  -0.001272   0.000000   0.000140   0.000093   0.000001
    11  C   -3.978658   1.637202  -0.022756   0.680603  -0.012270   0.100573
    12  C   -0.137637  -2.991412   0.004232  -0.047189  -0.208182  -0.071395
    13  C   12.456816  -4.013091  -0.052920  -0.146632  -0.004876   0.374257
    14  C   -4.013091  13.662893   0.318996   0.157109  -0.058444  -0.204844
    15  H   -0.052920   0.318996   0.511988  -0.000740   0.001973   0.023635
    16  O   -0.146632   0.157109  -0.000740   8.317943  -0.000585  -0.012287
    17  Cl  -0.004876  -0.058444   0.001973  -0.000585  17.159893   0.005658
    18  C    0.374257  -0.204844   0.023635  -0.012287   0.005658   7.157710
    19  C   -0.270593  -0.236137  -0.017511  -0.019398  -0.009447  -0.949062
    20  H   -0.030054   0.057278  -0.000843  -0.000026   0.000087  -0.027624
    21  C   -0.019356  -0.110533  -0.001702  -0.000514  -0.000724  -0.741118
    22  H    0.006606  -0.002793   0.000000  -0.000001  -0.000003  -0.099819
    23  H    0.002598  -0.003708   0.000004   0.000000   0.000014  -0.102331
    24  H   -0.010328   0.004817  -0.000007   0.000003   0.000003  -0.148055
    25  C    0.162946  -0.064266   0.001803  -0.006305  -0.001184   0.108216
    26  H   -0.001416   0.017244  -0.000004   0.000399   0.000016  -0.029597
    27  H    0.028510   0.013274  -0.000002  -0.000518  -0.000010  -0.087682
    28  H   -0.004649  -0.006906   0.000000   0.000028  -0.000003  -0.119629
    29  C   -0.263007   0.660904   0.020231  -0.032802   0.035784   0.282657
    30  H   -0.091120  -0.024847  -0.000112  -0.002024   0.000006   0.027242
    31  H   -0.138400   0.071331  -0.000110   0.007697  -0.000459  -0.040767
    32  H    0.235299   0.057656  -0.003546  -0.010007   0.001496  -0.001734
              19         20         21         22         23         24
     1  C   -0.009193   0.000027  -0.000382   0.000000  -0.000001   0.000000
     2  C    0.032073  -0.000143   0.002752   0.000000   0.000004   0.000007
     3  C   -0.131116  -0.005577   0.012139  -0.000088  -0.000033   0.000262
     4  C   -0.031749   0.001034   0.000594  -0.000003  -0.000028  -0.000071
     5  C    0.048967   0.000448  -0.002533   0.000015  -0.000003  -0.000023
     6  C    0.025046  -0.000087   0.000881   0.000000   0.000001   0.000000
     7  H   -0.000006   0.000000   0.000000   0.000000   0.000000   0.000000
     8  H    0.000029   0.000000   0.000000   0.000000   0.000000   0.000000
     9  H    0.000816   0.000000   0.000004   0.000000   0.000000   0.000000
    10  H    0.000001   0.000000   0.000000   0.000000   0.000000   0.000000
    11  C    0.190239  -0.002131   0.051849   0.001709   0.001398  -0.001710
    12  C    0.001009  -0.000357   0.028712  -0.000213   0.000025   0.001133
    13  C   -0.270593  -0.030054  -0.019356   0.006606   0.002598  -0.010328
    14  C   -0.236137   0.057278  -0.110533  -0.002793  -0.003708   0.004817
    15  H   -0.017511  -0.000843  -0.001702   0.000000   0.000004  -0.000007
    16  O   -0.019398  -0.000026  -0.000514  -0.000001   0.000000   0.000003
    17  Cl  -0.009447   0.000087  -0.000724  -0.000003   0.000014   0.000003
    18  C   -0.949062  -0.027624  -0.741118  -0.099819  -0.102331  -0.148055
    19  C    8.102005   0.319624   0.398965   0.021397  -0.051825   0.042956
    20  H    0.319624   0.574700  -0.041340   0.000172   0.004018   0.000217
    21  C    0.398965  -0.041340   6.227694   0.444300   0.515013   0.473750
    22  H    0.021397   0.000172   0.444300   0.547309  -0.026825  -0.031773
    23  H   -0.051825   0.004018   0.515013  -0.026825   0.544392  -0.027458
    24  H    0.042956   0.000217   0.473750  -0.031773  -0.027458   0.552040
    25  C   -0.244107  -0.006821  -0.218016  -0.011978  -0.001403  -0.010107
    26  H   -0.019921  -0.000104  -0.029879  -0.000174  -0.000084   0.001495
    27  H   -0.009113   0.000015  -0.003610   0.000035  -0.000143   0.000030
    28  H    0.018275  -0.000128  -0.004551   0.002610   0.000177  -0.000976
    29  C   -1.157374   0.032686  -0.338384  -0.012395  -0.005469  -0.003835
    30  H   -0.068859  -0.005696  -0.002043   0.000008  -0.000008   0.000000
    31  H   -0.020538   0.003899  -0.002709   0.000025   0.000002  -0.000012
    32  H   -0.031484   0.000200  -0.004864  -0.000001  -0.000002   0.000029
              25         26         27         28         29         30
     1  C    0.000557  -0.000003   0.000029   0.000000  -0.001161   0.001734
     2  C   -0.001680   0.000077  -0.000272   0.000006   0.069075  -0.000183
     3  C    0.008795   0.002379  -0.003726   0.000164   0.122084  -0.023202
     4  C   -0.020308   0.000468  -0.003654   0.000076  -0.066121  -0.035021
     5  C    0.004721  -0.000892   0.002191   0.000027  -0.018538   0.008675
     6  C   -0.000085  -0.000014  -0.000067   0.000003  -0.028059  -0.000015
     7  H    0.000000   0.000000   0.000000   0.000000  -0.000013   0.000000
     8  H   -0.000001   0.000000   0.000000   0.000000   0.000074   0.000000
     9  H    0.000022   0.000000   0.000000   0.000000   0.000654  -0.000001
    10  H    0.000000   0.000000   0.000000   0.000000  -0.000028   0.000000
    11  C    0.036052  -0.040326   0.002616   0.009579  -0.851274   0.138875
    12  C   -0.008095   0.002618  -0.003370   0.000178   0.140497   0.044613
    13  C    0.162946  -0.001416   0.028510  -0.004649  -0.263007  -0.091120
    14  C   -0.064266   0.017244   0.013274  -0.006906   0.660904  -0.024847
    15  H    0.001803  -0.000004  -0.000002   0.000000   0.020231  -0.000112
    16  O   -0.006305   0.000399  -0.000518   0.000028  -0.032802  -0.002024
    17  Cl  -0.001184   0.000016  -0.000010  -0.000003   0.035784   0.000006
    18  C    0.108216  -0.029597  -0.087682  -0.119629   0.282657   0.027242
    19  C   -0.244107  -0.019921  -0.009113   0.018275  -1.157374  -0.068859
    20  H   -0.006821  -0.000104   0.000015  -0.000128   0.032686  -0.005696
    21  C   -0.218016  -0.029879  -0.003610  -0.004551  -0.338384  -0.002043
    22  H   -0.011978  -0.000174   0.000035   0.002610  -0.012395   0.000008
    23  H   -0.001403  -0.000084  -0.000143   0.000177  -0.005469  -0.000008
    24  H   -0.010107   0.001495   0.000030  -0.000976  -0.003835   0.000000
    25  C    5.754059   0.415404   0.467173   0.469990  -0.168949   0.007252
    26  H    0.415404   0.534396  -0.028601  -0.029660   0.034822  -0.000030
    27  H    0.467173  -0.028601   0.552194  -0.027318  -0.053668   0.000112
    28  H    0.469990  -0.029660  -0.027318   0.545505  -0.009955   0.000002
    29  C   -0.168949   0.034822  -0.053668  -0.009955   7.483246   0.335420
    30  H    0.007252  -0.000030   0.000112   0.000002   0.335420   0.552163
    31  H   -0.023948  -0.000607   0.006990   0.000188   0.443825  -0.028509
    32  H   -0.012466   0.000449  -0.000591   0.000017   0.007546   0.004213
              31         32
     1  C    0.000292   0.000363
     2  C   -0.003776   0.002143
     3  C   -0.007892  -0.041451
     4  C    0.030225  -0.032959
     5  C    0.016602   0.010896
     6  C   -0.000965  -0.000912
     7  H    0.000000   0.000000
     8  H    0.000000   0.000000
     9  H    0.000002  -0.000004
    10  H    0.000000   0.000000
    11  C   -0.000522   0.057266
    12  C   -0.028724   0.044731
    13  C   -0.138400   0.235299
    14  C    0.071331   0.057656
    15  H   -0.000110  -0.003546
    16  O    0.007697  -0.010007
    17  Cl  -0.000459   0.001496
    18  C   -0.040767  -0.001734
    19  C   -0.020538  -0.031484
    20  H    0.003899   0.000200
    21  C   -0.002709  -0.004864
    22  H    0.000025  -0.000001
    23  H    0.000002  -0.000002
    24  H   -0.000012   0.000029
    25  C   -0.023948  -0.012466
    26  H   -0.000607   0.000449
    27  H    0.006990  -0.000591
    28  H    0.000188   0.000017
    29  C    0.443825   0.007546
    30  H   -0.028509   0.004213
    31  H    0.560555  -0.002683
    32  H   -0.002683   0.534316
 Mulliken charges:
               1
     1  C   -0.423500
     2  C   -0.395129
     3  C    0.461517
     4  C    0.134812
     5  C   -0.105543
     6  C   -0.248467
     7  H    0.156773
     8  H    0.162275
     9  H    0.165065
    10  H    0.154756
    11  C   -0.181945
    12  C   -0.073907
    13  C    0.578026
    14  C   -0.558559
    15  H    0.168671
    16  O   -0.491788
    17  Cl   0.251733
    18  C    0.517524
    19  C    0.076032
    20  H    0.126529
    21  C   -0.634396
    22  H    0.161883
    23  H    0.151677
    24  H    0.157613
    25  C   -0.637272
    26  H    0.171546
    27  H    0.149174
    28  H    0.156950
    29  C   -0.658472
    30  H    0.161353
    31  H    0.158986
    32  H    0.186085
 Sum of Mulliken charges =   0.00000
 Mulliken charges with hydrogens summed into heavy atoms:
               1
     1  C   -0.266727
     2  C   -0.232854
     3  C    0.461517
     4  C    0.134812
     5  C    0.059522
     6  C   -0.093711
    11  C   -0.181945
    12  C   -0.073907
    13  C    0.764111
    14  C   -0.389888
    16  O   -0.491788
    17  Cl   0.251733
    18  C    0.517524
    19  C    0.202560
    21  C   -0.163224
    25  C   -0.159602
    29  C   -0.338133
 Electronic spatial extent (au):  <R**2>=           5497.8985
 Charge=              0.0000 electrons
 Dipole moment (field-independent basis, Debye):
    X=              0.3173    Y=              1.3930    Z=              1.0317  Tot=              1.7622
 Quadrupole moment (field-independent basis, Debye-Ang):
   XX=            -86.6938   YY=           -117.7641   ZZ=           -111.3206
   XY=             -6.1310   XZ=              4.6452   YZ=             -2.6566
 Traceless Quadrupole moment (field-independent basis, Debye-Ang):
   XX=             18.5657   YY=            -12.5046   ZZ=             -6.0611
   XY=             -6.1310   XZ=              4.6452   YZ=             -2.6566
 Octapole moment (field-independent basis, Debye-Ang**2):
  XXX=             36.3561  YYY=             17.7406  ZZZ=             -7.1953  XYY=             11.3083
  XXY=            -14.0726  XXZ=              5.3614  XZZ=             -7.3114  YZZ=              5.1033
  YYZ=             13.0896  XYZ=             -1.2833
 Hexadecapole moment (field-independent basis, Debye-Ang**3):
 XXXX=          -4968.9035 YYYY=          -1799.1074 ZZZZ=           -301.5604 XXXY=            -18.6165
 XXXZ=            108.5706 YYYX=            -42.7054 YYYZ=            -28.9717 ZZZX=              7.7005
 ZZZY=              5.1809 XXYY=          -1146.4665 XXZZ=          -1021.4737 YYZZ=           -358.4737
 XXYZ=             -2.1291 YYXZ=              3.3014 ZZXY=              8.8794
 N-N= 1.237722354059D+03 E-N=-5.088893084422D+03  KE= 1.108335272866D+03
 D1PCM: C-PCM CHGder 1st derivatives, ID1Alg=3 FixD1E=F DoIter=F DoCFld=F I1PDM=0.
 Calling FoFJK, ICntrl=      2127 FMM=F ISym2X=0 I1Cent= 0 IOpClX= 0 NMat=1 NMatS=1 NMatT=0.
 ***** Axes restored to original set *****
 -------------------------------------------------------------------
 Center     Atomic                   Forces (Hartrees/Bohr)
 Number     Number              X              Y              Z
 -------------------------------------------------------------------
      1        6           0.003116839    0.001781901    0.000693865
      2        6           0.006380606    0.000217628    0.001013355
      3        6          -0.002213127    0.001773067    0.000849447
      4        6           0.001581828   -0.006655739    0.002325372
      5        6           0.000943172   -0.003591003   -0.000368614
      6        6           0.001663978   -0.004450878    0.000161387
      7        1          -0.004776901   -0.000558707   -0.000923724
      8        1          -0.003404955   -0.005182373   -0.001074458
      9        1           0.000581836    0.006313017    0.000242687
     10        1          -0.002605348    0.002617644   -0.000373854
     11        6           0.003868643    0.016259148   -0.002302385
     12        6          -0.007007688   -0.007370763   -0.000504440
     13        6           0.001534174   -0.005375006   -0.015053568
     14        6          -0.005753040    0.001428811   -0.003033792
     15        1           0.007530462   -0.001299552    0.001164835
     16        8          -0.005667976   -0.016113139   -0.001839658
     17       17           0.003700171    0.019776358   -0.000331164
     18        6           0.000508096    0.006815466    0.005096485
     19        6          -0.000111805    0.000404007    0.005529960
     20        1          -0.004789305    0.001308738   -0.002476264
     21        6          -0.007910659    0.009759560    0.000441917
     22        1           0.000626449   -0.001525646   -0.001809175
     23        1           0.002016810   -0.002291222   -0.000131063
     24        1           0.000071857   -0.001746165    0.000372741
     25        6           0.002387706   -0.013348119   -0.003300794
     26        1          -0.000970016    0.000374533    0.000872296
     27        1          -0.001817891    0.002628441   -0.002274742
     28        1           0.000637308    0.003000136    0.000340360
     29        6          -0.001372589   -0.013414555    0.013117903
     30        1          -0.002767565   -0.000583585   -0.008045040
     31        1           0.004076127    0.009777167   -0.003929118
     32        1           0.009942803   -0.000729169    0.015549241
 -------------------------------------------------------------------
 Cartesian Forces:  Max     0.019776358 RMS     0.005726702

 GradGradGradGradGradGradGradGradGradGradGradGradGradGradGradGradGradGrad
 Berny optimization.
 FormGI is forming the generalized inverse of G from B-inverse, IUseBI=4.
 Internal  Forces:  Max     0.019883243 RMS     0.003679225
 Search for a local minimum.
 Step number   1 out of a maximum of  179
 All quantities printed in internal units (Hartrees-Bohrs-Radians)
 Mixed Optimization -- RFO/linear search
 Second derivative matrix not updated -- first step.
 ITU=  0
     Eigenvalues ---    0.00230   0.00623   0.00756   0.00805   0.00814
     Eigenvalues ---    0.00830   0.01376   0.01424   0.01523   0.01678
     Eigenvalues ---    0.01694   0.01780   0.01903   0.02078   0.02083
     Eigenvalues ---    0.02095   0.02111   0.02118   0.02135   0.02208
     Eigenvalues ---    0.02833   0.04151   0.04613   0.05323   0.05420
     Eigenvalues ---    0.06335   0.06947   0.06973   0.07184   0.07189
     Eigenvalues ---    0.09236   0.12763   0.15997   0.16000   0.16000
     Eigenvalues ---    0.16000   0.16000   0.16000   0.16000   0.16000
     Eigenvalues ---    0.16000   0.16000   0.16000   0.16000   0.16433
     Eigenvalues ---    0.18782   0.21878   0.22000   0.22000   0.22580
     Eigenvalues ---    0.24118   0.24488   0.24923   0.24999   0.24999
     Eigenvalues ---    0.25000   0.25000   0.27527   0.29216   0.30704
     Eigenvalues ---    0.31824   0.32289   0.32580   0.32668   0.32692
     Eigenvalues ---    0.32760   0.32888   0.33421   0.33643   0.33689
     Eigenvalues ---    0.33738   0.33745   0.33870   0.33921   0.34329
     Eigenvalues ---    0.34376   0.34470   0.34648   0.34703   0.34891
     Eigenvalues ---    0.35536   0.39431   0.41503   0.44086   0.45295
     Eigenvalues ---    0.45711   0.46237   0.55204   0.56381   0.95459
 RFO step:  Lambda=-8.26187948D-03 EMin= 2.30000000D-03
 Linear search not attempted -- first point.
 Iteration  1 RMS(Cart)=  0.07663575 RMS(Int)=  0.00133838
 Iteration  2 RMS(Cart)=  0.00269014 RMS(Int)=  0.00018855
 Iteration  3 RMS(Cart)=  0.00000310 RMS(Int)=  0.00018854
 Iteration  4 RMS(Cart)=  0.00000000 RMS(Int)=  0.00018854
 Variable       Old X    -DE/DX   Delta X   Delta X   Delta X     New X
                                 (Linear)    (Quad)   (Total)
    R1        2.64054  -0.00106   0.00000  -0.00229  -0.00230   2.63823
    R2        2.64434   0.00014   0.00000  -0.00007  -0.00009   2.64425
    R3        2.06544  -0.00487   0.00000  -0.01381  -0.01381   2.05163
    R4        2.65095   0.00131   0.00000   0.00317   0.00318   2.65413
    R5        2.06250  -0.00607   0.00000  -0.01711  -0.01711   2.04539
    R6        2.67164   0.00485   0.00000   0.01282   0.01280   2.68445
    R7        2.76892   0.00690   0.00000   0.02048   0.02036   2.78928
    R8        2.65341  -0.00131   0.00000  -0.00282  -0.00281   2.65060
    R9        2.80558   0.00013   0.00000   0.00022   0.00030   2.80587
   R10        2.63520  -0.00216   0.00000  -0.00489  -0.00490   2.63030
   R11        2.06699  -0.00619   0.00000  -0.01758  -0.01758   2.04941
   R12        2.06159  -0.00371   0.00000  -0.01043  -0.01043   2.05116
   R13        2.88409  -0.00166   0.00000  -0.00776  -0.00765   2.87644
   R14        2.30514   0.01704   0.00000   0.01770   0.01770   2.32285
   R15        2.53417  -0.00093   0.00000  -0.00144  -0.00151   2.53266
   R16        3.26796   0.01988   0.00000   0.05952   0.05952   3.32748
   R17        2.82691   0.00424   0.00000   0.01080   0.01084   2.83775
   R18        2.93183   0.00830   0.00000   0.02927   0.02927   2.96110
   R19        2.13281  -0.01824   0.00000  -0.05785  -0.05785   2.07497
   R20        2.06778  -0.00614   0.00000  -0.01746  -0.01746   2.05033
   R21        2.53925   0.00297   0.00000   0.00520   0.00520   2.54444
   R22        2.82895   0.00667   0.00000   0.01991   0.01991   2.84886
   R23        2.82549   0.00846   0.00000   0.02509   0.02509   2.85058
   R24        2.05852  -0.00034   0.00000  -0.00096  -0.00096   2.05756
   R25        2.82775   0.01063   0.00000   0.03164   0.03164   2.85939
   R26        2.07858  -0.00082   0.00000  -0.00237  -0.00237   2.07620
   R27        2.07464  -0.00175   0.00000  -0.00503  -0.00503   2.06961
   R28        2.07763  -0.00063   0.00000  -0.00182  -0.00182   2.07581
   R29        2.07937  -0.00098   0.00000  -0.00285  -0.00285   2.07652
   R30        2.07775  -0.00374   0.00000  -0.01083  -0.01083   2.06692
   R31        2.07550  -0.00164   0.00000  -0.00473  -0.00473   2.07078
   R32        2.09638  -0.00817   0.00000  -0.02440  -0.02440   2.07198
   R33        2.10319  -0.01076   0.00000  -0.03251  -0.03251   2.07068
    A1        2.10409   0.00079   0.00000   0.00258   0.00255   2.10664
    A2        2.08813  -0.00088   0.00000  -0.00418  -0.00416   2.08397
    A3        2.09096   0.00009   0.00000   0.00160   0.00161   2.09258
    A4        2.09613   0.00220   0.00000   0.01021   0.01022   2.10636
    A5        2.07393   0.00057   0.00000   0.00482   0.00481   2.07874
    A6        2.11312  -0.00277   0.00000  -0.01503  -0.01504   2.09809
    A7        2.08404  -0.00454   0.00000  -0.01765  -0.01760   2.06644
    A8        2.14311   0.00250   0.00000   0.00769   0.00767   2.15077
    A9        2.05604   0.00204   0.00000   0.00997   0.00994   2.06598
   A10        2.09197   0.00133   0.00000   0.00605   0.00600   2.09797
   A11        2.11340  -0.00052   0.00000  -0.00280  -0.00263   2.11077
   A12        2.07781  -0.00080   0.00000  -0.00327  -0.00340   2.07441
   A13        2.10007   0.00148   0.00000   0.00585   0.00586   2.10593
   A14        2.08261  -0.00219   0.00000  -0.01155  -0.01156   2.07105
   A15        2.10050   0.00071   0.00000   0.00570   0.00569   2.10620
   A16        2.09006  -0.00126   0.00000  -0.00703  -0.00705   2.08301
   A17        2.09599   0.00083   0.00000   0.00467   0.00468   2.10067
   A18        2.09713   0.00044   0.00000   0.00236   0.00238   2.09951
   A19        2.07050  -0.00037   0.00000  -0.00736  -0.00800   2.06249
   A20        2.12237   0.00089   0.00000   0.00618   0.00497   2.12734
   A21        2.09030  -0.00053   0.00000   0.00071  -0.00046   2.08984
   A22        2.16203  -0.00514   0.00000  -0.01992  -0.02003   2.14200
   A23        2.04029   0.00747   0.00000   0.02896   0.02893   2.06922
   A24        2.08085  -0.00232   0.00000  -0.00894  -0.00897   2.07188
   A25        1.99515   0.00109   0.00000   0.00607   0.00607   2.00122
   A26        1.89762   0.00029   0.00000   0.00826   0.00802   1.90564
   A27        1.87022  -0.00105   0.00000  -0.01570  -0.01576   1.85447
   A28        1.92552   0.00028   0.00000   0.01153   0.01141   1.93693
   A29        1.88451   0.00054   0.00000   0.00827   0.00830   1.89281
   A30        1.88731  -0.00133   0.00000  -0.02111  -0.02107   1.86623
   A31        2.13603   0.00271   0.00000   0.00602   0.00607   2.14209
   A32        2.13913  -0.00621   0.00000  -0.03195  -0.03205   2.10708
   A33        2.00796   0.00349   0.00000   0.02571   0.02560   2.03356
   A34        2.11406  -0.00065   0.00000  -0.00257  -0.00262   2.11143
   A35        2.15837   0.00169   0.00000   0.00650   0.00644   2.16481
   A36        2.01074  -0.00104   0.00000  -0.00405  -0.00411   2.00663
   A37        2.10846  -0.00866   0.00000  -0.04669  -0.04682   2.06163
   A38        2.17642   0.00615   0.00000   0.02696   0.02681   2.20324
   A39        1.99831   0.00251   0.00000   0.01970   0.01954   2.01785
   A40        1.94154  -0.00112   0.00000  -0.00799  -0.00804   1.93350
   A41        1.97539  -0.00256   0.00000  -0.01241  -0.01243   1.96296
   A42        1.94600  -0.00072   0.00000  -0.00569  -0.00573   1.94026
   A43        1.86486   0.00254   0.00000   0.01773   0.01771   1.88257
   A44        1.86327  -0.00008   0.00000  -0.00587  -0.00595   1.85732
   A45        1.86670   0.00230   0.00000   0.01619   0.01618   1.88288
   A46        1.93505  -0.00031   0.00000  -0.00389  -0.00401   1.93103
   A47        1.96673   0.00192   0.00000   0.01525   0.01528   1.98202
   A48        1.96086  -0.00367   0.00000  -0.02365  -0.02371   1.93715
   A49        1.86511  -0.00015   0.00000   0.00262   0.00259   1.86771
   A50        1.86390   0.00069   0.00000  -0.00316  -0.00338   1.86052
   A51        1.86616   0.00168   0.00000   0.01360   0.01369   1.87985
   A52        1.94580   0.00709   0.00000   0.03067   0.03078   1.97658
   A53        1.91195  -0.00328   0.00000  -0.02483  -0.02492   1.88703
   A54        1.90354  -0.00464   0.00000  -0.02782  -0.02821   1.87533
   A55        1.92547  -0.00209   0.00000  -0.00864  -0.00837   1.91710
   A56        1.92963   0.00026   0.00000   0.01693   0.01715   1.94678
   A57        1.84463   0.00227   0.00000   0.01184   0.01139   1.85602
    D1        0.00158   0.00011   0.00000   0.00400   0.00402   0.00559
    D2        3.13969   0.00015   0.00000   0.00388   0.00388  -3.13961
    D3       -3.14058   0.00011   0.00000   0.00443   0.00445  -3.13613
    D4       -0.00247   0.00015   0.00000   0.00432   0.00432   0.00185
    D5       -0.00111   0.00003   0.00000   0.00208   0.00210   0.00099
    D6        3.14034   0.00006   0.00000   0.00219   0.00221  -3.14063
    D7        3.14105   0.00003   0.00000   0.00164   0.00167  -3.14047
    D8       -0.00068   0.00007   0.00000   0.00176   0.00177   0.00109
    D9        0.00181  -0.00017   0.00000  -0.00777  -0.00775  -0.00595
   D10        3.13960  -0.00002   0.00000  -0.00450  -0.00455   3.13505
   D11       -3.13623  -0.00022   0.00000  -0.00770  -0.00766   3.13930
   D12        0.00157  -0.00007   0.00000  -0.00442  -0.00446  -0.00289
   D13       -0.00564   0.00009   0.00000   0.00554   0.00554  -0.00010
   D14        3.13855   0.00018   0.00000   0.01208   0.01207  -3.13257
   D15        3.13957  -0.00006   0.00000   0.00243   0.00250  -3.14113
   D16        0.00056   0.00003   0.00000   0.00897   0.00903   0.00959
   D17       -3.03043  -0.00024   0.00000  -0.00278  -0.00267  -3.03310
   D18        0.11729  -0.00064   0.00000  -0.02247  -0.02259   0.09470
   D19        0.10743  -0.00010   0.00000   0.00039   0.00047   0.10790
   D20       -3.02804  -0.00050   0.00000  -0.01930  -0.01945  -3.04749
   D21        0.00615   0.00006   0.00000   0.00054   0.00050   0.00665
   D22       -3.13702  -0.00006   0.00000  -0.00194  -0.00195  -3.13897
   D23       -3.13798  -0.00002   0.00000  -0.00587  -0.00590   3.13931
   D24        0.00203  -0.00014   0.00000  -0.00835  -0.00834  -0.00631
   D25       -0.19648  -0.00059   0.00000  -0.02811  -0.02807  -0.22455
   D26        2.95170   0.00086   0.00000   0.05542   0.05559   3.00730
   D27        2.94768  -0.00051   0.00000  -0.02164  -0.02163   2.92605
   D28       -0.18732   0.00094   0.00000   0.06189   0.06202  -0.12530
   D29       -0.00277  -0.00011   0.00000  -0.00431  -0.00431  -0.00708
   D30        3.13896  -0.00015   0.00000  -0.00443  -0.00441   3.13455
   D31        3.14042   0.00001   0.00000  -0.00179  -0.00180   3.13862
   D32       -0.00104  -0.00003   0.00000  -0.00191  -0.00190  -0.00294
   D33        0.27950   0.00090   0.00000   0.03615   0.03618   0.31568
   D34       -1.88036  -0.00047   0.00000   0.01042   0.01037  -1.86999
   D35        2.36683   0.00151   0.00000   0.03935   0.03931   2.40614
   D36       -2.86856  -0.00052   0.00000  -0.04578  -0.04560  -2.91416
   D37        1.25477  -0.00189   0.00000  -0.07152  -0.07141   1.18336
   D38       -0.78123   0.00010   0.00000  -0.04259  -0.04247  -0.82370
   D39       -0.00489   0.00034   0.00000   0.00957   0.00940   0.00451
   D40        3.12401  -0.00009   0.00000  -0.01169  -0.01143   3.11258
   D41        3.13045   0.00079   0.00000   0.02981   0.02947  -3.12327
   D42       -0.02384   0.00035   0.00000   0.00856   0.00864  -0.01520
   D43       -0.18713  -0.00084   0.00000  -0.02810  -0.02826  -0.21539
   D44        2.96628  -0.00037   0.00000  -0.00795  -0.00787   2.95841
   D45        1.95768   0.00057   0.00000  -0.00378  -0.00389   1.95379
   D46       -1.17210   0.00104   0.00000   0.01637   0.01651  -1.15560
   D47       -2.26642  -0.00057   0.00000  -0.01785  -0.01795  -2.28438
   D48        0.88698  -0.00010   0.00000   0.00230   0.00244   0.88942
   D49       -2.89849   0.00004   0.00000  -0.04167  -0.04153  -2.94002
   D50        1.24844   0.00020   0.00000  -0.03412  -0.03382   1.21463
   D51       -0.76277   0.00186   0.00000  -0.01918  -0.01934  -0.78211
   D52        1.18389  -0.00175   0.00000  -0.06316  -0.06324   1.12065
   D53       -0.95237  -0.00159   0.00000  -0.05561  -0.05553  -1.00790
   D54       -2.96358   0.00007   0.00000  -0.04067  -0.04106  -3.00464
   D55       -0.87347  -0.00177   0.00000  -0.06717  -0.06708  -0.94056
   D56       -3.00973  -0.00161   0.00000  -0.05962  -0.05937  -3.06910
   D57        1.26224   0.00006   0.00000  -0.04468  -0.04490   1.21734
   D58       -0.00448  -0.00033   0.00000  -0.01024  -0.00987  -0.01435
   D59        3.13843   0.00051   0.00000   0.02342   0.02310  -3.12166
   D60        3.13011  -0.00079   0.00000  -0.03114  -0.03082   3.09930
   D61       -0.01016   0.00005   0.00000   0.00252   0.00214  -0.00802
   D62       -1.98605  -0.00111   0.00000  -0.03223  -0.03216  -2.01821
   D63        0.11382  -0.00043   0.00000  -0.02377  -0.02373   0.09010
   D64        2.21933   0.00021   0.00000  -0.01572  -0.01571   2.20362
   D65        1.16198  -0.00069   0.00000  -0.01304  -0.01305   1.14893
   D66       -3.02133  -0.00001   0.00000  -0.00458  -0.00461  -3.02595
   D67       -0.91583   0.00063   0.00000   0.00347   0.00341  -0.91242
   D68       -1.66151  -0.00097   0.00000  -0.01908  -0.01898  -1.68050
   D69        0.42811  -0.00008   0.00000  -0.00811  -0.00805   0.42006
   D70        2.53755   0.00082   0.00000   0.00344   0.00334   2.54090
   D71        1.47346  -0.00141   0.00000  -0.03886  -0.03880   1.43466
[...]
 0.00003089,0.00000179,0.00003663,0.00000781,0.00001746,-0.00000602,0.0
 0000605,-0.00000148,-0.00000040,0.00000279,0.00000017,0.00000059,0.000
 00139,0.00000205,-0.00000021,-0.00000427,0.00000103,-0.00000102,0.0000
 0335,-0.00000123,0.00000300,-0.00025822,-0.00003024,-0.00007463,-0.000
 00366,-0.00001025,0.00000838,-0.00022000,0.00010838,-0.00023989,0.0001
 2163,-0.00005433,0.00003227,-0.00000237,-0.00000530,0.00000199,0.00021
 017,-0.00006826,-0.00002990,0.00003134,0.00005908,0.00000342,0.0078754
 3,-0.00566057,0.00139712,-0.00047129,0.00041378,0.00005868,0.00020214,
 0.00016882,0.00015294,0.00067328,-0.00075993,-0.00084353,0.00025841,-0
 .00016344,-0.00016395,0.00024327,-0.00020587,-0.00026644,-0.00016180,-
 0.00002904,-0.00008493,-0.20271847,0.13468947,0.00171124,-0.00456769,0
 .00268142,0.00028963,0.21950533,-0.00000569,0.00002616,-0.00000508,0.0
 0004880,-0.00001449,0.00001650,-0.00007900,0.00003071,-0.00001145,0.00
 005494,-0.00004381,-0.00005151,0.00003095,0.00002316,0.00000350,-0.000
 00381,-0.00002232,0.00000911,0.00000450,0.00000058,0.00000049,0.000001
 12,0.00000289,0.00000142,-0.00000467,-0.00000121,-0.00000257,0.0000063
 6,-0.00000194,-0.00000024,-0.00022464,0.00021302,0.00013641,0.00002675
 ,-0.00000897,-0.00001421,-0.00025618,0.00006631,-0.00007120,0.00010731
 ,-0.00012016,0.00008562,0.00000538,0.00003728,-0.00000989,0.00011404,-
 0.00011749,0.00001067,0.00004435,0.00009626,-0.00000566,0.02141686,-0.
 01522489,0.00238346,0.00059634,-0.00002776,0.00000948,0.00006950,0.000
 07037,0.00012757,-0.00279580,-0.00344200,-0.00349264,0.00011629,0.0002
 4165,-0.00005314,0.00125369,-0.00105563,-0.00032130,-0.00030604,0.0003
 5026,0.00012604,0.13214998,-0.16484238,-0.00255748,0.00543311,-0.00528
 246,-0.00021027,-0.14594515,0.17703500,-0.00000036,0.00000384,0.000000
 54,0.00001093,-0.00000466,-0.00000278,-0.00001541,0.00000435,-0.000004
 97,0.00001105,0.00000257,0.00002942,0.00000275,0.00000599,0.00000263,0
 .00000192,-0.00000304,-0.00000227,0.00000121,0.00000006,0.00000063,0.0
 0000018,0.00000094,0.00000029,-0.00000194,-0.00000026,-0.00000038,0.00
 000144,-0.00000055,0.00000059,-0.00010392,-0.00002188,-0.00002265,-0.0
 0001805,-0.00000620,0.00000434,0.00001367,0.00013152,0.00009458,0.0000
 7518,-0.00004107,-0.00009884,-0.00000047,0.00000948,-0.00000037,0.0000
 9328,0.00001017,-0.00004398,0.00001331,0.00003312,0.00001109,0.0155767
 5,-0.00970410,0.00000501,0.00007224,0.00039399,0.00014848,0.00017734,0
 .00016930,0.00003021,-0.00166232,-0.00274845,-0.00133554,-0.00038897,0
 .00026411,0.00002855,0.00053614,-0.00097509,0.00023647,0.00017058,-0.0
 0017841,0.00026511,0.00049547,-0.00171121,-0.04743677,-0.02351668,0.01
 941276,0.00191010,0.00154605,0.00414154,0.04774108,0.00000663,-0.00003
 212,0.00000350,-0.00005762,0.00002078,-0.00001601,0.00007431,-0.000041
 81,0.00002820,-0.00003089,0.00004245,-0.00001234,-0.00003313,-0.000023
 87,-0.00000454,0.00000406,0.00002609,-0.00000123,-0.00000494,-0.000000
 34,-0.00000063,-0.00000116,-0.00000285,-0.00000055,0.00000515,0.000001
 42,0.00000172,-0.00000633,0.00000210,-0.00000181,0.00022716,-0.0002856
 0,0.00003275,-0.00002814,0.00006343,-0.00000945,-0.00005071,0.00000663
 ,0.00008188,0.00000332,0.00010896,-0.00002885,0.00000815,0.00001280,-0
 .00001526,-0.00007211,0.00015811,-0.00000175,-0.00004082,-0.00009981,-
 0.00000232,-0.00743790,-0.00476816,-0.00128076,0.00172221,-0.00134038,
 0.00068127,-0.00014402,-0.00005069,-0.00060307,0.00025133,0.00101896,-
 0.00005492,0.00046733,-0.00011320,0.00007196,0.00012991,0.00001806,-0.
 00031361,0.00005222,0.00006562,0.00008716,-0.21661914,-0.09131914,0.08
 094288,0.00562898,0.00337228,-0.00211647,-0.01775279,-0.01125233,0.008
 98023,0.23387267,0.00000135,-0.00001422,-0.00000155,-0.00003148,0.0000
 1346,0.00000261,0.00002980,-0.00001652,0.00000619,-0.00002484,0.000046
 03,-0.00008870,-0.00001847,-0.00002405,0.00000015,-0.00000481,0.000014
 17,0.00000539,-0.00000328,-0.00000021,-0.00000105,-0.00000099,-0.00000
 209,-0.00000009,0.00000406,0.00000160,-0.00000039,-0.00000476,0.000001
 17,-0.00000252,0.00009693,-0.00032804,0.00017951,-0.00000220,0.0000742
 8,-0.00002299,-0.00042026,0.00037775,0.00005492,0.00006987,0.00009023,
 0.00004987,0.00004576,0.00003967,-0.00003279,0.00000989,0.00020145,0.0
 0002230,-0.00002047,-0.00005764,-0.00000629,-0.02301949,-0.01237775,0.
 00913766,0.00132132,-0.00298119,-0.00150477,-0.00001259,0.00059370,-0.
 00193961,-0.00047208,0.00053373,0.00019850,0.00075494,-0.00039435,-0.0
 0029710,0.00010172,0.00046462,-0.00018416,-0.00001207,-0.00003885,-0.0
 0002038,-0.09268279,-0.09866085,0.04356248,-0.00674210,-0.00415473,0.0
 0353102,0.01668681,0.01092403,-0.00884041,0.10436784,0.10624455,0.0000
 0170,-0.00000840,-0.00000093,-0.00001488,0.00000514,-0.00000107,0.0000
 1857,-0.00001263,0.00000821,-0.00000363,0.00001560,-0.00002387,-0.0000
 0967,-0.00000599,-0.00000340,0.00000035,0.00000702,0.00000406,-0.00000
 120,-0.00000018,-0.00000035,-0.00000049,-0.00000083,0.,0.00000149,0.00
 000051,-0.00000020,-0.00000154,0.00000043,-0.00000103,0.00001647,-0.00
 009850,0.00006795,-0.00002308,0.00002153,-0.00000837,-0.00015228,0.000
 10991,-0.00002445,0.00003037,0.00003882,-0.00001403,0.00001749,0.00001
 161,-0.00000642,-0.00000305,0.00006139,0.00000075,-0.00000537,-0.00001
 753,-0.00000165,-0.01765308,-0.01043455,0.00682548,0.00049451,-0.00201
 671,-0.00104462,0.00005720,0.00044954,-0.00159481,-0.00032894,0.000572
 29,0.00039896,0.00027772,0.00006110,-0.00005064,-0.00012152,0.00025187
 ,-0.00005634,0.00009375,0.00004237,-0.00006898,0.07942327,0.04310439,-
 0.07795016,0.02556590,0.01356831,-0.01176271,-0.00132017,-0.00084691,-
 0.00051729,-0.08629748,-0.04460255,0.08533988,-0.00008353,0.00048810,-
 0.00005062,0.00074554,-0.00023033,0.00031807,-0.00129568,0.00122987,-0
 .00011943,-0.00112140,0.00149186,-0.00211360,0.00009216,-0.00028400,-0
 .00015325,-0.00024375,-0.00021646,0.00013548,0.00004700,0.00000304,-0.
 00002120,0.00001753,0.00002289,0.00004480,0.00001947,-0.00001189,-0.00
 002839,0.00000453,-0.00003692,-0.00002772,-0.02242749,0.01107356,0.019
 90865,0.00373980,-0.00072826,0.00128696,-0.06752236,0.00151808,0.02261
 430,-0.01334447,-0.01411219,0.00912759,0.00032311,0.00083861,-0.000386
 05,-0.00178732,-0.00679223,-0.00023053,0.00004573,0.00034977,-0.000431
 81,-0.02802455,0.01647620,-0.00457634,-0.15317473,0.06281336,-0.005798
 96,0.00353536,-0.00222148,-0.00300802,0.00156786,-0.00060218,-0.003949
 16,0.00027071,-0.00008780,-0.00001838,0.00026711,-0.00007562,0.0001538
 0,-0.00104930,0.00034155,0.00005763,0.00051554,-0.00023654,0.00288195,
 0.00005833,0.00083366,0.00059706,-0.00168096,-0.00010170,-0.00087399,-
 0.00006707,0.00013571,-0.00011048,0.46270300,0.00039503,-0.00085553,0.
 00010244,-0.00085755,0.00032956,-0.00049414,0.00166948,-0.00173716,0.0
 0115759,0.00302503,-0.00136111,0.00270038,-0.00081483,0.00098911,-0.00
 004767,0.00081387,0.00078761,-0.00005661,-0.00002641,0.00001055,0.0000
 4089,0.00008233,0.00001753,0.00001294,-0.00016227,0.00003598,0.0000000
 7,0.00009720,0.00002726,0.00002126,0.00588130,0.00547324,-0.01811768,0
 .00012875,-0.00099678,0.00072564,-0.00415528,-0.06975668,0.01054030,-0
 .02226919,-0.00503007,0.02342147,0.00087841,0.00021271,-0.00080935,0.0
 0181644,-0.00407953,0.00121264,-0.00080428,-0.00227746,-0.00194866,0.0
 0164416,0.00785353,0.00477443,0.06226536,-0.13787105,-0.00994698,0.022
 43489,-0.01298786,0.00126094,-0.00048247,0.00220300,-0.00523699,0.0005
 5531,-0.00002052,0.00046413,-0.00028910,0.00033527,0.00018270,-0.00113
 033,0.00081955,-0.00017999,-0.00169666,-0.00078429,0.00124986,-0.00032
 093,0.00022611,-0.00005448,-0.00120248,-0.00008088,-0.00090524,0.00037
 044,-0.00090701,-0.00031677,0.02363206,0.56978783,0.00020085,-0.000974
 07,0.00008427,-0.00160547,0.00039618,-0.00027019,0.00234205,-0.0013735
 7,0.00075915,-0.00037721,0.00108014,-0.00248377,-0.00091213,-0.0004051
 8,0.00005567,0.00023449,0.00060817,0.00021474,-0.00007335,-0.00002128,
 -0.00002526,-0.00004268,-0.00005366,-0.00003538,0.00011242,0.00002754,
 -0.00003256,-0.00011667,0.00003865,-0.00008616,0.00830635,-0.01538689,
 -0.00097928,-0.00460287,0.00025125,-0.00116583,0.01441102,0.00464998,-
 0.09817452,0.00623808,0.01056906,-0.00167365,-0.00006066,-0.00036148,0
 .00051606,0.00180945,0.00744759,0.00103635,-0.00035055,-0.00124371,-0.
 00031286,-0.00936823,0.00999688,0.00341329,-0.01500127,-0.00350098,-0.
 07443617,0.00976792,-0.00726884,0.00228035,-0.00545278,-0.00539748,0.0
 0770516,-0.00196745,0.00146766,-0.00031717,0.00014598,0.00023658,0.000
 00701,0.00169469,-0.00083434,0.00011192,0.00074752,0.00200284,-0.00508
 978,-0.00070229,-0.00047252,-0.00014773,-0.00120285,0.00042251,-0.0001
 5775,0.00003638,0.00067749,0.00051907,0.10009262,0.03219274,0.46368623
 ,0.00000489,0.00004288,-0.00000004,0.00009522,-0.00003241,0.00002317,-
 0.00027816,-0.00000652,0.00003761,0.00003607,0.00000026,0.00028962,0.0
 0000590,0.00003898,-0.00006753,0.00000373,0.00000048,-0.00000820,0.000
 00538,0.00000082,0.00000185,0.00000318,0.00000541,-0.00000036,-0.00000
 124,-0.00000458,-0.00000343,0.00000780,-0.00000331,0.00000868,0.001071
 49,-0.00019680,0.00124249,0.00004930,-0.00000179,-0.00039348,0.0080770
 7,0.00287474,0.01768490,0.00140554,0.00088715,0.00022829,-0.00005641,-
 0.00004904,0.00003048,0.00006688,0.00018648,-0.00040278,0.00001633,0.0
 0012404,0.00005832,-0.00142984,0.00406326,0.00022638,-0.01617782,-0.00
 519884,-0.02155021,0.00082043,-0.00006588,0.00072408,-0.00109467,-0.00
 101505,0.00046263,-0.00046267,0.00035397,-0.00001304,0.00005676,0.0000
 7521,0.00004485,-0.00003925,0.00007353,-0.00008296,0.00018024,0.000557
 53,-0.00025347,-0.00022302,-0.00001475,-0.00011222,0.00007293,0.000160
 49,0.00021981,-0.00007817,-0.00012173,-0.00000220,-0.12361813,-0.02466
 497,-0.11864070,0.13829568,-0.00001627,0.00002844,-0.00000296,0.000052
 55,-0.00003247,0.00001041,-0.00018237,0.00010608,-0.00004443,0.0000954
 0,-0.00002914,0.00010028,0.00003626,-0.00000498,0.00002143,-0.00001139
 ,-0.00004414,-0.00000759,0.00000501,-0.00000100,0.00000178,-0.00000430
 ,0.00000096,-0.00000074,-0.00000419,-0.00000252,0.00000631,0.00000204,
 -0.00000243,-0.00000332,0.00010711,-0.00018371,-0.00076525,-0.00001930
 ,-0.00001798,-0.00016541,0.00106684,0.00004997,0.00478271,0.00093873,0
 .00018896,0.00134854,0.00001893,-0.00000617,0.00000718,0.00041322,-0.0
 0008325,-0.00003292,0.00010335,0.00019959,-0.00002244,0.00197201,-0.00
 271508,-0.00031689,0.01331052,0.00287641,0.01790238,-0.00027363,0.0007
 8289,0.00035831,0.00078180,0.00085032,-0.00055833,0.00039775,-0.000265
 93,-0.00003020,-0.00002689,-0.00003063,-0.00001699,-0.00005136,-0.0000
 0565,0.00003878,-0.00008415,-0.00052376,-0.00053458,-0.00026250,0.0002
 2177,0.00006342,-0.00011198,0.00042090,0.00033078,-0.00001077,0.000159
 25,0.00002191,-0.02514224,-0.05883554,-0.03834334,0.02331810,0.0592970
 5,-0.00002968,0.00009875,-0.00001720,0.00013680,-0.00001710,0.00003394
 ,-0.00006539,0.00009337,-0.00001577,0.00010246,-0.00023094,-0.00026237
 ,0.00018252,0.00001016,0.00008430,-0.00004983,-0.00009452,0.00000446,0
 .00000366,0.00000366,0.00000063,0.00000199,0.00000262,0.00000110,-0.00
 002426,0.00000518,-0.00000583,0.00001325,-0.00000120,-0.00000261,-0.00
 143331,0.00183757,-0.00119546,0.00056238,0.00031152,0.00026435,-0.0077
 3876,-0.00411840,-0.02347439,-0.00142032,-0.00148740,0.00024622,0.0000
 1361,0.00010669,-0.00004714,0.00028096,-0.00142353,0.00016983,0.000083
 42,0.00009599,-0.00010614,0.00025784,0.00060095,0.00046808,0.00128681,
 -0.00142625,0.00196161,0.00004970,0.00029263,0.00079829,0.00003832,-0.
 00010776,-0.00012807,-0.00003511,0.00001357,-0.00001684,-0.00000548,-0
 .00000271,-0.00000286,-0.00007137,0.00004479,-0.00001556,0.00025284,0.
 00003812,0.00006347,0.00000373,-0.00004290,-0.00002425,0.00001716,0.00
 007451,-0.00001197,-0.00005007,0.00003180,0.00000539,-0.11974945,-0.03
 597358,-0.22166739,0.12347655,0.04056211,0.24471271,0.00015229,-0.0003
 4561,0.00004059,-0.00045046,0.00016802,-0.00011621,0.00088503,-0.00067
 450,0.00034793,0.00079715,0.00015073,0.00015057,-0.00038260,0.00015761
 ,-0.00002490,0.00022138,0.00034578,0.00003228,-0.00002004,0.00000225,-
 0.00000016,0.00001903,-0.00000244,0.00000301,-0.00002880,0.00002746,-0
 .00001258,0.00000191,0.00001110,-0.00000945,-0.00233692,-0.00393516,0.
 00019513,-0.00029711,0.00018455,0.00013864,-0.00853899,-0.01674497,0.0
 0314471,-0.00202779,0.00107099,0.00314003,0.00005801,-0.00007120,-0.00
 009337,0.00121464,0.00139426,-0.00058439,-0.00028341,-0.00074520,-0.00
 036781,0.00089009,0.00045103,0.00058282,0.00720960,0.02585452,0.000616
 71,-0.00300787,0.00286447,-0.00037730,-0.00040057,-0.00059318,0.000653
 23,-0.00032396,0.00001238,-0.00001464,0.00009657,-0.00006122,-0.000029
 07,0.00010899,0.00005322,0.00003531,-0.00138217,0.00037220,-0.00061003
 ,0.00049866,-0.00034517,-0.00000479,-0.00115219,-0.00015986,-0.0015280
 4,-0.00017002,0.00004265,0.00001302,-0.06547329,-0.06960546,-0.0047544
 4,-0.00484193,-0.01596038,0.00058570,0.07802966,0.00000201,0.00009926,
 -0.00000337,0.00007555,0.00000400,0.00001528,-0.00004598,0.00004249,-0
 .00005315,-0.00030595,-0.00002679,-0.00003891,0.00008848,-0.00005675,-
 0.00000373,-0.00010009,-0.00001549,0.00000484,-0.00000715,0.00000322,-
 0.00000781,0.00000744,-0.00000483,-0.00001253,0.00000367,0.00000999,-0
 .00000955,-0.00000828,0.00000111,0.00000919,0.00107076,-0.00123037,-0.
 00037613,0.00055301,-0.00005762,0.00032246,-0.00322824,-0.00467643,0.0
 0023249,-0.00081280,0.00064698,0.00112151,0.00008090,-0.00000919,-0.00
 018230,0.00129555,0.00083804,-0.00073683,-0.00008702,-0.00018240,-0.00
 005832,-0.00134549,0.00006393,-0.00179865,-0.00211322,-0.01712686,-0.0
 0212845,0.00218003,-0.00126593,0.00129964,0.00035974,0.00026333,-0.000
 20624,0.00014937,-0.00006683,0.00003071,-0.00003987,0.00009020,0.00006
 755,-0.00001028,-0.00002580,0.00008975,-0.00014838,-0.00017035,0.00012
 980,-0.00006184,0.00029653,0.00012826,-0.00039455,0.00091819,0.0001348
 0,-0.00037308,0.00025707,0.00000776,-0.07169617,-0.29314010,-0.0005562
 8,-0.00087789,-0.00301704,-0.00000814,0.07573394,0.31715889,-0.0001321
 4,0.00030949,-0.00004082,0.00041957,-0.00015513,0.00009424,-0.00072390
 ,0.00060151,-0.00034329,-0.00076070,-0.00008887,-0.00005051,0.00031234
 ,-0.00013552,0.00003330,-0.00018033,-0.00030120,-0.00003094,0.00001927
 ,-0.00000083,-0.00000055,-0.00001950,0.00000372,-0.00000303,0.00003010
 ,-0.00002502,0.00000731,-0.00000281,-0.00001122,0.00001263,0.00136850,
 0.00256782,0.00057359,0.00055606,0.00030511,0.00024099,0.01219775,0.02
 478468,-0.00501289,0.00325071,-0.00159056,-0.00353984,-0.00021306,-0.0
 0007306,0.00009099,-0.00145156,-0.00089223,-0.00011708,0.00035817,0.00
 081937,0.00041759,-0.00078383,0.00011813,-0.00021783,0.00235295,-0.001
 12112,-0.00012725,0.00042855,-0.00055146,0.00070336,0.00000252,-0.0001
 5268,0.00007033,-0.00003773,-0.00001334,0.00000556,0.00001581,-0.00002
 444,-0.00000367,0.00003529,0.00000623,0.00003287,-0.00104419,0.0005661
 1,0.00000265,0.00039755,-0.00019546,0.00005123,-0.00119706,-0.00033773
 ,-0.00088648,0.00002252,0.00001074,-0.00002783,-0.00687750,-0.00175702
 ,-0.04553417,-0.00687290,-0.02556124,0.00130304,-0.00056486,0.00246023
 ,0.05104966,-0.00004711,0.00010109,-0.00000122,0.00014976,-0.00006582,
 -0.00016369,-0.00005097,0.00064216,-0.00028585,-0.00232442,0.00314395,
 0.00187700,-0.00056149,-0.00066440,-0.00019092,-0.00018984,0.00013691,
 -0.00027369,-0.00002167,-0.00000320,0.00002100,-0.00001276,-0.00002150
 ,-0.00003880,0.00001834,0.00003037,0.00006056,-0.00013289,-0.00001124,
 0.00005783,-0.01699130,-0.00268469,-0.01981884,0.00261358,-0.00071701,
 0.00043125,-0.12275131,-0.02277090,-0.12618914,-0.00895229,-0.00613948
 ,-0.00763487,0.00042777,-0.00007954,0.00052848,0.00192245,-0.00226719,
 0.00216387,-0.00055902,-0.00059096,0.00028604,0.00011554,-0.00000726,-
 0.00013435,0.00141891,0.00062365,0.00089411,0.00010039,-0.00012224,-0.
 00007795,0.00000557,0.00002532,0.00001349,0.00006243,-0.00003835,-0.00
 000569,0.00001706,-0.00004531,-0.00001950,0.00005745,-0.00004704,0.000
 02931,-0.00025539,0.00012011,-0.00012877,-0.00001575,-0.00005687,0.000
 04165,-0.00026170,-0.00050590,0.00011062,0.00014152,-0.00007421,0.0000
 3725,0.00696128,0.00279217,0.01909173,-0.00197353,-0.00045791,0.003323
 34,0.00093509,0.00005583,-0.00090557,0.14015427,0.00022489,-0.00037384
 ,0.00005670,-0.00048176,0.00024339,0.00007904,0.00107938,-0.00104234,-
 0.00027024,0.00243655,-0.00185263,-0.00122619,0.00004626,0.00060754,-0
 .00016476,0.00033230,0.00038393,0.00029202,-0.00001503,0.00001313,-0.0
 0004391,0.00006627,0.00000658,0.00002716,-0.00005310,0.00004466,-0.000
 09833,0.00008165,0.00002101,0.00000388,0.01119914,0.00380485,0.0185942
 6,0.00074035,-0.00214764,0.00007869,-0.02519660,-0.05732153,-0.0400970
 8,-0.02060682,-0.00787051,-0.02425060,0.00033000,0.00070059,0.00070614
 ,0.00048729,0.00012252,-0.00162281,-0.00144511,-0.00187144,0.00138511,
 -0.00003816,0.00015088,0.00010510,0.00011536,-0.00041981,-0.00090293,0
 .00002631,0.00003153,-0.00005284,-0.00004407,-0.00008014,0.00003600,-0
 .00002991,0.00001625,0.00000029,0.00000574,-0.00000288,-0.00000029,0.0
 0000450,0.00000691,-0.00001645,0.00000771,0.00021084,-0.00001940,-0.00
 000578,-0.00002327,0.00000994,-0.00019013,-0.00017037,0.00009126,0.000
 05817,-0.00007928,0.00001005,0.00132768,0.00161272,0.00412835,-0.00050
 976,0.00061884,0.00071045,0.00034721,0.00037957,0.00043499,0.02969946,
 0.06427995,-0.00000091,-0.00003817,-0.00000190,-0.00006533,0.00002131,
 -0.00002911,0.00005827,0.00009042,0.00015098,0.00054065,0.00025316,-0.
 00054153,0.00002325,-0.00012868,0.00012067,0.00000243,0.00002018,0.000
 05243,-0.00000416,-0.00000317,0.00000127,0.,-0.00000529,-0.00002432,0.
 00001144,0.00001782,-0.00001471,-0.00000529,-0.00000342,-0.00001985,0.
 00044342,-0.00249290,-0.00036834,0.00054117,0.00006354,-0.00021319,-0.
 12416927,-0.03873722,-0.20530909,0.00199592,0.00062861,0.00368302,-0.0
 0032327,-0.00041904,0.00044242,0.00095222,0.00093410,0.00111129,0.0001
 4236,0.00021299,-0.00035631,0.00046832,-0.00016003,0.00057257,-0.00199
 617,0.00040564,0.00069499,-0.00014575,0.00003027,0.00018310,0.00008297
 ,0.00008028,-0.00016284,-0.00001033,0.00001477,0.00001466,-0.00002119,
 0.00004583,0.00001730,-0.00006075,0.00006935,-0.00003449,0.00024245,-0
 .00024795,0.00031892,0.00002283,0.00005296,-0.00007594,0.00017060,0.00
 044244,0.00001292,-0.00015931,0.00007469,-0.00001060,-0.00869404,-0.00
 421529,-0.02779962,0.00364380,0.00085032,-0.00312359,-0.00058764,0.000
 12611,0.00124685,0.12690130,0.04201637,0.22946201\\0.00000101,0.000000
 63,0.00000383,-0.00000247,0.00000315,0.00000382,0.00000031,0.00000090,
 0.00000426,0.00000670,0.00000393,0.00000073,-0.00000361,0.00000158,-0.
 00000525,0.00000172,0.00000113,-0.00000078,-0.00000097,0.00000081,0.00
 000484,-0.00000051,0.00000027,0.00001047,0.00000269,0.00000183,-0.0000
 0621,0.00000059,0.00000140,-0.00000327,-0.00001065,-0.00000840,-0.0000
 0327,-0.00000087,-0.00000057,0.00000785,0.00001486,-0.00000302,-0.0000
 1808,-0.00000097,0.00000811,0.00000784,-0.00000156,0.00000030,0.000005
 76,0.00000503,0.00000891,-0.00000543,-0.00000229,0.00000600,0.00001280
 ,-0.00000619,-0.00000743,-0.00001444,0.00000579,-0.00000177,0.00000010
 ,-0.00000179,-0.00000593,0.00000281,0.00000556,-0.00001189,0.00000339,
 -0.00000434,-0.00000182,-0.00000008,-0.00000352,-0.00000273,0.00000441
 ,0.00000003,0.00000089,0.00000221,0.00000676,0.00002018,-0.00000079,0.
 00000063,-0.00000147,-0.00000554,-0.00000211,-0.00000439,-0.00000808,-
 0.00000051,-0.00000574,-0.00000860,-0.00001740,0.00000070,0.00001348,0
 .00000287,-0.00000723,-0.00000311,0.00000296,-0.00000244,-0.00000671,0
 .00000224,0.00000410,0.00000105\\\@


 THE ONLY TROUBLE WITH A SURE THING IS THE UNCERTAINTY.
     -- FROM A TEABAG (BELONGING TO W.H.?)
 Job cpu time:       0 days  3 hours  2 minutes 54.2 seconds.
 File lengths (MBytes):  RWF=    561 Int=      0 D2E=      0 Chk=     21 Scr=      1
 Normal termination of Gaussian 09 at Thu Aug 27 19:07:46 2020.
