 Entering Gaussian System, Link 0=g09
 Input=b3lyp_TS_claisen_PM6_toluene_water.com
 Output=b3lyp_TS_claisen_PM6_toluene_water.log
 Initial command:
 /apps/applications/gaussian/G09.D01/2/default/g09/l1.exe "/local/714076.1.40core-192G.q/Gau-113048.inp" -scrdir="/local/714076.1.40core-192G.q/"
 Entering Link 1 = /apps/applications/gaussian/G09.D01/2/default/g09/l1.exe PID=    113049.
  
 Copyright (c) 1988,1990,1992,1993,1995,1998,2003,2009,2013,
            Gaussian, Inc.  All Rights Reserved.
  
 This is part of the Gaussian(R) 09 program.  It is based on
 the Gaussian(R) 03 system (copyright 2003, Gaussian, Inc.),
 the Gaussian(R) 98 system (copyright 1998, Gaussian, Inc.),
 the Gaussian(R) 94 system (copyright 1995, Gaussian, Inc.),
 the Gaussian 92(TM) system (copyright 1992, Gaussian, Inc.),
 the Gaussian 90(TM) system (copyright 1990, Gaussian, Inc.),
 the Gaussian 88(TM) system (copyright 1988, Gaussian, Inc.),
 the Gaussian 86(TM) system (copyright 1986, Carnegie Mellon
 University), and the Gaussian 82(TM) system (copyright 1983,
 Carnegie Mellon University). Gaussian is a federally registered
 trademark of Gaussian, Inc.
  
 This software contains proprietary and confidential information,
 including trade secrets, belonging to Gaussian, Inc.
  
 This software is provided under written license and may be
 used, copied, transmitted, or stored only in accord with that
 written license.
  
 The following legend is applicable only to US Government
 contracts under FAR:
  
                    RESTRICTED RIGHTS LEGEND
  
 Use, reproduction and disclosure by the US Government is
 subject to restrictions as set forth in subparagraphs (a)
 and (c) of the Commercial Computer Software - Restricted
 Rights clause in FAR 52.227-19.
  
 Gaussian, Inc.
 340 Quinnipiac St., Bldg. 40, Wallingford CT 06492
  
  
 ---------------------------------------------------------------
 Warning -- This program may not be used in any manner that
 competes with the business of Gaussian, Inc. or will provide
 assistance to any competitor of Gaussian, Inc.  The licensee
 of this program is prohibited from giving any competitor of
 Gaussian, Inc. access to this program.  By using this program,
 the user acknowledges that Gaussian, Inc. is engaged in the
 business of creating and licensing software in the field of
 computational chemistry and represents and warrants to the
 licensee that it is not a competitor of Gaussian, Inc. and that
 it will not use this program in any manner prohibited above.
 ---------------------------------------------------------------
  

 Cite this work as:
 Gaussian 09, Revision D.01,
 M. J. Frisch, G. W. Trucks, H. B. Schlegel, G. E. Scuseria, 
 M. A. Robb, J. R. Cheeseman, G. Scalmani, V. Barone, B. Mennucci, 
 G. A. Petersson, H. Nakatsuji, M. Caricato, X. Li, H. P. Hratchian, 
 A. F. Izmaylov, J. Bloino, G. Zheng, J. L. Sonnenberg, M. Hada, 
 M. Ehara, K. Toyota, R. Fukuda, J. Hasegawa, M. Ishida, T. Nakajima, 
 Y. Honda, O. Kitao, H. Nakai, T. Vreven, J. A. Montgomery, Jr., 
 J. E. Peralta, F. Ogliaro, M. Bearpark, J. J. Heyd, E. Brothers, 
 K. N. Kudin, V. N. Staroverov, T. Keith, R. Kobayashi, J. Normand, 
 K. Raghavachari, A. Rendell, J. C. Burant, S. S. Iyengar, J. Tomasi, 
 M. Cossi, N. Rega, J. M. Millam, M. Klene, J. E. Knox, J. B. Cross, 
 V. Bakken, C. Adamo, J. Jaramillo, R. Gomperts, R. E. Stratmann, 
 O. Yazyev, A. J. Austin, R. Cammi, C. Pomelli, J. W. Ochterski, 
 R. L. Martin, K. Morokuma, V. G. Zakrzewski, G. A. Voth, 
 P. Salvador, J. J. Dannenberg, S. Dapprich, A. D. Daniels, 
 O. Farkas, J. B. Foresman, J. V. Ortiz, J. Cioslowski, 
 and D. J. Fox, Gaussian, Inc., Wallingford CT, 2013.
 
 ******************************************
 Gaussian 09:  ES64L-G09RevD.01 24-Apr-2013
                27-Aug-2020 
 ******************************************
 %nprocshared=4
 Will use up to    4 processors via shared memory.
 %chk=b3lyp_TS_claisen_PM6_toluene_water.chk
 ----------------------------------------------------------------------
 # opt=(calcfc,ts,noeigentest) b3lyp/6-31+g(d,p) scrf=(cpcm,solvent=wat
 er) geom=connectivity empiricaldispersion=gd3
 ----------------------------------------------------------------------
 1/5=1,10=4,11=1,14=-1,18=20,26=3,38=1,57=2/1,3;
 2/9=110,12=2,17=6,18=5,40=1/2;
 3/5=1,6=6,7=111,11=2,16=1,25=1,30=1,70=2101,71=2,72=1,74=-5,124=31,140=1/1,2,3;
 4//1;
 5/5=2,38=5,53=1/2;
 8/6=4,10=90,11=11/1;
 11/6=1,8=1,9=11,15=111,16=1/1,2,10;
 10/6=1,13=1/2;
 6/7=2,8=2,9=2,10=2,28=1/1;
 7/10=1,18=20,25=1/1,2,3,16;
 1/5=1,10=4,11=1,14=-1,18=20,26=3/3(2);
 2/9=110/2;
 99//99;
 2/9=110/2;
 3/5=1,6=6,7=111,11=2,16=1,25=1,30=1,70=2105,71=1,72=1,74=-5,124=31/1,2,3;
 4/5=5,16=3,69=1/1;
 5/5=2,38=5,53=1/2;
 7//1,2,3,16;
 1/5=1,11=1,14=-1,18=20,26=3/3(-5);
 2/9=110/2;
 6/7=2,8=2,9=2,10=2,19=2,28=1/1;
 99/9=1/99;
 -------------------
 Title Card Required
 -------------------
 Symbolic Z-matrix:
 Charge =  0 Multiplicity = 1
 C                    -2.41287   2.64448   0.28418 
 C                    -2.68476   1.28675   0.26074 
 C                    -1.67398   0.3632   -0.10305 
 C                    -0.38831   0.84705  -0.43886 
 C                    -0.13342   2.23817  -0.41487 
 C                    -1.13061   3.12689  -0.05542 
 H                    -3.19246   3.35495   0.5658 
 H                    -3.6826    0.93532   0.52347 
 H                     0.867     2.58934  -0.68131 
 H                    -0.93649   4.19911  -0.03117 
 C                     0.67639  -0.09269  -0.82721 
 C                    -1.89174  -1.06783  -0.15615 
 C                     0.40688  -1.49381  -0.82598 
 H                     1.02885  -2.14563  -1.44679 
 C                    -0.92961  -1.94927  -0.53379 
 H                    -1.1262   -3.02221  -0.60283 
 O                     1.86301   0.3437   -1.03529 
 Cl                   -3.45628  -1.67001   0.27254 
 C                     3.06734  -0.09904   0.37888 
 C                     2.75182  -1.4775    0.4416 
 H                     3.43046  -2.17207  -0.05728 
 C                     4.31292   0.33375  -0.32841 
 H                     4.70759  -0.42483  -1.01743 
 H                     4.13078   1.23878  -0.93135 
 H                     5.11815   0.58199   0.37969 
 C                     2.54075   0.86679   1.39541 
 H                     1.50942   0.654     1.71072 
 H                     3.16133   0.84267   2.30583 
 H                     2.54856   1.90482   1.03155 
 C                     1.50755  -1.94405   0.84283 
 H                     1.30123  -3.01344   0.85188 
 H                     0.87688  -1.37979   1.52894 
 
 Add virtual bond connecting atoms C19        and O17        Dist= 3.61D+00.
 Add virtual bond connecting atoms C30        and C13        Dist= 3.87D+00.

 GradGradGradGradGradGradGradGradGradGradGradGradGradGradGradGradGradGrad
 Berny optimization.
 Initialization pass.
                           ----------------------------
                           !    Initial Parameters    !
                           ! (Angstroms and Degrees)  !
 --------------------------                            --------------------------
 ! Name  Definition              Value          Derivative Info.                !
 --------------------------------------------------------------------------------
 ! R1    R(1,2)                  1.3849         calculate D2E/DX2 analytically  !
 ! R2    R(1,6)                  1.4115         calculate D2E/DX2 analytically  !
 ! R3    R(1,7)                  1.0917         calculate D2E/DX2 analytically  !
 ! R4    R(2,3)                  1.4167         calculate D2E/DX2 analytically  !
 ! R5    R(2,8)                  1.0901         calculate D2E/DX2 analytically  !
 ! R6    R(3,4)                  1.4142         calculate D2E/DX2 analytically  !
 ! R7    R(3,12)                 1.4485         calculate D2E/DX2 analytically  !
 ! R8    R(4,5)                  1.4145         calculate D2E/DX2 analytically  !
 ! R9    R(4,11)                 1.4722         calculate D2E/DX2 analytically  !
 ! R10   R(5,6)                  1.3833         calculate D2E/DX2 analytically  !
 ! R11   R(5,9)                  1.0932         calculate D2E/DX2 analytically  !
 ! R12   R(6,10)                 1.0899         calculate D2E/DX2 analytically  !
 ! R13   R(11,13)                1.4268         calculate D2E/DX2 analytically  !
 ! R14   R(11,17)                1.2813         calculate D2E/DX2 analytically  !
 ! R15   R(12,15)                1.3584         calculate D2E/DX2 analytically  !
 ! R16   R(12,18)                1.7304         calculate D2E/DX2 analytically  !
 ! R17   R(13,14)                1.0941         calculate D2E/DX2 analytically  !
 ! R18   R(13,15)                1.4419         calculate D2E/DX2 analytically  !
 ! R19   R(13,30)                2.0492         calculate D2E/DX2 analytically  !
 ! R20   R(15,16)                1.093          calculate D2E/DX2 analytically  !
 ! R21   R(17,19)                1.9095         calculate D2E/DX2 analytically  !
 ! R22   R(19,20)                1.4155         calculate D2E/DX2 analytically  !
 ! R23   R(19,22)                1.4963         calculate D2E/DX2 analytically  !
 ! R24   R(19,26)                1.4978         calculate D2E/DX2 analytically  !
 ! R25   R(20,21)                1.0917         calculate D2E/DX2 analytically  !
 ! R26   R(20,30)                1.3881         calculate D2E/DX2 analytically  !
 ! R27   R(22,23)                1.0982         calculate D2E/DX2 analytically  !
 ! R28   R(22,24)                1.1026         calculate D2E/DX2 analytically  !
 ! R29   R(22,25)                1.1006         calculate D2E/DX2 analytically  !
 ! R30   R(26,27)                1.0993         calculate D2E/DX2 analytically  !
 ! R31   R(26,28)                1.1021         calculate D2E/DX2 analytically  !
 ! R32   R(26,29)                1.1            calculate D2E/DX2 analytically  !
 ! R33   R(30,31)                1.0892         calculate D2E/DX2 analytically  !
 ! R34   R(30,32)                1.0894         calculate D2E/DX2 analytically  !
 ! A1    A(2,1,6)              120.6211         calculate D2E/DX2 analytically  !
 ! A2    A(2,1,7)              120.1451         calculate D2E/DX2 analytically  !
 ! A3    A(6,1,7)              119.2338         calculate D2E/DX2 analytically  !
 ! A4    A(1,2,3)              120.2258         calculate D2E/DX2 analytically  !
 ! A5    A(1,2,8)              119.4532         calculate D2E/DX2 analytically  !
 ! A6    A(3,2,8)              120.321          calculate D2E/DX2 analytically  !
 ! A7    A(2,3,4)              119.1167         calculate D2E/DX2 analytically  !
 ! A8    A(2,3,12)             123.108          calculate D2E/DX2 analytically  !
 ! A9    A(4,3,12)             117.7747         calculate D2E/DX2 analytically  !
 ! A10   A(3,4,5)              119.7552         calculate D2E/DX2 analytically  !
 ! A11   A(3,4,11)             120.1141         calculate D2E/DX2 analytically  !
 ! A12   A(5,4,11)             120.1269         calculate D2E/DX2 analytically  !
 ! A13   A(4,5,6)              120.4226         calculate D2E/DX2 analytically  !
 ! A14   A(4,5,9)              118.4693         calculate D2E/DX2 analytically  !
 ! A15   A(6,5,9)              121.1075         calculate D2E/DX2 analytically  !
 ! A16   A(1,6,5)              119.8571         calculate D2E/DX2 analytically  !
 ! A17   A(1,6,10)             119.5171         calculate D2E/DX2 analytically  !
 ! A18   A(5,6,10)             120.6257         calculate D2E/DX2 analytically  !
 ! A19   A(4,11,13)            119.3393         calculate D2E/DX2 analytically  !
 ! A20   A(4,11,17)            119.6813         calculate D2E/DX2 analytically  !
 ! A21   A(13,11,17)           120.6315         calculate D2E/DX2 analytically  !
 ! A22   A(3,12,15)            123.0096         calculate D2E/DX2 analytically  !
 ! A23   A(3,12,18)            118.0771         calculate D2E/DX2 analytically  !
 ! A24   A(15,12,18)           118.9119         calculate D2E/DX2 analytically  !
 ! A25   A(11,13,14)           118.4994         calculate D2E/DX2 analytically  !
 ! A26   A(11,13,15)           119.0419         calculate D2E/DX2 analytically  !
 ! A27   A(11,13,30)            96.6038         calculate D2E/DX2 analytically  !
 ! A28   A(14,13,15)           116.982          calculate D2E/DX2 analytically  !
 ! A29   A(14,13,30)            91.4815         calculate D2E/DX2 analytically  !
 ! A30   A(15,13,30)           105.2739         calculate D2E/DX2 analytically  !
 ! A31   A(12,15,13)           120.5229         calculate D2E/DX2 analytically  !
 ! A32   A(12,15,16)           121.8131         calculate D2E/DX2 analytically  !
 ! A33   A(13,15,16)           117.6454         calculate D2E/DX2 analytically  !
 ! A34   A(11,17,19)           112.6339         calculate D2E/DX2 analytically  !
 ! A35   A(17,19,20)            96.7779         calculate D2E/DX2 analytically  !
 ! A36   A(17,19,22)            96.1932         calculate D2E/DX2 analytically  !
 ! A37   A(17,19,26)            97.5494         calculate D2E/DX2 analytically  !
 ! A38   A(20,19,22)           119.2191         calculate D2E/DX2 analytically  !
 ! A39   A(20,19,26)           121.2997         calculate D2E/DX2 analytically  !
 ! A40   A(22,19,26)           115.274          calculate D2E/DX2 analytically  !
 ! A41   A(19,20,21)           117.4358         calculate D2E/DX2 analytically  !
 ! A42   A(19,20,30)           122.678          calculate D2E/DX2 analytically  !
 ! A43   A(21,20,30)           118.3894         calculate D2E/DX2 analytically  !
 ! A44   A(19,22,23)           113.3256         calculate D2E/DX2 analytically  !
 ! A45   A(19,22,24)           110.9998         calculate D2E/DX2 analytically  !
 ! A46   A(19,22,25)           111.7237         calculate D2E/DX2 analytically  !
 ! A47   A(23,22,24)           106.4543         calculate D2E/DX2 analytically  !
 ! A48   A(23,22,25)           107.249          calculate D2E/DX2 analytically  !
 ! A49   A(24,22,25)           106.7093         calculate D2E/DX2 analytically  !
 ! A50   A(19,26,27)           113.5593         calculate D2E/DX2 analytically  !
 ! A51   A(19,26,28)           110.4            calculate D2E/DX2 analytically  !
 ! A52   A(19,26,29)           112.4279         calculate D2E/DX2 analytically  !
 ! A53   A(27,26,28)           106.6851         calculate D2E/DX2 analytically  !
 ! A54   A(27,26,29)           106.5121         calculate D2E/DX2 analytically  !
 ! A55   A(28,26,29)           106.8527         calculate D2E/DX2 analytically  !
 ! A56   A(13,30,20)            99.9174         calculate D2E/DX2 analytically  !
 ! A57   A(13,30,31)            96.9348         calculate D2E/DX2 analytically  !
 ! A58   A(13,30,32)            95.0569         calculate D2E/DX2 analytically  !
 ! A59   A(20,30,31)           120.1464         calculate D2E/DX2 analytically  !
 ! A60   A(20,30,32)           121.794          calculate D2E/DX2 analytically  !
 ! A61   A(31,30,32)           113.1812         calculate D2E/DX2 analytically  !
 ! D1    D(6,1,2,3)              0.1356         calculate D2E/DX2 analytically  !
 ! D2    D(6,1,2,8)           -179.8061         calculate D2E/DX2 analytically  !
 ! D3    D(7,1,2,3)           -179.9314         calculate D2E/DX2 analytically  !
 ! D4    D(7,1,2,8)              0.1269         calculate D2E/DX2 analytically  !
 ! D5    D(2,1,6,5)             -0.0335         calculate D2E/DX2 analytically  !
 ! D6    D(2,1,6,10)           179.9824         calculate D2E/DX2 analytically  !
 ! D7    D(7,1,6,5)           -179.9672         calculate D2E/DX2 analytically  !
 ! D8    D(7,1,6,10)             0.0488         calculate D2E/DX2 analytically  !
 ! D9    D(1,2,3,4)              0.074          calculate D2E/DX2 analytically  !
 ! D10   D(1,2,3,12)          -179.6211         calculate D2E/DX2 analytically  !
 ! D11   D(8,2,3,4)           -179.9848         calculate D2E/DX2 analytically  !
 ! D12   D(8,2,3,12)             0.3201         calculate D2E/DX2 analytically  !
 ! D13   D(2,3,4,5)             -0.3817         calculate D2E/DX2 analytically  !
 ! D14   D(2,3,4,11)          -179.6689         calculate D2E/DX2 analytically  !
 ! D15   D(12,3,4,5)           179.3297         calculate D2E/DX2 analytically  !
 ! D16   D(12,3,4,11)            0.0425         calculate D2E/DX2 analytically  !
 ! D17   D(2,3,12,15)          178.497          calculate D2E/DX2 analytically  !
 ! D18   D(2,3,12,18)           -1.06           calculate D2E/DX2 analytically  !
 ! D19   D(4,3,12,15)           -1.2019         calculate D2E/DX2 analytically  !
 ! D20   D(4,3,12,18)          179.241          calculate D2E/DX2 analytically  !
 ! D21   D(3,4,5,6)              0.4882         calculate D2E/DX2 analytically  !
 ! D22   D(3,4,5,9)           -179.8071         calculate D2E/DX2 analytically  !
 ! D23   D(11,4,5,6)           179.7753         calculate D2E/DX2 analytically  !
 ! D24   D(11,4,5,9)            -0.52           calculate D2E/DX2 analytically  !
 ! D25   D(3,4,11,13)           -1.6638         calculate D2E/DX2 analytically  !
 ! D26   D(3,4,11,17)         -174.9358         calculate D2E/DX2 analytically  !
 ! D27   D(5,4,11,13)          179.0517         calculate D2E/DX2 analytically  !
 ! D28   D(5,4,11,17)            5.7797         calculate D2E/DX2 analytically  !
 ! D29   D(4,5,6,1)             -0.2795         calculate D2E/DX2 analytically  !
 ! D30   D(4,5,6,10)           179.7044         calculate D2E/DX2 analytically  !
 ! D31   D(9,5,6,1)           -179.9763         calculate D2E/DX2 analytically  !
 ! D32   D(9,5,6,10)             0.0076         calculate D2E/DX2 analytically  !
 ! D33   D(4,11,13,14)         157.3936         calculate D2E/DX2 analytically  !
 ! D34   D(4,11,13,15)           4.2682         calculate D2E/DX2 analytically  !
 ! D35   D(4,11,13,30)        -107.3005         calculate D2E/DX2 analytically  !
 ! D36   D(17,11,13,14)        -29.3999         calculate D2E/DX2 analytically  !
 ! D37   D(17,11,13,15)        177.4747         calculate D2E/DX2 analytically  !
 ! D38   D(17,11,13,30)         65.906          calculate D2E/DX2 analytically  !
 ! D39   D(4,11,17,19)         105.7885         calculate D2E/DX2 analytically  !
 ! D40   D(13,11,17,19)        -67.3949         calculate D2E/DX2 analytically  !
 ! D41   D(3,12,15,13)           3.9339         calculate D2E/DX2 analytically  !
 ! D42   D(3,12,15,16)        -177.6701         calculate D2E/DX2 analytically  !
 ! D43   D(18,12,15,13)       -176.5126         calculate D2E/DX2 analytically  !
 ! D44   D(18,12,15,16)          1.8835         calculate D2E/DX2 analytically  !
 ! D45   D(11,13,15,12)         -5.4389         calculate D2E/DX2 analytically  !
 ! D46   D(11,13,15,16)        176.0997         calculate D2E/DX2 analytically  !
 ! D47   D(14,13,15,12)       -158.9653         calculate D2E/DX2 analytically  !
 ! D48   D(14,13,15,16)         22.5734         calculate D2E/DX2 analytically  !
 ! D49   D(30,13,15,12)        101.2988         calculate D2E/DX2 analytically  !
 ! D50   D(30,13,15,16)        -77.1626         calculate D2E/DX2 analytically  !
 ! D51   D(11,13,30,20)        -57.9387         calculate D2E/DX2 analytically  !
 ! D52   D(11,13,30,31)        179.7274         calculate D2E/DX2 analytically  !
 ! D53   D(11,13,30,32)         65.5946         calculate D2E/DX2 analytically  !
 ! D54   D(14,13,30,20)         60.975          calculate D2E/DX2 analytically  !
 ! D55   D(14,13,30,31)        -61.3589         calculate D2E/DX2 analytically  !
 ! D56   D(14,13,30,32)       -175.4917         calculate D2E/DX2 analytically  !
 ! D57   D(15,13,30,20)        179.5001         calculate D2E/DX2 analytically  !
 ! D58   D(15,13,30,31)         57.1662         calculate D2E/DX2 analytically  !
 ! D59   D(15,13,30,32)        -56.9666         calculate D2E/DX2 analytically  !
 ! D60   D(11,17,19,20)         49.8718         calculate D2E/DX2 analytically  !
 ! D61   D(11,17,19,22)        170.3605         calculate D2E/DX2 analytically  !
 ! D62   D(11,17,19,26)        -73.0503         calculate D2E/DX2 analytically  !
 ! D63   D(17,19,20,21)         99.5856         calculate D2E/DX2 analytically  !
 ! D64   D(17,19,20,30)        -66.2172         calculate D2E/DX2 analytically  !
 ! D65   D(22,19,20,21)         -1.4229         calculate D2E/DX2 analytically  !
 ! D66   D(22,19,20,30)       -167.2257         calculate D2E/DX2 analytically  !
 ! D67   D(26,19,20,21)       -157.2878         calculate D2E/DX2 analytically  !
 ! D68   D(26,19,20,30)         36.9094         calculate D2E/DX2 analytically  !
 ! D69   D(17,19,22,23)        -82.4112         calculate D2E/DX2 analytically  !
 ! D70   D(17,19,22,24)         37.3195         calculate D2E/DX2 analytically  !
 ! D71   D(17,19,22,25)        156.2964         calculate D2E/DX2 analytically  !
 ! D72   D(20,19,22,23)         18.9337         calculate D2E/DX2 analytically  !
 ! D73   D(20,19,22,24)        138.6645         calculate D2E/DX2 analytically  !
 ! D74   D(20,19,22,25)       -102.3586         calculate D2E/DX2 analytically  !
 ! D75   D(26,19,22,23)        176.2052         calculate D2E/DX2 analytically  !
 ! D76   D(26,19,22,24)        -64.064          calculate D2E/DX2 analytically  !
 ! D77   D(26,19,22,25)         54.9129         calculate D2E/DX2 analytically  !
 ! D78   D(17,19,26,27)         64.7988         calculate D2E/DX2 analytically  !
 ! D79   D(17,19,26,28)       -175.4429         calculate D2E/DX2 analytically  !
 ! D80   D(17,19,26,29)        -56.2258         calculate D2E/DX2 analytically  !
 ! D81   D(20,19,26,27)        -37.9049         calculate D2E/DX2 analytically  !
 ! D82   D(20,19,26,28)         81.8534         calculate D2E/DX2 analytically  !
 ! D83   D(20,19,26,29)       -158.9295         calculate D2E/DX2 analytically  !
 ! D84   D(22,19,26,27)        165.3385         calculate D2E/DX2 analytically  !
 ! D85   D(22,19,26,28)        -74.9031         calculate D2E/DX2 analytically  !
 ! D86   D(22,19,26,29)         44.3139         calculate D2E/DX2 analytically  !
 ! D87   D(19,20,30,13)         74.3755         calculate D2E/DX2 analytically  !
 ! D88   D(19,20,30,31)        178.4558         calculate D2E/DX2 analytically  !
 ! D89   D(19,20,30,32)        -27.9615         calculate D2E/DX2 analytically  !
 ! D90   D(21,20,30,13)        -91.299          calculate D2E/DX2 analytically  !
 ! D91   D(21,20,30,31)         12.7814         calculate D2E/DX2 analytically  !
 ! D92   D(21,20,30,32)        166.3641         calculate D2E/DX2 analytically  !
 --------------------------------------------------------------------------------
 Trust Radius=3.00D-01 FncErr=1.00D-07 GrdErr=1.00D-06
 Number of steps in this run=    192 maximum allowed number of steps=    192.
 Search for a saddle point of order  1.
 GradGradGradGradGradGradGradGradGradGradGradGradGradGradGradGradGradGrad

                          Input orientation:                          
 ---------------------------------------------------------------------
 Center     Atomic      Atomic             Coordinates (Angstroms)
 Number     Number       Type             X           Y           Z
 ---------------------------------------------------------------------
      1          6           0       -2.412871    2.644484    0.284176
      2          6           0       -2.684755    1.286754    0.260738
      3          6           0       -1.673984    0.363203   -0.103049
      4          6           0       -0.388309    0.847051   -0.438860
      5          6           0       -0.133420    2.238167   -0.414866
      6          6           0       -1.130614    3.126893   -0.055417
      7          1           0       -3.192463    3.354947    0.565800
      8          1           0       -3.682599    0.935321    0.523473
      9          1           0        0.866999    2.589341   -0.681314
     10          1           0       -0.936486    4.199115   -0.031172
     11          6           0        0.676394   -0.092689   -0.827210
     12          6           0       -1.891739   -1.067829   -0.156147
     13          6           0        0.406881   -1.493811   -0.825979
     14          1           0        1.028845   -2.145626   -1.446789
     15          6           0       -0.929611   -1.949267   -0.533786
     16          1           0       -1.126198   -3.022205   -0.602826
     17          8           0        1.863009    0.343698   -1.035294
     18         17           0       -3.456275   -1.670006    0.272541
     19          6           0        3.067336   -0.099035    0.378881
     20          6           0        2.751818   -1.477501    0.441603
     21          1           0        3.430457   -2.172066   -0.057276
     22          6           0        4.312920    0.333747   -0.328410
     23          1           0        4.707593   -0.424825   -1.017432
     24          1           0        4.130783    1.238783   -0.931353
     25          1           0        5.118147    0.581992    0.379686
     26          6           0        2.540754    0.866790    1.395405
     27          1           0        1.509418    0.654001    1.710720
     28          1           0        3.161333    0.842673    2.305826
     29          1           0        2.548562    1.904823    1.031549
     30          6           0        1.507552   -1.944046    0.842831
     31          1           0        1.301225   -3.013444    0.851875
     32          1           0        0.876879   -1.379791    1.528943
 ---------------------------------------------------------------------
                    Distance matrix (angstroms):
                    1          2          3          4          5
     1  C    0.000000
     2  C    1.384883   0.000000
     3  C    2.429020   1.416667   0.000000
     4  C    2.802213   2.440582   1.414156   0.000000
     5  C    2.418605   2.805519   2.446642   1.414478   0.000000
     6  C    1.411462   2.429284   2.817002   2.428111   1.383269
     7  H    1.091711   2.151337   3.421063   3.893862   3.400977
     8  H    2.142594   1.090058   2.180455   3.433107   3.895454
     9  H    3.419468   3.898609   3.427342   2.161055   1.093232
    10  H    2.167034   3.409326   3.906826   3.420971   2.153475
    11  C    4.274442   3.792600   2.501304   1.472250   2.501743
    12  C    3.774484   2.519271   1.448478   2.450917   3.753429
    13  C    5.129223   4.297756   2.881168   2.502364   3.793231
    14  H    6.147097   5.337388   3.924939   3.461266   4.651168
    15  C    4.896087   3.766116   2.467214   2.849809   4.264114
    16  H    5.878236   4.662829   3.465665   3.942399   5.356533
    17  O    5.031676   4.821951   3.657838   2.382757   2.821289
    18  Cl   4.438880   3.055783   2.729756   4.031635   5.175684
    19  C    6.129318   5.917848   4.788114   3.674951   4.041953
    20  C    6.609808   6.101651   4.824164   4.004891   4.781666
    21  H    7.580252   7.032808   5.699562   4.882996   5.681483
    22  C    7.137999   7.086803   5.991216   4.730458   4.837792
    23  H    7.862306   7.694805   6.494737   5.283998   5.557879
    24  H    6.802420   6.919172   5.928579   4.562696   4.410097
    25  H    7.808920   7.835567   6.812778   5.573269   5.563559
    26  C    5.378980   5.363747   4.501442   3.456057   3.508413
    27  H    4.624003   4.482623   3.675373   2.873905   3.118752
    28  H    6.197204   6.209375   5.423362   4.487012   4.494993
    29  H    5.071635   5.325764   4.636141   3.450536   3.065332
    30  C    6.061058   5.324691   4.042309   3.609327   4.665351
    31  H    6.791829   5.893147   4.600597   4.407260   5.589477
    32  H    5.344781   4.626450   3.494042   3.229826   4.229506
                    6          7          8          9         10
     6  C    0.000000
     7  H    2.165442   0.000000
     8  H    3.413316   2.469132   0.000000
     9  H    2.161288   4.315168   4.988601   0.000000
    10  H    1.089924   2.481618   4.301293   2.503321   0.000000
    11  C    3.771823   5.366072   4.677817   2.692750   4.653455
    12  C    4.264405   4.666266   2.771583   4.611001   5.354328
    13  C    4.930371   6.196998   4.944244   4.111541   5.903030
    14  H    5.865035   7.219852   5.964216   4.799173   6.791335
    15  C    5.102611   5.870628   4.125238   4.883496   6.168895
    16  H    6.173417   6.804646   4.844146   5.955539   7.246395
    17  O    4.203345   6.098272   5.790815   2.481985   4.869258
    18  Cl   5.341020   5.040412   2.627150   6.143499   6.394385
    19  C    5.312063   7.151924   6.830258   3.632198   5.888364
    20  C    6.043240   7.661753   6.872418   4.620897   6.786094
    21  H    6.991591   8.648651   7.783874   5.443504   7.724171
    22  C    6.124398   8.139904   8.063245   4.133596   6.525771
    23  H    6.901075   8.899673   8.638270   4.893704   7.362687
    24  H    5.658138   7.768497   7.953461   3.541019   5.937264
    25  H    6.761128   8.762999   8.809009   4.819484   7.064769
    26  C    4.548834   6.304677   6.284511   3.175122   5.023018
    27  H    4.025445   5.541988   5.333455   3.143258   4.645909
    28  H    5.404992   7.050527   7.072819   4.151846   5.789593
    29  H    4.026324   5.939625   6.326566   2.496021   4.305660
    30  C    5.786293   7.088456   5.943939   4.825445   6.669005
    31  H    6.666390   7.799453   6.367032   5.824982   7.603166
    32  H    5.181740   6.317035   5.211483   4.543054   6.070127
                   11         12         13         14         15
    11  C    0.000000
    12  C    2.827814   0.000000
    13  C    1.426808   2.431828   0.000000
    14  H    2.173166   3.370047   1.094124   0.000000
    15  C    2.472293   1.358394   1.441883   2.169719   0.000000
    16  H    3.446991   2.145964   2.176262   2.474848   1.092982
    17  O    1.281323   4.106512   2.353840   2.657422   3.648003
    18  Cl   4.558106   1.730365   4.020170   4.826864   2.666867
    19  C    2.677928   5.081067   3.236527   3.417170   4.497989
    20  C    2.799103   4.699761   2.665663   2.642168   3.837560
    21  H    3.535742   5.436440   3.192639   2.774741   4.391685
    22  C    3.695263   6.363323   4.341046   4.264178   5.721754
    23  H    4.049329   6.686288   4.435708   4.083955   5.859685
    24  H    3.703575   6.495550   4.620132   4.619731   5.994106
    25  H    4.651985   7.221325   5.287591   5.243882   6.619447
    26  C    3.055561   5.079080   3.880773   4.408921   4.867791
    27  H    2.773547   4.244733   3.501932   4.247202   4.214697
    28  H    4.106792   5.936739   4.780624   5.249720   5.709128
    29  H    3.309086   5.473898   4.425824   4.985763   5.422358
    30  C    2.628190   3.649780   2.049174   2.347798   2.799083
    31  H    3.426449   3.872537   2.433995   2.472075   2.833577
    32  H    2.692263   3.256086   2.404071   3.076455   2.800457
                   16         17         18         19         20
    16  H    0.000000
    17  O    4.522354   0.000000
    18  Cl   2.832661   5.836113   0.000000
    19  C    5.205228   1.909531   6.710943   0.000000
    20  C    4.303016   2.507583   6.213377   1.415505   0.000000
    21  H    4.667276   3.121295   6.912881   2.149313   1.091720
    22  C    6.397009   2.549872   8.045903   1.496342   2.512087
    23  H    6.399328   2.946626   8.358424   2.178594   2.657436
    24  H    6.774939   2.440242   8.214248   2.153460   3.341370
    25  H    7.276497   3.557369   8.865872   2.160931   3.137652
    26  C    5.706465   2.577064   6.607610   1.497808   2.539682
    27  H    5.080695   2.786020   5.668110   2.183567   2.774440
    28  H    6.463781   3.619075   7.364818   2.146804   3.004370
    29  H    6.360082   2.679353   7.029478   2.170380   3.439399
    30  C    3.192020   2.981187   5.003989   2.460130   1.388109
    31  H    2.829950   3.891967   4.977375   3.440443   2.152130
    32  H    3.354740   3.243174   4.520951   2.785872   2.169620
                   21         22         23         24         25
    21  H    0.000000
    22  C    2.670459   0.000000
    23  H    2.367663   1.098157   0.000000
    24  H    3.590036   1.102635   1.762870   0.000000
    25  H    3.259458   1.100643   1.770360   1.767791   0.000000
    26  C    3.483748   2.529080   3.490737   2.842600   2.784915
    27  H    3.847448   3.481413   4.339931   3.767502   3.847046
    28  H    3.839965   2.919650   3.878339   3.402362   2.758096
    29  H    4.310951   2.725936   3.779815   2.607684   2.962697
    30  C    2.135357   3.798715   4.001109   4.489930   4.430775
    31  H    2.463352   4.654790   4.668897   5.409966   5.264885
    32  H    3.108786   4.265249   4.697910   4.847461   4.812249
                   26         27         28         29         30
    26  C    0.000000
    27  H    1.099253   0.000000
    28  H    1.102074   1.765948   0.000000
    29  H    1.099984   1.762285   1.768455   0.000000
    30  C    3.045266   2.739176   3.555439   3.991630   0.000000
    31  H    4.109510   3.772415   4.521461   5.077153   1.089158
    32  H    2.798828   2.137629   3.280491   3.718953   1.089441
                   31         32
    31  H    0.000000
    32  H    1.818602   0.000000
 Stoichiometry    C15H15ClO
 Framework group  C1[X(C15H15ClO)]
 Deg. of freedom    90
 Full point group                 C1      NOp   1
 Largest Abelian subgroup         C1      NOp   1
 Largest concise Abelian subgroup C1      NOp   1
                         Standard orientation:                         
 ---------------------------------------------------------------------
 Center     Atomic      Atomic             Coordinates (Angstroms)
 Number     Number       Type             X           Y           Z
 ---------------------------------------------------------------------
      1          6           0       -2.412871    2.644484    0.284176
      2          6           0       -2.684755    1.286754    0.260738
      3          6           0       -1.673984    0.363203   -0.103049
      4          6           0       -0.388309    0.847051   -0.438860
      5          6           0       -0.133420    2.238167   -0.414866
      6          6           0       -1.130614    3.126893   -0.055417
      7          1           0       -3.192463    3.354947    0.565800
      8          1           0       -3.682599    0.935321    0.523473
      9          1           0        0.866999    2.589341   -0.681314
     10          1           0       -0.936486    4.199115   -0.031172
     11          6           0        0.676394   -0.092689   -0.827210
     12          6           0       -1.891739   -1.067829   -0.156147
     13          6           0        0.406881   -1.493811   -0.825979
     14          1           0        1.028845   -2.145626   -1.446789
     15          6           0       -0.929611   -1.949267   -0.533786
     16          1           0       -1.126198   -3.022205   -0.602826
     17          8           0        1.863009    0.343698   -1.035294
     18         17           0       -3.456275   -1.670006    0.272541
     19          6           0        3.067336   -0.099035    0.378881
     20          6           0        2.751818   -1.477501    0.441603
     21          1           0        3.430457   -2.172066   -0.057276
     22          6           0        4.312920    0.333747   -0.328410
     23          1           0        4.707593   -0.424825   -1.017432
     24          1           0        4.130783    1.238783   -0.931353
     25          1           0        5.118147    0.581992    0.379686
     26          6           0        2.540754    0.866790    1.395405
     27          1           0        1.509418    0.654001    1.710720
     28          1           0        3.161333    0.842673    2.305826
     29          1           0        2.548562    1.904823    1.031549
     30          6           0        1.507552   -1.944046    0.842831
     31          1           0        1.301225   -3.013444    0.851875
     32          1           0        0.876879   -1.379791    1.528943
 ---------------------------------------------------------------------
 Rotational constants (GHZ):      0.6892755      0.3369490      0.2489132
 Standard basis: 6-31+G(d,p) (6D, 7F)
 There are   402 symmetry adapted cartesian basis functions of A   symmetry.
 There are   402 symmetry adapted basis functions of A   symmetry.
   402 basis functions,   673 primitive gaussians,   402 cartesian basis functions
    65 alpha electrons       65 beta electrons
       nuclear repulsion energy      1303.4247839667 Hartrees.
 NAtoms=   32 NActive=   32 NUniq=   32 SFac= 1.00D+00 NAtFMM=   60 NAOKFM=F Big=F
 Integral buffers will be    131072 words long.
 Raffenetti 2 integral format.
 Two-electron integral symmetry is turned on.
 Nuclear repulsion after empirical dispersion term =     1303.3878574323 Hartrees.
 Force inversion solution in PCM.
 ------------------------------------------------------------------------------
 Polarizable Continuum Model (PCM)
 =================================
 Model                : C-PCM.
 Atomic radii         : UFF (Universal Force Field).
 Polarization charges : Total charges.
 Charge compensation  : None.
 Solution method      : Matrix inversion.
 Cavity type          : Scaled VdW (van der Waals Surface) (Alpha=1.100).
 Cavity algorithm     : GePol (No added spheres)
                        Default sphere list used, NSphG=   32.
                        Lebedev-Laikov grids with approx.  5.0 points / Ang**2.
                        Smoothing algorithm: Karplus/York (Gamma=1.0000).
                        Polarization charges: spherical gaussians, with
                                              point-specific exponents (IZeta= 3).
                        Self-potential: point-specific (ISelfS= 7).
                        Self-field    : sphere-specific E.n sum rule (ISelfD= 2).
 1st derivatives      : Analytical E(r).r(x)/FMM algorithm (CHGder, D1EAlg=3).
                        Cavity 1st derivative terms included.
 2nd derivatives      : Analytical E(r).r(xy)/FMM algorithm (CHGder, D2EAlg=3).
                        Cavity 2nd derivative terms included.
 Solvent              : Water, Eps=  78.355300 Eps(inf)=   1.777849
 ------------------------------------------------------------------------------
 One-electron integrals computed using PRISM.
 NBasis=   402 RedAO= T EigKep=  1.12D-06  NBF=   402
 NBsUse=   400 1.00D-06 EigRej=  6.62D-07 NBFU=   400
 ExpMin= 4.38D-02 ExpMax= 2.52D+04 ExpMxC= 3.78D+03 IAcc=2 IRadAn=         4 AccDes= 0.00D+00
 Harris functional with IExCor=  402 and IRadAn=       4 diagonalized for initial guess.
 HarFok:  IExCor=  402 AccDes= 0.00D+00 IRadAn=         4 IDoV= 1 UseB2=F ITyADJ=14
 ICtDFT=  3500011 ScaDFX=  1.000000  1.000000  1.000000  1.000000
 FoFCou: FMM=F IPFlag=           0 FMFlag=      100000 FMFlg1=           0
         NFxFlg=           0 DoJE=T BraDBF=F KetDBF=T FulRan=T
         wScrn=  0.000000 ICntrl=     500 IOpCl=  0 I1Cent=   200000004 NGrid=           0
         NMat0=    1 NMatS0=      1 NMatT0=    0 NMatD0=    1 NMtDS0=    0 NMtDT0=    0
 Petite list used in FoFCou.
 Requested convergence on RMS density matrix=1.00D-08 within 128 cycles.
 Requested convergence on MAX density matrix=1.00D-06.
 Requested convergence on             energy=1.00D-06.
 No special actions if energy rises.
 Inv3:  Mode=1 IEnd=    15458700.
 Iteration    1 A*A^-1 deviation from unit magnitude is 6.44D-15 for   2266.
 Iteration    1 A*A^-1 deviation from orthogonality  is 1.80D-15 for   1849    600.
 Iteration    1 A^-1*A deviation from unit magnitude is 6.44D-15 for   2266.
 Iteration    1 A^-1*A deviation from orthogonality  is 1.91D-15 for   1369    884.
 Error on total polarization charges =  0.02178
 SCF Done:  E(RB3LYP) =  -1116.06827744     A.U. after   16 cycles
            NFock= 16  Conv=0.52D-08     -V/T= 2.0069
 DoSCS=F DFT=T ScalE2(SS,OS)=  1.000000  1.000000
 Range of M.O.s used for correlation:     1   400
 NBasis=   402 NAE=    65 NBE=    65 NFC=     0 NFV=     0
 NROrb=    400 NOA=    65 NOB=    65 NVA=   335 NVB=   335

 **** Warning!!: The largest alpha MO coefficient is  0.19410638D+03

 PrsmSu:  requested number of processors reduced to:   3 ShMem   1 Linda.
 Symmetrizing basis deriv contribution to polar:
 IMax=3 JMax=2 DiffMx= 0.00D+00
 G2DrvN: will do    17 centers at a time, making    2 passes.
 Calling FoFCou, ICntrl=  3107 FMM=F I1Cent=   0 AccDes= 0.00D+00.
 Calling FoFCou, ICntrl=  3107 FMM=F I1Cent=   0 AccDes= 0.00D+00.
 NEqPCM:  Using equilibrium solvation (IEInf=0, Eps=  78.3553, EpsInf=   1.7778)
 G2PCM: DoFxE=T DoFxN=T DoGrad=T DoDP/DQ/DG/TGxP=FFFF NFrqRd=   0 IEInf=0 SqF1=F DoCFld=F IF1Alg=4.
 End of G2Drv F.D. properties file   721 does not exist.
 End of G2Drv F.D. properties file   722 does not exist.
 End of G2Drv F.D. properties file   788 does not exist.
          IDoAtm=11111111111111111111111111111111
 NEqPCM:  Using equilibrium solvation (IEInf=0, Eps=  78.3553, EpsInf=   1.7778)
          Differentiating once with respect to nuclear coordinates.
          There are    99 degrees of freedom in the 1st order CPHF.  IDoFFX=6 NUNeed=     0.
     96 vectors produced by pass  0 Test12= 2.20D-14 1.01D-09 XBig12= 3.00D-01 1.33D-01.
 AX will form    48 AO Fock derivatives at one time.
     96 vectors produced by pass  1 Test12= 2.20D-14 1.01D-09 XBig12= 5.31D-02 4.44D-02.
     93 vectors produced by pass  2 Test12= 2.20D-14 1.01D-09 XBig12= 4.42D-04 2.72D-03.
     93 vectors produced by pass  3 Test12= 2.20D-14 1.01D-09 XBig12= 1.52D-06 1.34D-04.
     93 vectors produced by pass  4 Test12= 2.20D-14 1.01D-09 XBig12= 4.43D-09 6.38D-06.
     93 vectors produced by pass  5 Test12= 2.20D-14 1.01D-09 XBig12= 1.68D-11 3.76D-07.
     87 vectors produced by pass  6 Test12= 2.20D-14 1.01D-09 XBig12= 1.48D-12 1.37D-07.
     42 vectors produced by pass  7 Test12= 2.20D-14 1.01D-09 XBig12= 6.71D-14 2.09D-08.
      4 vectors produced by pass  8 Test12= 2.20D-14 1.01D-09 XBig12= 3.85D-16 1.47D-09.
      4 vectors produced by pass  9 Test12= 2.20D-14 1.01D-09 XBig12= 9.48D-15 8.66D-09.
      4 vectors produced by pass 10 Test12= 2.20D-14 1.01D-09 XBig12= 2.21D-14 1.51D-08.
      4 vectors produced by pass 11 Test12= 2.20D-14 1.01D-09 XBig12= 1.22D-13 3.76D-08.
      4 vectors produced by pass 12 Test12= 2.20D-14 1.01D-09 XBig12= 1.58D-14 1.09D-08.
      4 vectors produced by pass 13 Test12= 2.20D-14 1.01D-09 XBig12= 4.56D-14 1.48D-08.
      4 vectors produced by pass 14 Test12= 2.20D-14 1.01D-09 XBig12= 3.57D-14 1.32D-08.
      4 vectors produced by pass 15 Test12= 2.20D-14 1.01D-09 XBig12= 5.64D-14 2.04D-08.
      4 vectors produced by pass 16 Test12= 2.20D-14 1.01D-09 XBig12= 2.11D-14 1.12D-08.
      4 vectors produced by pass 17 Test12= 2.20D-14 1.01D-09 XBig12= 3.31D-14 1.30D-08.
      4 vectors produced by pass 18 Test12= 2.20D-14 1.01D-09 XBig12= 2.61D-14 1.46D-08.
      4 vectors produced by pass 19 Test12= 2.20D-14 1.01D-09 XBig12= 2.22D-14 1.07D-08.
      4 vectors produced by pass 20 Test12= 2.20D-14 1.01D-09 XBig12= 3.17D-14 1.28D-08.
      4 vectors produced by pass 21 Test12= 2.20D-14 1.01D-09 XBig12= 1.97D-14 9.92D-09.
      4 vectors produced by pass 22 Test12= 2.20D-14 1.01D-09 XBig12= 2.31D-14 1.17D-08.
      4 vectors produced by pass 23 Test12= 2.20D-14 1.01D-09 XBig12= 1.40D-14 1.05D-08.
      4 vectors produced by pass 24 Test12= 2.20D-14 1.01D-09 XBig12= 6.02D-15 5.59D-09.
      4 vectors produced by pass 25 Test12= 2.20D-14 1.01D-09 XBig12= 2.86D-14 1.41D-08.
      4 vectors produced by pass 26 Test12= 2.20D-14 1.01D-09 XBig12= 1.32D-14 8.14D-09.
      4 vectors produced by pass 27 Test12= 2.20D-14 1.01D-09 XBig12= 2.12D-14 1.46D-08.
      4 vectors produced by pass 28 Test12= 2.20D-14 1.01D-09 XBig12= 1.17D-14 7.32D-09.
      4 vectors produced by pass 29 Test12= 2.20D-14 1.01D-09 XBig12= 1.25D-14 8.53D-09.
      4 vectors produced by pass 30 Test12= 2.20D-14 1.01D-09 XBig12= 1.46D-14 8.79D-09.
      4 vectors produced by pass 31 Test12= 2.20D-14 1.01D-09 XBig12= 8.88D-15 5.59D-09.
      4 vectors produced by pass 32 Test12= 2.20D-14 1.01D-09 XBig12= 1.73D-14 9.17D-09.
      4 vectors produced by pass 33 Test12= 2.20D-14 1.01D-09 XBig12= 1.80D-14 9.62D-09.
      4 vectors produced by pass 34 Test12= 2.20D-14 1.01D-09 XBig12= 2.58D-14 1.02D-08.
      4 vectors produced by pass 35 Test12= 2.20D-14 1.01D-09 XBig12= 1.12D-14 9.00D-09.
      4 vectors produced by pass 36 Test12= 2.20D-14 1.01D-09 XBig12= 1.53D-14 9.77D-09.
      4 vectors produced by pass 37 Test12= 2.20D-14 1.01D-09 XBig12= 8.21D-15 7.07D-09.
      4 vectors produced by pass 38 Test12= 2.20D-14 1.01D-09 XBig12= 2.13D-14 9.86D-09.
      4 vectors produced by pass 39 Test12= 2.20D-14 1.01D-09 XBig12= 4.03D-15 4.84D-09.
      4 vectors produced by pass 40 Test12= 2.20D-14 1.01D-09 XBig12= 1.36D-14 9.37D-09.
      4 vectors produced by pass 41 Test12= 2.20D-14 1.01D-09 XBig12= 7.46D-15 6.39D-09.
      4 vectors produced by pass 42 Test12= 2.20D-14 1.01D-09 XBig12= 1.43D-14 7.63D-09.
      4 vectors produced by pass 43 Test12= 2.20D-14 1.01D-09 XBig12= 7.63D-15 6.29D-09.
      4 vectors produced by pass 44 Test12= 2.20D-14 1.01D-09 XBig12= 1.18D-14 7.24D-09.
      4 vectors produced by pass 45 Test12= 2.20D-14 1.01D-09 XBig12= 4.68D-15 4.79D-09.
      4 vectors produced by pass 46 Test12= 2.20D-14 1.01D-09 XBig12= 2.17D-14 1.02D-08.
      4 vectors produced by pass 47 Test12= 2.20D-14 1.01D-09 XBig12= 1.21D-14 8.02D-09.
      4 vectors produced by pass 48 Test12= 2.20D-14 1.01D-09 XBig12= 1.08D-14 7.66D-09.
      4 vectors produced by pass 49 Test12= 2.20D-14 1.01D-09 XBig12= 4.06D-15 3.96D-09.
      4 vectors produced by pass 50 Test12= 2.20D-14 1.01D-09 XBig12= 9.26D-15 7.49D-09.
      3 vectors produced by pass 51 Test12= 2.20D-14 1.01D-09 XBig12= 1.73D-15 2.63D-09.
      3 vectors produced by pass 52 Test12= 2.20D-14 1.01D-09 XBig12= 1.17D-14 6.70D-09.
      3 vectors produced by pass 53 Test12= 2.20D-14 1.01D-09 XBig12= 7.20D-15 7.68D-09.
      3 vectors produced by pass 54 Test12= 2.20D-14 1.01D-09 XBig12= 1.33D-14 9.48D-09.
      3 vectors produced by pass 55 Test12= 2.20D-14 1.01D-09 XBig12= 9.06D-15 6.85D-09.
      3 vectors produced by pass 56 Test12= 2.20D-14 1.01D-09 XBig12= 1.78D-14 8.26D-09.
      3 vectors produced by pass 57 Test12= 2.20D-14 1.01D-09 XBig12= 4.95D-15 4.11D-09.
      3 vectors produced by pass 58 Test12= 2.20D-14 1.01D-09 XBig12= 8.04D-15 7.23D-09.
      3 vectors produced by pass 59 Test12= 2.20D-14 1.01D-09 XBig12= 1.46D-14 7.34D-09.
      3 vectors produced by pass 60 Test12= 2.20D-14 1.01D-09 XBig12= 4.40D-15 4.11D-09.
      3 vectors produced by pass 61 Test12= 2.20D-14 1.01D-09 XBig12= 4.74D-15 5.26D-09.
      3 vectors produced by pass 62 Test12= 2.20D-14 1.01D-09 XBig12= 4.74D-15 5.42D-09.
      3 vectors produced by pass 63 Test12= 2.20D-14 1.01D-09 XBig12= 1.09D-14 7.20D-09.
      3 vectors produced by pass 64 Test12= 2.20D-14 1.01D-09 XBig12= 3.59D-15 4.24D-09.
      3 vectors produced by pass 65 Test12= 2.20D-14 1.01D-09 XBig12= 5.82D-15 5.92D-09.
      3 vectors produced by pass 66 Test12= 2.20D-14 1.01D-09 XBig12= 5.23D-15 4.71D-09.
      3 vectors produced by pass 67 Test12= 2.20D-14 1.01D-09 XBig12= 2.12D-15 3.07D-09.
      3 vectors produced by pass 68 Test12= 2.20D-14 1.01D-09 XBig12= 2.24D-15 3.48D-09.
      3 vectors produced by pass 69 Test12= 2.20D-14 1.01D-09 XBig12= 4.67D-15 4.67D-09.
      3 vectors produced by pass 70 Test12= 2.20D-14 1.01D-09 XBig12= 5.53D-15 4.38D-09.
      3 vectors produced by pass 71 Test12= 2.20D-14 1.01D-09 XBig12= 8.18D-15 5.93D-09.
      3 vectors produced by pass 72 Test12= 2.20D-14 1.01D-09 XBig12= 3.55D-15 3.62D-09.
      3 vectors produced by pass 73 Test12= 2.20D-14 1.01D-09 XBig12= 3.51D-15 3.93D-09.
      3 vectors produced by pass 74 Test12= 2.20D-14 1.01D-09 XBig12= 2.82D-15 3.32D-09.
      3 vectors produced by pass 75 Test12= 2.20D-14 1.01D-09 XBig12= 6.72D-15 6.04D-09.
      3 vectors produced by pass 76 Test12= 2.20D-14 1.01D-09 XBig12= 4.30D-15 5.99D-09.
      3 vectors produced by pass 77 Test12= 2.20D-14 1.01D-09 XBig12= 6.01D-15 5.41D-09.
      3 vectors produced by pass 78 Test12= 2.20D-14 1.01D-09 XBig12= 5.97D-15 5.67D-09.
      3 vectors produced by pass 79 Test12= 2.20D-14 1.01D-09 XBig12= 3.64D-15 3.80D-09.
      3 vectors produced by pass 80 Test12= 2.20D-14 1.01D-09 XBig12= 5.90D-15 5.59D-09.
      3 vectors produced by pass 81 Test12= 2.20D-14 1.01D-09 XBig12= 4.25D-15 4.75D-09.
      3 vectors produced by pass 82 Test12= 2.20D-14 1.01D-09 XBig12= 3.77D-15 4.31D-09.
      3 vectors produced by pass 83 Test12= 2.20D-14 1.01D-09 XBig12= 5.63D-15 5.92D-09.
      3 vectors produced by pass 84 Test12= 2.20D-14 1.01D-09 XBig12= 1.75D-15 3.07D-09.
      3 vectors produced by pass 85 Test12= 2.20D-14 1.01D-09 XBig12= 2.38D-15 3.45D-09.
      3 vectors produced by pass 86 Test12= 2.20D-14 1.01D-09 XBig12= 6.50D-15 6.03D-09.
      3 vectors produced by pass 87 Test12= 2.20D-14 1.01D-09 XBig12= 3.16D-15 3.53D-09.
      3 vectors produced by pass 88 Test12= 2.20D-14 1.01D-09 XBig12= 1.50D-15 2.89D-09.
      3 vectors produced by pass 89 Test12= 2.20D-14 1.01D-09 XBig12= 1.75D-15 2.73D-09.
      3 vectors produced by pass 90 Test12= 2.20D-14 1.01D-09 XBig12= 6.90D-15 5.57D-09.
      3 vectors produced by pass 91 Test12= 2.20D-14 1.01D-09 XBig12= 1.72D-15 3.04D-09.
      3 vectors produced by pass 92 Test12= 2.20D-14 1.01D-09 XBig12= 2.63D-15 3.54D-09.
      3 vectors produced by pass 93 Test12= 2.20D-14 1.01D-09 XBig12= 5.05D-15 4.85D-09.
      3 vectors produced by pass 94 Test12= 2.20D-14 1.01D-09 XBig12= 2.42D-15 3.69D-09.
      3 vectors produced by pass 95 Test12= 2.20D-14 1.01D-09 XBig12= 2.58D-15 3.65D-09.
      3 vectors produced by pass 96 Test12= 2.20D-14 1.01D-09 XBig12= 1.83D-15 3.03D-09.
      3 vectors produced by pass 97 Test12= 2.20D-14 1.01D-09 XBig12= 2.76D-15 3.29D-09.
      3 vectors produced by pass 98 Test12= 2.20D-14 1.01D-09 XBig12= 3.83D-15 4.47D-09.
      3 vectors produced by pass 99 Test12= 2.20D-14 1.01D-09 XBig12= 2.19D-15 3.01D-09.
      3 vectors produced by pass100 Test12= 2.20D-14 1.01D-09 XBig12= 2.49D-15 3.20D-09.
      3 vectors produced by pass101 Test12= 2.20D-14 1.01D-09 XBig12= 1.78D-15 3.02D-09.
      3 vectors produced by pass102 Test12= 2.20D-14 1.01D-09 XBig12= 1.71D-15 3.19D-09.
      3 vectors produced by pass103 Test12= 2.20D-14 1.01D-09 XBig12= 5.06D-15 5.54D-09.
      3 vectors produced by pass104 Test12= 2.20D-14 1.01D-09 XBig12= 1.61D-15 2.44D-09.
      3 vectors produced by pass105 Test12= 2.20D-14 1.01D-09 XBig12= 3.38D-15 3.43D-09.
      3 vectors produced by pass106 Test12= 2.20D-14 1.01D-09 XBig12= 1.61D-15 2.58D-09.
      3 vectors produced by pass107 Test12= 2.20D-14 1.01D-09 XBig12= 6.71D-15 4.88D-09.
      3 vectors produced by pass108 Test12= 2.20D-14 1.01D-09 XBig12= 1.20D-15 2.16D-09.
      3 vectors produced by pass109 Test12= 2.20D-14 1.01D-09 XBig12= 3.44D-15 3.98D-09.
      3 vectors produced by pass110 Test12= 2.20D-14 1.01D-09 XBig12= 1.77D-15 2.40D-09.
      3 vectors produced by pass111 Test12= 2.20D-14 1.01D-09 XBig12= 1.42D-15 2.37D-09.
      3 vectors produced by pass112 Test12= 2.20D-14 1.01D-09 XBig12= 2.53D-15 3.28D-09.
      3 vectors produced by pass113 Test12= 2.20D-14 1.01D-09 XBig12= 1.61D-15 2.82D-09.
      3 vectors produced by pass114 Test12= 2.20D-14 1.01D-09 XBig12= 1.34D-15 3.10D-09.
      3 vectors produced by pass115 Test12= 2.20D-14 1.01D-09 XBig12= 2.37D-15 3.53D-09.
      3 vectors produced by pass116 Test12= 2.20D-14 1.01D-09 XBig12= 2.17D-15 3.19D-09.
      3 vectors produced by pass117 Test12= 2.20D-14 1.01D-09 XBig12= 8.25D-16 1.87D-09.
      3 vectors produced by pass118 Test12= 2.20D-14 1.01D-09 XBig12= 4.62D-15 3.97D-09.
      3 vectors produced by pass119 Test12= 2.20D-14 1.01D-09 XBig12= 1.53D-15 2.34D-09.
      3 vectors produced by pass120 Test12= 2.20D-14 1.01D-09 XBig12= 1.58D-15 2.93D-09.
      2 vectors produced by pass121 Test12= 2.20D-14 1.01D-09 XBig12= 1.06D-15 2.34D-09.
 InvSVY:  IOpt=1 It=  1 EMax= 1.89D-15
 Solved reduced A of dimension  1077 with    99 vectors.
 End of Minotr F.D. properties file   721 does not exist.
 End of Minotr F.D. properties file   722 does not exist.
 End of Minotr F.D. properties file   788 does not exist.

 **********************************************************************

            Population analysis using the SCF density.

 **********************************************************************

 Orbital symmetries:
       Occupied  (A) (A) (A) (A) (A) (A) (A) (A) (A) (A) (A) (A)
                 (A) (A) (A) (A) (A) (A) (A) (A) (A) (A) (A) (A)
                 (A) (A) (A) (A) (A) (A) (A) (A) (A) (A) (A) (A)
                 (A) (A) (A) (A) (A) (A) (A) (A) (A) (A) (A) (A)
                 (A) (A) (A) (A) (A) (A) (A) (A) (A) (A) (A) (A)
                 (A) (A) (A) (A) (A)
       Virtual   (A) (A) (A) (A) (A) (A) (A) (A) (A) (A) (A) (A)
                 (A) (A) (A) (A) (A) (A) (A) (A) (A) (A) (A) (A)
                 (A) (A) (A) (A) (A) (A) (A) (A) (A) (A) (A) (A)
                 (A) (A) (A) (A) (A) (A) (A) (A) (A) (A) (A) (A)
                 (A) (A) (A) (A) (A) (A) (A) (A) (A) (A) (A) (A)
                 (A) (A) (A) (A) (A) (A) (A) (A) (A) (A) (A) (A)
                 (A) (A) (A) (A) (A) (A) (A) (A) (A) (A) (A) (A)
                 (A) (A) (A) (A) (A) (A) (A) (A) (A) (A) (A) (A)
                 (A) (A) (A) (A) (A) (A) (A) (A) (A) (A) (A) (A)
                 (A) (A) (A) (A) (A) (A) (A) (A) (A) (A) (A) (A)
                 (A) (A) (A) (A) (A) (A) (A) (A) (A) (A) (A) (A)
                 (A) (A) (A) (A) (A) (A) (A) (A) (A) (A) (A) (A)
                 (A) (A) (A) (A) (A) (A) (A) (A) (A) (A) (A) (A)
                 (A) (A) (A) (A) (A) (A) (A) (A) (A) (A) (A) (A)
                 (A) (A) (A) (A) (A) (A) (A) (A) (A) (A) (A) (A)
                 (A) (A) (A) (A) (A) (A) (A) (A) (A) (A) (A) (A)
                 (A) (A) (A) (A) (A) (A) (A) (A) (A) (A) (A) (A)
                 (A) (A) (A) (A) (A) (A) (A) (A) (A) (A) (A) (A)
                 (A) (A) (A) (A) (A) (A) (A) (A) (A) (A) (A) (A)
                 (A) (A) (A) (A) (A) (A) (A) (A) (A) (A) (A) (A)
                 (A) (A) (A) (A) (A) (A) (A) (A) (A) (A) (A) (A)
                 (A) (A) (A) (A) (A) (A) (A) (A) (A) (A) (A) (A)
                 (A) (A) (A) (A) (A) (A) (A) (A) (A) (A) (A) (A)
                 (A) (A) (A) (A) (A) (A) (A) (A) (A) (A) (A) (A)
                 (A) (A) (A) (A) (A) (A) (A) (A) (A) (A) (A) (A)
                 (A) (A) (A) (A) (A) (A) (A) (A) (A) (A) (A) (A)
                 (A) (A) (A) (A) (A) (A) (A) (A) (A) (A) (A) (A)
                 (A) (A) (A) (A) (A) (A) (A) (A) (A) (A) (A)
 The electronic state is 1-A.
 Alpha  occ. eigenvalues -- -101.56132 -19.14903 -10.25753 -10.25515 -10.24544
 Alpha  occ. eigenvalues --  -10.22162 -10.21593 -10.21293 -10.21084 -10.21037
 Alpha  occ. eigenvalues --  -10.20524 -10.20456 -10.20319 -10.20259 -10.18716
 Alpha  occ. eigenvalues --  -10.18656 -10.18503  -9.47683  -7.24062  -7.23133
 Alpha  occ. eigenvalues --   -7.23097  -1.03300  -0.90684  -0.86299  -0.83215
 Alpha  occ. eigenvalues --   -0.82232  -0.76773  -0.76253  -0.74728  -0.70330
 Alpha  occ. eigenvalues --   -0.70076  -0.63778  -0.63199  -0.62602  -0.58376
 Alpha  occ. eigenvalues --   -0.54048  -0.52532  -0.52349  -0.50292  -0.48166
 Alpha  occ. eigenvalues --   -0.47439  -0.46278  -0.45710  -0.44357  -0.43756
 Alpha  occ. eigenvalues --   -0.43316  -0.41966  -0.41556  -0.40046  -0.39670
 Alpha  occ. eigenvalues --   -0.38542  -0.38434  -0.37627  -0.36833  -0.36318
 Alpha  occ. eigenvalues --   -0.36186  -0.35716  -0.34968  -0.32272  -0.31946
 Alpha  occ. eigenvalues --   -0.29063  -0.28151  -0.26804  -0.23672  -0.20715
 Alpha virt. eigenvalues --   -0.06073  -0.05360  -0.01307   0.00121   0.00505
 Alpha virt. eigenvalues --    0.01223   0.01585   0.01989   0.02563   0.02930
 Alpha virt. eigenvalues --    0.03449   0.03614   0.04067   0.04773   0.05174
 Alpha virt. eigenvalues --    0.05908   0.06235   0.06475   0.06786   0.07417
 Alpha virt. eigenvalues --    0.07707   0.08233   0.08643   0.08852   0.09549
 Alpha virt. eigenvalues --    0.09938   0.10522   0.10806   0.11181   0.11518
 Alpha virt. eigenvalues --    0.12333   0.12365   0.12654   0.13691   0.14170
 Alpha virt. eigenvalues --    0.14361   0.14746   0.15025   0.15498   0.15808
 Alpha virt. eigenvalues --    0.16277   0.16718   0.17278   0.17911   0.17997
 Alpha virt. eigenvalues --    0.18100   0.18818   0.18939   0.19741   0.19832
 Alpha virt. eigenvalues --    0.20141   0.20769   0.20938   0.21353   0.21469
 Alpha virt. eigenvalues --    0.21634   0.22395   0.22703   0.22826   0.23370
 Alpha virt. eigenvalues --    0.23824   0.24122   0.24211   0.24521   0.25249
 Alpha virt. eigenvalues --    0.25669   0.25730   0.26239   0.26415   0.26820
 Alpha virt. eigenvalues --    0.27271   0.27484   0.27862   0.28195   0.28673
 Alpha virt. eigenvalues --    0.28950   0.29415   0.29669   0.30640   0.30754
 Alpha virt. eigenvalues --    0.31326   0.31599   0.32324   0.32943   0.34344
 Alpha virt. eigenvalues --    0.34832   0.35467   0.36033   0.37052   0.37298
 Alpha virt. eigenvalues --    0.38171   0.38841   0.39467   0.40014   0.40654
 Alpha virt. eigenvalues --    0.42264   0.43608   0.44216   0.45781   0.47566
 Alpha virt. eigenvalues --    0.48449   0.51497   0.52414   0.57374   0.59606
 Alpha virt. eigenvalues --    0.61663   0.63017   0.63911   0.65376   0.66984
 Alpha virt. eigenvalues --    0.68408   0.68626   0.69010   0.69857   0.70473
 Alpha virt. eigenvalues --    0.71008   0.71254   0.72155   0.72753   0.73394
 Alpha virt. eigenvalues --    0.73914   0.74171   0.75472   0.75986   0.76090
 Alpha virt. eigenvalues --    0.76458   0.77471   0.78038   0.78878   0.80692
 Alpha virt. eigenvalues --    0.80945   0.81753   0.84231   0.84582   0.84751
 Alpha virt. eigenvalues --    0.85429   0.86442   0.86923   0.88099   0.88366
 Alpha virt. eigenvalues --    0.88955   0.89695   0.90667   0.92565   0.93042
 Alpha virt. eigenvalues --    0.94011   0.94676   0.95939   0.97437   0.98218
 Alpha virt. eigenvalues --    0.98936   1.00145   1.01281   1.01417   1.01547
 Alpha virt. eigenvalues --    1.02643   1.03341   1.04695   1.06262   1.07801
 Alpha virt. eigenvalues --    1.09083   1.09456   1.11287   1.12764   1.13637
 Alpha virt. eigenvalues --    1.14710   1.15058   1.16167   1.16818   1.17918
 Alpha virt. eigenvalues --    1.20128   1.21283   1.22322   1.23689   1.24911
 Alpha virt. eigenvalues --    1.25454   1.26754   1.28247   1.28995   1.30374
 Alpha virt. eigenvalues --    1.33328   1.34364   1.36066   1.37338   1.38650
 Alpha virt. eigenvalues --    1.39248   1.39992   1.40251   1.41448   1.44303
 Alpha virt. eigenvalues --    1.44668   1.46665   1.47157   1.48052   1.49404
 Alpha virt. eigenvalues --    1.51310   1.53457   1.53937   1.54648   1.59723
 Alpha virt. eigenvalues --    1.62857   1.65334   1.71132   1.73469   1.75629
 Alpha virt. eigenvalues --    1.76988   1.77874   1.79113   1.82224   1.82751
 Alpha virt. eigenvalues --    1.83422   1.87762   1.87827   1.88280   1.89735
 Alpha virt. eigenvalues --    1.90399   1.91145   1.92099   1.93927   1.94153
 Alpha virt. eigenvalues --    1.96700   1.98015   1.99415   2.00680   2.00730
 Alpha virt. eigenvalues --    2.02524   2.03633   2.04463   2.05194   2.05852
 Alpha virt. eigenvalues --    2.06600   2.07349   2.08927   2.10098   2.11070
 Alpha virt. eigenvalues --    2.12827   2.13113   2.14516   2.16918   2.18536
 Alpha virt. eigenvalues --    2.19922   2.20103   2.21147   2.22575   2.25741
 Alpha virt. eigenvalues --    2.26649   2.27247   2.28813   2.29637   2.33015
 Alpha virt. eigenvalues --    2.34813   2.36405   2.37154   2.37933   2.38725
 Alpha virt. eigenvalues --    2.39937   2.42108   2.42838   2.44878   2.46379
 Alpha virt. eigenvalues --    2.46854   2.48266   2.49446   2.51372   2.53553
 Alpha virt. eigenvalues --    2.54409   2.56339   2.56784   2.57655   2.58407
 Alpha virt. eigenvalues --    2.59996   2.62058   2.63247   2.63934   2.64420
 Alpha virt. eigenvalues --    2.66557   2.67400   2.68874   2.69251   2.69469
 Alpha virt. eigenvalues --    2.70571   2.72771   2.73281   2.76774   2.77521
 Alpha virt. eigenvalues --    2.80308   2.82316   2.82903   2.84423   2.86428
 Alpha virt. eigenvalues --    2.87286   2.90551   2.93864   2.96108   3.02659
 Alpha virt. eigenvalues --    3.04004   3.05346   3.10178   3.14340   3.15744
 Alpha virt. eigenvalues --    3.21646   3.22749   3.25476   3.26346   3.27780
 Alpha virt. eigenvalues --    3.32959   3.34138   3.37100   3.37762   3.45077
 Alpha virt. eigenvalues --    3.45677   3.46667   3.49431   3.51152   3.52727
 Alpha virt. eigenvalues --    3.63067   3.65863   3.84733   4.26157   4.31217
 Alpha virt. eigenvalues --    4.35951   4.36972   4.38202   4.41567   4.43893
 Alpha virt. eigenvalues --    4.48102   4.50166   4.54537   4.55636   4.58717
 Alpha virt. eigenvalues --    4.66573   4.69411   4.76133   4.87767   5.02756
          Condensed to atoms (all electrons):
               1          2          3          4          5          6
     1  C    6.434647  -1.680503   1.301260  -0.343433  -0.092566   0.681826
     2  C   -1.680503  13.438286  -5.713152   0.293576   0.687288  -0.354261
     3  C    1.301260  -5.713152  17.431862   2.090474  -3.732406   0.414038
     4  C   -0.343433   0.293576   2.090474  20.064328  -9.688861   2.134987
     5  C   -0.092566   0.687288  -3.732406  -9.688861  18.562346  -3.347345
     6  C    0.681826  -0.354261   0.414038   2.134987  -3.347345   7.467894
     7  H    0.317441  -0.032884   0.030896  -0.015382   0.033360  -0.013278
     8  H    0.155546   0.186892  -0.012708   0.010939   0.007897   0.006995
     9  H    0.001362   0.001103   0.018698   0.016956   0.258870  -0.001875
    10  H   -0.040139   0.067064  -0.007366   0.053765  -0.105731   0.367242
    11  C    0.431241  -1.545834  -3.545622  -5.467976   3.779710  -1.099914
    12  C   -0.263240  -0.097233  -1.751069  -0.560621  -1.068186   0.387816
    13  C   -0.166240   0.820171   1.829267  -2.192944  -0.831131  -0.257954
    14  H   -0.000492  -0.001144  -0.056114   0.092549   0.012181   0.002678
    15  C   -0.262441   0.219907  -2.867406  -0.024138   1.662397  -0.116383
    16  H    0.003303   0.000309   0.082033  -0.032134   0.000201  -0.000818
    17  O   -0.021175   0.092600  -0.080663  -0.307579   0.096862   0.057179
    18  Cl  -0.008737   0.054290  -0.108818  -0.014557  -0.098131   0.023597
    19  C   -0.012245   0.012355  -0.004378   0.054939   0.100789  -0.050715
    20  C    0.004663  -0.008789   0.240814   0.182329  -0.191530  -0.018471
    21  H    0.000063  -0.000419  -0.005168  -0.008957   0.004209  -0.000156
    22  C   -0.000594   0.005355   0.060705   0.194795  -0.089987  -0.025519
    23  H   -0.000007  -0.000004  -0.000135  -0.003717  -0.002591  -0.000391
    24  H   -0.000092   0.000175   0.000295   0.018552  -0.006807   0.002236
    25  H    0.000028   0.000010  -0.000384  -0.010032   0.004427  -0.000037
    26  C    0.009682   0.012274  -0.008194  -0.413018   0.058050   0.094217
    27  H    0.008224  -0.020732   0.014388  -0.112756   0.068602  -0.020674
    28  H   -0.000502   0.001529  -0.001463  -0.014247   0.009752   0.005698
    29  H   -0.003389   0.004923  -0.002410   0.114694  -0.074843   0.019221
    30  C   -0.001203   0.010006  -0.332695  -0.349129   0.264685  -0.008457
    31  H   -0.000309   0.004561   0.001691  -0.007561   0.000575   0.000561
    32  H    0.002180  -0.032181  -0.096776  -0.044311   0.056096   0.000683
               7          8          9         10         11         12
     1  C    0.317441   0.155546   0.001362  -0.040139   0.431241  -0.263240
     2  C   -0.032884   0.186892   0.001103   0.067064  -1.545834  -0.097233
     3  C    0.030896  -0.012708   0.018698  -0.007366  -3.545622  -1.751069
     4  C   -0.015382   0.010939   0.016956   0.053765  -5.467976  -0.560621
     5  C    0.033360   0.007897   0.258870  -0.105731   3.779710  -1.068186
     6  C   -0.013278   0.006995  -0.001875   0.367242  -1.099914   0.387816
     7  H    0.546084  -0.004942  -0.000155  -0.004616   0.001161  -0.004510
     8  H   -0.004942   0.547228   0.000013  -0.000155   0.006771  -0.052748
     9  H   -0.000155   0.000013   0.549153  -0.004595  -0.019820  -0.005947
    10  H   -0.004616  -0.000155  -0.004595   0.546591  -0.021007   0.002846
    11  C    0.001161   0.006771  -0.019820  -0.021007  17.529625   2.530037
    12  C   -0.004510  -0.052748  -0.005947   0.002846   2.530037  11.017983
    13  C   -0.000597  -0.005158   0.028125   0.000045  -5.002438  -1.853858
    14  H    0.000000   0.000000  -0.000005   0.000000   0.171571  -0.026374
    15  C    0.000028   0.007040  -0.000309  -0.000911  -1.344588  -1.760437
    16  H    0.000000  -0.000005   0.000000   0.000000   0.007425   0.129911
    17  O    0.000002   0.000034   0.010318   0.000161   0.290481  -0.123949
    18  Cl   0.000287  -0.007633   0.000060   0.000108   0.022430  -0.295242
    19  C    0.000080  -0.000033  -0.016939  -0.000154  -0.680182  -0.207904
    20  C   -0.000011  -0.000030  -0.001900   0.000114   0.542501   0.146942
    21  H    0.000000   0.000000   0.000000   0.000000  -0.013517  -0.002304
    22  C   -0.000004  -0.000001   0.003766   0.000049  -0.104292  -0.015755
    23  H    0.000000   0.000000   0.000002   0.000000  -0.002699   0.000413
    24  H    0.000000   0.000000   0.000220   0.000000  -0.006447   0.000453
    25  H    0.000000   0.000000  -0.000003   0.000000  -0.004006  -0.000140
    26  C   -0.000133   0.000051   0.012444   0.000159  -0.554385  -0.025565
    27  H    0.000000   0.000000  -0.000302  -0.000002   0.097771  -0.002383
    28  H    0.000000   0.000000   0.000029   0.000000  -0.027142  -0.001463
    29  H    0.000000   0.000000   0.001323  -0.000006  -0.027300   0.005308
    30  C    0.000020   0.000189  -0.001111  -0.000067   0.218270   0.070131
    31  H    0.000000   0.000000   0.000000   0.000000  -0.060511  -0.006931
    32  H    0.000000   0.000000   0.000001   0.000000   0.128475   0.006301
              13         14         15         16         17         18
     1  C   -0.166240  -0.000492  -0.262441   0.003303  -0.021175  -0.008737
     2  C    0.820171  -0.001144   0.219907   0.000309   0.092600   0.054290
     3  C    1.829267  -0.056114  -2.867406   0.082033  -0.080663  -0.108818
     4  C   -2.192944   0.092549  -0.024138  -0.032134  -0.307579  -0.014557
     5  C   -0.831131   0.012181   1.662397   0.000201   0.096862  -0.098131
     6  C   -0.257954   0.002678  -0.116383  -0.000818   0.057179   0.023597
     7  H   -0.000597   0.000000   0.000028   0.000000   0.000002   0.000287
     8  H   -0.005158   0.000000   0.007040  -0.000005   0.000034  -0.007633
     9  H    0.028125  -0.000005  -0.000309   0.000000   0.010318   0.000060
    10  H    0.000045   0.000000  -0.000911   0.000000   0.000161   0.000108
    11  C   -5.002438   0.171571  -1.344588   0.007425   0.290481   0.022430
    12  C   -1.853858  -0.026374  -1.760437   0.129911  -0.123949  -0.295242
    13  C   13.818566   0.095127  -0.604298  -0.045963  -0.188221   0.135212
    14  H    0.095127   0.542931   0.007528  -0.004514   0.005394   0.000264
    15  C   -0.604298   0.007528  10.992079   0.155103   0.123126  -0.149697
    16  H   -0.045963  -0.004514   0.155103   0.530401  -0.000848   0.008046
    17  O   -0.188221   0.005394   0.123126  -0.000848   8.514161   0.000617
    18  Cl   0.135212   0.000264  -0.149697   0.008046   0.000617  17.199612
    19  C    0.166073  -0.018757   0.374081  -0.004837   0.223094  -0.000042
    20  C   -0.173460  -0.040645  -0.692604   0.016887  -0.078465   0.020265
    21  H    0.010178   0.000566   0.027400  -0.000005  -0.001368   0.000009
    22  C   -0.017900   0.004573  -0.014542   0.000053  -0.105546   0.001013
    23  H    0.012271  -0.000019   0.002435   0.000000   0.001125   0.000000
    24  H   -0.009897   0.000008  -0.001443   0.000000  -0.012064   0.000003
    25  H    0.005793  -0.000001   0.000679   0.000000   0.003809   0.000000
    26  C    0.593450  -0.015511   0.064364   0.000419  -0.043414  -0.001251
    27  H   -0.004693  -0.000035  -0.008918   0.000000  -0.007339   0.000089
    28  H    0.010600   0.000000   0.000821   0.000000   0.007950   0.000002
    29  H   -0.027548   0.000005  -0.003474   0.000000  -0.009587   0.000015
    30  C   -0.231236   0.045605   0.500375  -0.002157  -0.005828  -0.013669
    31  H    0.046994  -0.004696  -0.010995   0.001116   0.003627   0.001317
    32  H   -0.185088   0.002286   0.126059  -0.000300  -0.000787   0.001153
              19         20         21         22         23         24
     1  C   -0.012245   0.004663   0.000063  -0.000594  -0.000007  -0.000092
     2  C    0.012355  -0.008789  -0.000419   0.005355  -0.000004   0.000175
     3  C   -0.004378   0.240814  -0.005168   0.060705  -0.000135   0.000295
     4  C    0.054939   0.182329  -0.008957   0.194795  -0.003717   0.018552
     5  C    0.100789  -0.191530   0.004209  -0.089987  -0.002591  -0.006807
     6  C   -0.050715  -0.018471  -0.000156  -0.025519  -0.000391   0.002236
     7  H    0.000080  -0.000011   0.000000  -0.000004   0.000000   0.000000
     8  H   -0.000033  -0.000030   0.000000  -0.000001   0.000000   0.000000
     9  H   -0.016939  -0.001900   0.000000   0.003766   0.000002   0.000220
    10  H   -0.000154   0.000114   0.000000   0.000049   0.000000   0.000000
    11  C   -0.680182   0.542501  -0.013517  -0.104292  -0.002699  -0.006447
    12  C   -0.207904   0.146942  -0.002304  -0.015755   0.000413   0.000453
    13  C    0.166073  -0.173460   0.010178  -0.017900   0.012271  -0.009897
    14  H   -0.018757  -0.040645   0.000566   0.004573  -0.000019   0.000008
    15  C    0.374081  -0.692604   0.027400  -0.014542   0.002435  -0.001443
    16  H   -0.004837   0.016887  -0.000005   0.000053   0.000000   0.000000
    17  O    0.223094  -0.078465  -0.001368  -0.105546   0.001125  -0.012064
    18  Cl  -0.000042   0.020265   0.000009   0.001013   0.000000   0.000003
    19  C    7.934672  -0.873400  -0.027488  -0.534312  -0.116897  -0.058878
    20  C   -0.873400   6.924880   0.349095   0.136772  -0.026287   0.013561
    21  H   -0.027488   0.349095   0.565410  -0.036941   0.003612   0.000097
    22  C   -0.534312   0.136772  -0.036941   6.322812   0.493926   0.457356
    23  H   -0.116897  -0.026287   0.003612   0.493926   0.541984  -0.027496
    24  H   -0.058878   0.013561   0.000097   0.457356  -0.027496   0.521798
    25  H   -0.050237  -0.005617   0.000351   0.394925  -0.026927  -0.027885
    26  C   -0.313100  -0.319819   0.019199  -0.494856   0.004355  -0.034455
    27  H   -0.077530  -0.003168  -0.000069   0.022793  -0.000148  -0.000068
    28  H   -0.123974  -0.007351  -0.000030  -0.036777  -0.000014   0.000148
    29  H   -0.055651   0.036188  -0.000121  -0.034859   0.000086   0.002158
    30  C   -0.048133  -0.017566  -0.016149  -0.142312  -0.006954  -0.005881
    31  H    0.037606  -0.047090  -0.005194  -0.001756  -0.000011   0.000002
    32  H    0.028978  -0.116854   0.004304  -0.006230  -0.000002  -0.000007
              25         26         27         28         29         30
     1  C    0.000028   0.009682   0.008224  -0.000502  -0.003389  -0.001203
     2  C    0.000010   0.012274  -0.020732   0.001529   0.004923   0.010006
     3  C   -0.000384  -0.008194   0.014388  -0.001463  -0.002410  -0.332695
     4  C   -0.010032  -0.413018  -0.112756  -0.014247   0.114694  -0.349129
     5  C    0.004427   0.058050   0.068602   0.009752  -0.074843   0.264685
     6  C   -0.000037   0.094217  -0.020674   0.005698   0.019221  -0.008457
     7  H    0.000000  -0.000133   0.000000   0.000000   0.000000   0.000020
     8  H    0.000000   0.000051   0.000000   0.000000   0.000000   0.000189
     9  H   -0.000003   0.012444  -0.000302   0.000029   0.001323  -0.001111
    10  H    0.000000   0.000159  -0.000002   0.000000  -0.000006  -0.000067
    11  C   -0.004006  -0.554385   0.097771  -0.027142  -0.027300   0.218270
    12  C   -0.000140  -0.025565  -0.002383  -0.001463   0.005308   0.070131
    13  C    0.005793   0.593450  -0.004693   0.010600  -0.027548  -0.231236
    14  H   -0.000001  -0.015511  -0.000035   0.000000   0.000005   0.045605
    15  C    0.000679   0.064364  -0.008918   0.000821  -0.003474   0.500375
    16  H    0.000000   0.000419   0.000000   0.000000   0.000000  -0.002157
    17  O    0.003809  -0.043414  -0.007339   0.007950  -0.009587  -0.005828
    18  Cl   0.000000  -0.001251   0.000089   0.000002   0.000015  -0.013669
    19  C   -0.050237  -0.313100  -0.077530  -0.123974  -0.055651  -0.048133
    20  C   -0.005617  -0.319819  -0.003168  -0.007351   0.036188  -0.017566
    21  H    0.000351   0.019199  -0.000069  -0.000030  -0.000121  -0.016149
    22  C    0.394925  -0.494856   0.022793  -0.036777  -0.034859  -0.142312
    23  H   -0.026927   0.004355  -0.000148  -0.000014   0.000086  -0.006954
    24  H   -0.027885  -0.034455  -0.000068   0.000148   0.002158  -0.005881
    25  H    0.538317   0.012889   0.000120   0.001142  -0.000357  -0.000918
    26  C    0.012889   6.680131   0.428420   0.523084   0.410559  -0.189109
    27  H    0.000120   0.428420   0.550363  -0.024442  -0.031110  -0.030314
    28  H    0.001142   0.523084  -0.024442   0.537608  -0.029263  -0.000889
    29  H   -0.000357   0.410559  -0.031110  -0.029263   0.538224   0.004199
    30  C   -0.000918  -0.189109  -0.030314  -0.000889   0.004199   6.026824
    31  H    0.000003   0.014935   0.000053   0.000002  -0.000002   0.365129
    32  H    0.000007   0.010750   0.000741   0.000382  -0.000166   0.427969
              31         32
     1  C   -0.000309   0.002180
     2  C    0.004561  -0.032181
     3  C    0.001691  -0.096776
     4  C   -0.007561  -0.044311
     5  C    0.000575   0.056096
     6  C    0.000561   0.000683
     7  H    0.000000   0.000000
     8  H    0.000000   0.000000
     9  H    0.000000   0.000001
    10  H    0.000000   0.000000
    11  C   -0.060511   0.128475
    12  C   -0.006931   0.006301
    13  C    0.046994  -0.185088
    14  H   -0.004696   0.002286
    15  C   -0.010995   0.126059
    16  H    0.001116  -0.000300
    17  O    0.003627  -0.000787
    18  Cl   0.001317   0.001153
    19  C    0.037606   0.028978
    20  C   -0.047090  -0.116854
    21  H   -0.005194   0.004304
    22  C   -0.001756  -0.006230
    23  H   -0.000011  -0.000002
    24  H    0.000002  -0.000007
    25  H    0.000003   0.000007
    26  C    0.014935   0.010750
    27  H    0.000053   0.000741
    28  H    0.000002   0.000382
    29  H   -0.000002  -0.000166
    30  C    0.365129   0.427969
    31  H    0.515639  -0.029768
    32  H   -0.029768   0.535853
 Mulliken charges:
               1
     1  C   -0.454155
     2  C   -0.425536
     3  C    0.810506
     4  C    0.288471
     5  C   -0.338181
     6  C   -0.350620
     7  H    0.147155
     8  H    0.153819
     9  H    0.150516
    10  H    0.146605
    11  C   -0.229790
    12  C   -0.172284
    13  C    0.226754
    14  H    0.185043
    15  C   -0.400837
    16  H    0.156376
    17  O   -0.443706
    18  Cl   0.229392
    19  C    0.343120
    20  C    0.008044
    21  H    0.133393
    22  C   -0.436708
    23  H    0.154091
    24  H    0.174359
    25  H    0.164045
    26  C   -0.536624
    27  H    0.153120
    28  H    0.168810
    29  H    0.163185
    30  C   -0.529627
    31  H    0.181014
    32  H    0.180253
 Sum of Mulliken charges =   0.00000
 Mulliken charges with hydrogens summed into heavy atoms:
               1
     1  C   -0.307000
     2  C   -0.271717
     3  C    0.810506
     4  C    0.288471
     5  C   -0.187665
     6  C   -0.204015
    11  C   -0.229790
    12  C   -0.172284
    13  C    0.411797
    15  C   -0.244461
    17  O   -0.443706
    18  Cl   0.229392
    19  C    0.343120
    20  C    0.141437
    22  C    0.055786
    26  C   -0.051510
    30  C   -0.168360
 APT charges:
               1
     1  C   -0.600620
     2  C   -0.783227
     3  C   -0.240656
     4  C   -0.406953
     5  C   -0.710482
     6  C   -0.625899
     7  H    0.898305
     8  H    0.693869
     9  H    0.442973
    10  H    0.796435
    11  C   -0.342338
    12  C    0.361929
    13  C   -0.062625
    14  H    0.638312
    15  C   -0.421426
    16  H    0.680197
    17  O   -0.155340
    18  Cl  -0.137710
    19  C    0.636412
    20  C   -0.565515
    21  H    0.717574
    22  C   -1.899173
    23  H    0.561730
    24  H    0.312636
    25  H    0.763413
    26  C   -1.298846
    27  H    0.028701
    28  H    0.688331
    29  H    0.381488
    30  C   -1.079844
    31  H    0.602392
    32  H    0.125956
 Sum of APT charges =   0.00000
 APT charges with hydrogens summed into heavy atoms:
               1
     1  C    0.297685
     2  C   -0.089358
     3  C   -0.240656
     4  C   -0.406953
     5  C   -0.267509
     6  C    0.170537
    11  C   -0.342338
    12  C    0.361929
    13  C    0.575687
    15  C    0.258771
    17  O   -0.155340
    18  Cl  -0.137710
    19  C    0.636412
    20  C    0.152059
    22  C   -0.261394
    26  C   -0.200326
    30  C   -0.351496
 Electronic spatial extent (au):  <R**2>=           4404.0513
 Charge=              0.0000 electrons
 Dipole moment (field-independent basis, Debye):
    X=              2.2796    Y=             -0.2818    Z=              1.7293  Tot=              2.8752
 Quadrupole moment (field-independent basis, Debye-Ang):
   XX=           -106.4793   YY=            -96.2762   ZZ=           -113.5590
   XY=             -5.4432   XZ=              0.7962   YZ=              3.9784
 Traceless Quadrupole moment (field-independent basis, Debye-Ang):
   XX=             -1.0411   YY=              9.1620   ZZ=             -8.1209
   XY=             -5.4432   XZ=              0.7962   YZ=              3.9784
 Octapole moment (field-independent basis, Debye-Ang**2):
  XXX=             31.1579  YYY=             -0.4320  ZZZ=              3.6557  XYY=              2.1445
  XXY=             20.9650  XXZ=              9.0049  XZZ=              0.8919  YZZ=             -6.8159
  YYZ=             -3.5282  XYZ=              2.7511
 Hexadecapole moment (field-independent basis, Debye-Ang**3):
 XXXX=          -3655.4443 YYYY=          -1654.9051 ZZZZ=           -432.5109 XXXY=            -16.4494
 XXXZ=            -47.5210 YYYX=            -25.4512 YYYZ=             20.8105 ZZZX=             -5.9153
 ZZZY=              6.2543 XXYY=           -918.6601 XXZZ=           -728.9901 YYZZ=           -399.2404
 XXYZ=             38.0145 YYXZ=            -29.1271 ZZXY=             21.2413
 N-N= 1.303387857432D+03 E-N=-5.221060148024D+03  KE= 1.108413204050D+03
  Exact polarizability:   0.000   0.000   0.000   0.000   0.000   0.000
 Approx polarizability: 438.185 -22.506 384.952 -11.194  -1.805 214.913
 D2PCM: C-PCM CHGder 2nd derivatives, FixD1E=F FixD2E=F DoIter=F DoCFld=F I1PDM=0
 Calling FoFJK, ICntrl=    100147 FMM=F ISym2X=0 I1Cent= 0 IOpClX= 0 NMat=1 NMatS=1 NMatT=0.
 ***** Axes restored to original set *****
 -------------------------------------------------------------------
 Center     Atomic                   Forces (Hartrees/Bohr)
 Number     Number              X              Y              Z
 -------------------------------------------------------------------
      1        6          -0.002323273    0.003627968    0.001150112
      2        6          -0.003007125    0.002065925    0.000868614
      3        6          -0.007121552   -0.005334202    0.000923892
      4        6           0.013803006   -0.004125198    0.001386075
      5        6           0.003957713    0.001189655   -0.001356000
      6        6          -0.000092436    0.002856079    0.000005193
[...]
 Alpha virt. eigenvalues --    2.46598   2.46958   2.48184   2.49818   2.51026
 Alpha virt. eigenvalues --    2.53358   2.54837   2.55908   2.57909   2.58356
 Alpha virt. eigenvalues --    2.58730   2.59696   2.61439   2.61838   2.63946
 Alpha virt. eigenvalues --    2.66014   2.66312   2.66842   2.67701   2.69189
 Alpha virt. eigenvalues --    2.70298   2.71098   2.73634   2.74403   2.76638
 Alpha virt. eigenvalues --    2.80603   2.81974   2.82499   2.83948   2.86210
 Alpha virt. eigenvalues --    2.86795   2.88687   2.94551   2.95146   3.02336
 Alpha virt. eigenvalues --    3.04624   3.06073   3.10302   3.15340   3.16371
 Alpha virt. eigenvalues --    3.22421   3.25144   3.26331   3.27624   3.29389
 Alpha virt. eigenvalues --    3.33321   3.34817   3.36125   3.38420   3.43985
 Alpha virt. eigenvalues --    3.45200   3.45677   3.49955   3.51236   3.52017
 Alpha virt. eigenvalues --    3.66769   3.68345   3.85451   4.26091   4.31680
 Alpha virt. eigenvalues --    4.35778   4.36175   4.38095   4.40427   4.41739
 Alpha virt. eigenvalues --    4.44869   4.48895   4.50775   4.54642   4.55869
 Alpha virt. eigenvalues --    4.60811   4.67365   4.72437   4.86792   5.02640
          Condensed to atoms (all electrons):
               1          2          3          4          5          6
     1  C    6.375052  -1.462516   1.156086  -0.367531  -0.099405   0.690157
     2  C   -1.462516  12.829738  -5.621135   0.499129   0.877976  -0.356539
     3  C    1.156086  -5.621135  16.947172   2.027538  -3.545754   0.338529
     4  C   -0.367531   0.499129   2.027538  20.015121 -10.185191   2.339652
     5  C   -0.099405   0.877976  -3.545754 -10.185191  19.856797  -3.983831
     6  C    0.690157  -0.356539   0.338529   2.339652  -3.983831   7.846905
     7  H    0.320206  -0.032682   0.028750  -0.015404   0.034220  -0.015217
     8  H    0.140729   0.206968  -0.029061   0.010699   0.002853   0.009173
     9  H    0.007481  -0.004280   0.022282  -0.001267   0.289052  -0.024872
    10  H   -0.040551   0.061710  -0.005653   0.057202  -0.122572   0.383740
    11  C    0.417998  -1.457921  -3.079997  -6.857444   3.787431  -1.203820
    12  C   -0.222336  -0.161225  -1.620217  -0.610387  -1.368532   0.483973
    13  C   -0.166203   0.685573   0.985457  -1.265185  -0.710589  -0.182892
    14  H   -0.000901   0.005026  -0.020381   0.074904  -0.002612   0.003814
    15  C   -0.257966   0.225623  -1.985373   0.470518   1.534101  -0.133861
    16  H    0.003644   0.000031   0.081059  -0.032811   0.002107  -0.000873
    17  O   -0.020729   0.079846  -0.101137  -0.322595   0.079405   0.043556
    18  Cl  -0.004334   0.012262  -0.106057  -0.006140  -0.118317   0.024184
    19  C   -0.026618   0.038340   0.034859   0.414396  -0.137064  -0.034586
    20  C    0.013707  -0.027911   0.130375  -0.066590  -0.113910  -0.043064
    21  H   -0.000029  -0.000218  -0.003170   0.006107   0.002145   0.000396
    22  C   -0.003588   0.006039   0.027404   0.171136  -0.084543  -0.001406
    23  H   -0.000004  -0.000016  -0.000111   0.001719  -0.001565  -0.000026
    24  H   -0.000119   0.000294   0.000438   0.019186  -0.006883   0.003401
    25  H    0.000034  -0.000045  -0.000422  -0.009406   0.004103  -0.000354
    26  C    0.019559  -0.021744  -0.088922  -0.402119   0.211177   0.101085
    27  H    0.006806  -0.023607   0.014133  -0.082757   0.060009  -0.015604
    28  H   -0.000417   0.001511  -0.001992  -0.014052   0.007983   0.002302
    29  H   -0.001123   0.003753  -0.003676   0.048835  -0.037204   0.019546
    30  C   -0.001435   0.011014  -0.134600  -0.257533   0.175685  -0.001927
    31  H   -0.000246   0.003665  -0.004937   0.000256   0.002253   0.000443
    32  H   -0.000705  -0.019840  -0.061568  -0.011135   0.027624   0.004634
               7          8          9         10         11         12
     1  C    0.320206   0.140729   0.007481  -0.040551   0.417998  -0.222336
     2  C   -0.032682   0.206968  -0.004280   0.061710  -1.457921  -0.161225
     3  C    0.028750  -0.029061   0.022282  -0.005653  -3.079997  -1.620217
     4  C   -0.015404   0.010699  -0.001267   0.057202  -6.857444  -0.610387
     5  C    0.034220   0.002853   0.289052  -0.122572   3.787431  -1.368532
     6  C   -0.015217   0.009173  -0.024872   0.383740  -1.203820   0.483973
     7  H    0.546868  -0.005115  -0.000160  -0.004394   0.001201  -0.004235
     8  H   -0.005115   0.550862   0.000014  -0.000158   0.006394  -0.041966
     9  H   -0.000160   0.000014   0.552032  -0.004786  -0.012579  -0.009085
    10  H   -0.004394  -0.000158  -0.004786   0.548565  -0.020538   0.003878
    11  C    0.001201   0.006394  -0.012579  -0.020538  16.153663   2.649228
    12  C   -0.004235  -0.041966  -0.009085   0.003878   2.649228  10.937559
    13  C   -0.000573  -0.003633   0.029427  -0.000193  -3.106576  -1.457595
    14  H    0.000000   0.000000  -0.000005   0.000000   0.049164   0.009206
    15  C    0.000173   0.007490   0.000585  -0.001189  -1.514462  -2.263683
    16  H    0.000000  -0.000004   0.000000   0.000000   0.014389   0.121945
    17  O    0.000005   0.000026   0.007090   0.000134   0.340470  -0.112917
    18  Cl   0.000271  -0.006112   0.000030   0.000090   0.050480  -0.221245
    19  C    0.000051  -0.000083  -0.009632   0.000022  -0.695288  -0.150091
    20  C   -0.000010   0.000037  -0.001070   0.000190   0.626417   0.087085
    21  H    0.000000   0.000000   0.000000   0.000000  -0.007935  -0.001698
    22  C   -0.000001  -0.000002   0.001716   0.000029  -0.039460   0.001414
    23  H    0.000000   0.000000   0.000001   0.000000   0.004177   0.000369
    24  H    0.000000   0.000000   0.000128   0.000000  -0.017508   0.000326
    25  H    0.000000   0.000000  -0.000002   0.000000   0.006288  -0.000096
    26  C   -0.000127   0.000076   0.009203   0.000168  -0.035163   0.000017
    27  H    0.000000   0.000000  -0.000544  -0.000004   0.087215   0.002101
    28  H    0.000000   0.000000   0.000028   0.000000  -0.009526  -0.001183
    29  H    0.000000   0.000000   0.000874  -0.000006  -0.022861   0.002603
    30  C    0.000020   0.000083  -0.000461  -0.000080   0.094068   0.069226
    31  H    0.000000   0.000000   0.000000   0.000000  -0.026540  -0.011416
    32  H    0.000000   0.000000   0.000002   0.000000   0.060439   0.006014
              13         14         15         16         17         18
     1  C   -0.166203  -0.000901  -0.257966   0.003644  -0.020729  -0.004334
     2  C    0.685573   0.005026   0.225623   0.000031   0.079846   0.012262
     3  C    0.985457  -0.020381  -1.985373   0.081059  -0.101137  -0.106057
     4  C   -1.265185   0.074904   0.470518  -0.032811  -0.322595  -0.006140
     5  C   -0.710589  -0.002612   1.534101   0.002107   0.079405  -0.118317
     6  C   -0.182892   0.003814  -0.133861  -0.000873   0.043556   0.024184
     7  H   -0.000573   0.000000   0.000173   0.000000   0.000005   0.000271
     8  H   -0.003633   0.000000   0.007490  -0.000004   0.000026  -0.006112
     9  H    0.029427  -0.000005   0.000585   0.000000   0.007090   0.000030
    10  H   -0.000193   0.000000  -0.001189   0.000000   0.000134   0.000090
    11  C   -3.106576   0.049164  -1.514462   0.014389   0.340470   0.050480
    12  C   -1.457595   0.009206  -2.263683   0.121945  -0.112917  -0.221245
    13  C   11.197376   0.246440  -0.274116  -0.060673  -0.181989   0.113941
    14  H    0.246440   0.546302  -0.070186  -0.004578   0.005318   0.000742
    15  C   -0.274116  -0.070186  10.275135   0.181621   0.135161  -0.147008
    16  H   -0.060673  -0.004578   0.181621   0.532289  -0.000840   0.003609
    17  O   -0.181989   0.005318   0.135161  -0.000840   8.567427  -0.000813
    18  Cl   0.113941   0.000742  -0.147008   0.003609  -0.000813  17.179185
    19  C    0.108856  -0.006177   0.271703  -0.003815   0.204266  -0.001122
    20  C   -0.146185  -0.021011  -0.441266   0.008100  -0.074040   0.016467
    21  H   -0.002632   0.000297   0.012889  -0.000003  -0.001893   0.000000
    22  C   -0.060229   0.002836  -0.029182   0.000030  -0.067415   0.001045
    23  H   -0.000266  -0.000006   0.000612   0.000000  -0.000415   0.000000
    24  H   -0.002919   0.000002  -0.001246   0.000000  -0.006495   0.000002
    25  H    0.000050   0.000000   0.000365   0.000000   0.002498   0.000000
    26  C    0.063013  -0.007999   0.068574   0.000221   0.023750  -0.001873
    27  H   -0.029456  -0.000011  -0.002809  -0.000001  -0.009132   0.000160
    28  H    0.006746   0.000000   0.000265   0.000000   0.005151  -0.000010
    29  H   -0.006445   0.000002  -0.001832   0.000000  -0.008409   0.000014
    30  C    0.109187   0.029916   0.167253   0.000373  -0.050080  -0.011092
    31  H    0.032611  -0.001699  -0.010467   0.000259   0.002466   0.000692
    32  H   -0.097016   0.000861   0.077059  -0.000119  -0.000709   0.000679
              19         20         21         22         23         24
     1  C   -0.026618   0.013707  -0.000029  -0.003588  -0.000004  -0.000119
     2  C    0.038340  -0.027911  -0.000218   0.006039  -0.000016   0.000294
     3  C    0.034859   0.130375  -0.003170   0.027404  -0.000111   0.000438
     4  C    0.414396  -0.066590   0.006107   0.171136   0.001719   0.019186
     5  C   -0.137064  -0.113910   0.002145  -0.084543  -0.001565  -0.006883
     6  C   -0.034586  -0.043064   0.000396  -0.001406  -0.000026   0.003401
     7  H    0.000051  -0.000010   0.000000  -0.000001   0.000000   0.000000
     8  H   -0.000083   0.000037   0.000000  -0.000002   0.000000   0.000000
     9  H   -0.009632  -0.001070   0.000000   0.001716   0.000001   0.000128
    10  H    0.000022   0.000190   0.000000   0.000029   0.000000   0.000000
    11  C   -0.695288   0.626417  -0.007935  -0.039460   0.004177  -0.017508
    12  C   -0.150091   0.087085  -0.001698   0.001414   0.000369   0.000326
    13  C    0.108856  -0.146185  -0.002632  -0.060229  -0.000266  -0.002919
    14  H   -0.006177  -0.021011   0.000297   0.002836  -0.000006   0.000002
    15  C    0.271703  -0.441266   0.012889  -0.029182   0.000612  -0.001246
    16  H   -0.003815   0.008100  -0.000003   0.000030   0.000000   0.000000
    17  O    0.204266  -0.074040  -0.001893  -0.067415  -0.000415  -0.006495
    18  Cl  -0.001122   0.016467   0.000000   0.001045   0.000000   0.000002
    19  C    7.659408  -0.998538   0.013256  -0.599368  -0.124912  -0.072413
    20  C   -0.998538   6.967044   0.301151   0.344389  -0.008633   0.017623
    21  H    0.013256   0.301151   0.562425  -0.031478   0.004175   0.000126
    22  C   -0.599368   0.344389  -0.031478   6.186462   0.493754   0.461896
    23  H   -0.124912  -0.008633   0.004175   0.493754   0.531177  -0.023888
    24  H   -0.072413   0.017623   0.000126   0.461896  -0.023888   0.512009
    25  H   -0.067821  -0.004107   0.000241   0.395727  -0.024876  -0.027486
    26  C   -0.388389  -0.152099   0.009484  -0.410295  -0.000858  -0.038008
    27  H   -0.077458  -0.005936  -0.000067   0.015305  -0.000149  -0.000038
    28  H   -0.129833  -0.001228  -0.000074  -0.030924  -0.000053   0.000130
    29  H   -0.053044   0.031617  -0.000123  -0.026000   0.000142   0.002555
    30  C    0.204171  -0.232629  -0.000779  -0.205763  -0.009187  -0.003806
    31  H    0.031000  -0.030943  -0.005210  -0.003118  -0.000009   0.000002
    32  H    0.058376  -0.140392   0.004381  -0.004439  -0.000001  -0.000005
              25         26         27         28         29         30
     1  C    0.000034   0.019559   0.006806  -0.000417  -0.001123  -0.001435
     2  C   -0.000045  -0.021744  -0.023607   0.001511   0.003753   0.011014
     3  C   -0.000422  -0.088922   0.014133  -0.001992  -0.003676  -0.134600
     4  C   -0.009406  -0.402119  -0.082757  -0.014052   0.048835  -0.257533
     5  C    0.004103   0.211177   0.060009   0.007983  -0.037204   0.175685
     6  C   -0.000354   0.101085  -0.015604   0.002302   0.019546  -0.001927
     7  H    0.000000  -0.000127   0.000000   0.000000   0.000000   0.000020
     8  H    0.000000   0.000076   0.000000   0.000000   0.000000   0.000083
     9  H   -0.000002   0.009203  -0.000544   0.000028   0.000874  -0.000461
    10  H    0.000000   0.000168  -0.000004   0.000000  -0.000006  -0.000080
    11  C    0.006288  -0.035163   0.087215  -0.009526  -0.022861   0.094068
    12  C   -0.000096   0.000017   0.002101  -0.001183   0.002603   0.069226
    13  C    0.000050   0.063013  -0.029456   0.006746  -0.006445   0.109187
    14  H    0.000000  -0.007999  -0.000011   0.000000   0.000002   0.029916
    15  C    0.000365   0.068574  -0.002809   0.000265  -0.001832   0.167253
    16  H    0.000000   0.000221  -0.000001   0.000000   0.000000   0.000373
    17  O    0.002498   0.023750  -0.009132   0.005151  -0.008409  -0.050080
    18  Cl   0.000000  -0.001873   0.000160  -0.000010   0.000014  -0.011092
    19  C   -0.067821  -0.388389  -0.077458  -0.129833  -0.053044   0.204171
    20  C   -0.004107  -0.152099  -0.005936  -0.001228   0.031617  -0.232629
    21  H    0.000241   0.009484  -0.000067  -0.000074  -0.000123  -0.000779
    22  C    0.395727  -0.410295   0.015305  -0.030924  -0.026000  -0.205763
    23  H   -0.024876  -0.000858  -0.000149  -0.000053   0.000142  -0.009187
    24  H   -0.027486  -0.038008  -0.000038   0.000130   0.002555  -0.003806
    25  H    0.525568   0.025184   0.000090   0.001047  -0.000441  -0.003664
    26  C    0.025184   6.455228   0.435528   0.517129   0.405467  -0.163762
    27  H    0.000090   0.435528   0.536336  -0.023935  -0.027395  -0.020821
    28  H    0.001047   0.517129  -0.023935   0.521818  -0.027099  -0.006973
    29  H   -0.000441   0.405467  -0.027395  -0.027099   0.526706   0.004235
    30  C   -0.003664  -0.163762  -0.020821  -0.006973   0.004235   5.844797
    31  H    0.000004   0.015821   0.000039   0.000004  -0.000003   0.347282
    32  H    0.000003   0.007235   0.000983   0.000130  -0.000110   0.420936
              31         32
     1  C   -0.000246  -0.000705
     2  C    0.003665  -0.019840
     3  C   -0.004937  -0.061568
     4  C    0.000256  -0.011135
     5  C    0.002253   0.027624
     6  C    0.000443   0.004634
     7  H    0.000000   0.000000
     8  H    0.000000   0.000000
     9  H    0.000000   0.000002
    10  H    0.000000   0.000000
    11  C   -0.026540   0.060439
    12  C   -0.011416   0.006014
    13  C    0.032611  -0.097016
    14  H   -0.001699   0.000861
    15  C   -0.010467   0.077059
    16  H    0.000259  -0.000119
    17  O    0.002466  -0.000709
    18  Cl   0.000692   0.000679
    19  C    0.031000   0.058376
    20  C   -0.030943  -0.140392
    21  H   -0.005210   0.004381
    22  C   -0.003118  -0.004439
    23  H   -0.000009  -0.000001
    24  H    0.000002  -0.000005
    25  H    0.000004   0.000003
    26  C    0.015821   0.007235
    27  H    0.000039   0.000983
    28  H    0.000004   0.000130
    29  H   -0.000003  -0.000110
    30  C    0.347282   0.420936
    31  H    0.508094  -0.028924
    32  H   -0.028924   0.521826
 Mulliken charges:
               1
     1  C   -0.474703
     2  C   -0.358818
     3  C    0.620080
     4  C    0.351148
     5  C   -0.436946
     6  C   -0.296615
     7  H    0.146153
     8  H    0.150729
     9  H    0.148801
    10  H    0.144397
    11  C   -0.241402
    12  C   -0.117039
    13  C    0.176689
    14  H    0.160736
    15  C   -0.294481
    16  H    0.154039
    17  O   -0.536961
    18  Cl   0.220270
    19  C    0.537549
    20  C   -0.034638
    21  H    0.138235
    22  C   -0.511969
    23  H    0.158850
    24  H    0.182697
    25  H    0.177518
    26  C   -0.656559
    27  H    0.161016
    28  H    0.183057
    29  H    0.169422
    30  C   -0.373653
    31  H    0.178619
    32  H    0.173780
 Sum of Mulliken charges =   0.00000
 Mulliken charges with hydrogens summed into heavy atoms:
               1
     1  C   -0.328550
     2  C   -0.208089
     3  C    0.620080
     4  C    0.351148
     5  C   -0.288145
     6  C   -0.152218
    11  C   -0.241402
    12  C   -0.117039
    13  C    0.337426
    15  C   -0.140443
    17  O   -0.536961
    18  Cl   0.220270
    19  C    0.537549
    20  C    0.103597
    22  C    0.007095
    26  C   -0.143063
    30  C   -0.021254
 Electronic spatial extent (au):  <R**2>=           4548.0291
 Charge=              0.0000 electrons
 Dipole moment (field-independent basis, Debye):
    X=              3.9555    Y=             -0.3801    Z=              3.4407  Tot=              5.2564
 Quadrupole moment (field-independent basis, Debye-Ang):
   XX=           -102.1039   YY=            -95.4580   ZZ=           -114.6887
   XY=             -5.5330   XZ=              4.5178   YZ=              3.3001
 Traceless Quadrupole moment (field-independent basis, Debye-Ang):
   XX=              1.9796   YY=              8.6255   ZZ=            -10.6051
   XY=             -5.5330   XZ=              4.5178   YZ=              3.3001
 Octapole moment (field-independent basis, Debye-Ang**2):
  XXX=             72.8394  YYY=             -3.5584  ZZZ=             10.6664  XYY=              7.5890
  XXY=             19.1204  XXZ=             18.5465  XZZ=             -0.8253  YZZ=             -6.3643
  YYZ=             -0.3154  XYZ=             -0.3592
 Hexadecapole moment (field-independent basis, Debye-Ang**3):
 XXXX=          -3703.9679 YYYY=          -1636.6815 ZZZZ=           -508.4671 XXXY=            -24.3816
 XXXZ=            -22.7284 YYYX=            -24.4645 YYYZ=             18.9616 ZZZX=              6.3872
 ZZZY=              4.4402 XXYY=           -928.4127 XXZZ=           -762.0615 YYZZ=           -403.8878
 XXYZ=             38.6655 YYXZ=            -26.9953 ZZXY=             18.8303
 N-N= 1.281005135009D+03 E-N=-5.176421364470D+03  KE= 1.108232682671D+03
 1\1\GINC-D8S2B3\FTS\RB3LYP\6-31+G(d,p)\C15H15Cl1O1\CHMKSH\27-Aug-2020\
 0\\# opt=(calcfc,ts,noeigentest) b3lyp/6-31+g(d,p) scrf=(cpcm,solvent=
 water) geom=connectivity empiricaldispersion=gd3\\Title Card Required\
 \0,1\C,-2.378802726,2.6124917281,0.410010129\C,-2.6817669757,1.2635431
 847,0.3454605126\C,-1.7257761296,0.32321501,-0.1184138655\C,-0.4329604
 078,0.7974836816,-0.5087550872\C,-0.1601041775,2.1810785763,-0.4452361
 375\C,-1.1097224837,3.0800319228,0.0083591281\H,-3.126766652,3.3140160
 887,0.7676719181\H,-3.6635592746,0.9178893744,0.6481154936\H,0.8225619
 817,2.5172145764,-0.7573439072\H,-0.8804040576,4.1403237575,0.05624019
 87\C,0.590495136,-0.1280472592,-1.0135673887\C,-1.9853242843,-1.087263
 272,-0.2283068877\C,0.2580202184,-1.5135388793,-1.034534014\H,0.947701
 8684,-2.1956490278,-1.5162246976\C,-1.0432702735,-1.967263629,-0.69065
 49224\H,-1.2799110568,-3.0227436135,-0.7747530916\O,1.7573942423,0.282
 5635059,-1.3405049649\Cl,-3.5755606849,-1.7214954548,0.2257921902\C,3.
 17367718,-0.0771473596,0.4660179842\C,2.8019882059,-1.4289959782,0.528
 5739253\H,3.423022024,-2.1359308704,-0.0170486599\C,4.4405505527,0.313
 1395555,-0.2279778084\H,4.8434904098,-0.4935052679,-0.8443250481\H,4.2
 621422829,1.1905024187,-0.8573710419\H,5.1964747279,0.5997695933,0.516
 2084271\C,2.5588444354,0.9726963921,1.3416056437\H,1.5000735752,0.8042
 859596,1.5400677589\H,3.0853747698,0.9691630571,2.306204472\H,2.677745
 8593,1.9646523102,0.9017763939\C,1.5920232819,-1.8803479004,1.01187739
 4\H,1.3534585799,-2.9375629359,0.9932256009\H,0.9264708522,-1.25492724
 51,1.5946773522\\Version=ES64L-G09RevD.01\State=1-A\HF=-1116.0847889\R
 MSD=7.211e-09\RMSF=3.088e-06\Dipole=1.5492776,-0.1433279,1.3623165\Qua
 drupole=1.6974623,5.9480595,-7.6455218,-4.3999126,3.2075829,2.9914461\
 PG=C01 [X(C15H15Cl1O1)]\\@


 ... FOR AFTERWARDS A MAN FINDS PLEASURE IN HIS PAINS,
 WHEN HE HAS SUFFERED LONG AND WANDERED FAR.

                                    -- HOMER
 Job cpu time:       0 days  7 hours 58 minutes 48.6 seconds.
 File lengths (MBytes):  RWF=   1012 Int=      0 D2E=      0 Chk=     20 Scr=      1
 Normal termination of Gaussian 09 at Thu Aug 27 19:38:52 2020.
