 Entering Gaussian System, Link 0=g09
 Input=freq_b3lyp_TS_claisen_PM6_toluene_water.com
 Output=freq_b3lyp_TS_claisen_PM6_toluene_water.log
 Initial command:
 /apps/applications/gaussian/G09.D01/2/default/g09/l1.exe "/local/715296.1.40core-192G.q/Gau-413105.inp" -scrdir="/local/715296.1.40core-192G.q/"
 Entering Link 1 = /apps/applications/gaussian/G09.D01/2/default/g09/l1.exe PID=    413106.
  
 Copyright (c) 1988,1990,1992,1993,1995,1998,2003,2009,2013,
            Gaussian, Inc.  All Rights Reserved.
  
 This is part of the Gaussian(R) 09 program.  It is based on
 the Gaussian(R) 03 system (copyright 2003, Gaussian, Inc.),
 the Gaussian(R) 98 system (copyright 1998, Gaussian, Inc.),
 the Gaussian(R) 94 system (copyright 1995, Gaussian, Inc.),
 the Gaussian 92(TM) system (copyright 1992, Gaussian, Inc.),
 the Gaussian 90(TM) system (copyright 1990, Gaussian, Inc.),
 the Gaussian 88(TM) system (copyright 1988, Gaussian, Inc.),
 the Gaussian 86(TM) system (copyright 1986, Carnegie Mellon
 University), and the Gaussian 82(TM) system (copyright 1983,
 Carnegie Mellon University). Gaussian is a federally registered
 trademark of Gaussian, Inc.
  
 This software contains proprietary and confidential information,
 including trade secrets, belonging to Gaussian, Inc.
  
 This software is provided under written license and may be
 used, copied, transmitted, or stored only in accord with that
 written license.
  
 The following legend is applicable only to US Government
 contracts under FAR:
  
                    RESTRICTED RIGHTS LEGEND
  
 Use, reproduction and disclosure by the US Government is
 subject to restrictions as set forth in subparagraphs (a)
 and (c) of the Commercial Computer Software - Restricted
 Rights clause in FAR 52.227-19.
  
 Gaussian, Inc.
 340 Quinnipiac St., Bldg. 40, Wallingford CT 06492
  
  
 ---------------------------------------------------------------
 Warning -- This program may not be used in any manner that
 competes with the business of Gaussian, Inc. or will provide
 assistance to any competitor of Gaussian, Inc.  The licensee
 of this program is prohibited from giving any competitor of
 Gaussian, Inc. access to this program.  By using this program,
 the user acknowledges that Gaussian, Inc. is engaged in the
 business of creating and licensing software in the field of
 computational chemistry and represents and warrants to the
 licensee that it is not a competitor of Gaussian, Inc. and that
 it will not use this program in any manner prohibited above.
 ---------------------------------------------------------------
  

 Cite this work as:
 Gaussian 09, Revision D.01,
 M. J. Frisch, G. W. Trucks, H. B. Schlegel, G. E. Scuseria, 
 M. A. Robb, J. R. Cheeseman, G. Scalmani, V. Barone, B. Mennucci, 
 G. A. Petersson, H. Nakatsuji, M. Caricato, X. Li, H. P. Hratchian, 
 A. F. Izmaylov, J. Bloino, G. Zheng, J. L. Sonnenberg, M. Hada, 
 M. Ehara, K. Toyota, R. Fukuda, J. Hasegawa, M. Ishida, T. Nakajima, 
 Y. Honda, O. Kitao, H. Nakai, T. Vreven, J. A. Montgomery, Jr., 
 J. E. Peralta, F. Ogliaro, M. Bearpark, J. J. Heyd, E. Brothers, 
 K. N. Kudin, V. N. Staroverov, T. Keith, R. Kobayashi, J. Normand, 
 K. Raghavachari, A. Rendell, J. C. Burant, S. S. Iyengar, J. Tomasi, 
 M. Cossi, N. Rega, J. M. Millam, M. Klene, J. E. Knox, J. B. Cross, 
 V. Bakken, C. Adamo, J. Jaramillo, R. Gomperts, R. E. Stratmann, 
 O. Yazyev, A. J. Austin, R. Cammi, C. Pomelli, J. W. Ochterski, 
 R. L. Martin, K. Morokuma, V. G. Zakrzewski, G. A. Voth, 
 P. Salvador, J. J. Dannenberg, S. Dapprich, A. D. Daniels, 
 O. Farkas, J. B. Foresman, J. V. Ortiz, J. Cioslowski, 
 and D. J. Fox, Gaussian, Inc., Wallingford CT, 2013.
 
 ******************************************
 Gaussian 09:  ES64L-G09RevD.01 24-Apr-2013
                27-Aug-2020 
 ******************************************
 %nprocshared=4
 Will use up to    4 processors via shared memory.
 %chk=freq_b3lyp_TS_claisen_PM6_toluene_water.chk
 ----------------------------------------------------------------------
 # freq b3lyp/6-31+g(d,p) scrf=(cpcm,solvent=water) geom=connectivity e
 mpiricaldispersion=gd3
 ----------------------------------------------------------------------
 1/10=4,30=1,38=1,57=2/1,3;
 2/12=2,17=6,18=5,40=1/2;
 3/5=1,6=6,7=111,11=2,16=1,25=1,30=1,70=2101,71=2,72=1,74=-5,124=31,140=1/1,2,3;
 4//1;
 5/5=2,38=5,53=1,98=1/2;
 8/6=4,10=90,11=11/1;
 11/6=1,8=1,9=11,15=111,16=1/1,2,10;
 10/6=1/2;
 6/7=2,8=2,9=2,10=2,18=1,28=1/1;
 7/8=1,10=1,25=1/1,2,3,16;
 1/10=4,30=1/3;
 99//99;
 -------------------
 Title Card Required
 -------------------
 Symbolic Z-matrix:
 Charge =  0 Multiplicity = 1
 C                    -2.26157   2.71683   0.36597 
 C                    -2.60954   1.37734   0.34914 
 C                    -1.68948   0.39076  -0.09073 
 C                    -0.38536   0.80843  -0.50726 
 C                    -0.06635   2.1835   -0.49238 
 C                    -0.9815    3.12819  -0.06145 
 H                    -2.9826    3.4544    0.70599 
 H                    -3.59937   1.07486   0.67119 
 H                     0.92396   2.47613  -0.82357 
 H                    -0.71683   4.18126  -0.051 
 C                     0.60223  -0.16697  -0.98909 
 C                    -1.99651  -1.01315  -0.15117 
 C                     0.22397  -1.54054  -0.9609 
 H                     0.88624  -2.2609   -1.42506 
 C                    -1.08837  -1.93895  -0.59142 
 H                    -1.36054  -2.98816  -0.63817 
 O                     1.77899   0.19341  -1.3391 
 Cl                   -3.60257  -1.57857   0.33687 
 C                     3.19926  -0.15309   0.46687 
 C                     2.78369  -1.48897   0.57773 
 H                     3.37595  -2.23396   0.05107 
 C                     4.47187   0.17146  -0.25011 
 H                     4.84221  -0.66821  -0.84233 
 H                     4.31674   1.03289  -0.90708 
 H                     5.24371   0.4573    0.47787 
 C                     2.62759   0.94518   1.31176 
 H                     1.56571   0.81885   1.52437 
 H                     3.16262   0.95615   2.27162 
 H                     2.77514   1.91746   0.83798 
 C                     1.56399  -1.88342   1.08573 
 H                     1.29045  -2.93213   1.10446 
 H                     0.92489  -1.21714   1.65264 
 

 GradGradGradGradGradGradGradGradGradGradGradGradGradGradGradGradGradGrad
 Berny optimization.
 Initialization pass.
 Trust Radius=3.00D-01 FncErr=1.00D-07 GrdErr=1.00D-07
 Number of steps in this run=      2 maximum allowed number of steps=      2.
 GradGradGradGradGradGradGradGradGradGradGradGradGradGradGradGradGradGrad

                          Input orientation:                          
 ---------------------------------------------------------------------
 Center     Atomic      Atomic             Coordinates (Angstroms)
 Number     Number       Type             X           Y           Z
 ---------------------------------------------------------------------
      1          6           0       -2.261569    2.716833    0.365967
      2          6           0       -2.609536    1.377336    0.349135
      3          6           0       -1.689480    0.390762   -0.090731
      4          6           0       -0.385362    0.808430   -0.507264
      5          6           0       -0.066349    2.183504   -0.492379
      6          6           0       -0.981499    3.128195   -0.061450
      7          1           0       -2.982596    3.454402    0.705994
      8          1           0       -3.599374    1.074857    0.671191
      9          1           0        0.923961    2.476133   -0.823569
     10          1           0       -0.716829    4.181257   -0.051003
     11          6           0        0.602230   -0.166973   -0.989090
     12          6           0       -1.996510   -1.013151   -0.151170
     13          6           0        0.223965   -1.540540   -0.960899
     14          1           0        0.886239   -2.260895   -1.425057
     15          6           0       -1.088374   -1.938948   -0.591420
     16          1           0       -1.360538   -2.988162   -0.638165
     17          8           0        1.778988    0.193413   -1.339098
     18         17           0       -3.602570   -1.578569    0.336866
     19          6           0        3.199262   -0.153094    0.466873
     20          6           0        2.783690   -1.488973    0.577729
     21          1           0        3.375945   -2.233960    0.051068
     22          6           0        4.471867    0.171460   -0.250107
     23          1           0        4.842207   -0.668205   -0.842333
     24          1           0        4.316739    1.032886   -0.907080
     25          1           0        5.243705    0.457296    0.477873
     26          6           0        2.627591    0.945180    1.311759
     27          1           0        1.565714    0.818852    1.524370
     28          1           0        3.162619    0.956146    2.271615
     29          1           0        2.775139    1.917457    0.837976
     30          6           0        1.563992   -1.883423    1.085726
     31          1           0        1.290452   -2.932131    1.104462
     32          1           0        0.924894   -1.217139    1.652637
 ---------------------------------------------------------------------
                    Distance matrix (angstroms):
                    1          2          3          4          5
     1  C    0.000000
     2  C    1.384058   0.000000
     3  C    2.438538   1.418913   0.000000
     4  C    2.815082   2.450311   1.431318   0.000000
     5  C    2.416648   2.797473   2.451489   1.411673   0.000000
     6  C    1.410845   2.425818   2.827655   2.436276   1.384067
     7  H    1.086051   2.140263   3.419475   3.901126   3.399379
     8  H    2.139853   1.083971   2.167073   3.433601   3.881399
     9  H    3.408890   3.881777   3.422849   2.143737   1.084450
    10  H    2.169014   3.406527   3.913500   3.419650   2.146847
    11  C    4.284141   3.806728   2.523896   1.469321   2.493684
    12  C    3.774979   2.518042   1.438364   2.457795   3.749740
    13  C    5.105260   4.273045   2.854539   2.468750   3.764611
    14  H    6.155830   5.348357   3.930145   3.446748   4.640043
    15  C    4.895842   3.767800   2.457553   2.837145   4.248406
    16  H    5.862346   4.646755   3.438752   3.922017   5.333133
    17  O    5.059743   4.848809   3.691563   2.398876   2.843003
    18  Cl   4.499957   3.118275   2.778672   4.093989   5.229312
    19  C    6.169873   6.008179   4.950404   3.837056   4.128446
    20  C    6.571779   6.111863   4.897907   4.061793   4.770214
    21  H    7.509399   6.996877   5.706821   4.869836   5.626607
    22  C    7.224793   7.208294   6.167308   4.905562   4.970153
    23  H    7.961288   7.818715   6.659523   5.442444   5.687586
    24  H    6.908724   7.047695   6.095360   4.724403   4.550534
    25  H    7.838824   7.907999   6.956780   5.725398   5.667262
    26  C    5.285562   5.342369   4.572905   3.522134   3.470688
    27  H    4.426322   4.373305   3.658975   2.816797   2.931413
    28  H    6.012764   6.098451   5.426159   4.509119   4.424060
    29  H    5.121545   5.433730   4.808962   3.609484   3.148758
    30  C    6.026220   5.347285   4.140175   3.685603   4.657072
    31  H    6.713644   5.861052   4.620617   4.404294   5.528158
    32  H    5.223524   4.574124   3.529820   3.238035   4.141018
                    6          7          8          9         10
     6  C    0.000000
     7  H    2.167895   0.000000
     8  H    3.406792   2.458426   0.000000
     9  H    2.153320   4.307872   4.965727   0.000000
    10  H    1.085863   2.497011   4.298878   2.489277   0.000000
    11  C    3.771849   5.370162   4.685312   2.667755   4.639723
    12  C    4.264862   4.654689   2.757758   4.599606   5.350653
    13  C    4.905022   6.165226   4.911409   4.079524   5.869580
    14  H    5.864312   7.223149   5.970111   4.775212   6.779320
    15  C    5.095903   5.861705   4.120962   4.857605   6.155242
    16  H    6.155168   6.778235   4.820262   5.925524   7.222167
    17  O    4.226774   6.122837   5.809043   2.491516   4.877621
    18  Cl   5.402064   5.084429   2.674407   6.186817   6.453955
    19  C    5.340856   7.161465   6.911661   3.708783   5.864347
    20  C    5.991948   7.596280   6.879351   4.598292   6.693313
    21  H    6.910332   8.556719   7.745185   5.381653   7.610271
    22  C    6.206213   8.201272   8.173729   4.269428   6.560540
    23  H    6.995569   8.978906   8.751532   5.023929   7.419324
    24  H    5.759925   7.857865   8.072022   3.687937   5.998493
    25  H    6.795420   8.758237   8.866724   4.942635   7.048089
    26  C    4.435853   6.175544   6.261169   3.131421   4.849171
    27  H    3.786315   5.320055   5.241334   2.944698   4.358620
    28  H    5.228260   6.815873   6.949820   4.111218   5.553919
    29  H    4.048109   5.960800   6.432123   2.549453   4.255457
    30  C    5.736885   7.021968   5.965200   4.802164   6.578346
    31  H    6.576372   7.694512   6.336724   5.753342   7.480947
    32  H    5.045231   6.163433   5.165799   4.446555   5.894092
                   11         12         13         14         15
    11  C    0.000000
    12  C    2.858597   0.000000
    13  C    1.424979   2.421634   0.000000
    14  H    2.157600   3.389675   1.083033   0.000000
    15  C    2.481165   1.369537   1.420379   2.167417   0.000000
    16  H    3.454666   2.131266   2.170349   2.489201   1.084946
    17  O    1.279509   4.137796   2.359603   2.613048   3.650719
    18  Cl   4.629374   1.771244   4.040793   4.870251   2.704213
    19  C    2.977347   5.302615   3.579935   3.656815   4.763726
    20  C    2.993555   4.858808   2.987010   2.864845   4.069676
    21  H    3.612182   5.513125   3.382290   2.894530   4.519952
    22  C    3.954077   6.576701   4.634743   4.489275   5.957063
    23  H    4.272022   6.882205   4.701402   4.304174   6.070382
    24  H    3.904352   6.679430   4.834896   4.783892   6.176300
    25  H    4.907645   7.414757   5.590993   5.476971   6.854239
    26  C    3.260809   5.230443   4.137777   4.560854   5.074316
    27  H    2.866642   4.342017   3.680161   4.318061   4.373352
    28  H    4.295251   6.030309   5.031727   5.403392   5.886381
    29  H    3.522010   5.686432   4.658560   5.113500   5.642851
    30  C    2.859379   3.868392   2.470205   2.627901   3.138622
    31  H    3.535917   4.007894   2.709176   2.648096   3.085651
    32  H    2.861063   3.439467   2.725153   3.250096   3.100008
                   16         17         18         19         20
    16  H    0.000000
    17  O    4.524417   0.000000
    18  Cl   2.822117   5.908464   0.000000
    19  C    5.481833   2.323527   6.950813   0.000000
    20  C    4.571716   2.741181   6.391429   1.403411   0.000000
    21  H    4.845424   3.221020   7.015047   2.129346   1.087724
    22  C    6.644603   2.904820   8.282733   1.496302   2.508444
    23  H    6.625551   3.220632   8.575169   2.163014   2.632058
    24  H    6.962228   2.707681   8.431047   2.131443   3.303736
    25  H    7.532114   3.921133   9.078613   2.133646   3.138409
    26  C    5.931151   2.883110   6.792248   1.498948   2.547208
    27  H    5.266200   2.938726   5.819704   2.175191   2.775905
    28  H    6.669583   3.941249   7.479025   2.118691   2.998574
    29  H    6.583913   2.950304   7.290300   2.145875   3.416368
    30  C    3.570031   3.199882   5.229445   2.459904   1.378882
    31  H    3.172954   3.997334   5.134491   3.431198   2.142408
    32  H    3.688834   3.416081   4.728617   2.776865   2.164358
                   21         22         23         24         25
    21  H    0.000000
    22  C    2.660413   0.000000
    23  H    2.323721   1.092209   0.000000
    24  H    3.532057   1.094410   1.781578   0.000000
    25  H    3.303566   1.098813   1.780701   1.763141   0.000000
    26  C    3.500901   2.537602   3.485348   2.790011   2.788808
    27  H    3.842814   3.466066   4.306742   3.677757   3.841028
    28  H    3.892700   2.947702   3.893097   3.382600   2.792361
    29  H    4.267840   2.666705   3.712392   2.490827   2.890599
    30  C    2.115790   3.802990   3.992601   4.478141   4.403265
    31  H    2.438516   4.646346   4.640079   5.378297   5.244906
    32  H    3.099451   4.257894   4.676702   4.808261   4.778696
                   26         27         28         29         30
    26  C    0.000000
    27  H    1.090296   0.000000
    28  H    1.098953   1.768426   0.000000
    29  H    1.091588   1.772224   1.769062   0.000000
    30  C    3.030401   2.737645   3.467722   3.996867   0.000000
    31  H    4.106635   3.784437   4.470565   5.078761   1.083957
    32  H    2.773265   2.138308   3.180207   3.729983   1.083406
                   31         32
    31  H    0.000000
    32  H    1.837206   0.000000
 Stoichiometry    C15H15ClO
 Framework group  C1[X(C15H15ClO)]
 Deg. of freedom    90
 Full point group                 C1      NOp   1
 Largest Abelian subgroup         C1      NOp   1
 Largest concise Abelian subgroup C1      NOp   1
                         Standard orientation:                         
 ---------------------------------------------------------------------
 Center     Atomic      Atomic             Coordinates (Angstroms)
 Number     Number       Type             X           Y           Z
 ---------------------------------------------------------------------
      1          6           0       -2.261569    2.716833    0.365967
      2          6           0       -2.609536    1.377336    0.349135
      3          6           0       -1.689480    0.390762   -0.090731
      4          6           0       -0.385362    0.808430   -0.507264
      5          6           0       -0.066349    2.183504   -0.492379
      6          6           0       -0.981499    3.128195   -0.061450
      7          1           0       -2.982596    3.454402    0.705994
      8          1           0       -3.599374    1.074856    0.671191
      9          1           0        0.923961    2.476133   -0.823569
     10          1           0       -0.716829    4.181257   -0.051003
     11          6           0        0.602230   -0.166973   -0.989090
     12          6           0       -1.996510   -1.013151   -0.151170
     13          6           0        0.223965   -1.540540   -0.960899
     14          1           0        0.886239   -2.260895   -1.425057
     15          6           0       -1.088374   -1.938948   -0.591420
     16          1           0       -1.360538   -2.988162   -0.638165
     17          8           0        1.778988    0.193413   -1.339098
     18         17           0       -3.602570   -1.578570    0.336866
     19          6           0        3.199262   -0.153094    0.466873
     20          6           0        2.783690   -1.488973    0.577729
     21          1           0        3.375945   -2.233960    0.051068
     22          6           0        4.471867    0.171460   -0.250107
     23          1           0        4.842207   -0.668205   -0.842333
     24          1           0        4.316739    1.032886   -0.907080
     25          1           0        5.243705    0.457296    0.477873
     26          6           0        2.627591    0.945180    1.311759
     27          1           0        1.565714    0.818852    1.524370
     28          1           0        3.162619    0.956146    2.271615
     29          1           0        2.775139    1.917457    0.837976
     30          6           0        1.563992   -1.883423    1.085726
     31          1           0        1.290452   -2.932131    1.104462
     32          1           0        0.924894   -1.217139    1.652637
 ---------------------------------------------------------------------
 Rotational constants (GHZ):      0.6716976      0.3182499      0.2427525
 Standard basis: 6-31+G(d,p) (6D, 7F)
 There are   402 symmetry adapted cartesian basis functions of A   symmetry.
 There are   402 symmetry adapted basis functions of A   symmetry.
   402 basis functions,   673 primitive gaussians,   402 cartesian basis functions
    65 alpha electrons       65 beta electrons
       nuclear repulsion energy      1281.0428138328 Hartrees.
 NAtoms=   32 NActive=   32 NUniq=   32 SFac= 1.00D+00 NAtFMM=   60 NAOKFM=F Big=F
 Integral buffers will be    131072 words long.
 Raffenetti 2 integral format.
 Two-electron integral symmetry is turned on.
 Nuclear repulsion after empirical dispersion term =     1281.0051307776 Hartrees.
 Force inversion solution in PCM.
 ------------------------------------------------------------------------------
 Polarizable Continuum Model (PCM)
 =================================
 Model                : C-PCM.
 Atomic radii         : UFF (Universal Force Field).
 Polarization charges : Total charges.
 Charge compensation  : None.
 Solution method      : Matrix inversion.
 Cavity type          : Scaled VdW (van der Waals Surface) (Alpha=1.100).
 Cavity algorithm     : GePol (No added spheres)
                        Default sphere list used, NSphG=   32.
                        Lebedev-Laikov grids with approx.  5.0 points / Ang**2.
                        Smoothing algorithm: Karplus/York (Gamma=1.0000).
                        Polarization charges: spherical gaussians, with
                                              point-specific exponents (IZeta= 3).
                        Self-potential: point-specific (ISelfS= 7).
                        Self-field    : sphere-specific E.n sum rule (ISelfD= 2).
 1st derivatives      : Analytical E(r).r(x)/FMM algorithm (CHGder, D1EAlg=3).
                        Cavity 1st derivative terms included.
 2nd derivatives      : Analytical E(r).r(xy)/FMM algorithm (CHGder, D2EAlg=3).
                        Cavity 2nd derivative terms included.
 Solvent              : Water, Eps=  78.355300 Eps(inf)=   1.777849
 ------------------------------------------------------------------------------
 One-electron integrals computed using PRISM.
 NBasis=   402 RedAO= T EigKep=  1.16D-06  NBF=   402
 NBsUse=   400 1.00D-06 EigRej=  7.39D-07 NBFU=   400
 ExpMin= 4.38D-02 ExpMax= 2.52D+04 ExpMxC= 3.78D+03 IAcc=2 IRadAn=         4 AccDes= 0.00D+00
 Harris functional with IExCor=  402 and IRadAn=       4 diagonalized for initial guess.
 HarFok:  IExCor=  402 AccDes= 0.00D+00 IRadAn=         4 IDoV= 1 UseB2=F ITyADJ=14
 ICtDFT=  3500011 ScaDFX=  1.000000  1.000000  1.000000  1.000000
 FoFCou: FMM=F IPFlag=           0 FMFlag=      100000 FMFlg1=           0
         NFxFlg=           0 DoJE=T BraDBF=F KetDBF=T FulRan=T
         wScrn=  0.000000 ICntrl=     500 IOpCl=  0 I1Cent=   200000004 NGrid=           0
         NMat0=    1 NMatS0=      1 NMatT0=    0 NMatD0=    1 NMtDS0=    0 NMtDT0=    0
 Petite list used in FoFCou.
 Requested convergence on RMS density matrix=1.00D-08 within 128 cycles.
 Requested convergence on MAX density matrix=1.00D-06.
 Requested convergence on             energy=1.00D-06.
 No special actions if energy rises.
 Inv3:  Mode=1 IEnd=    15746043.
 Iteration    1 A*A^-1 deviation from unit magnitude is 5.33D-15 for   2263.
 Iteration    1 A*A^-1 deviation from orthogonality  is 1.96D-15 for   2287   2219.
 Iteration    1 A^-1*A deviation from unit magnitude is 5.77D-15 for   2263.
 Iteration    1 A^-1*A deviation from orthogonality  is 2.10D-15 for   1589    226.
 Error on total polarization charges =  0.02167
 SCF Done:  E(RB3LYP) =  -1116.08478889     A.U. after   16 cycles
            NFock= 16  Conv=0.77D-08     -V/T= 2.0071
 DoSCS=F DFT=T ScalE2(SS,OS)=  1.000000  1.000000
 Range of M.O.s used for correlation:     1   400
 NBasis=   402 NAE=    65 NBE=    65 NFC=     0 NFV=     0
 NROrb=    400 NOA=    65 NOB=    65 NVA=   335 NVB=   335

 **** Warning!!: The largest alpha MO coefficient is  0.15693724D+03

 PrsmSu:  requested number of processors reduced to:   3 ShMem   1 Linda.
 Symmetrizing basis deriv contribution to polar:
 IMax=3 JMax=2 DiffMx= 0.00D+00
 G2DrvN: will do    17 centers at a time, making    2 passes.
 Calling FoFCou, ICntrl=  3107 FMM=F I1Cent=   0 AccDes= 0.00D+00.
 Calling FoFCou, ICntrl=  3107 FMM=F I1Cent=   0 AccDes= 0.00D+00.
 NEqPCM:  Using equilibrium solvation (IEInf=0, Eps=  78.3553, EpsInf=   1.7778)
 G2PCM: DoFxE=T DoFxN=T DoGrad=T DoDP/DQ/DG/TGxP=FFFF NFrqRd=   0 IEInf=0 SqF1=F DoCFld=F IF1Alg=4.
 End of G2Drv F.D. properties file   721 does not exist.
 End of G2Drv F.D. properties file   722 does not exist.
 End of G2Drv F.D. properties file   788 does not exist.
          IDoAtm=11111111111111111111111111111111
 NEqPCM:  Using equilibrium solvation (IEInf=0, Eps=  78.3553, EpsInf=   1.7778)
          Differentiating once with respect to electric field.
                with respect to dipole field.
          Differentiating once with respect to nuclear coordinates.
          There are    99 degrees of freedom in the 1st order CPHF.  IDoFFX=6 NUNeed=     3.
     99 vectors produced by pass  0 Test12= 2.20D-14 1.01D-09 XBig12= 6.36D+02 1.93D+01.
 AX will form    52 AO Fock derivatives at one time.
     99 vectors produced by pass  1 Test12= 2.20D-14 1.01D-09 XBig12= 1.03D+02 1.19D+00.
     96 vectors produced by pass  2 Test12= 2.20D-14 1.01D-09 XBig12= 8.26D-01 1.24D-01.
     96 vectors produced by pass  3 Test12= 2.20D-14 1.01D-09 XBig12= 3.95D-03 6.61D-03.
     96 vectors produced by pass  4 Test12= 2.20D-14 1.01D-09 XBig12= 1.05D-05 2.92D-04.
     96 vectors produced by pass  5 Test12= 2.20D-14 1.01D-09 XBig12= 1.85D-08 1.10D-05.
     67 vectors produced by pass  6 Test12= 2.20D-14 1.01D-09 XBig12= 3.15D-11 4.30D-07.
 PrRfSu:  requested number of processors reduced to:   3 ShMem   1 Linda.
 CalDSu:  requested number of processors reduced to:   3 ShMem   1 Linda.
     19 vectors produced by pass  7 Test12= 2.20D-14 1.01D-09 XBig12= 1.26D-12 9.08D-08.
     12 vectors produced by pass  8 Test12= 2.20D-14 1.01D-09 XBig12= 2.36D-14 1.49D-08.
      6 vectors produced by pass  9 Test12= 2.20D-14 1.01D-09 XBig12= 2.02D-15 4.46D-09.
      6 vectors produced by pass 10 Test12= 2.20D-14 1.01D-09 XBig12= 4.21D-14 1.62D-08.
      6 vectors produced by pass 11 Test12= 2.20D-14 1.01D-09 XBig12= 6.05D-14 2.94D-08.
      6 vectors produced by pass 12 Test12= 2.20D-14 1.01D-09 XBig12= 1.14D-14 8.89D-09.
      6 vectors produced by pass 13 Test12= 2.20D-14 1.01D-09 XBig12= 2.37D-14 1.04D-08.
      6 vectors produced by pass 14 Test12= 2.20D-14 1.01D-09 XBig12= 1.60D-14 1.25D-08.
      6 vectors produced by pass 15 Test12= 2.20D-14 1.01D-09 XBig12= 5.28D-14 2.52D-08.
      5 vectors produced by pass 16 Test12= 2.20D-14 1.01D-09 XBig12= 5.93D-15 5.72D-09.
      5 vectors produced by pass 17 Test12= 2.20D-14 1.01D-09 XBig12= 3.58D-14 1.38D-08.
      4 vectors produced by pass 18 Test12= 2.20D-14 1.01D-09 XBig12= 9.22D-15 7.46D-09.
      4 vectors produced by pass 19 Test12= 2.20D-14 1.01D-09 XBig12= 2.53D-14 1.19D-08.
      4 vectors produced by pass 20 Test12= 2.20D-14 1.01D-09 XBig12= 1.69D-14 9.76D-09.
      4 vectors produced by pass 21 Test12= 2.20D-14 1.01D-09 XBig12= 1.97D-14 9.32D-09.
      4 vectors produced by pass 22 Test12= 2.20D-14 1.01D-09 XBig12= 1.69D-14 9.65D-09.
      4 vectors produced by pass 23 Test12= 2.20D-14 1.01D-09 XBig12= 4.40D-14 1.96D-08.
      4 vectors produced by pass 24 Test12= 2.20D-14 1.01D-09 XBig12= 1.68D-14 1.11D-08.
      4 vectors produced by pass 25 Test12= 2.20D-14 1.01D-09 XBig12= 1.70D-14 1.14D-08.
      4 vectors produced by pass 26 Test12= 2.20D-14 1.01D-09 XBig12= 2.12D-14 1.14D-08.
      4 vectors produced by pass 27 Test12= 2.20D-14 1.01D-09 XBig12= 1.67D-14 1.12D-08.
      4 vectors produced by pass 28 Test12= 2.20D-14 1.01D-09 XBig12= 2.41D-14 1.50D-08.
      4 vectors produced by pass 29 Test12= 2.20D-14 1.01D-09 XBig12= 9.85D-15 7.39D-09.
      4 vectors produced by pass 30 Test12= 2.20D-14 1.01D-09 XBig12= 1.57D-14 9.58D-09.
      4 vectors produced by pass 31 Test12= 2.20D-14 1.01D-09 XBig12= 8.82D-15 7.37D-09.
      4 vectors produced by pass 32 Test12= 2.20D-14 1.01D-09 XBig12= 8.54D-15 6.80D-09.
      4 vectors produced by pass 33 Test12= 2.20D-14 1.01D-09 XBig12= 2.25D-14 1.01D-08.
      3 vectors produced by pass 34 Test12= 2.20D-14 1.01D-09 XBig12= 1.88D-15 3.28D-09.
      3 vectors produced by pass 35 Test12= 2.20D-14 1.01D-09 XBig12= 2.09D-14 1.29D-08.
      3 vectors produced by pass 36 Test12= 2.20D-14 1.01D-09 XBig12= 7.45D-15 6.99D-09.
      3 vectors produced by pass 37 Test12= 2.20D-14 1.01D-09 XBig12= 1.87D-14 8.92D-09.
      3 vectors produced by pass 38 Test12= 2.20D-14 1.01D-09 XBig12= 5.51D-15 5.82D-09.
      3 vectors produced by pass 39 Test12= 2.20D-14 1.01D-09 XBig12= 6.78D-15 6.14D-09.
      3 vectors produced by pass 40 Test12= 2.20D-14 1.01D-09 XBig12= 1.30D-14 8.55D-09.
      3 vectors produced by pass 41 Test12= 2.20D-14 1.01D-09 XBig12= 7.61D-15 6.03D-09.
      3 vectors produced by pass 42 Test12= 2.20D-14 1.01D-09 XBig12= 1.79D-14 1.04D-08.
      3 vectors produced by pass 43 Test12= 2.20D-14 1.01D-09 XBig12= 9.69D-15 6.99D-09.
      3 vectors produced by pass 44 Test12= 2.20D-14 1.01D-09 XBig12= 1.21D-14 7.88D-09.
      3 vectors produced by pass 45 Test12= 2.20D-14 1.01D-09 XBig12= 1.06D-14 8.10D-09.
      3 vectors produced by pass 46 Test12= 2.20D-14 1.01D-09 XBig12= 1.68D-14 8.66D-09.
      3 vectors produced by pass 47 Test12= 2.20D-14 1.01D-09 XBig12= 1.22D-14 8.62D-09.
      3 vectors produced by pass 48 Test12= 2.20D-14 1.01D-09 XBig12= 1.04D-14 6.80D-09.
      3 vectors produced by pass 49 Test12= 2.20D-14 1.01D-09 XBig12= 5.04D-15 4.79D-09.
      3 vectors produced by pass 50 Test12= 2.20D-14 1.01D-09 XBig12= 6.59D-15 6.90D-09.
      3 vectors produced by pass 51 Test12= 2.20D-14 1.01D-09 XBig12= 1.25D-14 7.89D-09.
      3 vectors produced by pass 52 Test12= 2.20D-14 1.01D-09 XBig12= 1.36D-14 9.11D-09.
      3 vectors produced by pass 53 Test12= 2.20D-14 1.01D-09 XBig12= 6.66D-15 5.97D-09.
      3 vectors produced by pass 54 Test12= 2.20D-14 1.01D-09 XBig12= 7.73D-15 7.77D-09.
      3 vectors produced by pass 55 Test12= 2.20D-14 1.01D-09 XBig12= 2.85D-15 4.29D-09.
      3 vectors produced by pass 56 Test12= 2.20D-14 1.01D-09 XBig12= 1.29D-14 7.93D-09.
      3 vectors produced by pass 57 Test12= 2.20D-14 1.01D-09 XBig12= 1.05D-14 7.45D-09.
      3 vectors produced by pass 58 Test12= 2.20D-14 1.01D-09 XBig12= 1.17D-14 8.17D-09.
      3 vectors produced by pass 59 Test12= 2.20D-14 1.01D-09 XBig12= 5.84D-15 7.72D-09.
      2 vectors produced by pass 60 Test12= 2.20D-14 1.01D-09 XBig12= 4.49D-15 4.83D-09.
 InvSVY:  IOpt=1 It=  1 EMax= 3.38D-14
 Solved reduced A of dimension   876 with    99 vectors.
 Isotropic polarizability for W=    0.000000      328.49 Bohr**3.
 End of Minotr F.D. properties file   721 does not exist.
 End of Minotr F.D. properties file   722 does not exist.
 End of Minotr F.D. properties file   788 does not exist.

 **********************************************************************

            Population analysis using the SCF density.

 **********************************************************************

 Orbital symmetries:
       Occupied  (A) (A) (A) (A) (A) (A) (A) (A) (A) (A) (A) (A)
                 (A) (A) (A) (A) (A) (A) (A) (A) (A) (A) (A) (A)
                 (A) (A) (A) (A) (A) (A) (A) (A) (A) (A) (A) (A)
                 (A) (A) (A) (A) (A) (A) (A) (A) (A) (A) (A) (A)
                 (A) (A) (A) (A) (A) (A) (A) (A) (A) (A) (A) (A)
                 (A) (A) (A) (A) (A)
       Virtual   (A) (A) (A) (A) (A) (A) (A) (A) (A) (A) (A) (A)
                 (A) (A) (A) (A) (A) (A) (A) (A) (A) (A) (A) (A)
                 (A) (A) (A) (A) (A) (A) (A) (A) (A) (A) (A) (A)
                 (A) (A) (A) (A) (A) (A) (A) (A) (A) (A) (A) (A)
                 (A) (A) (A) (A) (A) (A) (A) (A) (A) (A) (A) (A)
                 (A) (A) (A) (A) (A) (A) (A) (A) (A) (A) (A) (A)
                 (A) (A) (A) (A) (A) (A) (A) (A) (A) (A) (A) (A)
                 (A) (A) (A) (A) (A) (A) (A) (A) (A) (A) (A) (A)
                 (A) (A) (A) (A) (A) (A) (A) (A) (A) (A) (A) (A)
                 (A) (A) (A) (A) (A) (A) (A) (A) (A) (A) (A) (A)
                 (A) (A) (A) (A) (A) (A) (A) (A) (A) (A) (A) (A)
                 (A) (A) (A) (A) (A) (A) (A) (A) (A) (A) (A) (A)
                 (A) (A) (A) (A) (A) (A) (A) (A) (A) (A) (A) (A)
                 (A) (A) (A) (A) (A) (A) (A) (A) (A) (A) (A) (A)
                 (A) (A) (A) (A) (A) (A) (A) (A) (A) (A) (A) (A)
                 (A) (A) (A) (A) (A) (A) (A) (A) (A) (A) (A) (A)
                 (A) (A) (A) (A) (A) (A) (A) (A) (A) (A) (A) (A)
                 (A) (A) (A) (A) (A) (A) (A) (A) (A) (A) (A) (A)
                 (A) (A) (A) (A) (A) (A) (A) (A) (A) (A) (A) (A)
                 (A) (A) (A) (A) (A) (A) (A) (A) (A) (A) (A) (A)
                 (A) (A) (A) (A) (A) (A) (A) (A) (A) (A) (A) (A)
                 (A) (A) (A) (A) (A) (A) (A) (A) (A) (A) (A) (A)
                 (A) (A) (A) (A) (A) (A) (A) (A) (A) (A) (A) (A)
                 (A) (A) (A) (A) (A) (A) (A) (A) (A) (A) (A) (A)
                 (A) (A) (A) (A) (A) (A) (A) (A) (A) (A) (A) (A)
                 (A) (A) (A) (A) (A) (A) (A) (A) (A) (A) (A) (A)
                 (A) (A) (A) (A) (A) (A) (A) (A) (A) (A) (A) (A)
                 (A) (A) (A) (A) (A) (A) (A) (A) (A) (A) (A)
 The electronic state is 1-A.
 Alpha  occ. eigenvalues -- -101.56099 -19.13150 -10.25710 -10.25321 -10.25310
 Alpha  occ. eigenvalues --  -10.22514 -10.22178 -10.20977 -10.20841 -10.20483
 Alpha  occ. eigenvalues --  -10.20395 -10.20284 -10.20155 -10.20106 -10.19988
 Alpha  occ. eigenvalues --  -10.19229 -10.19178  -9.47570  -7.23956  -7.23024
 Alpha  occ. eigenvalues --   -7.22994  -1.00965  -0.89837  -0.85797  -0.84127
 Alpha  occ. eigenvalues --   -0.81651  -0.76406  -0.76186  -0.75270  -0.70905
 Alpha  occ. eigenvalues --   -0.70293  -0.63950  -0.63307  -0.62721  -0.57865
 Alpha  occ. eigenvalues --   -0.53854  -0.52169  -0.51826  -0.49831  -0.48853
 Alpha  occ. eigenvalues --   -0.46760  -0.46231  -0.45988  -0.44227  -0.43346
 Alpha  occ. eigenvalues --   -0.42770  -0.41753  -0.41504  -0.40914  -0.39793
 Alpha  occ. eigenvalues --   -0.39165  -0.38981  -0.37648  -0.37378  -0.36335
 Alpha  occ. eigenvalues --   -0.36143  -0.35972  -0.34887  -0.32205  -0.30764
 Alpha  occ. eigenvalues --   -0.29639  -0.26975  -0.25942  -0.24989  -0.20703
 Alpha virt. eigenvalues --   -0.09382  -0.04725  -0.02658   0.00036   0.00369
 Alpha virt. eigenvalues --    0.01268   0.01567   0.01820   0.02674   0.02709
 Alpha virt. eigenvalues --    0.03080   0.03494   0.04040   0.04814   0.05074
 Alpha virt. eigenvalues --    0.05607   0.05994   0.06343   0.06806   0.07451
 Alpha virt. eigenvalues --    0.07673   0.08038   0.08486   0.08702   0.09201
 Alpha virt. eigenvalues --    0.09913   0.10333   0.10583   0.11006   0.11347
 Alpha virt. eigenvalues --    0.11949   0.12155   0.12703   0.13352   0.14098
 Alpha virt. eigenvalues --    0.14320   0.14546   0.15028   0.15176   0.15717
 Alpha virt. eigenvalues --    0.16027   0.16431   0.17086   0.17651   0.18081
 Alpha virt. eigenvalues --    0.18193   0.18536   0.18849   0.19430   0.19816
 Alpha virt. eigenvalues --    0.19974   0.20673   0.20934   0.21324   0.21402
 Alpha virt. eigenvalues --    0.21578   0.22419   0.22463   0.22836   0.23061
 Alpha virt. eigenvalues --    0.23531   0.23844   0.24215   0.24377   0.25018
 Alpha virt. eigenvalues --    0.25312   0.25694   0.25888   0.26267   0.26703
 Alpha virt. eigenvalues --    0.27128   0.27472   0.27920   0.28138   0.28483
 Alpha virt. eigenvalues --    0.28815   0.29081   0.29454   0.30134   0.30815
 Alpha virt. eigenvalues --    0.31248   0.31373   0.32075   0.32852   0.33979
 Alpha virt. eigenvalues --    0.34421   0.35204   0.35680   0.36216   0.37498
 Alpha virt. eigenvalues --    0.37707   0.38541   0.39157   0.39793   0.40169
 Alpha virt. eigenvalues --    0.41530   0.43079   0.43918   0.45650   0.47017
 Alpha virt. eigenvalues --    0.49498   0.52028   0.52846   0.57354   0.59472
 Alpha virt. eigenvalues --    0.62100   0.63796   0.64362   0.65132   0.67026
 Alpha virt. eigenvalues --    0.67682   0.68152   0.68774   0.69152   0.69771
 Alpha virt. eigenvalues --    0.70167   0.71147   0.71981   0.72580   0.72847
 Alpha virt. eigenvalues --    0.73383   0.74208   0.74656   0.75493   0.75983
 Alpha virt. eigenvalues --    0.76551   0.77260   0.78322   0.78539   0.80377
 Alpha virt. eigenvalues --    0.80421   0.82392   0.83900   0.84090   0.85141
 Alpha virt. eigenvalues --    0.85783   0.86449   0.86643   0.87470   0.88449
 Alpha virt. eigenvalues --    0.89130   0.89479   0.91312   0.92383   0.92494
 Alpha virt. eigenvalues --    0.92953   0.94371   0.96703   0.97196   0.97462
 Alpha virt. eigenvalues --    0.98426   0.99371   0.99714   0.99995   1.01173
 Alpha virt. eigenvalues --    1.02282   1.02821   1.04565   1.05829   1.07140
 Alpha virt. eigenvalues --    1.08493   1.09890   1.10609   1.11407   1.13396
 Alpha virt. eigenvalues --    1.14464   1.14828   1.15478   1.16207   1.18439
 Alpha virt. eigenvalues --    1.19909   1.21273   1.22075   1.23699   1.25111
 Alpha virt. eigenvalues --    1.25704   1.26289   1.27107   1.29070   1.29802
 Alpha virt. eigenvalues --    1.31348   1.34298   1.35123   1.35739   1.37062
 Alpha virt. eigenvalues --    1.38091   1.38610   1.39313   1.40618   1.41807
 Alpha virt. eigenvalues --    1.42234   1.44532   1.45708   1.46293   1.47035
 Alpha virt. eigenvalues --    1.47747   1.50040   1.50891   1.52827   1.57237
 Alpha virt. eigenvalues --    1.58819   1.60446   1.66715   1.71392   1.74695
 Alpha virt. eigenvalues --    1.76730   1.77036   1.78829   1.80897   1.82524
 Alpha virt. eigenvalues --    1.83330   1.84145   1.85834   1.87689   1.88926
 Alpha virt. eigenvalues --    1.89738   1.90736   1.90976   1.92611   1.93181
 Alpha virt. eigenvalues --    1.95269   1.96825   1.97954   1.99106   2.00095
 Alpha virt. eigenvalues --    2.00202   2.01123   2.02720   2.04098   2.04188
 Alpha virt. eigenvalues --    2.04532   2.05471   2.06547   2.07676   2.10433
 Alpha virt. eigenvalues --    2.11015   2.12194   2.12768   2.14076   2.15568
 Alpha virt. eigenvalues --    2.16700   2.18139   2.19379   2.21283   2.23589
 Alpha virt. eigenvalues --    2.24425   2.26011   2.28202   2.30118   2.31428
 Alpha virt. eigenvalues --    2.33401   2.33947   2.36051   2.36900   2.37579
 Alpha virt. eigenvalues --    2.38950   2.40857   2.42219   2.44197   2.45090
 Alpha virt. eigenvalues --    2.46598   2.46958   2.48184   2.49818   2.51026
 Alpha virt. eigenvalues --    2.53358   2.54837   2.55908   2.57909   2.58356
 Alpha virt. eigenvalues --    2.58730   2.59696   2.61439   2.61838   2.63946
 Alpha virt. eigenvalues --    2.66014   2.66312   2.66842   2.67701   2.69189
 Alpha virt. eigenvalues --    2.70298   2.71098   2.73634   2.74403   2.76638
 Alpha virt. eigenvalues --    2.80603   2.81974   2.82499   2.83948   2.86210
 Alpha virt. eigenvalues --    2.86795   2.88687   2.94551   2.95146   3.02336
 Alpha virt. eigenvalues --    3.04624   3.06073   3.10302   3.15340   3.16371
 Alpha virt. eigenvalues --    3.22421   3.25144   3.26331   3.27624   3.29389
 Alpha virt. eigenvalues --    3.33321   3.34817   3.36125   3.38420   3.43985
 Alpha virt. eigenvalues --    3.45200   3.45677   3.49955   3.51236   3.52017
 Alpha virt. eigenvalues --    3.66769   3.68345   3.85451   4.26090   4.31680
 Alpha virt. eigenvalues --    4.35778   4.36175   4.38095   4.40427   4.41739
 Alpha virt. eigenvalues --    4.44869   4.48895   4.50775   4.54642   4.55869
 Alpha virt. eigenvalues --    4.60811   4.67365   4.72437   4.86792   5.02640
          Condensed to atoms (all electrons):
               1          2          3          4          5          6
     1  C    6.375056  -1.462525   1.156087  -0.367530  -0.099404   0.690155
     2  C   -1.462525  12.829762  -5.621155   0.499132   0.877977  -0.356538
     3  C    1.156087  -5.621155  16.947182   2.027537  -3.545755   0.338531
     4  C   -0.367530   0.499132   2.027537  20.015134 -10.185184   2.339652
     5  C   -0.099404   0.877977  -3.545755 -10.185184  19.856778  -3.983831
     6  C    0.690155  -0.356538   0.338531   2.339652  -3.983831   7.846906
     7  H    0.320207  -0.032683   0.028750  -0.015404   0.034220  -0.015218
     8  H    0.140730   0.206968  -0.029061   0.010700   0.002853   0.009173
     9  H    0.007481  -0.004280   0.022282  -0.001268   0.289052  -0.024871
    10  H   -0.040552   0.061710  -0.005653   0.057202  -0.122572   0.383740
    11  C    0.418004  -1.457930  -3.079982  -6.857475   3.787450  -1.203827
    12  C   -0.222337  -0.161221  -1.620211  -0.610386  -1.368535   0.483976
    13  C   -0.166204   0.685575   0.985452  -1.265180  -0.710587  -0.182893
    14  H   -0.000901   0.005026  -0.020381   0.074904  -0.002612   0.003814
    15  C   -0.257967   0.225626  -1.985380   0.470518   1.534094  -0.133860
    16  H    0.003644   0.000031   0.081060  -0.032811   0.002107  -0.000873
    17  O   -0.020729   0.079846  -0.101137  -0.322593   0.079403   0.043556
    18  Cl  -0.004334   0.012262  -0.106057  -0.006140  -0.118317   0.024184
    19  C   -0.026618   0.038339   0.034859   0.414395  -0.137064  -0.034585
    20  C    0.013707  -0.027911   0.130375  -0.066591  -0.113909  -0.043064
    21  H   -0.000029  -0.000218  -0.003170   0.006107   0.002145   0.000396
    22  C   -0.003588   0.006039   0.027404   0.171137  -0.084543  -0.001406
    23  H   -0.000004  -0.000016  -0.000111   0.001719  -0.001565  -0.000026
    24  H   -0.000119   0.000294   0.000438   0.019186  -0.006883   0.003401
    25  H    0.000034  -0.000045  -0.000422  -0.009406   0.004102  -0.000354
    26  C    0.019559  -0.021744  -0.088921  -0.402118   0.211175   0.101085
    27  H    0.006806  -0.023607   0.014133  -0.082757   0.060009  -0.015604
    28  H   -0.000417   0.001511  -0.001992  -0.014052   0.007983   0.002302
    29  H   -0.001123   0.003753  -0.003676   0.048835  -0.037204   0.019546
    30  C   -0.001435   0.011014  -0.134600  -0.257533   0.175684  -0.001927
    31  H   -0.000246   0.003665  -0.004937   0.000256   0.002253   0.000443
    32  H   -0.000705  -0.019840  -0.061567  -0.011135   0.027624   0.004634
               7          8          9         10         11         12
     1  C    0.320207   0.140730   0.007481  -0.040552   0.418004  -0.222337
     2  C   -0.032683   0.206968  -0.004280   0.061710  -1.457930  -0.161221
     3  C    0.028750  -0.029061   0.022282  -0.005653  -3.079982  -1.620211
     4  C   -0.015404   0.010700  -0.001268   0.057202  -6.857475  -0.610386
     5  C    0.034220   0.002853   0.289052  -0.122572   3.787450  -1.368535
     6  C   -0.015218   0.009173  -0.024871   0.383740  -1.203827   0.483976
     7  H    0.546868  -0.005115  -0.000160  -0.004394   0.001201  -0.004235
     8  H   -0.005115   0.550862   0.000014  -0.000158   0.006394  -0.041966
     9  H   -0.000160   0.000014   0.552032  -0.004786  -0.012579  -0.009085
    10  H   -0.004394  -0.000158  -0.004786   0.548565  -0.020538   0.003878
    11  C    0.001201   0.006394  -0.012579  -0.020538  16.153687   2.649215
    12  C   -0.004235  -0.041966  -0.009085   0.003878   2.649215  10.937561
    13  C   -0.000573  -0.003633   0.029426  -0.000193  -3.106584  -1.457597
    14  H    0.000000   0.000000  -0.000005   0.000000   0.049164   0.009206
    15  C    0.000173   0.007490   0.000585  -0.001189  -1.514456  -2.263678
    16  H    0.000000  -0.000004   0.000000   0.000000   0.014389   0.121945
    17  O    0.000005   0.000026   0.007090   0.000134   0.340470  -0.112916
    18  Cl   0.000271  -0.006112   0.000030   0.000090   0.050480  -0.221245
    19  C    0.000051  -0.000083  -0.009632   0.000022  -0.695289  -0.150090
    20  C   -0.000010   0.000037  -0.001070   0.000190   0.626417   0.087084
    21  H    0.000000   0.000000   0.000000   0.000000  -0.007935  -0.001698
    22  C   -0.000001  -0.000002   0.001716   0.000029  -0.039460   0.001414
    23  H    0.000000   0.000000   0.000001   0.000000   0.004177   0.000369
    24  H    0.000000   0.000000   0.000128   0.000000  -0.017508   0.000326
    25  H    0.000000   0.000000  -0.000002   0.000000   0.006288  -0.000096
    26  C   -0.000127   0.000076   0.009203   0.000168  -0.035163   0.000017
    27  H    0.000000   0.000000  -0.000544  -0.000004   0.087215   0.002101
    28  H    0.000000   0.000000   0.000028   0.000000  -0.009526  -0.001183
    29  H    0.000000   0.000000   0.000874  -0.000006  -0.022861   0.002603
    30  C    0.000020   0.000083  -0.000461  -0.000080   0.094068   0.069226
    31  H    0.000000   0.000000   0.000000   0.000000  -0.026540  -0.011416
    32  H    0.000000   0.000000   0.000002   0.000000   0.060439   0.006014
              13         14         15         16         17         18
     1  C   -0.166204  -0.000901  -0.257967   0.003644  -0.020729  -0.004334
     2  C    0.685575   0.005026   0.225626   0.000031   0.079846   0.012262
     3  C    0.985452  -0.020381  -1.985380   0.081060  -0.101137  -0.106057
     4  C   -1.265180   0.074904   0.470518  -0.032811  -0.322593  -0.006140
     5  C   -0.710587  -0.002612   1.534094   0.002107   0.079403  -0.118317
     6  C   -0.182893   0.003814  -0.133860  -0.000873   0.043556   0.024184
     7  H   -0.000573   0.000000   0.000173   0.000000   0.000005   0.000271
     8  H   -0.003633   0.000000   0.007490  -0.000004   0.000026  -0.006112
     9  H    0.029426  -0.000005   0.000585   0.000000   0.007090   0.000030
    10  H   -0.000193   0.000000  -0.001189   0.000000   0.000134   0.000090
    11  C   -3.106584   0.049164  -1.514456   0.014389   0.340470   0.050480
    12  C   -1.457597   0.009206  -2.263678   0.121945  -0.112916  -0.221245
    13  C   11.197380   0.246440  -0.274110  -0.060674  -0.181989   0.113941
    14  H    0.246440   0.546302  -0.070187  -0.004578   0.005318   0.000742
    15  C   -0.274110  -0.070187  10.275129   0.181621   0.135160  -0.147008
    16  H   -0.060674  -0.004578   0.181621   0.532289  -0.000840   0.003609
    17  O   -0.181989   0.005318   0.135160  -0.000840   8.567427  -0.000813
    18  Cl   0.113941   0.000742  -0.147008   0.003609  -0.000813  17.179185
    19  C    0.108858  -0.006177   0.271702  -0.003815   0.204266  -0.001122
    20  C   -0.146187  -0.021011  -0.441265   0.008100  -0.074040   0.016467
    21  H   -0.002632   0.000297   0.012889  -0.000003  -0.001893   0.000000
    22  C   -0.060230   0.002836  -0.029182   0.000030  -0.067416   0.001045
    23  H   -0.000266  -0.000006   0.000612   0.000000  -0.000415   0.000000
    24  H   -0.002919   0.000002  -0.001246   0.000000  -0.006495   0.000002
    25  H    0.000050   0.000000   0.000365   0.000000   0.002498   0.000000
    26  C    0.063014  -0.007999   0.068574   0.000221   0.023750  -0.001873
    27  H   -0.029457  -0.000011  -0.002809  -0.000001  -0.009132   0.000160
    28  H    0.006746   0.000000   0.000265   0.000000   0.005151  -0.000010
    29  H   -0.006446   0.000002  -0.001832   0.000000  -0.008409   0.000014
    30  C    0.109187   0.029916   0.167253   0.000373  -0.050081  -0.011092
    31  H    0.032611  -0.001699  -0.010467   0.000259   0.002466   0.000692
    32  H   -0.097016   0.000861   0.077059  -0.000119  -0.000709   0.000679
              19         20         21         22         23         24
     1  C   -0.026618   0.013707  -0.000029  -0.003588  -0.000004  -0.000119
     2  C    0.038339  -0.027911  -0.000218   0.006039  -0.000016   0.000294
     3  C    0.034859   0.130375  -0.003170   0.027404  -0.000111   0.000438
     4  C    0.414395  -0.066591   0.006107   0.171137   0.001719   0.019186
     5  C   -0.137064  -0.113909   0.002145  -0.084543  -0.001565  -0.006883
     6  C   -0.034585  -0.043064   0.000396  -0.001406  -0.000026   0.003401
     7  H    0.000051  -0.000010   0.000000  -0.000001   0.000000   0.000000
     8  H   -0.000083   0.000037   0.000000  -0.000002   0.000000   0.000000
     9  H   -0.009632  -0.001070   0.000000   0.001716   0.000001   0.000128
    10  H    0.000022   0.000190   0.000000   0.000029   0.000000   0.000000
    11  C   -0.695289   0.626417  -0.007935  -0.039460   0.004177  -0.017508
    12  C   -0.150090   0.087084  -0.001698   0.001414   0.000369   0.000326
    13  C    0.108858  -0.146187  -0.002632  -0.060230  -0.000266  -0.002919
    14  H   -0.006177  -0.021011   0.000297   0.002836  -0.000006   0.000002
    15  C    0.271702  -0.441265   0.012889  -0.029182   0.000612  -0.001246
    16  H   -0.003815   0.008100  -0.000003   0.000030   0.000000   0.000000
    17  O    0.204266  -0.074040  -0.001893  -0.067416  -0.000415  -0.006495
    18  Cl  -0.001122   0.016467   0.000000   0.001045   0.000000   0.000002
    19  C    7.659409  -0.998537   0.013256  -0.599372  -0.124912  -0.072413
    20  C   -0.998537   6.967043   0.301151   0.344390  -0.008633   0.017623
    21  H    0.013256   0.301151   0.562425  -0.031478   0.004175   0.000126
    22  C   -0.599372   0.344390  -0.031478   6.186467   0.493754   0.461896
    23  H   -0.124912  -0.008633   0.004175   0.493754   0.531177  -0.023888
    24  H   -0.072413   0.017623   0.000126   0.461896  -0.023888   0.512009
    25  H   -0.067820  -0.004107   0.000241   0.395727  -0.024876  -0.027486
    26  C   -0.388388  -0.152099   0.009484  -0.410297  -0.000858  -0.038008
    27  H   -0.077458  -0.005936  -0.000067   0.015305  -0.000149  -0.000038
    28  H   -0.129833  -0.001228  -0.000074  -0.030925  -0.000053   0.000130
    29  H   -0.053044   0.031617  -0.000123  -0.026000   0.000142   0.002555
    30  C    0.204171  -0.232629  -0.000779  -0.205763  -0.009187  -0.003806
    31  H    0.031000  -0.030943  -0.005210  -0.003118  -0.000009   0.000002
    32  H    0.058376  -0.140392   0.004381  -0.004439  -0.000001  -0.000005
              25         26         27         28         29         30
     1  C    0.000034   0.019559   0.006806  -0.000417  -0.001123  -0.001435
     2  C   -0.000045  -0.021744  -0.023607   0.001511   0.003753   0.011014
     3  C   -0.000422  -0.088921   0.014133  -0.001992  -0.003676  -0.134600
     4  C   -0.009406  -0.402118  -0.082757  -0.014052   0.048835  -0.257533
     5  C    0.004102   0.211175   0.060009   0.007983  -0.037204   0.175684
     6  C   -0.000354   0.101085  -0.015604   0.002302   0.019546  -0.001927
     7  H    0.000000  -0.000127   0.000000   0.000000   0.000000   0.000020
     8  H    0.000000   0.000076   0.000000   0.000000   0.000000   0.000083
     9  H   -0.000002   0.009203  -0.000544   0.000028   0.000874  -0.000461
    10  H    0.000000   0.000168  -0.000004   0.000000  -0.000006  -0.000080
    11  C    0.006288  -0.035163   0.087215  -0.009526  -0.022861   0.094068
    12  C   -0.000096   0.000017   0.002101  -0.001183   0.002603   0.069226
    13  C    0.000050   0.063014  -0.029457   0.006746  -0.006446   0.109187
    14  H    0.000000  -0.007999  -0.000011   0.000000   0.000002   0.029916
    15  C    0.000365   0.068574  -0.002809   0.000265  -0.001832   0.167253
    16  H    0.000000   0.000221  -0.000001   0.000000   0.000000   0.000373
    17  O    0.002498   0.023750  -0.009132   0.005151  -0.008409  -0.050081
    18  Cl   0.000000  -0.001873   0.000160  -0.000010   0.000014  -0.011092
    19  C   -0.067820  -0.388388  -0.077458  -0.129833  -0.053044   0.204171
    20  C   -0.004107  -0.152099  -0.005936  -0.001228   0.031617  -0.232629
    21  H    0.000241   0.009484  -0.000067  -0.000074  -0.000123  -0.000779
    22  C    0.395727  -0.410297   0.015305  -0.030925  -0.026000  -0.205763
    23  H   -0.024876  -0.000858  -0.000149  -0.000053   0.000142  -0.009187
    24  H   -0.027486  -0.038008  -0.000038   0.000130   0.002555  -0.003806
    25  H    0.525568   0.025184   0.000090   0.001047  -0.000441  -0.003664
    26  C    0.025184   6.455229   0.435528   0.517129   0.405467  -0.163762
    27  H    0.000090   0.435528   0.536336  -0.023935  -0.027395  -0.020821
    28  H    0.001047   0.517129  -0.023935   0.521818  -0.027099  -0.006973
    29  H   -0.000441   0.405467  -0.027395  -0.027099   0.526706   0.004235
    30  C   -0.003664  -0.163762  -0.020821  -0.006973   0.004235   5.844797
    31  H    0.000004   0.015821   0.000039   0.000004  -0.000003   0.347282
    32  H    0.000003   0.007235   0.000983   0.000130  -0.000110   0.420935
              31         32
     1  C   -0.000246  -0.000705
     2  C    0.003665  -0.019840
     3  C   -0.004937  -0.061567
     4  C    0.000256  -0.011135
     5  C    0.002253   0.027624
     6  C    0.000443   0.004634
     7  H    0.000000   0.000000
     8  H    0.000000   0.000000
     9  H    0.000000   0.000002
    10  H    0.000000   0.000000
    11  C   -0.026540   0.060439
    12  C   -0.011416   0.006014
    13  C    0.032611  -0.097016
    14  H   -0.001699   0.000861
    15  C   -0.010467   0.077059
    16  H    0.000259  -0.000119
    17  O    0.002466  -0.000709
    18  Cl   0.000692   0.000679
    19  C    0.031000   0.058376
    20  C   -0.030943  -0.140392
    21  H   -0.005210   0.004381
    22  C   -0.003118  -0.004439
    23  H   -0.000009  -0.000001
    24  H    0.000002  -0.000005
    25  H    0.000004   0.000003
    26  C    0.015821   0.007235
    27  H    0.000039   0.000983
    28  H    0.000004   0.000130
    29  H   -0.000003  -0.000110
    30  C    0.347282   0.420935
    31  H    0.508094  -0.028924
    32  H   -0.028924   0.521826
 Mulliken charges:
               1
     1  C   -0.474704
     2  C   -0.358817
     3  C    0.620079
     4  C    0.351148
     5  C   -0.436944
     6  C   -0.296616
     7  H    0.146153
     8  H    0.150728
     9  H    0.148801
    10  H    0.144397
    11  C   -0.241403
    12  C   -0.117039
    13  C    0.176689
    14  H    0.160736
    15  C   -0.294481
    16  H    0.154038
    17  O   -0.536961
    18  Cl   0.220270
    19  C    0.537549
    20  C   -0.034639
    21  H    0.138235
    22  C   -0.511969
    23  H    0.158850
    24  H    0.182697
    25  H    0.177518
    26  C   -0.656559
    27  H    0.161017
    28  H    0.183057
    29  H    0.169422
    30  C   -0.373652
    31  H    0.178619
    32  H    0.173780
 Sum of Mulliken charges =   0.00000
 Mulliken charges with hydrogens summed into heavy atoms:
               1
     1  C   -0.328551
     2  C   -0.208089
     3  C    0.620079
     4  C    0.351148
     5  C   -0.288143
     6  C   -0.152219
    11  C   -0.241403
    12  C   -0.117039
    13  C    0.337426
    15  C   -0.140443
    17  O   -0.536961
    18  Cl   0.220270
    19  C    0.537549
    20  C    0.103596
    22  C    0.007095
    26  C   -0.143064
    30  C   -0.021254
 APT charges:
               1
     1  C   -0.009807
     2  C   -0.135267
     3  C   -0.006641
     4  C   -0.051185
     5  C   -0.078311
     6  C   -0.036008
     7  H    0.034069
     8  H    0.070179
     9  H    0.087969
    10  H    0.036601
    11  C    0.538244
    12  C    0.450778
    13  C   -0.324424
    14  H    0.055110
    15  C    0.056832
    16  H    0.062359
    17  O   -0.879810
    18  Cl  -0.552398
    19  C    0.749329
    20  C   -0.575427
    21  H    0.040046
    22  C   -0.092370
    23  H   -0.011134
    24  H    0.025849
    25  H   -0.037717
    26  C   -0.122106
    27  H    0.032525
    28  H    0.020548
    29  H    0.043286
    30  C    0.549827
    31  H    0.052809
    32  H    0.006245
 Sum of APT charges =   0.00000
 APT charges with hydrogens summed into heavy atoms:
               1
     1  C    0.024262
     2  C   -0.065088
     3  C   -0.006641
     4  C   -0.051185
     5  C    0.009658
     6  C    0.000593
    11  C    0.538244
    12  C    0.450778
    13  C   -0.269314
    15  C    0.119190
    17  O   -0.879810
    18  Cl  -0.552398
    19  C    0.749329
    20  C   -0.535381
    22  C   -0.115372
    26  C   -0.025747
    30  C    0.608881
 Electronic spatial extent (au):  <R**2>=           4548.0291
 Charge=              0.0000 electrons
 Dipole moment (field-independent basis, Debye):
    X=              3.9555    Y=             -0.3801    Z=              3.4407  Tot=              5.2564
 Quadrupole moment (field-independent basis, Debye-Ang):
   XX=           -102.1039   YY=            -95.4580   ZZ=           -114.6887
   XY=             -5.5330   XZ=              4.5178   YZ=              3.3001
 Traceless Quadrupole moment (field-independent basis, Debye-Ang):
   XX=              1.9796   YY=              8.6255   ZZ=            -10.6051
   XY=             -5.5330   XZ=              4.5178   YZ=              3.3001
 Octapole moment (field-independent basis, Debye-Ang**2):
  XXX=             72.8395  YYY=             -3.5584  ZZZ=             10.6664  XYY=              7.5890
  XXY=             19.1204  XXZ=             18.5465  XZZ=             -0.8254  YZZ=             -6.3643
  YYZ=             -0.3154  XYZ=             -0.3592
 Hexadecapole moment (field-independent basis, Debye-Ang**3):
 XXXX=          -3703.9666 YYYY=          -1636.6815 ZZZZ=           -508.4672 XXXY=            -24.3816
 XXXZ=            -22.7285 YYYX=            -24.4646 YYYZ=             18.9616 ZZZX=              6.3872
 ZZZY=              4.4403 XXYY=           -928.4127 XXZZ=           -762.0615 YYZZ=           -403.8878
 XXYZ=             38.6655 YYXZ=            -26.9953 ZZXY=             18.8303
 N-N= 1.281005130778D+03 E-N=-5.176421358800D+03  KE= 1.108232683041D+03
  Exact polarizability: 445.063 -10.829 333.277   8.761   0.974 207.124
 Approx polarizability: 498.134  -0.325 386.100   8.008  -1.258 248.812
 D2PCM: C-PCM CHGder 2nd derivatives, FixD1E=F FixD2E=F DoIter=F DoCFld=F I1PDM=0
 Calling FoFJK, ICntrl=    100127 FMM=F ISym2X=0 I1Cent= 0 IOpClX= 0 NMat=1 NMatS=1 NMatT=0.
 Full mass-weighted force constant matrix:
 Low frequencies --- -176.4290  -13.9126   -1.9853   -0.0036   -0.0026   -0.0016
 Low frequencies ---    8.8989   42.4054   68.2533
 ******    1 imaginary frequencies (negative Signs) ****** 
 Diagonal vibrational polarizability:
      121.1290265      25.5819168      51.9721913
 Harmonic frequencies (cm**-1), IR intensities (KM/Mole), Raman scattering
 activities (A**4/AMU), depolarization ratios for plane and unpolarized
 incident light, reduced masses (AMU), force constants (mDyne/A),
 and normal coordinates:
                      1                      2                      3
                      A                      A                      A
 Frequencies --   -176.4269                42.2810                68.2402
 Red. masses --      6.3908                 3.8083                 4.7121
 Frc consts  --      0.1172                 0.0040                 0.0129
 IR Inten    --     46.4094                 0.0734                 1.4188
  Atom  AN      X      Y      Z        X      Y      Z        X      Y      Z
     1   6    -0.01   0.00   0.00     0.03   0.03  -0.06     0.14  -0.04   0.17
     2   6     0.00  -0.01   0.01     0.03   0.03  -0.01     0.11  -0.03   0.13
     3   6     0.00   0.00   0.02     0.02   0.02  -0.01     0.05  -0.03   0.00
     4   6    -0.02   0.02   0.00     0.01   0.01  -0.04     0.03  -0.03  -0.09
     5   6    -0.03   0.01  -0.02     0.01   0.01  -0.09     0.04  -0.03  -0.08
     6   6    -0.02   0.01   0.00     0.02   0.02  -0.10     0.10  -0.04   0.05
     7   1    -0.02  -0.01   0.01     0.03   0.04  -0.06     0.19  -0.05   0.28
     8   1     0.00  -0.01   0.02     0.04   0.03   0.02     0.14  -0.03   0.22
     9   1    -0.03   0.00  -0.03     0.00   0.00  -0.11     0.01  -0.03  -0.16
    10   1    -0.03   0.01   0.00     0.01   0.02  -0.13     0.11  -0.04   0.06
    11   6    -0.01   0.02  -0.06     0.01   0.00  -0.04     0.01  -0.03  -0.12
    12   6     0.02  -0.03   0.05     0.02   0.02   0.02     0.02  -0.02  -0.05
    13   6     0.09  -0.05   0.20    -0.01   0.01  -0.06    -0.01  -0.02  -0.13
    14   1    -0.01  -0.01   0.00    -0.03   0.01  -0.10     0.00  -0.03  -0.09
    15   6     0.04  -0.03   0.14     0.00   0.01  -0.02    -0.01  -0.02  -0.12
    16   1     0.04  -0.03   0.16    -0.01   0.02  -0.01    -0.02  -0.01  -0.14
    17   8    -0.14   0.04  -0.26     0.02   0.00  -0.01     0.02  -0.04  -0.08
    18  17     0.00   0.00   0.00     0.05   0.02   0.12     0.05  -0.02   0.04
    19   6     0.17  -0.07   0.19    -0.07  -0.01   0.04    -0.11   0.06   0.03
    20   6    -0.02   0.04  -0.07     0.02  -0.04  -0.08    -0.13   0.07   0.11
    21   1    -0.07   0.03  -0.11     0.08   0.04  -0.14    -0.10   0.02   0.21
    22   6     0.15  -0.04   0.17    -0.06   0.15   0.13    -0.06  -0.02   0.09
    23   1     0.26  -0.10   0.31     0.02   0.23   0.06    -0.06  -0.05   0.15
    24   1     0.02  -0.20  -0.01    -0.09   0.20   0.20     0.02  -0.03   0.05
    25   1     0.12   0.22   0.09    -0.11   0.13   0.19    -0.09  -0.02   0.13
    26   6     0.05  -0.01   0.04    -0.19  -0.12   0.11    -0.13   0.13  -0.07
    27   1     0.05  -0.03  -0.01    -0.20  -0.20   0.01    -0.12   0.13  -0.04
    28   1    -0.01   0.14   0.08    -0.27  -0.21   0.16    -0.11   0.23  -0.08
    29   1     0.03  -0.05  -0.05    -0.20  -0.06   0.24    -0.15   0.09  -0.16
    30   6    -0.21   0.09  -0.31     0.05  -0.17  -0.12    -0.17   0.12   0.04
    31   1    -0.21   0.09  -0.30     0.11  -0.18  -0.23    -0.19   0.13   0.09
    32   1    -0.11   0.04  -0.13     0.01  -0.26  -0.06    -0.23   0.17  -0.08
                      4                      5                      6
                      A                      A                      A
 Frequencies --     74.8604               128.5016               146.9449
 Red. masses --      5.6527                 4.4163                 1.7484
 Frc consts  --      0.0187                 0.0430                 0.0222
 IR Inten    --      2.4535                 1.1247                11.8493
  Atom  AN      X      Y      Z        X      Y      Z        X      Y      Z
     1   6     0.12  -0.01   0.09    -0.01   0.00   0.09    -0.02   0.00   0.03
     2   6     0.06   0.01   0.08     0.07  -0.02   0.25    -0.01   0.00   0.03
     3   6     0.01  -0.03   0.04     0.05   0.00   0.14    -0.03   0.00  -0.01
     4   6     0.01  -0.08   0.01    -0.01   0.04   0.00    -0.03   0.00  -0.03
     5   6     0.06  -0.09   0.00    -0.11   0.07  -0.21    -0.04   0.01  -0.03
     6   6     0.12  -0.06   0.04    -0.12   0.05  -0.20    -0.03   0.00  -0.01
     7   1     0.17   0.01   0.14     0.01  -0.02   0.17    -0.01  -0.01   0.06
     8   1     0.06   0.04   0.11     0.14  -0.06   0.44     0.00  -0.01   0.05
     9   1     0.06  -0.13  -0.04    -0.17   0.10  -0.38    -0.04   0.01  -0.04
    10   1     0.17  -0.07   0.05    -0.21   0.07  -0.39    -0.03   0.00  -0.01
    11   6    -0.02  -0.11   0.01     0.02   0.04   0.04    -0.02   0.00  -0.02
    12   6    -0.04  -0.02   0.03     0.05   0.01   0.09    -0.03   0.01  -0.03
    13   6    -0.03  -0.11   0.12     0.04   0.04   0.06    -0.05   0.01  -0.08
    14   1    -0.06  -0.14   0.13     0.04   0.05   0.04    -0.03   0.01  -0.04
    15   6    -0.05  -0.06   0.11     0.04   0.02   0.05    -0.04   0.01  -0.07
    16   1    -0.08  -0.05   0.13     0.04   0.03  -0.02    -0.05   0.02  -0.09
    17   8    -0.05  -0.13  -0.08     0.02   0.04   0.05    -0.01   0.00   0.00
    18  17    -0.13   0.07  -0.14    -0.01   0.00  -0.11    -0.02   0.01   0.02
    19   6     0.01   0.11  -0.01    -0.01  -0.05  -0.02     0.07  -0.02   0.02
    20   6     0.11   0.08  -0.04     0.01  -0.06   0.01     0.07  -0.02   0.03
    21   1     0.15   0.14  -0.07     0.01  -0.06   0.02     0.09  -0.03   0.07
    22   6    -0.03   0.24  -0.02     0.00  -0.07  -0.01     0.09  -0.01   0.07
    23   1     0.08   0.27   0.01    -0.05  -0.05  -0.06     0.38  -0.15   0.44
    24   1    -0.16   0.19  -0.06     0.05  -0.01   0.06    -0.05  -0.31  -0.30
    25   1    -0.07   0.39  -0.04     0.02  -0.17   0.01    -0.08   0.49   0.04
    26   6    -0.08   0.05   0.00    -0.03  -0.04  -0.04     0.02   0.00  -0.04
    27   1    -0.07  -0.04  -0.01    -0.03  -0.07  -0.03    -0.02   0.06  -0.19
    28   1    -0.09   0.08   0.01    -0.03   0.00  -0.04    -0.11  -0.05   0.04
    29   1    -0.15   0.07   0.02    -0.07  -0.06  -0.07     0.15   0.00  -0.01
    30   6     0.15  -0.02   0.00     0.01  -0.06   0.02     0.09  -0.02   0.05
    31   1     0.24  -0.05   0.00     0.02  -0.06   0.02     0.07  -0.02   0.05
    32   1     0.14  -0.09   0.06     0.02  -0.06   0.03     0.07   0.00   0.01
                      7                      8                      9
                      A                      A                      A
 Frequencies --    157.3446               169.8664               182.4446
 Red. masses --      1.7797                 1.7218                 1.7894
 Frc consts  --      0.0260                 0.0293                 0.0351
 IR Inten    --     23.8798                 1.5354                 6.0634
  Atom  AN      X      Y      Z        X      Y      Z        X      Y      Z
     1   6     0.01   0.01  -0.02    -0.02   0.00  -0.01     0.01   0.00  -0.04
     2   6     0.01   0.01  -0.02    -0.02   0.00  -0.03     0.02  -0.01   0.04
     3   6     0.03   0.01   0.01     0.00   0.01   0.00     0.01  -0.02   0.04
     4   6     0.03   0.01   0.03     0.01   0.01   0.03     0.01  -0.03   0.04
     5   6     0.03   0.01   0.03     0.00   0.01   0.05     0.01  -0.03  -0.01
     6   6     0.02   0.01   0.02    -0.01   0.01   0.04     0.00  -0.01  -0.07
     7   1     0.00   0.01  -0.04    -0.04   0.00  -0.03     0.00   0.01  -0.07
     8   1     0.00   0.01  -0.04    -0.03   0.00  -0.07     0.02   0.00   0.06
     9   1     0.03   0.02   0.05     0.00   0.02   0.06     0.01  -0.04  -0.04
    10   1     0.02   0.01   0.03    -0.01   0.01   0.06    -0.02  -0.01  -0.15
    11   6     0.02   0.01   0.03     0.01   0.01   0.02     0.00  -0.02   0.02
    12   6     0.04   0.00   0.02     0.01   0.01   0.01    -0.01  -0.01   0.00
    13   6     0.05   0.01   0.06     0.01   0.01   0.01    -0.03  -0.01  -0.06
    14   1     0.04   0.02   0.03     0.00   0.01  -0.01    -0.04   0.00  -0.09
    15   6     0.05   0.00   0.05     0.01   0.01   0.02    -0.04   0.00  -0.09
    16   1     0.06   0.00   0.06     0.01   0.00   0.02    -0.07   0.01  -0.15
    17   8     0.02   0.01   0.03     0.01   0.00   0.02     0.01  -0.01   0.06
    18  17     0.04  -0.01  -0.02     0.00   0.01   0.00    -0.02   0.00   0.01
    19   6    -0.07  -0.03  -0.02    -0.02  -0.01  -0.03     0.02   0.02   0.05
    20   6    -0.05  -0.03   0.01     0.03  -0.03   0.01    -0.01   0.02   0.00
    21   1    -0.05  -0.03   0.02     0.09  -0.02   0.06    -0.01   0.04  -0.03
    22   6    -0.11   0.01  -0.09     0.05  -0.03   0.07    -0.03   0.04  -0.02
    23   1     0.12  -0.12   0.25     0.09  -0.03   0.10     0.02   0.01   0.05
    24   1    -0.36  -0.31  -0.45     0.13  -0.02   0.07    -0.14  -0.06  -0.12
    25   1    -0.21   0.54  -0.20    -0.01  -0.06   0.15    -0.02   0.20  -0.10
    26   6    -0.06  -0.02  -0.02    -0.10   0.04  -0.16     0.11   0.02   0.10
    27   1    -0.07  -0.01  -0.04     0.00  -0.18   0.16     0.22  -0.14   0.53
    28   1    -0.08  -0.04  -0.01     0.17   0.44  -0.31     0.50   0.27  -0.11
    29   1    -0.04  -0.02  -0.02    -0.47  -0.05  -0.46    -0.24  -0.02  -0.09
    30   6    -0.07  -0.01  -0.02     0.03  -0.07  -0.04    -0.03   0.01  -0.06
    31   1    -0.07  -0.01  -0.01     0.07  -0.09  -0.05    -0.03   0.00  -0.11
    32   1    -0.06  -0.01  -0.01    -0.01  -0.11  -0.04    -0.05  -0.02  -0.05
                     10                     11                     12
                      A                      A                      A
 Frequencies --    202.4091               225.5365               249.0493
 Red. masses --      3.1311                 9.1557                 6.0714
 Frc consts  --      0.0756                 0.2744                 0.2219
 IR Inten    --     12.6822                 6.9108                23.7729
  Atom  AN      X      Y      Z        X      Y      Z        X      Y      Z
     1   6    -0.03   0.00  -0.13     0.17   0.23  -0.06     0.08  -0.02   0.12
     2   6     0.02  -0.02   0.05     0.02   0.25   0.03    -0.01   0.01  -0.05
     3   6     0.06  -0.04   0.16    -0.09   0.11   0.08    -0.07   0.00  -0.15
     4   6     0.07  -0.05   0.18    -0.05   0.03   0.05    -0.06  -0.02  -0.11
     5   6     0.05  -0.04   0.12     0.10  -0.01  -0.01    -0.03  -0.03  -0.15
     6   6    -0.01  -0.02  -0.08     0.21   0.11  -0.07     0.05  -0.03   0.01
     7   1    -0.09   0.02  -0.30     0.24   0.32  -0.10     0.16  -0.02   0.30
     8   1     0.01  -0.01   0.03    -0.01   0.36   0.04    -0.01   0.03  -0.01
     9   1     0.07  -0.05   0.15     0.13  -0.15  -0.04    -0.04  -0.05  -0.19
    10   1    -0.05  -0.01  -0.20     0.31   0.09  -0.13     0.09  -0.04   0.08
    11   6     0.02  -0.03   0.07    -0.07   0.03   0.03     0.03  -0.02   0.12
    12   6     0.02  -0.02   0.08    -0.10   0.08   0.06    -0.06  -0.01  -0.08
    13   6    -0.03  -0.01  -0.06    -0.09   0.05   0.00     0.04  -0.02   0.13
    14   1    -0.06   0.00  -0.14    -0.11   0.03   0.01     0.02  -0.04   0.14
    15   6    -0.03  -0.01  -0.07    -0.08   0.10   0.03    -0.01  -0.02   0.05
    16   1    -0.08   0.01  -0.20    -0.09   0.11   0.02     0.03  -0.03   0.12
    17   8     0.02  -0.02   0.04    -0.08   0.03  -0.01     0.11  -0.01   0.35
    18  17    -0.02   0.02  -0.01    -0.01  -0.36  -0.05    -0.04  -0.02   0.04
    19   6    -0.02   0.04  -0.07     0.00   0.00  -0.01    -0.04   0.05  -0.12
    20   6    -0.03   0.04  -0.07     0.00   0.00  -0.03    -0.05   0.05  -0.16
    21   1    -0.02   0.03  -0.04    -0.01   0.01  -0.04    -0.07   0.08  -0.22
    22   6     0.06   0.01   0.05     0.04  -0.01   0.05     0.09   0.01   0.06
    23   1     0.10   0.00   0.09     0.07  -0.02   0.07     0.18  -0.02   0.16
    24   1     0.17   0.02   0.05     0.08  -0.01   0.04     0.21  -0.02  -0.01
    25   1    -0.02  -0.03   0.15     0.00  -0.01   0.09    -0.04   0.04   0.18
    26   6    -0.04   0.05  -0.09    -0.01   0.01  -0.03     0.06   0.06  -0.04
    27   1    -0.12   0.22  -0.40     0.00  -0.01   0.01     0.03   0.19  -0.13
    28   1    -0.32  -0.19   0.07     0.02   0.06  -0.05     0.00  -0.10  -0.01
    29   1     0.28   0.08   0.09    -0.05   0.00  -0.07     0.22   0.08   0.04
    30   6    -0.05   0.06  -0.09     0.03  -0.01   0.03    -0.08   0.04  -0.22
    31   1    -0.06   0.07  -0.07     0.03  -0.01   0.02    -0.05   0.03  -0.22
    32   1    -0.05   0.08  -0.11     0.04  -0.02   0.05    -0.03   0.00  -0.11
                     13                     14                     15
                      A                      A                      A
 Frequencies --    301.6316               324.8979               334.2820
 Red. masses --      2.5984                 2.8310                 7.6863
 Frc consts  --      0.1393                 0.1761                 0.5060
 IR Inten    --     20.2559                 7.1688                34.1491
  Atom  AN      X      Y      Z        X      Y      Z        X      Y      Z
     1   6     0.02   0.02   0.01     0.01  -0.01  -0.02     0.14  -0.06  -0.07
     2   6     0.00   0.02   0.00     0.00   0.00  -0.02     0.02  -0.04  -0.03
     3   6    -0.02   0.01  -0.01     0.00  -0.01   0.02    -0.05  -0.12   0.03
     4   6    -0.01   0.00   0.02    -0.02  -0.01  -0.03    -0.09  -0.10   0.00
     5   6     0.00  -0.01   0.00     0.00  -0.01  -0.01     0.05  -0.16  -0.05
     6   6     0.01   0.01  -0.01     0.02  -0.01   0.02     0.16  -0.11  -0.04
     7   1     0.03   0.02   0.02     0.01   0.00  -0.03     0.17  -0.01  -0.10
     8   1    -0.01   0.03   0.00    -0.01   0.01  -0.02    -0.02   0.08  -0.03
     9   1     0.00  -0.03  -0.01     0.01  -0.03  -0.01     0.07  -0.30  -0.09
    10   1     0.02   0.00  -0.02     0.04  -0.02   0.05     0.22  -0.12  -0.03
    11   6     0.01   0.00   0.04    -0.03   0.01  -0.05    -0.01   0.09  -0.04
    12   6    -0.03   0.00  -0.06     0.04  -0.02   0.09     0.01  -0.13   0.08
    13   6     0.02  -0.02   0.03    -0.01   0.01  -0.07     0.09   0.06  -0.10
    14   1    -0.01   0.01  -0.05    -0.02   0.01  -0.09     0.11   0.07  -0.08
    15   6    -0.03   0.01  -0.07     0.04  -0.02   0.08     0.11  -0.04   0.03
    16   1    -0.05   0.02  -0.13     0.06  -0.02   0.13     0.22  -0.07   0.04
    17   8    -0.01   0.02   0.06    -0.02   0.05  -0.02    -0.09   0.46   0.06
    18  17    -0.01  -0.01   0.02     0.00   0.01  -0.02    -0.13   0.05   0.03
    19   6     0.09  -0.02   0.13    -0.08   0.09   0.04     0.02  -0.04  -0.03
    20   6     0.13  -0.02   0.18    -0.05   0.06   0.00     0.04  -0.04   0.03
    21   1     0.25  -0.02   0.33     0.03   0.18  -0.06     0.04  -0.11   0.12
    22   6    -0.04  -0.01  -0.11    -0.04  -0.12   0.02     0.02  -0.02  -0.01
    23   1    -0.25   0.03  -0.29    -0.13  -0.24   0.14     0.04  -0.01   0.00
    24   1    -0.18   0.05   0.01     0.07  -0.19  -0.10     0.01  -0.02  -0.01
    25   1     0.17  -0.11  -0.29    -0.03  -0.11   0.00     0.00   0.00   0.01
    26   6    -0.04   0.06  -0.05     0.07   0.18   0.04    -0.07  -0.10  -0.02
    27   1    -0.10   0.09  -0.30     0.04   0.35  -0.02    -0.05  -0.21   0.01
    28   1    -0.29   0.11   0.09     0.03   0.05   0.07    -0.04  -0.03  -0.04
    29   1     0.09   0.03  -0.08     0.29   0.17   0.07    -0.21  -0.09  -0.03
    30   6    -0.02  -0.05  -0.14     0.05  -0.21  -0.03     0.02   0.09   0.06
    31   1     0.03  -0.07  -0.19     0.24  -0.27  -0.22    -0.08   0.11   0.16
    32   1    -0.14  -0.10  -0.22    -0.09  -0.40   0.05     0.03   0.20  -0.06
                     16                     17                     18
                      A                      A                      A
 Frequencies --    350.1823               377.2868               414.2654
 Red. masses --      4.5864                 8.6206                 2.3660
 Frc consts  --      0.3314                 0.7230                 0.2392
 IR Inten    --      4.7968                 1.2303                 1.6589
  Atom  AN      X      Y      Z        X      Y      Z        X      Y      Z
     1   6    -0.04   0.00   0.00     0.01  -0.07  -0.03    -0.01   0.00   0.01
     2   6    -0.01   0.00  -0.06     0.15  -0.10   0.01    -0.02   0.01  -0.03
     3   6     0.04   0.01   0.02     0.12  -0.05  -0.07     0.01   0.00   0.03
     4   6     0.03   0.03  -0.10     0.17   0.08  -0.01     0.01   0.00   0.01
     5   6    -0.02   0.05  -0.03     0.07   0.12   0.07    -0.02   0.00  -0.04
     6   6    -0.02   0.02   0.09    -0.04   0.06  -0.04     0.00  -0.01   0.03
     7   1    -0.07  -0.02  -0.01    -0.07  -0.15  -0.02     0.00   0.01   0.01
     8   1    -0.01  -0.04  -0.10     0.18  -0.17   0.06    -0.04   0.01  -0.09
     9   1    -0.04   0.11  -0.04     0.08   0.20   0.14    -0.04   0.01  -0.09
    10   1    -0.01   0.01   0.19    -0.16   0.09  -0.07     0.01  -0.01   0.05
    11   6     0.04   0.02  -0.13     0.20   0.11  -0.02     0.01  -0.01   0.01
    12   6     0.04  -0.01   0.25    -0.12  -0.03  -0.13     0.01   0.00   0.05
    13   6    -0.09   0.06  -0.21     0.10   0.13   0.15    -0.02  -0.01  -0.02
    14   1    -0.14   0.01  -0.21     0.08   0.09   0.17    -0.03  -0.01  -0.03
    15   6     0.03   0.02   0.17     0.01   0.06  -0.07    -0.02   0.00  -0.01
    16   1     0.09   0.00   0.27     0.14   0.03  -0.16    -0.04   0.01  -0.04
    17   8     0.15  -0.10   0.03     0.21   0.00  -0.15     0.02  -0.03   0.03
    18  17    -0.10  -0.04  -0.02    -0.28  -0.10   0.11     0.01   0.00  -0.01
    19   6     0.02  -0.02  -0.02    -0.02   0.03   0.04     0.05   0.10   0.04
    20   6     0.07  -0.05   0.11    -0.04   0.04  -0.04     0.02   0.12  -0.05
    21   1     0.20  -0.12   0.35    -0.11   0.10  -0.21    -0.01   0.14  -0.12
    22   6     0.01   0.05   0.00    -0.03  -0.05  -0.03     0.06  -0.15  -0.07
    23   1     0.06   0.10  -0.04    -0.10  -0.12   0.02    -0.16  -0.35   0.07
    24   1    -0.03   0.08   0.04    -0.03  -0.11  -0.10     0.17  -0.27  -0.25
    25   1    -0.01   0.06   0.02     0.02  -0.03  -0.09     0.18  -0.16  -0.20
    26   6     0.03  -0.05   0.01    -0.04   0.04   0.02    -0.16  -0.04   0.10
    27   1     0.04  -0.05   0.05    -0.04   0.02   0.00    -0.13  -0.33   0.06
    28   1     0.07  -0.11  -0.01    -0.06   0.07   0.03    -0.19   0.04   0.12
    29   1     0.02  -0.02   0.06    -0.04   0.03   0.00    -0.41   0.03   0.16
    30   6    -0.04   0.08  -0.11     0.02  -0.06   0.04     0.06   0.09  -0.02
    31   1    -0.12   0.10  -0.03     0.08  -0.08  -0.08     0.08   0.08  -0.06
    32   1    -0.17   0.20  -0.41     0.08  -0.19   0.26     0.07   0.04   0.04
                     19                     20                     21
                      A                      A                      A
 Frequencies --    427.8284               448.5292               479.7674
 Red. masses --      2.7261                 2.3347                 4.0698
 Frc consts  --      0.2940                 0.2767                 0.5519
 IR Inten    --      8.3178                 2.6469                 0.3259
  Atom  AN      X      Y      Z        X      Y      Z        X      Y      Z
     1   6    -0.02   0.02  -0.04    -0.01   0.00  -0.04     0.10  -0.06   0.16
     2   6     0.04   0.00   0.16     0.03  -0.01   0.07     0.02  -0.04  -0.14
     3   6    -0.06   0.02  -0.11    -0.01   0.00  -0.05     0.02  -0.03  -0.11
     4   6    -0.03  -0.01  -0.05    -0.02   0.00  -0.08     0.10   0.04   0.25
     5   6     0.05  -0.03   0.17     0.03  -0.01   0.08     0.04   0.08   0.01
     6   6    -0.04   0.00  -0.10    -0.01   0.00  -0.03    -0.03   0.07  -0.13
     7   1    -0.01   0.03  -0.02    -0.02   0.00  -0.05     0.13  -0.13   0.37
     8   1     0.12  -0.02   0.41     0.08  -0.03   0.22    -0.01  -0.02  -0.23
     9   1     0.13  -0.06   0.38     0.08  -0.02   0.21    -0.02   0.09  -0.16
    10   1    -0.05   0.01  -0.18     0.00   0.00  -0.01    -0.19   0.11  -0.36
    11   6    -0.03  -0.01  -0.06    -0.01   0.00  -0.05    -0.04   0.02   0.10
    12   6    -0.05   0.02  -0.12     0.00   0.00   0.01    -0.02  -0.03  -0.10
    13   6     0.00  -0.01  -0.01    -0.05   0.01  -0.09    -0.12   0.04  -0.15
    14   1     0.01  -0.04   0.05    -0.04  -0.02  -0.05    -0.10   0.11  -0.24
    15   6     0.03  -0.01   0.10     0.01  -0.01   0.07     0.02  -0.10   0.14
    16   1     0.09  -0.03   0.32     0.05  -0.03   0.20     0.14  -0.14   0.40
    17   8     0.00   0.00   0.00     0.03  -0.01   0.09    -0.07   0.00  -0.01
    18  17     0.01   0.00   0.00     0.01   0.00  -0.01     0.00   0.00   0.00
    19   6    -0.05   0.05  -0.08     0.11  -0.06   0.16     0.01   0.00   0.02
    20   6     0.05   0.03   0.06    -0.06  -0.02  -0.11    -0.01   0.00   0.00
    21   1     0.18   0.00   0.25    -0.25   0.03  -0.40    -0.01   0.00   0.00
    22   6     0.02  -0.05  -0.01    -0.01   0.02  -0.01     0.00   0.00   0.00
    23   1     0.02  -0.12   0.10    -0.09   0.08  -0.14    -0.02   0.00  -0.01
    24   1     0.17  -0.08  -0.09    -0.22   0.04   0.06    -0.02   0.00   0.01
    25   1    -0.03  -0.06   0.06     0.13   0.04  -0.17     0.02   0.00  -0.02
    26   6    -0.02  -0.03   0.04    -0.02   0.03  -0.04    -0.01   0.00   0.00
    27   1     0.00  -0.09   0.14    -0.05   0.02  -0.21    -0.01   0.00  -0.02
    28   1     0.07  -0.16  -0.01    -0.19   0.31   0.04    -0.03   0.02   0.01
    29   1    -0.09   0.04   0.17    -0.02  -0.07  -0.25     0.00   0.00  -0.02
    30   6     0.01   0.02  -0.06     0.00   0.01   0.05     0.00   0.01   0.00
    31   1     0.07   0.01   0.02    -0.13   0.05  -0.10    -0.04   0.03  -0.04
    32   1    -0.11   0.05  -0.24     0.17   0.00   0.26    -0.01   0.04  -0.04
                     22                     23                     24
[...]
 15805,-0.00028633,-0.00096563,0.00121707,-0.00094340,0.00055500,-0.000
 31472,-0.00044907,-0.00000359,-0.00001400,0.00000678,0.00001340,-0.000
 00022,0.00000059,-0.00005061,-0.00002903,0.00011744,0.00002198,-0.0000
 1940,0.00000660,0.00157666,0.00048821,-0.00036427,-0.00013953,0.000561
 76,0.00000315,-0.00033776,-0.00069498,0.00029082,-0.00002538,0.0000248
 1,-0.00005891,0.00053322,-0.00019400,-0.00020553,0.00001740,0.00001638
 ,-0.00001414,-0.00118333,-0.00034081,-0.00061671,0.00016463,0.00004035
 ,-0.00004397,-0.00946980,-0.00144504,0.00217013,0.00012809,-0.00030909
 ,0.00050956,-0.00000732,0.00007034,-0.00005969,0.00033200,0.00251535,0
 .00048781,-0.00042529,-0.00030371,0.00028607,0.00008172,-0.00003084,-0
 .00010197,0.00028275,-0.00009303,-0.00028420,-0.30747995,-0.03314683,0
 .05310758,0.33321312,-0.00017957,-0.00016049,0.00004984,-0.00009841,0.
 00018207,0.00009496,-0.00004897,-0.00026118,-0.00006037,0.00017699,0.0
 0000630,0.00000472,0.00005748,0.00012435,0.00006473,0.00025914,-0.0001
 9277,-0.00018916,-0.00001558,0.00000107,0.00001232,-0.00000589,0.00000
 059,-0.00000458,-0.00012352,-0.00009257,0.00013161,-0.00001134,0.00002
 092,-0.00001588,-0.00064280,-0.00000345,-0.00001454,-0.00004882,0.0003
 4117,0.00006622,-0.00054034,0.00013101,-0.00034565,0.00003540,-0.00002
 047,0.00007593,0.00027840,-0.00008640,-0.00012145,0.00000179,-0.000003
 55,-0.00000494,0.00072115,-0.00009905,0.00033195,-0.00001534,-0.000029
 34,0.00001439,0.02519374,0.00816072,-0.00236345,-0.00172649,-0.0009930
 4,0.00078196,-0.00014432,0.00030316,-0.00025367,0.00024356,-0.00296613
 ,-0.00265812,0.00082516,0.00031733,-0.00086842,0.00015178,0.00002931,-
 0.00029950,-0.00030362,-0.00016474,0.00028094,-0.03374188,-0.05485974,
 0.00643949,0.03701671,0.05747255,-0.00002977,-0.00007889,-0.00004196,0
 .00004650,0.00003571,-0.00008163,-0.00027288,-0.00021319,0.00021142,-0
 .00055361,-0.00019067,-0.00033921,-0.00027775,0.00060245,-0.00017788,0
 .00006677,0.00002422,0.00007389,0.00003635,-0.00002378,-0.00001037,0.0
 0003593,-0.00000608,-0.00000122,0.00003478,0.00034682,-0.00019083,0.00
 001492,-0.00005460,-0.00000918,-0.00059472,-0.00086281,-0.00105632,-0.
 00020929,0.00014115,0.00007864,-0.00014940,0.00006152,0.00001161,0.000
 00531,0.00004721,0.00000544,0.00014674,-0.00001594,-0.00000783,0.00001
 944,0.00002865,-0.00000130,0.00045167,0.00033910,0.00076292,0.00021430
 ,0.00008584,-0.00006936,0.01989555,0.00303917,-0.00727771,-0.00040177,
 0.00065216,0.00006127,-0.00003018,0.00010211,-0.00018787,0.00069854,-0
 .00415958,-0.00145924,0.00114174,0.00000510,-0.00046536,-0.00032732,-0
 .00001673,0.00031913,-0.00000420,0.00022733,0.00029122,0.04986639,0.00
 702432,-0.05225261,-0.05593634,-0.00474223,0.05721533,-0.00014740,-0.0
 0013134,0.00008485,-0.00009156,0.00016930,0.00011830,0.00021276,0.0000
 8138,-0.00013562,-0.00013197,0.00024555,0.00014807,-0.00026329,0.00020
 959,-0.00029428,0.00020285,-0.00019136,-0.00023517,-0.00001580,-0.0000
 0134,0.00000685,-0.00000683,0.00000504,0.00000208,-0.00005924,-0.00009
 426,0.00014563,0.00000361,0.00001270,0.00000653,0.00089542,0.00076463,
 0.00045140,0.00006170,0.00011197,-0.00006420,0.00018183,-0.00041421,0.
 00031143,-0.00002381,0.00000545,-0.00006745,0.00004520,-0.00016886,-0.
 00003974,0.00000859,0.00000938,-0.00000446,-0.00016533,-0.00016951,0.0
 0011360,0.00010673,0.00001754,-0.00004189,0.00539735,-0.00166854,0.009
 99754,0.00074233,0.00090548,-0.00009433,-0.00029203,-0.00000879,-0.000
 47794,-0.00096657,-0.00040434,-0.00061968,-0.00001811,0.00002614,-0.00
 035541,0.00016838,0.00036028,-0.00000319,-0.00025073,0.00025963,0.0003
 0606,-0.10475142,0.00086557,-0.10768690,-0.01377537,0.00011853,-0.0275
 9450,0.11159252,-0.00017621,-0.00012379,0.00000480,0.00000844,0.000248
 74,0.00002963,-0.00021519,-0.00058989,-0.00001457,0.00031694,-0.000379
 69,0.00010634,-0.00016317,0.00008864,0.00023488,0.00026339,0.00007745,
 -0.00004192,-0.00000115,0.00001460,-0.00000766,-0.00000982,0.00000057,
 0.00001134,0.00010599,0.00013266,-0.00020964,0.00000973,0.00001164,0.0
 0002168,-0.00005235,-0.00041299,0.00029405,-0.00002063,0.00057303,0.00
 008139,-0.00079131,0.00039171,-0.00036145,0.00005734,-0.00003328,0.000
 12287,0.00050320,0.00009276,-0.00019948,-0.00002318,-0.00003219,-0.000
 00397,0.00055271,0.00024176,-0.00103131,-0.00027009,-0.00009004,0.0000
 8808,-0.01193712,-0.00228063,-0.02132310,0.00025910,-0.00193328,0.0003
 8292,0.00058136,-0.00018890,0.00097999,-0.00020136,-0.00006593,0.00053
 249,0.00005436,-0.00007193,0.00030518,-0.00015390,0.00013195,0.0001293
 4,0.00012774,0.00007163,-0.00006058,-0.00108193,-0.04270592,-0.0032374
 7,-0.00225321,-0.00079105,-0.00366117,-0.00103769,0.04554295,-0.000010
 35,-0.00003494,0.00001634,-0.00003190,0.00007862,0.00000504,-0.0000555
 2,-0.00018923,0.00002046,0.00002753,-0.00003689,0.00006444,-0.00006635
 ,0.00013117,-0.00005771,0.00005251,0.00000812,-0.00004251,-0.00001676,
 0.00001376,0.00001095,-0.00001416,-0.00000270,-0.00000346,0.00001108,-
 0.00008450,0.00010047,-0.00000146,0.00002113,0.00000192,0.00071133,-0.
 00012971,-0.00029556,0.00013659,0.00001632,-0.00006486,-0.00003079,0.0
 0004418,0.00016291,0.00000829,-0.00001934,-0.00002124,-0.00002773,0.00
 015581,0.00010094,-0.00003155,-0.00003366,0.00000295,-0.00028479,-0.00
 059704,-0.00076105,-0.00027857,-0.00008130,0.00009792,-0.00781352,-0.0
 0338690,-0.01774072,0.00208392,0.00120979,0.00001950,0.00028341,-0.000
 20636,0.00044896,-0.00011343,-0.00052327,0.00039922,0.00039159,-0.0001
 4715,0.00037159,-0.00022189,-0.00012904,0.00028625,0.00043671,0.000131
 19,-0.00000445,-0.11170812,0.00080229,-0.23950578,0.00309804,0.0002426
 2,0.00647565,0.12101801,0.00309391,0.26167411,0.00015532,0.00010874,-0
 .00007203,0.00011667,-0.00018667,-0.00009241,0.00007841,0.00038971,0.0
 0001235,-0.00011639,0.00008192,-0.00006123,-0.00021945,-0.00038734,0.0
 0027723,-0.00009660,0.00016876,0.00016139,0.00003381,-0.00000290,-0.00
 001912,0.00001327,0.00000005,-0.00000108,-0.00031634,0.00032035,-0.000
 70425,0.00000398,-0.00002575,0.00000777,0.00021348,-0.00008190,-0.0000
 9773,0.00002263,-0.00044793,-0.00007326,0.00057874,-0.00009210,0.00035
 150,-0.00001939,0.00001856,-0.00008473,-0.00039749,0.00006185,0.000182
 98,0.00000997,0.00001564,0.00001056,-0.00039119,0.00027245,0.00021332,
 0.00010977,0.00005992,-0.00003431,0.00141973,0.00839797,-0.00781747,0.
 00094570,0.00237905,0.00182670,0.00048116,0.00036885,0.00036343,-0.000
 23798,0.00076064,0.00003078,0.00005295,-0.00018049,-0.00018033,-0.0001
 7722,0.00042174,0.00047122,-0.00004098,0.00005422,-0.00009974,-0.05438
 805,-0.03304257,0.02005754,-0.00211060,-0.02749491,0.01377327,0.001845
 43,0.01444744,-0.00661124,0.05351277,-0.00012805,-0.00004452,-0.000030
 42,0.00006050,0.00011680,-0.00001166,-0.00006545,-0.00034404,0.0000067
 7,0.00025147,-0.00037168,-0.00018177,0.00004011,-0.00018834,0.00044380
 ,0.00019034,0.00010458,0.00004647,0.00001193,0.00000512,-0.00001038,-0
 .00000013,0.00000162,0.00001684,0.00033096,0.00029766,-0.00010258,0.00
 000279,0.00000276,0.00001822,-0.00137671,-0.00069415,0.00027977,0.0000
 1928,0.00026785,0.00008712,-0.00018753,0.00067714,-0.00043102,0.000028
 28,-0.00000891,0.00009881,0.00015191,0.00008978,-0.00010426,-0.0000079
 5,-0.00001139,0.00000362,0.00159186,0.00100494,0.00064460,-0.00014506,
 -0.00004561,0.00003208,-0.00398353,-0.02213741,0.00996432,0.00225745,-
 0.00243648,-0.00214453,-0.00066112,-0.00099643,-0.00049183,-0.00109085
 ,0.00082823,0.00077355,-0.00036228,0.00035316,-0.00013324,0.00055317,0
 .00039172,-0.00080089,0.00005876,-0.00001390,-0.00002840,-0.03325183,-
 0.26006880,0.10668096,-0.00009290,-0.00209082,0.00084610,0.00042708,0.
 00162823,-0.00048030,0.03393273,0.28312406,0.00000428,-0.00006565,0.00
 002735,-0.00002006,0.00003876,0.00000172,-0.00002841,-0.00000063,-0.00
 000613,0.00009357,0.00000511,0.00006291,-0.00031457,0.00015292,-0.0001
 4160,0.00008099,0.00000803,-0.00007717,0.00000973,-0.00000073,0.000004
 29,0.00000338,-0.00000080,-0.00001033,-0.00053748,0.00008914,-0.000298
 42,-0.00000139,-0.00000791,-0.00001338,-0.00023043,-0.00015150,0.00000
 881,-0.00000255,-0.00000490,-0.00001186,0.00006441,0.00002341,-0.00010
 884,0.00000332,-0.00000221,-0.00000802,0.00003601,0.00000376,0.0000409
 4,0.00000462,0.00000465,-0.00000433,0.00044077,0.00003693,0.00056734,0
 .00003930,0.00001641,-0.00000213,-0.00321619,-0.02061483,0.00747305,0.
 00229265,-0.00211166,-0.00196842,-0.00052321,-0.00088431,-0.00025510,-
 0.00024623,-0.00050349,0.00040333,-0.00024730,0.00004711,0.00009683,0.
 00029891,-0.00017060,-0.00045145,-0.00006653,0.00010164,0.00003476,0.0
 1917407,0.11104533,-0.09780626,-0.00031163,0.00361308,-0.00275405,0.00
 468591,0.02437192,-0.01162050,-0.02147246,-0.11514674,0.10658524,0.002
 56356,0.00237041,-0.00070263,0.00094137,-0.00397569,-0.00080629,0.0026
 7651,0.00849132,0.00022643,-0.00518323,0.00462976,0.00388287,0.0008508
 1,-0.00331115,-0.00093974,-0.00292816,0.00034076,0.00118955,0.00010291
 ,-0.00008139,-0.00005307,0.00011467,-0.00003377,-0.00002934,-0.0000865
 8,-0.00011406,0.00005063,-0.00002690,-0.00016905,0.00001083,0.02734296
 ,0.02528764,-0.01380214,0.00341453,-0.01269564,-0.00484550,0.02219991,
 -0.01848284,0.03058713,-0.00227135,0.00139346,-0.00464298,-0.02256682,
 0.00199724,0.00196717,0.00039485,0.00035417,0.00021545,-0.03460971,-0.
 00625084,-0.00585994,0.00134041,0.00056706,-0.00010940,-0.01021169,-0.
 06004523,0.01938384,-0.30904636,-0.03576444,0.12696207,-0.01543059,-0.
 00724240,0.00526279,0.00585931,0.00186873,0.00379233,0.00039040,0.0000
 1354,-0.00060020,-0.00038561,-0.00046486,-0.00121434,0.00119318,0.0004
 9355,-0.00153027,-0.00072153,0.00323520,0.00177198,-0.00062159,0.00127
 515,0.00008836,-0.00057694,0.00127747,-0.00098512,-0.00176716,0.001542
 76,0.00018121,0.55314500,0.00025986,0.00011560,-0.00003488,0.00006582,
 -0.00029168,-0.00013334,0.00027148,0.00017586,0.00011749,0.00021332,0.
 00016631,-0.00052669,-0.00000197,-0.00012757,0.00008865,-0.00004223,0.
 00016568,0.00006254,0.00001458,-0.00000324,-0.00000646,0.00002513,-0.0
 0001353,-0.00001484,-0.00002332,0.00014565,0.00000009,-0.00001400,-0.0
 0002601,-0.00003695,0.00005031,0.00144059,0.00194267,0.00007047,-0.000
 68660,-0.00019594,0.00117281,-0.00898483,-0.00055210,-0.00125354,0.000
 51015,-0.00259352,-0.00069400,0.00036142,-0.00015785,0.00002606,-0.000
 04480,-0.00003696,-0.00324456,-0.00335092,0.00213158,0.00005146,0.0000
 2158,-0.00002408,-0.03221941,-0.01623390,0.01740262,-0.07928882,-0.127
 64074,0.02357946,0.01907848,0.00913709,-0.00993939,0.00054760,-0.00404
 355,-0.00046243,0.00001772,0.00028369,0.00011226,-0.00088740,-0.000153
 80,0.00019647,-0.00040262,-0.00015732,0.00001748,0.00010633,-0.0007680
 1,0.00149240,-0.00128566,-0.00180785,0.00002947,-0.00031927,0.00044113
 ,0.00018190,-0.00046200,0.00036225,0.00001646,0.06264759,0.65601070,0.
 00168853,0.00153480,-0.00048364,0.00060274,-0.00264467,-0.00063184,0.0
 0195755,0.00613771,0.00027038,-0.00282929,0.00281123,0.00148806,0.0004
 5550,-0.00216722,-0.00054283,-0.00190941,0.00030298,0.00079940,0.00006
 258,-0.00004730,-0.00002907,0.00006379,-0.00001445,-0.00001442,-0.0000
 4461,-0.00005312,0.00000774,-0.00002632,-0.00009173,0.00001499,0.01105
 763,0.01013389,-0.00881683,0.00377053,-0.00880014,-0.00134606,0.019850
 12,-0.00830760,0.00908168,-0.00417303,0.00155346,-0.00772346,-0.011940
 91,0.00066959,0.00326826,0.00010412,0.00019119,0.00011337,-0.01060257,
 -0.00117653,0.00084695,0.00066598,0.00049443,-0.00040809,0.00269265,0.
 00169033,0.00259529,0.14105551,0.02690700,-0.11483622,0.01578738,0.005
 80283,-0.00410024,0.00313590,-0.00100496,0.00460614,-0.00038676,0.0000
 3947,0.00020516,-0.00078246,-0.00022320,0.00048927,0.00089911,0.000733
 06,-0.00052255,-0.00246484,0.00087166,-0.00242038,0.00031670,-0.000426
 73,0.00038169,0.00055307,-0.00055635,-0.00012508,0.00002843,0.00025403
 ,0.00020155,-0.27826192,0.06557100,0.27473238,0.00000012,0.00004986,0.
 00000834,0.00001621,-0.00004191,0.00002489,-0.00002794,0.00007813,-0.0
 0008998,-0.00015875,0.00014544,0.00006767,0.00005275,-0.00014034,-0.00
 003814,-0.00010696,-0.00003663,0.00002836,0.00000044,-0.00000325,-0.00
 000289,-0.00000599,0.00000599,0.00000046,-0.00000097,-0.00001791,0.000
 00101,0.00000021,0.00000210,0.00000434,-0.00009466,-0.00099751,0.00072
 232,-0.00020767,0.00026879,0.00017981,-0.00157448,0.00262525,-0.002173
 81,0.00021673,-0.00000053,0.00030765,0.00056042,0.00019926,-0.00042464
 ,-0.00006394,-0.00005724,-0.00000998,0.00067857,0.00052272,-0.00033937
 ,0.00013707,0.00002651,-0.00004612,-0.00334174,-0.00004141,0.00514530,
 -0.00197167,-0.02977316,0.00128070,-0.00060943,0.00061386,-0.00237106,
 -0.00036138,-0.00092062,-0.00077133,0.00005245,0.00008040,-0.00002094,
 -0.00015941,-0.00014211,0.00008726,-0.00029361,-0.00014964,0.00021520,
 -0.00034737,0.00065774,0.00010786,0.00030666,-0.00006907,-0.00013819,0
 .00011124,-0.00003045,-0.00003770,0.00016139,-0.00006548,-0.00003956,-
 0.06696293,-0.06774269,0.01042781,0.06747718,0.00007351,0.00010681,-0.
 00001828,0.00006711,-0.00013547,-0.00004123,-0.00001949,0.00034219,0.0
 0004707,-0.00007634,0.00016896,0.00012669,-0.00000735,-0.00006108,0.00
 002002,-0.00009216,0.00003741,0.00002945,0.00000090,0.00000281,-0.0000
 0040,0.00000018,-0.00000352,0.00000201,0.00000413,0.00001031,-0.000002
 91,-0.00000220,0.00000195,-0.00000485,-0.00042316,-0.00012130,-0.00013
 888,0.00030905,-0.00049364,-0.00023332,0.00075343,-0.00032201,0.000315
 71,-0.00021332,0.00029668,0.00005571,-0.00058942,0.00041498,-0.0000781
 8,0.00009887,0.00003458,0.00009799,0.00025906,0.00002901,-0.00002771,-
 0.00004193,0.00000549,0.00001005,-0.00141861,0.00127973,-0.00104663,0.
 00134692,-0.00238529,-0.00206206,0.00023948,0.00067456,0.00085394,0.00
 044420,-0.00036102,0.00029857,-0.00000360,0.00001622,-0.00000048,-0.00
 018059,-0.00002321,0.00005233,0.00003628,-0.00000611,-0.00005754,0.000
 26389,-0.00002111,0.00019190,-0.00023130,0.00016783,0.00008408,-0.0000
 9043,0.00001997,0.00002563,-0.00009500,-0.00004367,-0.00000106,-0.0732
 2600,-0.33455034,0.00021492,0.07880719,0.34644701,-0.00030024,-0.00022
 693,0.00009131,-0.00012305,0.00038769,0.00010728,-0.00030082,-0.000736
 91,0.00000851,0.00031412,-0.00046087,0.00001022,0.00000747,0.00030688,
 0.00008438,0.00022615,-0.00014491,-0.00013329,-0.00000615,-0.00000417,
 0.00000028,-0.00001225,0.00001123,0.00000156,0.00000216,-0.00003944,-0
 .00000471,0.00000459,0.00000996,0.00000325,-0.00117907,-0.00241980,0.0
 0068819,-0.00054917,0.00130288,0.00045428,-0.00391551,0.00537836,-0.00
 477628,0.00029834,0.00017331,0.00023803,0.00214190,-0.00019817,-0.0007
 4224,-0.00013438,-0.00005744,-0.00002188,0.00242625,0.00121578,-0.0003
 5161,0.00008290,-0.00000202,-0.00004780,0.00418852,0.00097024,0.004077
 83,0.00176969,0.00747117,0.00511513,-0.00242992,0.00112748,-0.00318795
 ,-0.00087538,0.00062000,-0.00097858,-0.00000658,-0.00000833,0.00000901
 ,0.00025154,-0.00003112,-0.00008906,-0.00014684,-0.00008646,0.00029745
 ,-0.00003715,-0.00011398,-0.00003650,-0.00010101,0.00035857,-0.0000833
 5,0.00015695,-0.00003418,-0.00005472,-0.00027386,0.00000790,0.00006470
 ,0.01428841,0.00023195,-0.03873320,-0.01190116,-0.00027708,0.03345399,
 -0.00005940,-0.00012979,-0.00000455,-0.00006456,0.00016085,0.00003974,
 -0.00005871,-0.00004186,-0.00000805,0.00022757,-0.00016520,-0.00043672
 ,-0.00004349,0.00011879,0.00012133,0.00013459,0.00003474,-0.00004013,-
 0.00000584,0.00000003,0.00000114,0.00000257,-0.00000304,-0.00000053,0.
 00000158,-0.00000809,0.,-0.00000359,0.00000466,-0.00000517,-0.00119326
 ,-0.00114113,-0.00031605,0.00000896,0.00018817,0.00091837,-0.00134309,
 -0.00027924,-0.00438778,-0.00014997,-0.00002130,-0.00017946,0.00149357
 ,-0.00010313,-0.00076346,-0.00000146,-0.00000780,0.00003311,0.00104092
 ,0.00034066,0.00013835,-0.00011530,0.00000074,-0.00003263,-0.00062576,
 0.00294214,-0.00231290,-0.01241442,0.01848805,0.01544943,-0.00164778,-
 0.00307139,0.00460802,-0.00018447,-0.00025140,-0.00024710,0.00014704,-
 0.00004779,-0.00009332,-0.00002419,-0.00004358,0.00006999,-0.00008586,
 -0.00010020,-0.00001452,-0.00038752,-0.00031385,-0.00024422,0.00075830
 ,-0.00114410,-0.00001665,-0.00003956,-0.00014647,0.00008195,0.00052365
 ,-0.00003249,-0.00015514,-0.14913325,0.10326245,0.09824646,0.00651746,
 -0.00599329,-0.00386644,0.15672526,0.00008832,0.00015466,-0.00001112,0
 .00006777,-0.00018877,-0.00002058,0.00012774,0.00026968,-0.00009997,-0
 .00032669,0.00034613,0.00006157,0.00002090,-0.00021304,-0.00012321,-0.
 00016249,-0.00002027,0.00006638,-0.00000100,0.00000294,-0.00000155,-0.
 00000629,0.00000111,0.00000125,-0.00000001,-0.00000700,0.00001175,-0.0
 0000166,0.00000563,0.00000665,0.00100679,0.00073549,0.00102306,-0.0000
 1433,-0.00025878,-0.00033449,0.00114713,-0.00023566,0.00233428,-0.0000
 4315,0.00001443,0.00011558,-0.00107904,-0.00004034,0.00043660,0.000029
 30,0.00000684,-0.00002711,-0.00071298,-0.00034656,-0.00019000,0.000038
 68,-0.00001003,0.00001830,0.00030868,-0.00072465,0.00110946,-0.0039117
 0,0.01062535,0.00472319,-0.00246368,0.00048325,0.00012502,0.00002108,0
 .00004326,-0.00021318,0.00008438,0.00003254,-0.00006952,0.00005513,0.0
 0001449,-0.00004724,-0.00002202,-0.00001520,-0.00002772,-0.00131111,-0
 .00111703,0.00011794,-0.00100551,-0.00263571,0.00030314,0.00010469,-0.
 00000990,-0.00007415,0.00023898,0.00024025,0.00009237,0.10407155,-0.17
 045300,-0.10039957,0.01614670,-0.01152872,-0.01473160,-0.11249614,0.17
 482865,-0.00020722,-0.00026604,0.00005267,-0.00009689,0.00034275,0.000
 06220,-0.00033288,-0.00058859,-0.00001690,0.00043511,-0.00046173,-0.00
 028662,-0.00009438,0.00046747,0.00016774,0.00034579,-0.00003116,-0.000
 14729,-0.00000315,-0.00000294,0.00000240,0.00000774,-0.00000468,-0.000
 00089,0.00000276,0.00001067,-0.00001157,-0.00000024,-0.00000040,-0.000
 01513,-0.00262682,-0.00179318,-0.00129073,-0.00048602,0.00094838,0.000
 92735,-0.00243289,0.00010271,-0.00708085,-0.00011395,0.00004352,-0.000
 14651,0.00230199,-0.00010863,-0.00046882,-0.00000287,-0.00001209,0.000
 02457,0.00209236,0.00082098,0.00019720,-0.00009621,-0.00001439,-0.0000
 2728,-0.00160529,0.00232618,-0.00379875,0.00173710,-0.00918005,0.00082
 230,0.00402834,-0.00048486,0.00564021,-0.00019734,-0.00012730,-0.00020
 735,-0.00003492,0.00003652,0.00008213,-0.00006665,0.00008420,0.0001322
 9,-0.00004105,-0.00007318,0.00000091,0.00100230,-0.00061459,0.00014377
 ,-0.00078458,-0.00019465,0.00057906,-0.00039153,-0.00004795,0.00003802
 ,-0.00007321,-0.00010693,-0.00003486,0.10452181,-0.09845904,-0.1183684
 1,-0.00020413,0.00156452,0.00453578,-0.10658307,0.10582449,0.11849338\
 \-0.00000442,-0.00000339,0.00000176,-0.00000113,-0.00000499,0.00000061
 ,-0.00000060,-0.00000150,0.00000128,-0.00000174,-0.00000176,0.00000111
 ,-0.00000298,-0.00000150,0.00000079,-0.00000367,-0.00000257,0.00000116
 ,-0.00000382,-0.00000551,0.00000148,-0.00000109,-0.00000592,0.00000134
 ,-0.00000279,0.00000049,0.00000051,-0.00000544,-0.00000165,0.00000133,
 -0.00000164,-0.00000049,-0.00000107,0.00000108,-0.00000493,-0.00000010
 ,0.00001087,0.00000157,0.00000381,-0.00000070,0.00000170,-0.00000668,-
 0.00000019,-0.00000370,-0.00000259,0.00000462,-0.00000241,0.00000027,-
 0.00000316,-0.00000096,-0.00000048,0.00000365,-0.00000543,0.00000036,0
 .00000589,0.00000492,0.00000004,0.00000399,0.00000142,-0.00000043,0.00
 000343,0.00000302,-0.00000004,-0.00000116,0.00000429,-0.00000050,0.000
 00150,0.00000603,-0.00000090,-0.00000185,0.00000546,-0.00000095,-0.000
 00062,0.00000693,-0.00000040,-0.00000100,0.00000300,-0.00000276,-0.000
 00060,0.00000172,-0.00000120,-0.00000099,0.00000189,0.00000009,-0.0000
 0156,0.00000277,0.00000013,-0.00000400,0.00000164,-0.00000236,0.000004
 33,0.00000102,-0.00000080,0.00000581,-0.00000116,0.00000518\\\@


 EVERYTHING'S GOT A MORAL, IF ONLY YOU CAN FIND IT.

                                    -- LEWIS CARROL, ALICE IN WONDERLAND
 Job cpu time:       0 days  3 hours 15 minutes 24.9 seconds.
 File lengths (MBytes):  RWF=    561 Int=      0 D2E=      0 Chk=     18 Scr=      1
 Normal termination of Gaussian 09 at Thu Aug 27 21:42:58 2020.
