 Entering Gaussian System, Link 0=g09
 Input=freq_water_m06-2x_TS2_scan2_diene_dienophile_pm6_cpcmtoluene_2_3_gd3.com
 Output=freq_water_m06-2x_TS2_scan2_diene_dienophile_pm6_cpcmtoluene_2_3_gd3.log
 Initial command:
 /apps/applications/gaussian/G09.D01/2/default/g09/l1.exe "/local/729089.1.40core-192G.q/Gau-192356.inp" -scrdir="/local/729089.1.40core-192G.q/"
 Entering Link 1 = /apps/applications/gaussian/G09.D01/2/default/g09/l1.exe PID=    192357.
  
 Copyright (c) 1988,1990,1992,1993,1995,1998,2003,2009,2013,
            Gaussian, Inc.  All Rights Reserved.
  
 This is part of the Gaussian(R) 09 program.  It is based on
 the Gaussian(R) 03 system (copyright 2003, Gaussian, Inc.),
 the Gaussian(R) 98 system (copyright 1998, Gaussian, Inc.),
 the Gaussian(R) 94 system (copyright 1995, Gaussian, Inc.),
 the Gaussian 92(TM) system (copyright 1992, Gaussian, Inc.),
 the Gaussian 90(TM) system (copyright 1990, Gaussian, Inc.),
 the Gaussian 88(TM) system (copyright 1988, Gaussian, Inc.),
 the Gaussian 86(TM) system (copyright 1986, Carnegie Mellon
 University), and the Gaussian 82(TM) system (copyright 1983,
 Carnegie Mellon University). Gaussian is a federally registered
 trademark of Gaussian, Inc.
  
 This software contains proprietary and confidential information,
 including trade secrets, belonging to Gaussian, Inc.
  
 This software is provided under written license and may be
 used, copied, transmitted, or stored only in accord with that
 written license.
  
 The following legend is applicable only to US Government
 contracts under FAR:
  
                    RESTRICTED RIGHTS LEGEND
  
 Use, reproduction and disclosure by the US Government is
 subject to restrictions as set forth in subparagraphs (a)
 and (c) of the Commercial Computer Software - Restricted
 Rights clause in FAR 52.227-19.
  
 Gaussian, Inc.
 340 Quinnipiac St., Bldg. 40, Wallingford CT 06492
  
  
 ---------------------------------------------------------------
 Warning -- This program may not be used in any manner that
 competes with the business of Gaussian, Inc. or will provide
 assistance to any competitor of Gaussian, Inc.  The licensee
 of this program is prohibited from giving any competitor of
 Gaussian, Inc. access to this program.  By using this program,
 the user acknowledges that Gaussian, Inc. is engaged in the
 business of creating and licensing software in the field of
 computational chemistry and represents and warrants to the
 licensee that it is not a competitor of Gaussian, Inc. and that
 it will not use this program in any manner prohibited above.
 ---------------------------------------------------------------
  

 Cite this work as:
 Gaussian 09, Revision D.01,
 M. J. Frisch, G. W. Trucks, H. B. Schlegel, G. E. Scuseria, 
 M. A. Robb, J. R. Cheeseman, G. Scalmani, V. Barone, B. Mennucci, 
 G. A. Petersson, H. Nakatsuji, M. Caricato, X. Li, H. P. Hratchian, 
 A. F. Izmaylov, J. Bloino, G. Zheng, J. L. Sonnenberg, M. Hada, 
 M. Ehara, K. Toyota, R. Fukuda, J. Hasegawa, M. Ishida, T. Nakajima, 
 Y. Honda, O. Kitao, H. Nakai, T. Vreven, J. A. Montgomery, Jr., 
 J. E. Peralta, F. Ogliaro, M. Bearpark, J. J. Heyd, E. Brothers, 
 K. N. Kudin, V. N. Staroverov, T. Keith, R. Kobayashi, J. Normand, 
 K. Raghavachari, A. Rendell, J. C. Burant, S. S. Iyengar, J. Tomasi, 
 M. Cossi, N. Rega, J. M. Millam, M. Klene, J. E. Knox, J. B. Cross, 
 V. Bakken, C. Adamo, J. Jaramillo, R. Gomperts, R. E. Stratmann, 
 O. Yazyev, A. J. Austin, R. Cammi, C. Pomelli, J. W. Ochterski, 
 R. L. Martin, K. Morokuma, V. G. Zakrzewski, G. A. Voth, 
 P. Salvador, J. J. Dannenberg, S. Dapprich, A. D. Daniels, 
 O. Farkas, J. B. Foresman, J. V. Ortiz, J. Cioslowski, 
 and D. J. Fox, Gaussian, Inc., Wallingford CT, 2013.
 
 ******************************************
 Gaussian 09:  ES64L-G09RevD.01 24-Apr-2013
                 8-Sep-2020 
 ******************************************
 %nprocshared=4
 Will use up to    4 processors via shared memory.
 ----------------------------------------------------------------------
 # freq scrf=(cpcm,solvent=water) geom=connectivity def2svp empiricaldi
 spersion=gd3 m062x
 ----------------------------------------------------------------------
 1/10=4,30=1,38=1,57=2/1,3;
 2/12=2,17=6,18=5,40=1/2;
 3/5=43,7=101,11=2,16=1,25=1,30=1,70=2101,71=2,72=1,74=-55,124=31,140=1/1,2,3;
 4//1;
 5/5=2,38=5,53=1,98=1/2;
 8/6=4,10=90,11=11/1;
 11/6=1,8=1,9=11,15=111,16=1/1,2,10;
 10/6=1/2;
 6/7=2,8=2,9=2,10=2,18=1,28=1/1;
 7/8=1,10=1,25=1/1,2,3,16;
 1/10=4,30=1/3;
 99//99;
 -------------------
 Title Card Required
 -------------------
 Symbolic Z-matrix:
 Charge =  0 Multiplicity = 1
 C                    -2.4457    0.79107  -0.59997 
 C                    -1.49141  -0.2288   -1.12599 
 C                    -0.2102    0.21212  -0.83815 
 C                    -0.32698   1.52566  -0.1391 
 H                    -1.78531  -0.89856  -1.92959 
 H                     0.70091  -0.0478   -1.37189 
 C                    -2.24004   2.90849   0.72447 
 H                    -2.79773   2.62103   1.62562 
 H                    -1.40748   3.56386   1.00354 
 H                    -2.91517   3.43989   0.04094 
 N                    -1.68251   1.74612   0.07132 
 O                     0.55601   2.28086   0.20324 
 O                    -3.64891   0.83798  -0.69833 
 C                    -0.97072  -2.63896   0.25741 
 H                    -1.06673  -3.59777  -0.26086 
 C                     0.32495  -2.17408   0.54922 
 H                     1.17872  -2.77443   0.22505 
 C                    -2.1004   -1.85557   0.39317 
 H                    -2.07683  -1.03081   1.11226 
 C                    -3.46247  -2.31991  -0.02 
 H                    -4.03667  -1.49271  -0.46083 
 H                    -3.39893  -3.14407  -0.74304 
 H                    -4.02503  -2.67012   0.85991 
 C                     0.5658   -0.89359   1.00239 
 H                    -0.20328  -0.37253   1.57978 
 C                     1.9502   -0.35223   1.19466 
 H                     2.34209  -0.65603   2.18026 
 H                     1.91428   0.74327   1.16995 
 C                     3.78795  -0.15024  -0.38426 
 C                     3.91879   1.29901   0.00414 
 H                     4.12908   1.39455   1.07866 
 H                     4.74417   1.72868  -0.57053 
 H                     2.98603   1.84304  -0.2056 
 O                     2.80426  -0.87354   0.18448 
 O                     4.50076  -0.69658  -1.18198 
 

 GradGradGradGradGradGradGradGradGradGradGradGradGradGradGradGradGradGrad
 Berny optimization.
 Initialization pass.
 Trust Radius=3.00D-01 FncErr=1.00D-07 GrdErr=1.00D-07
 Number of steps in this run=      2 maximum allowed number of steps=      2.
 GradGradGradGradGradGradGradGradGradGradGradGradGradGradGradGradGradGrad

                          Input orientation:                          
 ---------------------------------------------------------------------
 Center     Atomic      Atomic             Coordinates (Angstroms)
 Number     Number       Type             X           Y           Z
 ---------------------------------------------------------------------
      1          6           0       -2.445700    0.791069   -0.599968
      2          6           0       -1.491413   -0.228798   -1.125992
      3          6           0       -0.210197    0.212117   -0.838153
      4          6           0       -0.326982    1.525658   -0.139103
      5          1           0       -1.785311   -0.898560   -1.929587
      6          1           0        0.700911   -0.047797   -1.371890
      7          6           0       -2.240044    2.908487    0.724467
      8          1           0       -2.797734    2.621032    1.625618
      9          1           0       -1.407482    3.563859    1.003541
     10          1           0       -2.915172    3.439887    0.040935
     11          7           0       -1.682510    1.746122    0.071317
     12          8           0        0.556011    2.280859    0.203235
     13          8           0       -3.648910    0.837984   -0.698331
     14          6           0       -0.970724   -2.638964    0.257408
     15          1           0       -1.066733   -3.597766   -0.260855
     16          6           0        0.324953   -2.174075    0.549224
     17          1           0        1.178719   -2.774425    0.225054
     18          6           0       -2.100399   -1.855569    0.393172
     19          1           0       -2.076835   -1.030810    1.112259
     20          6           0       -3.462471   -2.319907   -0.019998
     21          1           0       -4.036675   -1.492710   -0.460825
     22          1           0       -3.398929   -3.144072   -0.743039
     23          1           0       -4.025033   -2.670124    0.859906
     24          6           0        0.565800   -0.893590    1.002393
     25          1           0       -0.203279   -0.372528    1.579782
     26          6           0        1.950195   -0.352233    1.194656
     27          1           0        2.342088   -0.656031    2.180265
     28          1           0        1.914284    0.743265    1.169954
     29          6           0        3.787946   -0.150237   -0.384264
     30          6           0        3.918788    1.299013    0.004139
     31          1           0        4.129085    1.394548    1.078663
     32          1           0        4.744170    1.728679   -0.570534
     33          1           0        2.986031    1.843044   -0.205596
     34          8           0        2.804260   -0.873537    0.184478
     35          8           0        4.500758   -0.696576   -1.181976
 ---------------------------------------------------------------------
                    Distance matrix (angstroms):
                    1          2          3          4          5
     1  C    0.000000
     2  C    1.492479   0.000000
     3  C    2.321506   1.385197   0.000000
     4  C    2.289319   2.325503   1.492548   0.000000
     5  H    2.249188   1.086610   2.214908   3.348043   0.000000
     6  H    3.346748   2.213484   1.087450   2.247685   2.686284
     7  C    2.505969   3.718495   3.719203   2.513519   4.663088
     8  H    2.902744   4.171254   4.309105   3.227801   5.104117
     9  H    3.367121   4.350426   4.007431   2.574370   5.353427
    10  H    2.765393   4.104639   4.302114   3.224192   4.897108
    11  N    1.394707   2.317407   2.312577   1.389366   3.317910
    12  O    3.445995   3.501024   2.439520   1.211281   4.487697
    13  O    1.208135   2.444527   3.498000   3.438144   2.829236
    14  C    3.830897   2.827333   3.147589   4.232694   2.911272
    15  H    4.612854   3.504106   3.947421   5.177985   3.253726
    16  C    4.217729   3.144779   2.811603   3.819272   3.496378
    17  H    5.150711   3.928759   3.461059   4.570608   4.116652
    18  C    2.847851   2.307619   3.060123   3.854999   2.531868
    19  H    2.527257   2.448614   2.972089   3.341171   3.058644
    20  C    3.323907   3.079128   4.202120   4.963250   2.911979
    21  H    2.786792   2.918609   4.206037   4.793315   2.752983
    22  H    4.051475   3.504867   4.630450   5.622097   3.008984
    23  H    4.074970   4.040185   5.073824   5.681390   3.992000
    24  C    3.804572   3.033825   2.283061   2.820077   3.758225
    25  H    3.336723   3.000193   2.487623   2.563782   3.885255
    26  C    4.883821   4.152747   3.019619   3.238969   4.900344
    27  H    5.722474   5.080314   4.047059   4.154897   5.829676
    28  H    4.705780   4.220787   2.971200   2.710912   5.098014
    29  C    6.308005   5.331788   4.040107   4.449872   5.831741
    30  C    6.413241   5.734255   4.351932   4.254227   6.411347
    31  H    6.812473   6.251860   4.888936   4.621328   7.020541
    32  H    7.250808   6.559173   5.188192   5.093519   7.168231
    33  H    5.546700   5.018681   3.643614   3.328845   5.766649
    34  O    5.563124   4.537161   3.363238   3.957969   5.053124
    35  O    7.127770   6.010663   4.810097   5.415993   6.333592
                    6          7          8          9         10
     6  H    0.000000
     7  C    4.667284   0.000000
     8  H    5.324305   1.098054   0.000000
     9  H    4.809579   1.095698   1.791285   0.000000
    10  H    5.218819   1.097907   1.787606   1.793072   0.000000
    11  N    3.313863   1.445179   2.103579   2.061274   2.095046
    12  O    2.815076   2.912649   3.658756   2.478282   3.663168
    13  O    4.489903   2.880319   3.050328   3.918005   2.802639
    14  C    3.487567   5.709950   5.733892   6.262786   6.385935
    15  H    4.118403   6.684224   6.725221   7.280363   7.282607
    16  C    2.890170   5.695819   5.822615   6.010958   6.501795
    17  H    3.195783   6.650778   6.847241   6.889726   7.443891
    18  C    3.772376   4.777603   4.695227   5.497534   5.369337
    19  H    3.853983   3.961702   3.757550   4.644441   4.673080
    20  C    4.931921   5.420762   5.250029   6.315799   5.786059
    21  H    5.036123   4.899320   4.776096   5.884379   5.083310
    22  H    5.176008   6.334829   6.261661   7.211986   6.648094
    23  H    5.847398   5.858791   5.485336   6.762747   6.263764
    24  C    2.524052   4.733476   4.904522   4.874699   5.640974
    25  H    3.104090   3.955380   3.961654   4.156597   4.925132
    26  C    2.870636   5.330242   5.618618   5.162005   6.275591
    27  H    3.959951   5.985071   6.120829   5.766405   6.999433
    28  H    2.925581   4.705857   5.092814   4.360914   5.645361
    29  C    3.242790   6.849945   7.422314   6.535517   7.615877
    30  C    3.749945   6.406285   7.034813   5.873456   7.161543
    31  H    4.453981   6.556163   7.055795   5.946859   7.408228
    32  H    4.488428   7.200571   7.905675   6.609722   7.871953
    33  H    3.187051   5.414060   6.116416   4.870952   6.118405
    34  O    2.743757   6.327740   6.758050   6.172529   7.165063
    35  O    3.859510   7.878415   8.494533   7.604939   8.579152
                   11         12         13         14         15
    11  N    0.000000
    12  O    2.305281   0.000000
    13  O    2.298652   4.536085   0.000000
    14  C    4.446375   5.151554   4.491691   0.000000
    15  H    5.389495   6.116119   5.151204   1.094128   0.000000
    16  C    4.430152   4.474319   5.140086   1.407145   2.149399
    17  H    5.352160   5.093539   6.099848   2.153950   2.440503
    18  C    3.640110   4.919617   3.293098   1.381414   2.128724
    19  H    2.991723   4.327280   3.040074   2.130824   3.081398
    20  C    4.439504   6.112698   3.235301   2.527361   2.725894
    21  H    4.039220   5.981101   2.374638   3.351091   3.645793
    22  H    5.246262   6.779887   3.990145   2.674361   2.424351
    23  H    5.060881   6.777124   3.856993   3.113323   3.296690
    24  C    3.590248   3.273511   4.863599   2.441770   3.401989
    25  H    2.992034   3.084131   4.304360   2.733931   3.812566
    26  C    4.342986   3.140038   6.029096   3.826139   4.664102
    27  H    5.139590   3.965355   6.812522   4.313250   5.121809
    28  H    3.892255   2.267961   5.869292   4.538225   5.456943
    29  C    5.807721   4.086660   7.508798   5.408368   5.955552
    30  C    5.619516   3.508836   7.614202   6.283242   6.993146
    31  H    5.908721   3.784016   7.997792   6.553757   7.328986
    32  H    6.458676   4.294682   8.441177   7.240291   7.888822
    33  H    4.677751   2.502763   6.728698   5.996556   6.784568
    34  O    5.196780   3.873653   6.734394   4.168040   4.754401
    35  O    6.765377   5.132734   8.306978   5.981790   6.345260
                   16         17         18         19         20
    16  C    0.000000
    17  H    1.092896   0.000000
    18  C    2.451149   3.409571   0.000000
    19  H    2.718943   3.798152   1.094472   0.000000
    20  C    3.832735   4.669827   1.497184   2.205394   0.000000
    21  H    4.528604   5.414200   2.147124   2.555175   1.099224
    22  H    4.059327   4.693475   2.153461   3.107401   1.098214
    23  H    4.389187   5.243372   2.141391   2.558614   1.101526
    24  C    1.379497   2.125433   2.899167   2.648475   4.393931
    25  H    2.141647   3.084528   2.684496   2.040129   4.119941
    26  C    2.525293   2.720720   4.394281   4.084633   5.885922
    27  H    3.005592   3.108677   4.936424   4.561576   6.426706
    28  H    3.379667   3.715916   4.845101   4.368032   6.301468
    29  C    4.118208   3.750426   6.179415   6.116424   7.576853
    30  C    5.027436   4.914232   6.806860   6.527136   8.220715
    31  H    5.242785   5.178189   7.059719   6.663102   8.522673
    32  H    6.001235   5.798564   7.786121   7.548025   9.167502
    33  H    4.877329   4.977234   6.317439   5.968952   7.677746
    34  O    2.823367   2.501481   5.006358   4.970976   6.434727
    35  O    4.755776   4.163308   6.884739   6.974235   8.209654
                   21         22         23         24         25
    21  H    0.000000
    22  H    1.792585   0.000000
    23  H    1.769398   1.784955   0.000000
    24  C    4.866490   4.881627   4.924644   0.000000
    25  H    4.484842   4.825882   4.516965   1.093785   0.000000
    26  C    6.315372   6.337362   6.417790   1.498860   2.187735
    27  H    6.954423   6.906181   6.807360   2.144532   2.630560
    28  H    6.562998   6.855739   6.857320   2.127388   2.428379
    29  C    7.939319   7.793776   8.303037   3.585752   4.453849
    30  C    8.443891   8.593501   8.921361   4.128746   4.718913
    31  H    8.796927   8.977119   9.113674   4.235374   4.705641
    32  H    9.353749   9.491234   9.914361   5.177757   5.789316
    33  H    7.778869   8.119599   8.405891   3.847846   4.274112
    34  O    6.899144   6.670470   7.093883   2.383294   3.353084
    35  O    8.604746   8.281785   8.986283   4.504906   5.464456
                   26         27         28         29         30
    26  C    0.000000
    27  H    1.103312   0.000000
    28  H    1.096365   1.778138   0.000000
    29  C    2.431279   2.987163   2.593173   0.000000
    30  C    2.831837   3.323207   2.384537   1.506088   0.000000
    31  H    2.795042   2.934580   2.310378   2.154737   1.099069
    32  H    3.905430   4.361621   3.465342   2.116456   1.093672
    33  H    2.802303   3.514594   2.061624   2.155959   1.099997
    34  O    1.421845   2.060116   2.092192   1.346948   2.448401
    35  O    3.503188   3.995768   3.780815   1.201221   2.393310
                   31         32         33         34         35
    31  H    0.000000
    32  H    1.791598   0.000000
    33  H    1.776807   1.799253   0.000000
    34  O    2.774696   3.332390   2.750456   0.000000
    35  O    3.101843   2.512961   3.114063   2.185547   0.000000
 Stoichiometry    C13H17NO4
 Framework group  C1[X(C13H17NO4)]
 Deg. of freedom    99
 Full point group                 C1      NOp   1
 Largest Abelian subgroup         C1      NOp   1
 Largest concise Abelian subgroup C1      NOp   1
                         Standard orientation:                         
 ---------------------------------------------------------------------
 Center     Atomic      Atomic             Coordinates (Angstroms)
 Number     Number       Type             X           Y           Z
 ---------------------------------------------------------------------
      1          6           0       -2.445700    0.791069   -0.599968
      2          6           0       -1.491413   -0.228798   -1.125992
      3          6           0       -0.210197    0.212117   -0.838153
      4          6           0       -0.326982    1.525658   -0.139103
      5          1           0       -1.785311   -0.898560   -1.929587
      6          1           0        0.700911   -0.047797   -1.371890
      7          6           0       -2.240044    2.908487    0.724467
      8          1           0       -2.797734    2.621032    1.625618
      9          1           0       -1.407482    3.563859    1.003541
     10          1           0       -2.915172    3.439887    0.040935
     11          7           0       -1.682510    1.746122    0.071317
     12          8           0        0.556011    2.280859    0.203235
     13          8           0       -3.648910    0.837984   -0.698331
     14          6           0       -0.970724   -2.638964    0.257408
     15          1           0       -1.066733   -3.597766   -0.260855
     16          6           0        0.324953   -2.174075    0.549224
     17          1           0        1.178719   -2.774425    0.225054
     18          6           0       -2.100399   -1.855569    0.393172
     19          1           0       -2.076835   -1.030810    1.112259
     20          6           0       -3.462471   -2.319907   -0.019998
     21          1           0       -4.036675   -1.492710   -0.460825
     22          1           0       -3.398929   -3.144072   -0.743039
     23          1           0       -4.025033   -2.670124    0.859906
     24          6           0        0.565800   -0.893590    1.002393
     25          1           0       -0.203279   -0.372528    1.579782
     26          6           0        1.950195   -0.352233    1.194656
     27          1           0        2.342088   -0.656031    2.180265
     28          1           0        1.914284    0.743265    1.169954
     29          6           0        3.787946   -0.150237   -0.384264
     30          6           0        3.918788    1.299013    0.004139
     31          1           0        4.129085    1.394548    1.078663
     32          1           0        4.744170    1.728679   -0.570534
     33          1           0        2.986031    1.843044   -0.205596
     34          8           0        2.804260   -0.873537    0.184478
     35          8           0        4.500758   -0.696576   -1.181976
 ---------------------------------------------------------------------
 Rotational constants (GHZ):      0.6471962      0.2903180      0.2225361
 Standard basis: def2SVP (5D, 7F)
 There are   355 symmetry adapted cartesian basis functions of A   symmetry.
 There are   337 symmetry adapted basis functions of A   symmetry.
   337 basis functions,   569 primitive gaussians,   355 cartesian basis functions
    67 alpha electrons       67 beta electrons
       nuclear repulsion energy      1376.9148501683 Hartrees.
 NAtoms=   35 NActive=   35 NUniq=   35 SFac= 1.00D+00 NAtFMM=   60 NAOKFM=F Big=F
 Integral buffers will be    131072 words long.
 Raffenetti 2 integral format.
 Two-electron integral symmetry is turned on.
 Nuclear repulsion after empirical dispersion term =     1376.9125711425 Hartrees.
 Force inversion solution in PCM.
 ------------------------------------------------------------------------------
 Polarizable Continuum Model (PCM)
 =================================
 Model                : C-PCM.
 Atomic radii         : UFF (Universal Force Field).
 Polarization charges : Total charges.
 Charge compensation  : None.
 Solution method      : Matrix inversion.
 Cavity type          : Scaled VdW (van der Waals Surface) (Alpha=1.100).
 Cavity algorithm     : GePol (No added spheres)
                        Default sphere list used, NSphG=   35.
                        Lebedev-Laikov grids with approx.  5.0 points / Ang**2.
                        Smoothing algorithm: Karplus/York (Gamma=1.0000).
                        Polarization charges: spherical gaussians, with
                                              point-specific exponents (IZeta= 3).
                        Self-potential: point-specific (ISelfS= 7).
                        Self-field    : sphere-specific E.n sum rule (ISelfD= 2).
 1st derivatives      : Analytical E(r).r(x)/FMM algorithm (CHGder, D1EAlg=3).
                        Cavity 1st derivative terms included.
 2nd derivatives      : Analytical E(r).r(xy)/FMM algorithm (CHGder, D2EAlg=3).
                        Cavity 2nd derivative terms included.
 Solvent              : Water, Eps=  78.355300 Eps(inf)=   1.777849
 ------------------------------------------------------------------------------
 One-electron integrals computed using PRISM.
   1 Symmetry operations used in ECPInt.
 ECPInt:  NShTT=   12720 NPrTT=   45736 LenC2=   11876 LenP2D=   30569.
 LDataN:  DoStor=T MaxTD1= 4 Len=   56
 NBasis=   337 RedAO= T EigKep=  3.48D-04  NBF=   337
 NBsUse=   337 1.00D-06 EigRej= -1.00D+00 NBFU=   337
 ExpMin= 1.22D-01 ExpMax= 2.27D+03 ExpMxC= 3.41D+02 IAcc=1 IRadAn=         1 AccDes= 0.00D+00
 Harris functional with IExCor= 1009 and IRadAn=       1 diagonalized for initial guess.
 HarFok:  IExCor= 1009 AccDes= 0.00D+00 IRadAn=         1 IDoV= 1 UseB2=F ITyADJ=14
 ICtDFT=  3500011 ScaDFX=  1.000000  1.000000  1.000000  1.000000
 FoFCou: FMM=F IPFlag=           0 FMFlag=      100000 FMFlg1=           0
         NFxFlg=           0 DoJE=T BraDBF=F KetDBF=T FulRan=T
         wScrn=  0.000000 ICntrl=     500 IOpCl=  0 I1Cent=   200000004 NGrid=           0
         NMat0=    1 NMatS0=      1 NMatT0=    0 NMatD0=    1 NMtDS0=    0 NMtDT0=    0
 Petite list used in FoFCou.
 Requested convergence on RMS density matrix=1.00D-08 within 128 cycles.
 Requested convergence on MAX density matrix=1.00D-06.
 Requested convergence on             energy=1.00D-06.
 No special actions if energy rises.
 Inv3:  Mode=1 IEnd=    18376875.
 Iteration    1 A*A^-1 deviation from unit magnitude is 7.99D-15 for   2465.
 Iteration    1 A*A^-1 deviation from orthogonality  is 2.19D-15 for   2461   1080.
 Iteration    1 A^-1*A deviation from unit magnitude is 7.99D-15 for   2465.
 Iteration    1 A^-1*A deviation from orthogonality  is 2.22D-15 for   2470    945.
 Error on total polarization charges =  0.00953
 SCF Done:  E(RM062X) =  -860.230129183     A.U. after   15 cycles
            NFock= 15  Conv=0.29D-08     -V/T= 2.0098
 DoSCS=F DFT=T ScalE2(SS,OS)=  1.000000  1.000000
 Range of M.O.s used for correlation:     1   337
 NBasis=   337 NAE=    67 NBE=    67 NFC=     0 NFV=     0
 NROrb=    337 NOA=    67 NOB=    67 NVA=   270 NVB=   270
 PrsmSu:  requested number of processors reduced to:   3 ShMem   1 Linda.
   1 Symmetry operations used in ECPInt.
 ECPInt:  NShTT=   12720 NPrTT=   45736 LenC2=   11876 LenP2D=   30569.
 LDataN:  DoStor=T MaxTD1= 5 Len=  102
 Number of processors reduced to   2 by ecpmxn.
 Symmetrizing basis deriv contribution to polar:
 IMax=3 JMax=2 DiffMx= 0.00D+00
 G2DrvN: will do    18 centers at a time, making    2 passes.
 Calling FoFCou, ICntrl=  3107 FMM=F I1Cent=   0 AccDes= 0.00D+00.
 Calling FoFCou, ICntrl=  3107 FMM=F I1Cent=   0 AccDes= 0.00D+00.
 NEqPCM:  Using equilibrium solvation (IEInf=0, Eps=  78.3553, EpsInf=   1.7778)
 G2PCM: DoFxE=T DoFxN=T DoGrad=T DoDP/DQ/DG/TGxP=FFFF NFrqRd=   0 IEInf=0 SqF1=F DoCFld=F IF1Alg=4.
 End of G2Drv F.D. properties file   721 does not exist.
 End of G2Drv F.D. properties file   722 does not exist.
 End of G2Drv F.D. properties file   788 does not exist.
          IDoAtm=11111111111111111111111111111111111
 NEqPCM:  Using equilibrium solvation (IEInf=0, Eps=  78.3553, EpsInf=   1.7778)
          Differentiating once with respect to electric field.
                with respect to dipole field.
          Differentiating once with respect to nuclear coordinates.
          There are   108 degrees of freedom in the 1st order CPHF.  IDoFFX=6 NUNeed=     3.
    108 vectors produced by pass  0 Test12= 1.81D-14 1.00D-09 XBig12= 1.36D+02 6.29D+00.
 AX will form    56 AO Fock derivatives at one time.
    108 vectors produced by pass  1 Test12= 1.81D-14 1.00D-09 XBig12= 1.87D+01 5.91D-01.
    105 vectors produced by pass  2 Test12= 1.81D-14 1.00D-09 XBig12= 2.79D-01 1.02D-01.
    105 vectors produced by pass  3 Test12= 1.81D-14 1.00D-09 XBig12= 2.18D-03 6.42D-03.
    105 vectors produced by pass  4 Test12= 1.81D-14 1.00D-09 XBig12= 1.09D-05 2.74D-04.
    105 vectors produced by pass  5 Test12= 1.81D-14 1.00D-09 XBig12= 3.56D-08 1.65D-05.
     63 vectors produced by pass  6 Test12= 1.81D-14 1.00D-09 XBig12= 1.15D-10 7.57D-07.
      6 vectors produced by pass  7 Test12= 1.81D-14 1.00D-09 XBig12= 3.18D-13 4.26D-08.
      3 vectors produced by pass  8 Test12= 1.81D-14 1.00D-09 XBig12= 1.03D-15 2.12D-09.
 InvSVY:  IOpt=1 It=  1 EMax= 1.42D-14
 Solved reduced A of dimension   708 with   108 vectors.
 Isotropic polarizability for W=    0.000000      217.27 Bohr**3.
 End of Minotr F.D. properties file   721 does not exist.
 End of Minotr F.D. properties file   722 does not exist.
 End of Minotr F.D. properties file   788 does not exist.

 **********************************************************************

            Population analysis using the SCF density.

 **********************************************************************

 Orbital symmetries:
       Occupied  (A) (A) (A) (A) (A) (A) (A) (A) (A) (A) (A) (A)
                 (A) (A) (A) (A) (A) (A) (A) (A) (A) (A) (A) (A)
                 (A) (A) (A) (A) (A) (A) (A) (A) (A) (A) (A) (A)
                 (A) (A) (A) (A) (A) (A) (A) (A) (A) (A) (A) (A)
                 (A) (A) (A) (A) (A) (A) (A) (A) (A) (A) (A) (A)
                 (A) (A) (A) (A) (A) (A) (A)
       Virtual   (A) (A) (A) (A) (A) (A) (A) (A) (A) (A) (A) (A)
                 (A) (A) (A) (A) (A) (A) (A) (A) (A) (A) (A) (A)
                 (A) (A) (A) (A) (A) (A) (A) (A) (A) (A) (A) (A)
                 (A) (A) (A) (A) (A) (A) (A) (A) (A) (A) (A) (A)
                 (A) (A) (A) (A) (A) (A) (A) (A) (A) (A) (A) (A)
                 (A) (A) (A) (A) (A) (A) (A) (A) (A) (A) (A) (A)
                 (A) (A) (A) (A) (A) (A) (A) (A) (A) (A) (A) (A)
                 (A) (A) (A) (A) (A) (A) (A) (A) (A) (A) (A) (A)
                 (A) (A) (A) (A) (A) (A) (A) (A) (A) (A) (A) (A)
                 (A) (A) (A) (A) (A) (A) (A) (A) (A) (A) (A) (A)
                 (A) (A) (A) (A) (A) (A) (A) (A) (A) (A) (A) (A)
                 (A) (A) (A) (A) (A) (A) (A) (A) (A) (A) (A) (A)
                 (A) (A) (A) (A) (A) (A) (A) (A) (A) (A) (A) (A)
                 (A) (A) (A) (A) (A) (A) (A) (A) (A) (A) (A) (A)
                 (A) (A) (A) (A) (A) (A) (A) (A) (A) (A) (A) (A)
                 (A) (A) (A) (A) (A) (A) (A) (A) (A) (A) (A) (A)
                 (A) (A) (A) (A) (A) (A) (A) (A) (A) (A) (A) (A)
                 (A) (A) (A) (A) (A) (A) (A) (A) (A) (A) (A) (A)
                 (A) (A) (A) (A) (A) (A) (A) (A) (A) (A) (A) (A)
                 (A) (A) (A) (A) (A) (A) (A) (A) (A) (A) (A) (A)
                 (A) (A) (A) (A) (A) (A) (A) (A) (A) (A) (A) (A)
                 (A) (A) (A) (A) (A) (A) (A) (A) (A) (A) (A) (A)
                 (A) (A) (A) (A) (A) (A)
 The electronic state is 1-A.
 Alpha  occ. eigenvalues --  -19.68015 -19.63683 -19.63342 -19.62165 -14.80687
 Alpha  occ. eigenvalues --  -10.69384 -10.68306 -10.67970 -10.62174 -10.59260
 Alpha  occ. eigenvalues --  -10.58822 -10.58693 -10.58406 -10.58143 -10.56558
 Alpha  occ. eigenvalues --  -10.56308 -10.56232 -10.55149  -1.22366  -1.18883
 Alpha  occ. eigenvalues --   -1.16864  -1.13392  -1.06342  -0.93839  -0.90667
 Alpha  occ. eigenvalues --   -0.88097  -0.83769  -0.82057  -0.79132  -0.76301
 Alpha  occ. eigenvalues --   -0.74348  -0.69844  -0.69090  -0.65729  -0.62919
 Alpha  occ. eigenvalues --   -0.60269  -0.58691  -0.58519  -0.57792  -0.57369
 Alpha  occ. eigenvalues --   -0.56850  -0.54521  -0.54105  -0.52318  -0.51994
 Alpha  occ. eigenvalues --   -0.51352  -0.50636  -0.50199  -0.49201  -0.48157
 Alpha  occ. eigenvalues --   -0.47886  -0.46937  -0.46481  -0.46132  -0.45584
 Alpha  occ. eigenvalues --   -0.45132  -0.42971  -0.42437  -0.41624  -0.41155
 Alpha  occ. eigenvalues --   -0.37448  -0.37353  -0.35624  -0.34610  -0.34161
 Alpha  occ. eigenvalues --   -0.30320  -0.28617
 Alpha virt. eigenvalues --   -0.04132  -0.00996   0.05443   0.07789   0.08916
 Alpha virt. eigenvalues --    0.10118   0.10425   0.11224   0.13111   0.13828
 Alpha virt. eigenvalues --    0.14174   0.14652   0.15252   0.16420   0.16674
 Alpha virt. eigenvalues --    0.17225   0.18113   0.18629   0.19240   0.19427
 Alpha virt. eigenvalues --    0.19978   0.20579   0.21552   0.21860   0.24449
 Alpha virt. eigenvalues --    0.25175   0.25441   0.26737   0.28453   0.29292
 Alpha virt. eigenvalues --    0.30389   0.31797   0.33601   0.34578   0.36236
 Alpha virt. eigenvalues --    0.37113   0.38637   0.40359   0.41117   0.43512
 Alpha virt. eigenvalues --    0.44171   0.45822   0.46909   0.47291   0.48307
 Alpha virt. eigenvalues --    0.48783   0.49485   0.50124   0.50683   0.51238
 Alpha virt. eigenvalues --    0.52293   0.52858   0.55193   0.56145   0.57700
 Alpha virt. eigenvalues --    0.58754   0.59167   0.60732   0.62244   0.63319
 Alpha virt. eigenvalues --    0.63399   0.63904   0.65943   0.66333   0.66771
 Alpha virt. eigenvalues --    0.68052   0.68278   0.68606   0.69434   0.69792
 Alpha virt. eigenvalues --    0.70279   0.70673   0.71009   0.71336   0.71604
 Alpha virt. eigenvalues --    0.71848   0.72482   0.72936   0.73411   0.73653
 Alpha virt. eigenvalues --    0.74117   0.74678   0.75155   0.75457   0.75967
 Alpha virt. eigenvalues --    0.76572   0.77297   0.77707   0.78743   0.79958
 Alpha virt. eigenvalues --    0.80359   0.81982   0.83120   0.84824   0.86666
 Alpha virt. eigenvalues --    0.87987   0.90251   0.90682   0.91917   0.93622
 Alpha virt. eigenvalues --    0.95532   0.95570   0.98458   0.99766   1.00639
 Alpha virt. eigenvalues --    1.02759   1.05414   1.07278   1.09186   1.11238
 Alpha virt. eigenvalues --    1.12452   1.13630   1.15040   1.17211   1.17886
 Alpha virt. eigenvalues --    1.20492   1.21522   1.22683   1.25617   1.25941
 Alpha virt. eigenvalues --    1.28616   1.30436   1.32616   1.33947   1.34244
 Alpha virt. eigenvalues --    1.35483   1.36278   1.37505   1.38695   1.40598
 Alpha virt. eigenvalues --    1.44302   1.44644   1.46951   1.48129   1.49193
 Alpha virt. eigenvalues --    1.50772   1.56337   1.56599   1.57220   1.58419
 Alpha virt. eigenvalues --    1.58792   1.59555   1.61284   1.61796   1.62595
 Alpha virt. eigenvalues --    1.63423   1.64636   1.66260   1.67445   1.69470
 Alpha virt. eigenvalues --    1.70534   1.73214   1.74362   1.74701   1.75158
 Alpha virt. eigenvalues --    1.75600   1.78265   1.78869   1.79889   1.81071
 Alpha virt. eigenvalues --    1.81707   1.82130   1.82758   1.83320   1.83587
 Alpha virt. eigenvalues --    1.84620   1.84665   1.86652   1.87296   1.87872
 Alpha virt. eigenvalues --    1.88622   1.89672   1.91457   1.92859   1.93628
 Alpha virt. eigenvalues --    1.94207   1.95587   1.95817   1.96686   1.97337
 Alpha virt. eigenvalues --    1.99377   2.00278   2.01744   2.02099   2.03635
 Alpha virt. eigenvalues --    2.04741   2.05825   2.06243   2.07479   2.07987
 Alpha virt. eigenvalues --    2.10171   2.11333   2.12828   2.13816   2.14503
 Alpha virt. eigenvalues --    2.15613   2.16678   2.19737   2.22536   2.25108
 Alpha virt. eigenvalues --    2.26093   2.27905   2.30164   2.31664   2.32826
 Alpha virt. eigenvalues --    2.34580   2.36152   2.39137   2.39615   2.41098
 Alpha virt. eigenvalues --    2.42078   2.43599   2.44488   2.46751   2.47079
 Alpha virt. eigenvalues --    2.48008   2.48671   2.50833   2.52861   2.55179
 Alpha virt. eigenvalues --    2.56072   2.58525   2.60198   2.63563   2.66678
 Alpha virt. eigenvalues --    2.66865   2.67943   2.68797   2.71048   2.72496
 Alpha virt. eigenvalues --    2.73007   2.75371   2.76504   2.77813   2.78149
 Alpha virt. eigenvalues --    2.78680   2.79636   2.80581   2.82671   2.83545
 Alpha virt. eigenvalues --    2.85814   2.86953   2.87986   2.89149   2.90692
 Alpha virt. eigenvalues --    2.91301   2.93630   2.95642   2.96333   2.96969
 Alpha virt. eigenvalues --    2.99598   3.02570   3.05475   3.09532   3.12993
 Alpha virt. eigenvalues --    3.18023   3.19935   3.21754   3.24327   3.25387
 Alpha virt. eigenvalues --    3.26984   3.33173   3.37651   3.44847   3.47729
 Alpha virt. eigenvalues --    3.60667   3.66505   3.69597   3.70081   3.73478
          Condensed to atoms (all electrons):
               1          2          3          4          5          6
     1  C    4.663875   0.145400   0.082521  -0.106984  -0.035724   0.007978
     2  C    0.145400   5.723132   0.019350   0.074187   0.417697  -0.033824
     3  C    0.082521   0.019350   5.752768   0.131111  -0.036771   0.416930
     4  C   -0.106984   0.074187   0.131111   4.687147   0.008217  -0.035473
     5  H   -0.035724   0.417697  -0.036771   0.008217   0.583953  -0.006593
     6  H    0.007978  -0.033824   0.416930  -0.035473  -0.006593   0.585827
     7  C   -0.017179   0.010749   0.008243  -0.023347  -0.000165  -0.000117
     8  H   -0.003149   0.000564  -0.000749   0.002954  -0.000011  -0.000003
     9  H    0.006226  -0.001528   0.004536  -0.005884   0.000017  -0.000027
    10  H   -0.004541   0.002143  -0.001095   0.002097   0.000012   0.000024
    11  N    0.269215  -0.141037  -0.137344   0.290062   0.005088   0.004196
    12  O    0.000388   0.006544  -0.091201   0.690051  -0.000055   0.000976
    13  O    0.727329  -0.090814   0.006600   0.000491   0.001428  -0.000060
    14  C   -0.004238   0.007511  -0.056999   0.003993  -0.003079  -0.003581
    15  H   -0.000070   0.000539  -0.000740   0.000057   0.001078  -0.000046
    16  C    0.004471  -0.057681  -0.008089  -0.003769  -0.003254  -0.001097
    17  H    0.000048  -0.000684   0.000488  -0.000084  -0.000043   0.001309
    18  C   -0.008067   0.133067  -0.043462   0.001993  -0.004424   0.001494
    19  H   -0.005097   0.002403  -0.026107   0.006015   0.003405  -0.000243
    20  C   -0.001837  -0.024184   0.005074  -0.000277  -0.003860  -0.000033
    21  H    0.001717  -0.014532   0.001913  -0.000107   0.001341  -0.000023
    22  H    0.000240  -0.001841  -0.000224   0.000015   0.001706  -0.000005
    23  H   -0.000215   0.002474  -0.000192   0.000007  -0.000019   0.000002
    24  C    0.002025  -0.050794   0.133304  -0.006331   0.001712  -0.013972
    25  H    0.004658  -0.021227   0.000221  -0.002632  -0.000175   0.003798
    26  C   -0.000433   0.007110  -0.027333   0.001063  -0.000071  -0.001521
    27  H    0.000002  -0.000119   0.002108  -0.000173   0.000001   0.000401
    28  H    0.000022   0.000742  -0.008515   0.000671  -0.000015  -0.000956
    29  C    0.000003  -0.000092   0.000449   0.000018   0.000000   0.000925
    30  C    0.000000  -0.000012   0.000689  -0.000731   0.000000  -0.001135
    31  H    0.000000   0.000000  -0.000016  -0.000028   0.000000   0.000011
    32  H    0.000000   0.000001  -0.000008   0.000023   0.000000   0.000001
    33  H   -0.000006   0.000058  -0.001594  -0.000162  -0.000001   0.000955
    34  O   -0.000003   0.000244  -0.000341  -0.000700  -0.000002   0.007218
    35  O    0.000000  -0.000001  -0.000019   0.000005   0.000000  -0.000314
               7          8          9         10         11         12
     1  C   -0.017179  -0.003149   0.006226  -0.004541   0.269215   0.000388
     2  C    0.010749   0.000564  -0.001528   0.002143  -0.141037   0.006544
     3  C    0.008243  -0.000749   0.004536  -0.001095  -0.137344  -0.091201
     4  C   -0.023347   0.002954  -0.005884   0.002097   0.290062   0.690051
     5  H   -0.000165  -0.000011   0.000017   0.000012   0.005088  -0.000055
     6  H   -0.000117  -0.000003  -0.000027   0.000024   0.004196   0.000976
     7  C    4.480006   0.410177   0.398640   0.409136   0.250305  -0.005156
     8  H    0.410177   0.585146  -0.018760  -0.025486  -0.027326   0.000180
     9  H    0.398640  -0.018760   0.572829  -0.018088  -0.027410   0.016431
    10  H    0.409136  -0.025486  -0.018088   0.587235  -0.027767   0.000104
    11  N    0.250305  -0.027326  -0.027410  -0.027767   7.112410  -0.090186
    12  O   -0.005156   0.000180   0.016431   0.000104  -0.090186   7.713785
    13  O    0.008597   0.000682   0.000266   0.003513  -0.098602  -0.000013
    14  C    0.000010  -0.000001  -0.000001   0.000001   0.000073   0.000017
    15  H    0.000000   0.000000   0.000000   0.000000  -0.000006   0.000000
    16  C    0.000027  -0.000002   0.000004  -0.000001  -0.000279   0.000120
    17  H    0.000000   0.000000   0.000000   0.000000  -0.000008  -0.000007
    18  C   -0.000057   0.000091   0.000014  -0.000026  -0.004416   0.000015
    19  H   -0.000449  -0.000243  -0.000010   0.000069   0.004614  -0.000040
    20  C    0.000013  -0.000017  -0.000001   0.000006  -0.000141   0.000000
    21  H   -0.000043   0.000020   0.000001  -0.000023   0.001009   0.000000
    22  H    0.000000   0.000000   0.000000   0.000000  -0.000010   0.000000
    23  H   -0.000001   0.000002   0.000000   0.000000   0.000001   0.000000
    24  C   -0.000009   0.000126  -0.000041  -0.000013  -0.005483  -0.003637
    25  H   -0.000401  -0.000259  -0.000002   0.000039   0.005187  -0.001621
    26  C   -0.000024  -0.000014  -0.000029   0.000002   0.000839  -0.008440
    27  H    0.000000   0.000001  -0.000001   0.000000  -0.000015   0.000218
    28  H    0.000044   0.000023   0.000053  -0.000006  -0.000500   0.024975
    29  C    0.000000   0.000000   0.000000   0.000000   0.000001   0.000387
    30  C    0.000001   0.000000   0.000005   0.000000  -0.000032  -0.009699
    31  H    0.000000   0.000000   0.000000   0.000000   0.000000  -0.000037
    32  H    0.000000   0.000000   0.000000   0.000000   0.000000   0.000054
    33  H   -0.000010   0.000000  -0.000035   0.000001   0.000314   0.026621
    34  O    0.000000   0.000000   0.000000   0.000000  -0.000005   0.000032
    35  O    0.000000   0.000000   0.000000   0.000000   0.000000   0.000000
              13         14         15         16         17         18
     1  C    0.727329  -0.004238  -0.000070   0.004471   0.000048  -0.008067
     2  C   -0.090814   0.007511   0.000539  -0.057681  -0.000684   0.133067
     3  C    0.006600  -0.056999  -0.000740  -0.008089   0.000488  -0.043462
     4  C    0.000491   0.003993   0.000057  -0.003769  -0.000084   0.001993
     5  H    0.001428  -0.003079   0.001078  -0.003254  -0.000043  -0.004424
     6  H   -0.000060  -0.003581  -0.000046  -0.001097   0.001309   0.001494
     7  C    0.008597   0.000010   0.000000   0.000027   0.000000  -0.000057
     8  H    0.000682  -0.000001   0.000000  -0.000002   0.000000   0.000091
     9  H    0.000266  -0.000001   0.000000   0.000004   0.000000   0.000014
    10  H    0.003513   0.000001   0.000000  -0.000001   0.000000  -0.000026
    11  N   -0.098602   0.000073  -0.000006  -0.000279  -0.000008  -0.004416
    12  O   -0.000013   0.000017   0.000000   0.000120  -0.000007   0.000015
    13  O    7.694850   0.000178  -0.000003   0.000022   0.000000  -0.001826
    14  C    0.000178   4.975863   0.442013   0.393183  -0.047323   0.435741
    15  H   -0.000003   0.442013   0.631075  -0.051281  -0.012366  -0.067948
    16  C    0.000022   0.393183  -0.051281   4.993200   0.445386  -0.009259
    17  H    0.000000  -0.047323  -0.012366   0.445386   0.624177   0.013666
    18  C   -0.001826   0.435741  -0.067948  -0.009259   0.013666   5.005151
    19  H   -0.001352  -0.002289   0.007147  -0.033973  -0.000212   0.365721
    20  C   -0.009863  -0.059104  -0.012258   0.011719  -0.000182   0.394628
    21  H    0.026329   0.006607   0.000185  -0.000386   0.000010  -0.019422
    22  H    0.000147  -0.014374   0.005492   0.000636  -0.000010  -0.021066
    23  H   -0.000018  -0.002292   0.000232  -0.000399   0.000000  -0.011658
    24  C    0.000028  -0.013106   0.013958   0.378254  -0.076111  -0.044410
    25  H   -0.000066  -0.032329  -0.000231   0.005012   0.006564   0.016154
    26  C    0.000000   0.009840  -0.000165  -0.057783  -0.016339   0.000304
    27  H    0.000000  -0.000211   0.000001  -0.011982   0.000252  -0.000078
    28  H    0.000001  -0.000163   0.000007   0.012697   0.000773   0.000192
    29  C    0.000000   0.000001  -0.000001  -0.000778   0.000581   0.000000
    30  C    0.000000   0.000004   0.000000   0.000408   0.000222   0.000001
    31  H    0.000000   0.000000   0.000000  -0.000048  -0.000006   0.000000
    32  H    0.000000   0.000000   0.000000   0.000001  -0.000004   0.000000
    33  H    0.000000   0.000000   0.000000  -0.000173  -0.000029  -0.000004
    34  O    0.000000   0.000020  -0.000015   0.006455   0.012387   0.000017
    35  O    0.000000   0.000000   0.000000  -0.000089   0.000097   0.000000
              19         20         21         22         23         24
     1  C   -0.005097  -0.001837   0.001717   0.000240  -0.000215   0.002025
     2  C    0.002403  -0.024184  -0.014532  -0.001841   0.002474  -0.050794
     3  C   -0.026107   0.005074   0.001913  -0.000224  -0.000192   0.133304
     4  C    0.006015  -0.000277  -0.000107   0.000015   0.000007  -0.006331
     5  H    0.003405  -0.003860   0.001341   0.001706  -0.000019   0.001712
     6  H   -0.000243  -0.000033  -0.000023  -0.000005   0.000002  -0.013972
     7  C   -0.000449   0.000013  -0.000043   0.000000  -0.000001  -0.000009
     8  H   -0.000243  -0.000017   0.000020   0.000000   0.000002   0.000126
     9  H   -0.000010  -0.000001   0.000001   0.000000   0.000000  -0.000041
    10  H    0.000069   0.000006  -0.000023   0.000000   0.000000  -0.000013
    11  N    0.004614  -0.000141   0.001009  -0.000010   0.000001  -0.005483
    12  O   -0.000040   0.000000   0.000000   0.000000   0.000000  -0.003637
    13  O   -0.001352  -0.009863   0.026329   0.000147  -0.000018   0.000028
    14  C   -0.002289  -0.059104   0.006607  -0.014374  -0.002292  -0.013106
    15  H    0.007147  -0.012258   0.000185   0.005492   0.000232   0.013958
    16  C   -0.033973   0.011719  -0.000386   0.000636  -0.000399   0.378254
    17  H   -0.000212  -0.000182   0.000010  -0.000010   0.000000  -0.076111
    18  C    0.365721   0.394628  -0.019422  -0.021066  -0.011658  -0.044410
    19  H    0.633925  -0.036845  -0.004088   0.006069  -0.004359   0.019981
    20  C   -0.036845   4.575021   0.379025   0.399019   0.381258   0.000416
    21  H   -0.004088   0.379025   0.600373  -0.020203  -0.016920   0.000119
    22  H    0.006069   0.399019  -0.020203   0.608531  -0.019173   0.000032
    23  H   -0.004359   0.381258  -0.016920  -0.019173   0.598644  -0.000045
    24  C    0.019981   0.000416   0.000119   0.000032  -0.000045   5.259065
    25  H    0.001416   0.000384  -0.000010  -0.000008  -0.000015   0.355378
    26  C    0.000431  -0.000019  -0.000003   0.000002   0.000001   0.318250
    27  H   -0.000019   0.000001   0.000000   0.000000   0.000000  -0.012990
    28  H   -0.000050  -0.000003   0.000000   0.000000   0.000000  -0.028078
    29  C    0.000000   0.000000   0.000000   0.000000   0.000000   0.006844
    30  C    0.000000   0.000000   0.000000   0.000000   0.000000  -0.003131
    31  H    0.000000   0.000000   0.000000   0.000000   0.000000   0.001329
    32  H    0.000000   0.000000   0.000000   0.000000   0.000000  -0.000004
    33  H    0.000000   0.000000   0.000000   0.000000   0.000000  -0.000849
    34  O   -0.000007   0.000000   0.000000   0.000000   0.000000  -0.089504
    35  O    0.000000   0.000000   0.000000   0.000000   0.000000   0.000126
              25         26         27         28         29         30
     1  C    0.004658  -0.000433   0.000002   0.000022   0.000003   0.000000
     2  C   -0.021227   0.007110  -0.000119   0.000742  -0.000092  -0.000012
     3  C    0.000221  -0.027333   0.002108  -0.008515   0.000449   0.000689
     4  C   -0.002632   0.001063  -0.000173   0.000671   0.000018  -0.000731
     5  H   -0.000175  -0.000071   0.000001  -0.000015   0.000000   0.000000
     6  H    0.003798  -0.001521   0.000401  -0.000956   0.000925  -0.001135
     7  C   -0.000401  -0.000024   0.000000   0.000044   0.000000   0.000001
     8  H   -0.000259  -0.000014   0.000001   0.000023   0.000000   0.000000
     9  H   -0.000002  -0.000029  -0.000001   0.000053   0.000000   0.000005
    10  H    0.000039   0.000002   0.000000  -0.000006   0.000000   0.000000
    11  N    0.005187   0.000839  -0.000015  -0.000500   0.000001  -0.000032
    12  O   -0.001621  -0.008440   0.000218   0.024975   0.000387  -0.009699
    13  O   -0.000066   0.000000   0.000000   0.000001   0.000000   0.000000
    14  C   -0.032329   0.009840  -0.000211  -0.000163   0.000001   0.000004
    15  H   -0.000231  -0.000165   0.000001   0.000007  -0.000001   0.000000
    16  C    0.005012  -0.057783  -0.011982   0.012697  -0.000778   0.000408
    17  H    0.006564  -0.016339   0.000252   0.000773   0.000581   0.000222
    18  C    0.016154   0.000304  -0.000078   0.000192   0.000000   0.000001
    19  H    0.001416   0.000431  -0.000019  -0.000050   0.000000   0.000000
    20  C    0.000384  -0.000019   0.000001  -0.000003   0.000000   0.000000
    21  H   -0.000010  -0.000003   0.000000   0.000000   0.000000   0.000000
    22  H   -0.000008   0.000002   0.000000   0.000000   0.000000   0.000000
    23  H   -0.000015   0.000001   0.000000   0.000000   0.000000   0.000000
    24  C    0.355378   0.318250  -0.012990  -0.028078   0.006844  -0.003131
    25  H    0.611195  -0.023123   0.001021  -0.007311   0.000012   0.000028
    26  C   -0.023123   4.546867   0.388055   0.377738  -0.042881   0.011158
    27  H    0.001021   0.388055   0.596896  -0.025253   0.002022  -0.002189
    28  H   -0.007311   0.377738  -0.025253   0.612089  -0.018337   0.022298
    29  C    0.000012  -0.042881   0.002022  -0.018337   4.477252   0.335683
    30  C    0.000028   0.011158  -0.002189   0.022298   0.335683   4.929155
    31  H   -0.000014  -0.002230   0.000260  -0.000178  -0.001025   0.361819
    32  H   -0.000002   0.001222  -0.000029  -0.000594  -0.002703   0.358130
    33  H    0.000076  -0.006488   0.000807  -0.003598   0.003218   0.344459
    34  O    0.002886   0.295248  -0.027017  -0.025816   0.307126  -0.116758
    35  O    0.000002   0.001510   0.000094  -0.000021   0.738355  -0.104619
              31         32         33         34         35
     1  C    0.000000   0.000000  -0.000006  -0.000003   0.000000
     2  C    0.000000   0.000001   0.000058   0.000244  -0.000001
     3  C   -0.000016  -0.000008  -0.001594  -0.000341  -0.000019
     4  C   -0.000028   0.000023  -0.000162  -0.000700   0.000005
     5  H    0.000000   0.000000  -0.000001  -0.000002   0.000000
     6  H    0.000011   0.000001   0.000955   0.007218  -0.000314
     7  C    0.000000   0.000000  -0.000010   0.000000   0.000000
     8  H    0.000000   0.000000   0.000000   0.000000   0.000000
     9  H    0.000000   0.000000  -0.000035   0.000000   0.000000
    10  H    0.000000   0.000000   0.000001   0.000000   0.000000
    11  N    0.000000   0.000000   0.000314  -0.000005   0.000000
    12  O   -0.000037   0.000054   0.026621   0.000032   0.000000
    13  O    0.000000   0.000000   0.000000   0.000000   0.000000
    14  C    0.000000   0.000000   0.000000   0.000020   0.000000
    15  H    0.000000   0.000000   0.000000  -0.000015   0.000000
    16  C   -0.000048   0.000001  -0.000173   0.006455  -0.000089
    17  H   -0.000006  -0.000004  -0.000029   0.012387   0.000097
    18  C    0.000000   0.000000  -0.000004   0.000017   0.000000
    19  H    0.000000   0.000000   0.000000  -0.000007   0.000000
    20  C    0.000000   0.000000   0.000000   0.000000   0.000000
    21  H    0.000000   0.000000   0.000000   0.000000   0.000000
    22  H    0.000000   0.000000   0.000000   0.000000   0.000000
    23  H    0.000000   0.000000   0.000000   0.000000   0.000000
    24  C    0.001329  -0.000004  -0.000849  -0.089504   0.000126
    25  H   -0.000014  -0.000002   0.000076   0.002886   0.000002
    26  C   -0.002230   0.001222  -0.006488   0.295248   0.001510
    27  H    0.000260  -0.000029   0.000807  -0.027017   0.000094
    28  H   -0.000178  -0.000594  -0.003598  -0.025816  -0.000021
    29  C   -0.001025  -0.002703   0.003218   0.307126   0.738355
    30  C    0.361819   0.358130   0.344459  -0.116758  -0.104619
    31  H    0.559470  -0.011218  -0.011242   0.001612   0.001819
    32  H   -0.011218   0.575127  -0.008043   0.005056   0.007594
    33  H   -0.011242  -0.008043   0.557133   0.003147   0.001776
    34  O    0.001612   0.005056   0.003147   8.062135  -0.092471
    35  O    0.001819   0.007594   0.001776  -0.092471   7.732485
 Mulliken charges:
               1
     1  C    0.271426
     2  C   -0.115545
     3  C   -0.125507
     4  C    0.286505
     5  H    0.068608
     6  H    0.066976
     7  C    0.071012
     8  H    0.076054
     9  H    0.072797
    10  H    0.072662
    11  N   -0.382747
    12  O   -0.270804
    13  O   -0.267845
    14  C   -0.035966
    15  H    0.043347
    16  C   -0.011273
    17  H    0.047448
    18  C   -0.132127
    19  H    0.064187
    20  C    0.002057
    21  H    0.057110
    22  H    0.055024
    23  H    0.072685
    24  C   -0.142440
    25  H    0.075394
    26  C    0.227255
    27  H    0.087934
    28  H    0.067071
    29  C    0.192941
    30  C   -0.125756
    31  H    0.099725
    32  H    0.075396
    33  H    0.093670
    34  O   -0.350946
    35  O   -0.286329
 Sum of Mulliken charges =   0.00000
 Mulliken charges with hydrogens summed into heavy atoms:
               1
     1  C    0.271426
     2  C   -0.046938
     3  C   -0.058531
     4  C    0.286505
     7  C    0.292525
    11  N   -0.382747
    12  O   -0.270804
    13  O   -0.267845
    14  C    0.007382
    16  C    0.036175
    18  C   -0.067939
    20  C    0.186876
    24  C   -0.067046
    26  C    0.382260
    29  C    0.192941
    30  C    0.143036
    34  O   -0.350946
    35  O   -0.286329
 APT charges:
               1
     1  C    1.600757
     2  C   -0.254959
     3  C   -0.214892
     4  C    1.636498
     5  H    0.069088
     6  H    0.071758
     7  C    0.378899
     8  H   -0.007539
     9  H    0.062183
    10  H   -0.003078
    11  N   -1.214020
    12  O   -1.152306
    13  O   -1.096301
    14  C   -0.121477
    15  H    0.057548
    16  C   -0.080427
    17  H    0.093190
    18  C    0.120717
    19  H    0.021963
    20  C   -0.058265
    21  H    0.063355
    22  H    0.001753
    23  H   -0.012383
    24  C   -0.029690
    25  H    0.045459
    26  C    0.567245
    27  H   -0.057233
    28  H    0.050881
    29  C    1.687379
    30  C   -0.229727
    31  H    0.066622
    32  H    0.050410
    33  H    0.121278
    34  O   -1.207332
    35  O   -1.027357
 Sum of APT charges =   0.00000
 APT charges with hydrogens summed into heavy atoms:
               1
     1  C    1.600757
     2  C   -0.185871
     3  C   -0.143134
     4  C    1.636498
     7  C    0.430464
    11  N   -1.214020
    12  O   -1.152306
    13  O   -1.096301
    14  C   -0.063929
    16  C    0.012763
    18  C    0.142680
    20  C   -0.005539
    24  C    0.015769
    26  C    0.560893
    29  C    1.687379
    30  C    0.008583
    34  O   -1.207332
    35  O   -1.027357
 Electronic spatial extent (au):  <R**2>=           4947.8720
 Charge=              0.0000 electrons
 Dipole moment (field-independent basis, Debye):
    X=             -2.4714    Y=              0.3394    Z=              3.7511  Tot=              4.5049
 Quadrupole moment (field-independent basis, Debye-Ang):
   XX=           -131.0081   YY=           -103.0086   ZZ=           -103.9044
   XY=             11.4486   XZ=              7.8126   YZ=              1.7617
 Traceless Quadrupole moment (field-independent basis, Debye-Ang):
   XX=            -18.3677   YY=              9.6318   ZZ=              8.7360
   XY=             11.4486   XZ=              7.8126   YZ=              1.7617
 Octapole moment (field-independent basis, Debye-Ang**2):
  XXX=            -15.8587  YYY=              4.9388  ZZZ=              4.9188  XYY=            -26.9623
  XXY=             36.0928  XXZ=             72.3223  XZZ=             -3.4213  YZZ=              8.9103
  YYZ=             -4.2419  XYZ=            -18.8799
 Hexadecapole moment (field-independent basis, Debye-Ang**3):
 XXXX=          -4778.5045 YYYY=          -1764.4853 ZZZZ=           -433.0887 XXXY=            265.0581
 XXXZ=            152.2038 YYYX=            -66.4297 YYYZ=             43.8187 ZZZX=             20.3629
 ZZZY=             16.1862 XXYY=           -945.0644 XXZZ=           -788.9791 YYZZ=           -383.2431
 XXYZ=            -21.0457 YYXZ=             -3.5096 ZZXY=              1.3555
 N-N= 1.376912571143D+03 E-N=-4.756459724572D+03  KE= 8.519160385373D+02
  Exact polarizability: 261.985  10.532 230.881   9.226   0.083 158.932
 Approx polarizability: 246.220   9.896 215.897  11.827  -2.552 160.893
   1 Symmetry operations used in ECPInt.
 ECPInt:  NShTT=   12720 NPrTT=   45736 LenC2=   11876 LenP2D=   30569.
 LDataN:  DoStor=T MaxTD1= 6 Len=  172
 D2PCM: C-PCM CHGder 2nd derivatives, FixD1E=F FixD2E=F DoIter=F DoCFld=F I1PDM=0
 Calling FoFJK, ICntrl=    100127 FMM=F ISym2X=0 I1Cent= 0 IOpClX= 0 NMat=1 NMatS=1 NMatT=0.
 Full mass-weighted force constant matrix:
 Low frequencies --- -426.1956   -5.4667   -0.0011   -0.0010   -0.0010    8.2540
 Low frequencies ---   15.1825   34.9935   43.8100
 ******    1 imaginary frequencies (negative Signs) ****** 
 Diagonal vibrational polarizability:
      106.8796832      92.2919753     165.7612807
 Harmonic frequencies (cm**-1), IR intensities (KM/Mole), Raman scattering
 activities (A**4/AMU), depolarization ratios for plane and unpolarized
 incident light, reduced masses (AMU), force constants (mDyne/A),
 and normal coordinates:
                      1                      2                      3
                      A                      A                      A
 Frequencies --   -426.1954                34.5655                43.6117
 Red. masses --      8.4993                 6.1704                 5.5199
 Frc consts  --      0.9096                 0.0043                 0.0062
 IR Inten    --     20.0410                 7.8633                 1.0326
  Atom  AN      X      Y      Z        X      Y      Z        X      Y      Z
     1   6     0.00  -0.05   0.03    -0.07   0.01   0.08     0.04   0.00  -0.08
     2   6    -0.08  -0.26   0.32    -0.08   0.04   0.00     0.11   0.03  -0.01
     3   6     0.08  -0.20   0.37    -0.07   0.06  -0.06     0.07   0.06   0.09
     4   6     0.02  -0.04   0.03    -0.06   0.05  -0.04    -0.02   0.03   0.13
     5   1     0.04   0.14  -0.07    -0.11   0.07  -0.01     0.18   0.03  -0.04
     6   1    -0.09   0.09  -0.08    -0.10   0.09  -0.12     0.11   0.11   0.13
     7   6     0.01  -0.01  -0.02    -0.04  -0.01   0.10    -0.13  -0.04   0.02
     8   1     0.01  -0.02  -0.02     0.00  -0.04   0.11    -0.15  -0.08  -0.01
     9   1     0.01  -0.01  -0.02    -0.03  -0.01   0.09    -0.17  -0.01   0.06
    10   1     0.00  -0.01  -0.01    -0.07   0.01   0.14    -0.12  -0.07  -0.01
    11   7     0.01  -0.01  -0.03    -0.05   0.02   0.05    -0.04  -0.01   0.03
    12   8     0.00   0.01  -0.01    -0.05   0.07  -0.09    -0.07   0.04   0.25
    13   8     0.00   0.01  -0.01    -0.08  -0.02   0.16     0.05  -0.01  -0.20
    14   6     0.07   0.01  -0.01     0.05   0.03  -0.10     0.03   0.04   0.03
    15   1    -0.02  -0.06   0.14     0.09   0.05  -0.13     0.04   0.03   0.03
    16   6    -0.05  -0.04  -0.03     0.04   0.06  -0.09     0.03   0.03   0.06
    17   1     0.00  -0.09   0.18     0.06   0.09  -0.10     0.03   0.02   0.07
    18   6     0.07   0.27  -0.24     0.03  -0.02  -0.06     0.03   0.04  -0.02
    19   1     0.00  -0.04   0.12     0.00  -0.05  -0.02     0.02   0.06  -0.03
    20   6     0.05   0.07  -0.04     0.04  -0.06  -0.07     0.05   0.04  -0.05
    21   1    -0.13   0.00   0.06    -0.01  -0.05   0.02     0.07   0.03  -0.11
    22   1     0.05   0.10  -0.08     0.07   0.01  -0.14     0.06   0.01   0.00
    23   1     0.24  -0.04   0.04     0.08  -0.17  -0.09     0.01   0.09  -0.05
    24   6    -0.11   0.21  -0.30     0.00   0.06  -0.07     0.04   0.02   0.07
    25   1     0.01  -0.02   0.07    -0.02   0.04  -0.08     0.04   0.02   0.08
    26   6    -0.06   0.02  -0.06    -0.02   0.09  -0.03     0.05   0.00   0.06
    27   1    -0.22  -0.15  -0.04    -0.11   0.22   0.05     0.04   0.03   0.07
    28   1     0.07   0.03   0.05    -0.01   0.09  -0.17     0.07   0.00   0.03
    29   6     0.00   0.00   0.00     0.09  -0.10   0.06    -0.05  -0.06  -0.08
    30   6     0.00   0.00   0.00    -0.01  -0.02  -0.21    -0.10  -0.01  -0.27
    31   1     0.01   0.00   0.00    -0.03   0.19  -0.22     0.04   0.13  -0.31
    32   1     0.00   0.00  -0.01    -0.02  -0.08  -0.27    -0.21  -0.03  -0.43
    33   1     0.00   0.00   0.00    -0.03  -0.10  -0.32    -0.16  -0.08  -0.20
    34   8     0.00   0.01   0.00     0.08  -0.04   0.12     0.04  -0.06   0.09
    35   8     0.00   0.00   0.00     0.18  -0.22   0.23    -0.08  -0.12  -0.07
                      4                      5                      6
                      A                      A                      A
 Frequencies --     58.7655                81.9034                95.6762
 Red. masses --      5.1889                 4.2426                 3.4656
 Frc consts  --      0.0106                 0.0168                 0.0187
 IR Inten    --      1.4263                 7.6425                 2.6148
  Atom  AN      X      Y      Z        X      Y      Z        X      Y      Z
     1   6     0.05   0.01   0.06     0.01   0.01  -0.03     0.03  -0.04  -0.05
     2   6     0.01  -0.01   0.01    -0.01  -0.02  -0.02     0.03  -0.02  -0.09
     3   6     0.02  -0.04  -0.03     0.00  -0.05  -0.02     0.03  -0.02  -0.09
     4   6     0.08  -0.02  -0.06     0.03  -0.06   0.01     0.03  -0.04  -0.06
     5   1    -0.03   0.01   0.01    -0.02  -0.01  -0.02     0.03  -0.01  -0.09
     6   1     0.01  -0.09  -0.03    -0.01  -0.05  -0.04     0.03  -0.02  -0.09
     7   6     0.16   0.03   0.01     0.06  -0.03   0.02     0.03  -0.22   0.24
     8   1     0.18   0.06   0.03     0.03  -0.04   0.00     0.24  -0.35   0.33
     9   1     0.19   0.01  -0.02     0.08  -0.07   0.06     0.01  -0.14   0.13
    10   1     0.16   0.05   0.03     0.09   0.02   0.03    -0.17  -0.25   0.41
    11   7     0.10   0.01   0.00     0.03  -0.03   0.00     0.03  -0.10   0.03
    12   8     0.11  -0.03  -0.12     0.04  -0.08   0.03     0.02  -0.02  -0.08
    13   8     0.04   0.02   0.13     0.02   0.05  -0.07     0.03  -0.03  -0.06
    14   6     0.02  -0.03  -0.02    -0.07  -0.01  -0.02    -0.04   0.06   0.07
    15   1     0.07  -0.02  -0.05    -0.14  -0.02   0.00    -0.04   0.02   0.14
    16   6     0.00  -0.01   0.05    -0.04  -0.07  -0.07    -0.04   0.06   0.07
    17   1     0.02   0.00   0.10    -0.07  -0.09  -0.10    -0.04   0.03   0.14
    18   6     0.00  -0.05  -0.07    -0.03   0.04   0.04    -0.03   0.09  -0.02
    19   1    -0.06  -0.08  -0.03     0.05   0.05   0.02    -0.03   0.13  -0.06
    20   6     0.03  -0.06  -0.17    -0.08   0.10   0.15    -0.03   0.08  -0.01
    21   1     0.03  -0.03  -0.11    -0.05   0.10   0.11     0.01   0.05  -0.12
    22   1     0.10   0.02  -0.25    -0.19   0.03   0.22    -0.03   0.00   0.08
    23   1     0.01  -0.17  -0.23    -0.06   0.22   0.22    -0.06   0.20   0.01
    24   6    -0.04  -0.01   0.06     0.01  -0.08  -0.06    -0.03   0.09  -0.01
    25   1    -0.08   0.00   0.00     0.02  -0.08  -0.03    -0.04   0.13  -0.06
    26   6    -0.04  -0.01   0.13     0.01  -0.09  -0.02    -0.03   0.08  -0.01
    27   1    -0.09  -0.02   0.15    -0.02  -0.16  -0.03    -0.04   0.09   0.00
    28   1    -0.03  -0.01   0.14     0.00  -0.09   0.06    -0.01   0.08  -0.03
    29   6    -0.14   0.05   0.01     0.01   0.07   0.02    -0.01   0.01   0.01
    30   6    -0.22   0.08  -0.11    -0.22   0.13  -0.11     0.04   0.00   0.01
    31   1    -0.11   0.17  -0.13    -0.18   0.25  -0.13     0.02   0.00   0.02
    32   1    -0.31   0.10  -0.22    -0.31   0.21  -0.18     0.07  -0.03   0.03
    33   1    -0.28   0.00  -0.05    -0.31  -0.03  -0.10     0.07   0.04  -0.01
    34   8     0.01  -0.01   0.18     0.05  -0.02  -0.02    -0.03   0.04   0.01
    35   8    -0.19   0.06  -0.04     0.18   0.10   0.14    -0.03  -0.02   0.00
                      7                      8                      9
                      A                      A                      A
 Frequencies --    100.0109               117.9686               153.3401
 Red. masses --      1.0374                 5.9945                 3.5485
 Frc consts  --      0.0061                 0.0492                 0.0492
 IR Inten    --      0.2663                 1.1674                 0.1168
  Atom  AN      X      Y      Z        X      Y      Z        X      Y      Z
     1   6     0.00  -0.01   0.00     0.04   0.00   0.03     0.09  -0.04   0.02
     2   6     0.00   0.00  -0.01     0.04   0.01   0.03     0.14   0.05  -0.02
     3   6     0.00   0.00  -0.01     0.04  -0.02   0.07     0.12   0.05   0.06
     4   6     0.00  -0.01  -0.01     0.04   0.00   0.05     0.05   0.09   0.01
     5   1     0.00   0.00  -0.01     0.05  -0.01   0.04     0.19   0.03  -0.03
     6   1     0.00   0.00  -0.01     0.06  -0.06   0.13     0.14   0.11   0.06
     7   6     0.00  -0.02   0.02     0.04   0.03   0.00    -0.04  -0.01  -0.02
     8   1    -0.45  -0.10  -0.30     0.04   0.06   0.00    -0.09  -0.04  -0.07
     9   1     0.05  -0.30   0.53     0.05   0.04  -0.02    -0.09   0.02   0.04
    10   1     0.43   0.34  -0.13     0.05   0.02  -0.02    -0.02  -0.03  -0.06
    11   7     0.00  -0.01   0.00     0.04   0.01   0.03     0.04   0.02   0.00
    12   8     0.00  -0.01  -0.01     0.04   0.00   0.05     0.01   0.17  -0.05
    13   8     0.00   0.00   0.00     0.04   0.00   0.04     0.08  -0.15   0.10
    14   6     0.00   0.01   0.01    -0.04  -0.04   0.14    -0.02  -0.03  -0.07
    15   1     0.00   0.00   0.02     0.02  -0.06   0.16    -0.03  -0.04  -0.06
    16   6     0.00   0.01   0.01    -0.06  -0.01   0.18    -0.03  -0.01  -0.09
    17   1     0.00   0.01   0.02    -0.05  -0.02   0.22    -0.01   0.02  -0.10
    18   6     0.00   0.01   0.00    -0.07  -0.07   0.00    -0.02  -0.04  -0.01
    19   1     0.00   0.01  -0.01    -0.18  -0.04  -0.03     0.03  -0.02  -0.04
    20   6     0.00   0.00   0.00     0.00  -0.10  -0.23    -0.05  -0.01   0.09
    21   1     0.00   0.00  -0.01     0.06  -0.09  -0.30     0.10  -0.09  -0.26
    22   1     0.00   0.00   0.00     0.15  -0.07  -0.24    -0.14  -0.30   0.42
    23   1     0.00   0.01   0.00    -0.14  -0.14  -0.33    -0.16   0.45   0.20
    24   6     0.00   0.01   0.00    -0.05   0.02   0.09    -0.06   0.00  -0.07
    25   1     0.00   0.02  -0.01    -0.03   0.07   0.08    -0.07  -0.05  -0.04
    26   6     0.00   0.01   0.00    -0.03   0.03  -0.09    -0.07  -0.01  -0.02
    27   1     0.00   0.02   0.00     0.16  -0.03  -0.18    -0.10  -0.03  -0.02
    28   1     0.00   0.01  -0.01    -0.04   0.03  -0.02    -0.06  -0.01  -0.01
    29   6     0.00   0.00   0.00    -0.01   0.02  -0.06    -0.05  -0.02   0.01
    30   6     0.01   0.00   0.00    -0.04   0.04  -0.11    -0.06  -0.02   0.01
    31   1     0.01   0.00   0.00    -0.01   0.06  -0.11    -0.08  -0.02   0.02
    32   1     0.01  -0.01   0.00    -0.04   0.03  -0.12    -0.04  -0.02   0.04
    33   1     0.01   0.01   0.00    -0.05   0.01  -0.10    -0.05  -0.01  -0.01
    34   8     0.00   0.01   0.00    -0.21   0.11  -0.29    -0.07  -0.01  -0.01
    35   8    -0.01   0.00   0.00     0.16  -0.05   0.13    -0.04  -0.03   0.03
                     10                     11                     12
                      A                      A                      A
 Frequencies --    161.1722               175.1344               179.0610
 Red. masses --      4.5413                 5.1677                 1.5642
 Frc consts  --      0.0695                 0.0934                 0.0295
 IR Inten    --      3.5209                11.3372                 0.4303
  Atom  AN      X      Y      Z        X      Y      Z        X      Y      Z
     1   6     0.03   0.06  -0.05     0.02   0.01   0.03     0.03  -0.02  -0.03
     2   6     0.00   0.03   0.00     0.03   0.00   0.09     0.04   0.01  -0.03
     3   6     0.01  -0.02   0.04     0.02   0.03   0.09     0.04   0.02  -0.01
     4   6     0.03  -0.01   0.03    -0.02   0.08  -0.02     0.02   0.02  -0.02
     5   1    -0.01   0.03   0.00     0.05  -0.01   0.09     0.05  -0.01  -0.02
     6   1     0.00  -0.01   0.02     0.03   0.03   0.10     0.05   0.01   0.01
     7   6     0.09   0.01   0.08    -0.08  -0.03   0.08    -0.02  -0.03   0.00
     8   1     0.11   0.00   0.09    -0.16  -0.04   0.04     0.01  -0.13  -0.01
     9   1     0.12  -0.02   0.08    -0.11  -0.03   0.15    -0.04  -0.02   0.03
    10   1     0.09   0.06   0.12    -0.03  -0.03   0.03    -0.06  -0.01   0.06
    11   7     0.04   0.02   0.03    -0.02  -0.04   0.14     0.01   0.04  -0.10
    12   8     0.04  -0.02   0.02    -0.05   0.24  -0.29     0.01   0.00   0.05
    13   8     0.04   0.15  -0.18     0.03   0.09  -0.16     0.02  -0.08   0.06
    14   6     0.07  -0.07  -0.07    -0.01  -0.04   0.02    -0.02   0.03  -0.02
    15   1     0.11  -0.06  -0.09    -0.03  -0.01  -0.04    -0.03   0.05  -0.04
    16   6     0.03   0.03  -0.10     0.01  -0.09   0.04    -0.02   0.01  -0.01
    17   1     0.08   0.12  -0.13    -0.01  -0.10   0.00    -0.02   0.01  -0.01
    18   6     0.03  -0.15   0.04     0.02  -0.02   0.05    -0.01   0.03   0.01
    19   1     0.04  -0.14   0.03     0.03  -0.05   0.09     0.00   0.02   0.03
    20   6     0.01  -0.22   0.18     0.02   0.04  -0.02    -0.01   0.03   0.04
    21   1    -0.13  -0.20   0.39    -0.07   0.16   0.32    -0.22   0.14   0.54
    22   1    -0.03  -0.11   0.05     0.03   0.32  -0.34    -0.01   0.37  -0.35
    23   1     0.19  -0.40   0.22     0.11  -0.35  -0.12     0.22  -0.50  -0.02
    24   6    -0.08   0.05  -0.06     0.04  -0.11   0.08    -0.01   0.01   0.01
    25   1    -0.11  -0.05  -0.01     0.05  -0.10   0.08    -0.01   0.02   0.00
    26   6    -0.11   0.11  -0.03     0.04  -0.10   0.01    -0.01  -0.01   0.01
    27   1    -0.13   0.15  -0.01     0.11  -0.09  -0.01     0.01  -0.05  -0.01
    28   1    -0.12   0.11  -0.07     0.01  -0.10   0.02     0.01  -0.01   0.04
    29   6    -0.06   0.00   0.01     0.00  -0.02  -0.01    -0.02   0.00   0.00
    30   6     0.01   0.00  -0.01    -0.07  -0.03   0.03    -0.02   0.00   0.00
    31   1    -0.03   0.01  -0.01    -0.10  -0.04   0.04     0.00  -0.01   0.00
    32   1     0.06  -0.05   0.01    -0.07   0.02   0.06    -0.03   0.00  -0.01
    33   1     0.05   0.04  -0.06    -0.08  -0.05   0.02    -0.03  -0.01   0.03
    34   8    -0.11   0.07   0.00     0.00  -0.06  -0.04    -0.03   0.00  -0.02
    35   8    -0.07  -0.07   0.04     0.03   0.02   0.00     0.00  -0.01   0.02
                     13                     14                     15
                      A                      A                      A
 Frequencies --    197.5043               211.3480               242.0932
 Red. masses --      3.8620                 4.5216                 1.5039
 Frc consts  --      0.0888                 0.1190                 0.0519
 IR Inten    --      3.7786                 2.2212                 7.4063
  Atom  AN      X      Y      Z        X      Y      Z        X      Y      Z
     1   6     0.03  -0.09   0.08    -0.04   0.01  -0.01     0.00  -0.01   0.00
     2   6     0.02  -0.01  -0.05    -0.04  -0.04   0.03     0.00  -0.01   0.01
     3   6     0.02  -0.01  -0.06    -0.04  -0.01  -0.02     0.00  -0.01   0.02
     4   6     0.01  -0.09   0.07    -0.02  -0.02  -0.05     0.00   0.00   0.00
     5   1     0.00   0.02  -0.07    -0.05  -0.02   0.02     0.00   0.00   0.01
     6   1     0.03   0.01  -0.04    -0.03  -0.08   0.05     0.00  -0.01   0.02
     7   6     0.01   0.02  -0.16     0.00  -0.02   0.03    -0.01  -0.01   0.00
     8   1    -0.12   0.36  -0.13     0.05  -0.09   0.03    -0.02  -0.01   0.00
     9   1     0.01   0.07  -0.27     0.02  -0.04   0.05    -0.02   0.00   0.01
    10   1     0.12  -0.17  -0.42    -0.03   0.05   0.11    -0.01  -0.01   0.00
    11   7     0.02  -0.21   0.27    -0.03   0.04  -0.09     0.00   0.00   0.00
    12   8     0.00  -0.04  -0.01    -0.01  -0.04  -0.03     0.01   0.01  -0.04
    13   8     0.04  -0.02   0.01    -0.04   0.00   0.01     0.00  -0.01  -0.01
    14   6     0.00   0.05  -0.08     0.14   0.01  -0.13    -0.03   0.03  -0.04
    15   1     0.00   0.08  -0.14     0.12   0.06  -0.21    -0.01   0.05  -0.07
    16   6     0.00   0.04  -0.05     0.12  -0.02  -0.02    -0.03   0.04  -0.03
    17   1     0.01   0.07  -0.10     0.15   0.05  -0.07    -0.04   0.04  -0.05
    18   6     0.01   0.05  -0.02     0.19   0.07  -0.07    -0.06  -0.01   0.00
    19   1     0.05   0.03   0.00     0.27   0.01  -0.01    -0.07  -0.02   0.01
    20   6    -0.02   0.11   0.01     0.13   0.16   0.05    -0.05  -0.05   0.01
    21   1    -0.08   0.20   0.25     0.20   0.14  -0.09    -0.06  -0.08  -0.02
    22   1    -0.07   0.27  -0.17     0.00   0.01   0.21    -0.03  -0.08   0.04
    23   1     0.08  -0.09   0.00     0.11   0.41   0.14    -0.04  -0.03   0.02
    24   6    -0.01   0.01   0.02     0.03  -0.08   0.18     0.00   0.02   0.01
    25   1    -0.04   0.00   0.00    -0.01  -0.14   0.16     0.01   0.02   0.03
    26   6    -0.04   0.07   0.00     0.00  -0.02   0.09     0.03  -0.06   0.08
    27   1    -0.01   0.11   0.01     0.17  -0.09   0.00     0.02  -0.24   0.03
    28   1    -0.07   0.07  -0.02    -0.05  -0.02   0.18     0.10  -0.05   0.26
    29   6    -0.02   0.02   0.00    -0.08  -0.01   0.01     0.02   0.03   0.00
    30   6     0.04   0.02  -0.02    -0.04  -0.02   0.01     0.09   0.03  -0.03
    31   1     0.03   0.02  -0.02     0.11  -0.06  -0.01     0.61  -0.03  -0.12
    32   1     0.05  -0.02  -0.02    -0.11   0.00  -0.08    -0.19   0.09  -0.39
    33   1     0.05   0.04  -0.03    -0.08  -0.03   0.16    -0.03   0.00   0.43
    34   8    -0.06   0.07  -0.01    -0.19   0.07  -0.10     0.01   0.05   0.00
    35   8    -0.03  -0.04   0.02    -0.04  -0.08   0.08     0.01  -0.01   0.01
                     16                     17                     18
                      A                      A                      A
 Frequencies --    256.0343               279.8030               286.3462
 Red. masses --      2.9642                 2.7075                 2.8878
 Frc consts  --      0.1145                 0.1249                 0.1395
 IR Inten    --      5.9806                 4.2684                 3.8079
  Atom  AN      X      Y      Z        X      Y      Z        X      Y      Z
     1   6    -0.01   0.01   0.00     0.01   0.04   0.00    -0.04  -0.02  -0.02
     2   6    -0.01   0.05  -0.08    -0.01   0.04  -0.06     0.02   0.02  -0.04
     3   6     0.00   0.06  -0.09     0.00   0.03  -0.07     0.01   0.04  -0.02
     4   6     0.00   0.01  -0.01     0.02   0.02  -0.01    -0.06   0.02   0.00
     5   1    -0.02   0.10  -0.12    -0.03   0.05  -0.06     0.03   0.03  -0.05
     6   1    -0.02   0.09  -0.12    -0.02   0.05  -0.10     0.02   0.07  -0.02
     7   6     0.00   0.02  -0.02    -0.13  -0.04  -0.03     0.23   0.11   0.05
     8   1    -0.03   0.10  -0.01    -0.17  -0.10  -0.08     0.29   0.26   0.14
     9   1     0.00   0.03  -0.06    -0.23   0.06   0.02     0.42  -0.08  -0.07
    10   1     0.02  -0.03  -0.09    -0.15  -0.14  -0.10     0.28   0.27   0.13
    11   7     0.00  -0.04   0.08     0.03   0.01   0.01    -0.05  -0.01   0.02
    12   8    -0.01   0.01   0.00     0.03   0.00   0.02    -0.12   0.08   0.03
    13   8    -0.01   0.02   0.01     0.01   0.11   0.07    -0.04  -0.13  -0.06
    14   6     0.05   0.06   0.04     0.03  -0.15   0.09     0.00  -0.07   0.05
    15   1     0.06  -0.01   0.18     0.00  -0.24   0.26    -0.03  -0.12   0.14
    16   6     0.01   0.08   0.06     0.02  -0.12   0.07     0.00  -0.08   0.05
    17   1     0.03   0.04   0.21     0.05  -0.18   0.25     0.01  -0.13   0.14
    18   6     0.05   0.08  -0.08     0.08  -0.05  -0.03     0.04   0.01  -0.05
    19   1     0.01   0.13  -0.14     0.15   0.00  -0.09     0.07   0.04  -0.09
    20   6     0.08  -0.13   0.06     0.04   0.07   0.01     0.01   0.04   0.01
    21   1    -0.09  -0.26   0.03     0.07   0.14   0.10    -0.02   0.06   0.09
    22   1     0.13  -0.20   0.15    -0.07   0.11  -0.05    -0.04   0.08  -0.04
    23   1     0.22  -0.13   0.16     0.06   0.05   0.01     0.07  -0.01   0.03
    24   6    -0.01   0.12  -0.05    -0.04  -0.03  -0.12    -0.01  -0.04  -0.05
    25   1     0.01   0.19  -0.09    -0.09  -0.01  -0.20    -0.04  -0.03  -0.09
    26   6     0.06  -0.10   0.02    -0.07   0.01  -0.03    -0.04   0.01  -0.03
    27   1     0.02  -0.32  -0.04    -0.13   0.00  -0.01    -0.06   0.05  -0.01
    28   1     0.22  -0.09   0.19    -0.08   0.01  -0.02    -0.07   0.00  -0.06
    29   6    -0.04  -0.05   0.00    -0.01   0.02   0.01     0.00   0.01   0.00
    30   6    -0.13  -0.07   0.08     0.04   0.02   0.00     0.02   0.01   0.00
    31   1    -0.06  -0.13   0.07     0.37  -0.04  -0.06     0.27  -0.04  -0.04
    32   1    -0.20   0.04   0.06    -0.14   0.05  -0.23    -0.11   0.04  -0.16
    33   1    -0.18  -0.12   0.18    -0.03   0.01   0.30    -0.03   0.00   0.23
    34   8    -0.03  -0.10  -0.06     0.00   0.02   0.02     0.01   0.00   0.02
    35   8     0.03   0.02   0.01    -0.02  -0.01   0.01     0.00   0.00   0.00
                     19                     20                     21
                      A                      A                      A
 Frequencies --    310.0258               343.9490               368.1384
 Red. masses --      2.6084                 1.7472                 3.0555
 Frc consts  --      0.1477                 0.1218                 0.2440
 IR Inten    --      0.2112                 4.1069                 1.0789
  Atom  AN      X      Y      Z        X      Y      Z        X      Y      Z
     1   6     0.00  -0.03   0.01     0.01   0.01   0.00     0.00   0.01   0.00
     2   6     0.00  -0.03   0.05     0.01  -0.01   0.00     0.00   0.00   0.01
     3   6    -0.01   0.00  -0.03     0.01  -0.02   0.03     0.01   0.04  -0.06
     4   6    -0.01   0.00  -0.01     0.01  -0.02   0.01     0.01   0.01  -0.01
     5   1    -0.03  -0.13   0.15     0.02   0.02  -0.02    -0.02  -0.02   0.03
     6   1    -0.03   0.03  -0.07     0.02  -0.06   0.07     0.00   0.05  -0.08
     7   6     0.02   0.00   0.00    -0.01  -0.01  -0.01    -0.01   0.00   0.00
     8   1     0.02   0.00   0.01    -0.02  -0.03  -0.02    -0.01   0.01   0.00
     9   1     0.03  -0.01   0.00    -0.03   0.00   0.01    -0.01   0.01   0.00
    10   1     0.02   0.01   0.01    -0.02  -0.03  -0.01     0.00  -0.01  -0.01
    11   7     0.00   0.00  -0.01     0.01   0.00  -0.01     0.00   0.00   0.01
    12   8     0.00  -0.02   0.02     0.01   0.00   0.00     0.00   0.01   0.01
    13   8     0.01  -0.02  -0.03     0.01   0.02   0.02     0.01   0.00  -0.01
    14   6     0.04   0.01   0.04    -0.03   0.06  -0.01    -0.08   0.08   0.11
    15   1     0.05   0.08  -0.08    -0.06   0.07  -0.02    -0.30   0.07   0.18
    16   6     0.04   0.09  -0.09     0.00  -0.02   0.00     0.02  -0.10  -0.13
    17   1     0.04   0.15  -0.18    -0.03  -0.02  -0.10    -0.07  -0.17  -0.25
    18   6     0.01  -0.07   0.23    -0.02   0.08  -0.05     0.00   0.19   0.11
    19   1     0.00  -0.11   0.28    -0.05   0.09  -0.06    -0.09   0.22   0.07
    20   6     0.06   0.08  -0.07     0.01  -0.05   0.01     0.14  -0.08  -0.02
    21   1     0.26   0.18  -0.14    -0.09  -0.13  -0.02     0.01  -0.25  -0.18
    22   1     0.16   0.15  -0.14     0.07  -0.09   0.06     0.47  -0.10   0.03
    23   1    -0.21   0.06  -0.25     0.08  -0.06   0.05     0.07  -0.18  -0.11
    24   6    -0.01   0.09  -0.10     0.03  -0.07   0.09     0.03  -0.13  -0.08
    25   1    -0.01   0.07  -0.08     0.04  -0.09   0.13    -0.02  -0.23  -0.06
    26   6    -0.01   0.02  -0.05    -0.03   0.11  -0.10    -0.04  -0.05   0.03
    27   1    -0.08   0.01  -0.03     0.05   0.48  -0.02    -0.06  -0.12   0.01
    28   1     0.05   0.02  -0.05    -0.19   0.09  -0.42    -0.09  -0.04   0.12
[...]
 095033,-0.00022896,-0.00001582,-0.00003567,0.00009987,-0.00002580,0.00
 000284,0.00002437,0.00006310,-0.00007318,-0.00048602,-0.00033941,-0.00
 012683,0.00002097,-0.00000265,-0.00000317,-0.00001852,0.00001303,-0.00
 005081,-0.00002926,0.00007150,0.00004546,0.00001354,-0.00001223,-0.000
 01107,-0.00001092,0.00000488,0.00000195,0.00001485,-0.00001414,-0.0000
 0536,0.00036811,0.00009703,0.00001869,0.00090030,0.00036658,0.00036567
 ,0.00020787,-0.00000734,0.00001667,-0.00001051,-0.00004256,-0.00003970
 ,0.00002743,0.00002134,0.00001311,0.00030614,0.00019372,0.00008844,0.0
 0001906,-0.00015103,-0.00003935,0.00000311,-0.00000465,0.00005218,0.00
 000054,0.00001679,0.00000745,0.00002301,-0.00000815,-0.00003598,0.0000
 0587,-0.00000016,0.00001100,0.00000422,0.00000863,0.00000678,0.0000240
 0,0.00001385,0.00000867,-0.00020735,0.00014247,-0.00024935,0.00012501,
 0.00002658,0.00001628,0.00041688,0.00276817,0.00070480,0.00000418,0.00
 019411,-0.00000712,0.00061793,0.00129409,-0.00031508,-0.00759063,-0.02
 274884,-0.09908710,-0.04100735,-0.01939520,0.57752524,-0.00006383,0.00
 002301,0.00001299,0.00004875,0.00000513,-0.00000148,0.00000689,-0.0000
 0329,-0.00004363,-0.00003001,0.00004184,0.00000372,0.00000770,-0.00000
 456,-0.00000026,0.00005360,0.00001379,0.00001708,-0.00000549,0.0000145
 0,0.00000965,0.00000259,-0.00000347,-0.00000301,-0.00000059,-0.0000015
 0,-0.00000079,0.00000277,-0.00000307,-0.00000145,0.00004567,0.00000717
 ,-0.00002219,-0.00005099,0.00007397,0.00021515,0.00005267,-0.00001032,
 0.00000011,-0.00002676,0.00001916,0.00000441,0.00001670,0.00001145,0.0
 0000539,0.00018005,0.00003051,0.00006424,-0.00000115,0.00000342,0.0000
 0263,0.00000580,-0.00001876,0.00002962,-0.00000376,0.00000415,0.000000
 47,0.00000997,0.00000133,-0.00001941,0.00000229,0.,0.00000413,0.000001
 84,0.00000319,0.00000295,0.00001143,0.00000622,0.00000427,-0.00027520,
 0.00014620,0.00007971,0.00002508,-0.00000330,0.00000026,-0.00021760,-0
 .00054176,-0.00077054,-0.00002938,-0.00009085,0.00012715,-0.00141667,-
 0.00024345,-0.00045103,-0.00280811,0.00236860,-0.00161041,-0.05185070,
 -0.00898963,-0.05136395,0.05340474,-0.00002181,-0.00000626,-0.00000181
 ,0.00000618,0.00000280,0.00000184,-0.00000108,0.00000762,-0.00001393,-
 0.00010208,-0.00004382,-0.00002432,0.00000231,-0.00000112,0.00000001,0
 .00001989,0.00000127,0.00001105,-0.00000238,0.00000675,0.00000441,0.00
 000137,-0.00000095,-0.00000093,-0.00000130,0.00000067,0.00000049,0.000
 00108,-0.00000125,-0.00000065,0.00004194,0.00000914,0.00000671,0.00013
 720,-0.00002320,-0.00007266,0.00001983,0.00000056,0.00000130,0.0000116
 2,-0.00000123,-0.00001252,0.00000105,0.00000119,0.00000211,0.00004026,
 0.00001672,0.00000698,0.00002022,-0.00000119,0.00000694,-0.00000057,0.
 00000251,0.00000931,-0.00000077,0.00000045,0.00000069,0.00000430,0.000
 00029,-0.00000598,0.00000025,0.,0.00000117,0.00000038,0.00000104,0.000
 00101,0.00000307,0.00000188,0.00000149,-0.00005178,-0.00009180,0.00015
 694,0.00000900,-0.00000081,-0.00000194,-0.00102172,0.00042031,-0.00034
 158,-0.00001126,-0.00015192,0.00028312,-0.00085980,-0.00041338,0.00006
 250,-0.00709550,0.00433054,-0.03480264,-0.00908169,-0.04584200,-0.0234
 8732,0.00706042,0.04702335,-0.00000910,0.00002710,0.00001431,0.0000196
 2,0.00000214,-0.00000210,-0.00000765,-0.00002117,-0.00002201,0.0000314
 9,0.00009510,0.00003667,0.00000149,-0.00000183,-0.00000042,-0.00000708
 ,0.00000766,-0.00000160,0.00000114,-0.00000186,-0.00000001,-0.00000011
 ,-0.00000009,0.00000005,0.00000052,-0.00000092,-0.00000072,-0.00000047
 ,0.00000033,-0.00000090,-0.00002663,-0.00001750,-0.00001695,-0.0001766
 4,-0.00007183,0.00001610,0.00000527,-0.00000733,-0.00000299,-0.0000238
 4,0.00002528,0.00001136,0.00001032,0.00000401,0.00000319,0.00014263,0.
 00001575,0.00002362,-0.00000381,0.00000044,-0.00000688,0.00000419,-0.0
 0001293,0.00000523,-0.00000115,0.00000248,-0.00000154,0.00000106,-0.00
 000054,-0.00000218,0.00000102,0.00000025,0.00000105,0.00000046,0.00000
 014,0.00000027,0.00000312,0.00000145,0.00000047,-0.00013128,0.00031338
 ,0.00009798,-0.00001975,-0.00001051,-0.00001028,0.00091929,-0.00040829
 ,0.00049607,-0.00021903,0.00000445,-0.00023415,0.00064420,0.00083590,-
 0.00005917,0.00127852,-0.00000121,-0.00569274,-0.05310057,-0.02198580,
 -0.31400986,0.05558378,0.02579349,0.33358897,0.00015077,0.00005425,0.0
 0005266,-0.00001815,0.00003631,0.00000218,0.00003360,-0.00005823,-0.00
 002578,0.00057195,0.00033143,0.00018592,-0.00001232,-0.00000355,0.0000
 0223,0.00004498,0.00003352,0.00005689,0.00001703,-0.00005003,-0.000032
 85,-0.00000959,0.00000817,0.00000821,0.00000844,-0.00000469,-0.0000027
 9,-0.00000944,0.00000935,0.00000411,-0.00031327,-0.00008089,-0.0000257
 6,-0.00084133,-0.00010162,-0.00005701,-0.00013833,-0.00000382,-0.00001
 774,-0.00001128,-0.00000254,0.00000188,-0.00001248,-0.00000734,-0.0000
 0843,-0.00009422,-0.00000674,-0.00001473,0.00001157,0.00001421,0.00000
 831,0.00001984,-0.00001633,-0.00001223,0.00000117,-0.00000091,-0.00000
 872,-0.00001125,0.00000137,0.00001885,0.00000090,0.00000029,-0.0000044
 0,-0.00000173,-0.00000448,-0.00000302,-0.00001194,-0.00000713,-0.00000
 375,0.00012835,-0.00009620,0.00004840,-0.00002800,0.00000657,-0.000023
 17,0.00005811,0.00014525,-0.00015437,-0.00005998,-0.00018685,0.0000623
 5,0.00010989,-0.00028141,-0.00028622,-0.00353967,0.00242075,0.00117902
 ,-0.21390628,-0.08767281,0.11637989,0.00677238,0.00412922,-0.00472035,
 0.22253387,-0.00002086,-0.00008425,-0.00005376,-0.00003898,0.00002310,
 0.00001538,0.00002143,0.00002221,0.00001105,-0.00028383,-0.00027888,-0
 .00013652,0.00000101,0.00000380,0.00000005,0.00003384,-0.00002324,0.00
 004278,-0.00000419,0.00001395,0.00000789,0.00000198,-0.00000178,-0.000
 00120,-0.00000386,0.00000336,0.00000221,0.00000255,-0.00000188,-0.0000
 0039,0.00015276,0.00007226,0.00004134,0.00051088,0.00013472,0.00002721
 ,0.00002175,0.00002040,0.00001243,0.,0.00004501,0.00004763,0.00000072,
 -0.00000275,-0.00000038,0.00004285,-0.00007537,-0.00004577,-0.00000373
 ,0.00008463,0.00002871,-0.00002054,0.00001129,-0.00001881,0.00000134,-
 0.00000704,0.00000454,-0.00000157,0.00000364,0.00000281,-0.00000297,-0
 .00000095,-0.00000109,-0.00000077,-0.00000094,-0.00000134,-0.00000263,
 -0.00000126,-0.00000108,-0.00012271,0.00031351,0.00008790,-0.00006659,
 -0.00003845,0.00000390,0.00222884,-0.00090592,-0.00201286,-0.00008047,
 0.00009027,0.00011039,0.00015452,0.00059919,0.00000312,-0.02577523,-0.
 01109068,0.01975512,-0.08141662,-0.08774862,0.05761168,0.00391105,0.00
 063866,-0.00193911,0.09207933,0.09518663,0.00000705,0.00002557,0.00001
 830,0.00001447,0.00000328,0.00000208,-0.00000425,-0.00001341,-0.000028
 81,0.00011582,0.00010797,0.00004057,0.00000050,-0.00000187,0.00000024,
 0.00003135,0.00001074,0.00001885,0.00000087,-0.00000638,-0.00000247,-0
 .00000082,0.00000094,0.00000009,0.00000151,-0.00000120,-0.00000104,-0.
 00000130,0.00000112,0.00000016,-0.00005713,-0.00002008,-0.00001355,-0.
 00023556,-0.00000024,0.00001097,-0.00001019,-0.00000540,-0.00000413,-0
 .00002436,0.00002335,0.00000783,0.00000841,0.00000347,0.00000208,0.000
 11231,0.00000189,0.00001034,0.00000154,0.00001038,0.00000666,0.0000034
 8,-0.00001368,0.00000640,-0.00000138,0.00000186,-0.00000169,0.00000108
 ,-0.00000029,-0.00000310,0.00000111,0.00000080,0.00000042,0.00000051,0
 .00000045,0.00000075,0.00000154,0.00000073,0.00000083,-0.00013907,0.00
 022419,0.00003498,-0.00001056,-0.00000678,-0.00000863,0.00075866,-0.00
 068626,-0.00026112,-0.00008169,-0.00010954,0.00003906,0.00001533,0.000
 60456,-0.00028649,-0.00842807,-0.00467038,0.00282644,0.11836025,0.0629
 9673,-0.12827371,0.02213907,0.01154318,-0.01089495,-0.12549913,-0.0628
 3557,0.13131307,-0.00052938,-0.00058152,-0.00038361,-0.00020806,-0.000
 12864,0.00007588,0.00013976,0.00035994,0.00018803,-0.00312263,-0.00223
 212,-0.00090153,0.00003143,0.00004265,-0.00001789,-0.00007076,-0.00022
 329,-0.00022708,-0.00007247,0.00019895,0.00012740,0.00003540,-0.000030
 69,-0.00002739,-0.00004007,0.00003034,0.00001576,0.00003849,-0.0000379
 5,-0.00001347,0.00147680,0.00055756,0.00019650,0.00097368,0.00167710,0
 .00054150,0.00048143,0.00010155,0.00010302,0.00025433,0.00000782,-0.00
 005081,-0.00000624,-0.00001006,0.00002334,-0.00021919,-0.00013347,-0.0
 0013586,0.00000483,0.00001365,0.00001439,-0.00014032,0.00019726,-0.000
 06645,0.00000107,-0.00002510,0.00004574,0.00002326,-0.00000515,-0.0000
 0713,-0.00001315,-0.00000160,0.00000361,0.00000058,0.00000931,0.000001
 67,0.00001114,0.00001158,0.00000058,0.00012355,-0.00013794,0.00016900,
 -0.00001697,-0.00003017,0.00005025,-0.00031136,-0.00112020,0.00061965,
 -0.00001506,0.00009109,0.00005280,-0.00086269,-0.00200143,0.00194957,0
 .00637361,0.00061065,0.00548742,-0.24832973,0.11495055,-0.04733164,-0.
 00391542,0.00194358,0.00078416,-0.01350168,0.01046136,-0.00604110,0.26
 299904,-0.00021348,-0.00002144,-0.00006026,0.00003698,-0.00013192,-0.0
 0002780,-0.00007951,0.00024667,0.00016683,-0.00127851,-0.00038667,0.00
 001792,0.00002039,0.00000648,-0.00000392,-0.00025548,-0.00030727,-0.00
 029377,-0.00002817,0.00006867,0.00004613,0.00001459,-0.00001086,-0.000
 00964,-0.00002595,0.00001912,0.00001229,0.00001538,-0.00001110,-0.0000
 0549,0.00037740,0.00006070,-0.00003164,0.00146385,-0.00079363,-0.00027
 280,0.00020413,-0.00001060,0.00002046,0.00004054,0.00001609,-0.0000052
 4,0.00001429,0.00000837,0.00001207,0.00013073,0.00002293,0.00002439,-0
 .00000547,-0.00000497,-0.00001566,-0.00004513,0.00003551,0.00001180,0.
 00000081,-0.00000328,0.00001232,0.00001394,-0.00000146,-0.00002843,-0.
 00000121,-0.00000150,0.00000616,0.00000216,0.00000622,0.00000387,0.000
 01681,0.00001033,0.00000465,-0.00033560,0.00002750,0.00006893,0.000013
 84,-0.00001976,0.00002127,-0.00007795,-0.00069164,0.00056064,0.0000041
 8,0.00029638,-0.00001586,-0.00113342,-0.00069069,0.00175510,0.03055250
 ,-0.01057747,0.00960236,0.11604904,-0.11570628,0.02915914,-0.00406777,
 0.00190191,-0.00089143,-0.01159696,0.00745325,-0.00426884,-0.12390836,
 0.12187434,0.00023057,0.00015307,0.00012457,0.00000688,0.00000637,-0.0
 0003321,-0.00006208,-0.00000801,-0.00003051,0.00055529,0.00057784,0.00
 030041,-0.00001606,-0.00000707,0.00000501,-0.00009690,-0.00014746,-0.0
 0004484,0.00002957,-0.00007886,-0.00005226,-0.00001314,0.00001422,0.00
 001217,0.00001236,-0.00000518,-0.00000402,-0.00001467,0.00001311,0.000
 00438,-0.00050297,-0.00023653,-0.00000076,-0.00070708,-0.00043507,-0.0
 0087747,-0.00020734,-0.00002448,-0.00003815,-0.00001594,-0.00001683,-0
 .00000256,-0.00001801,-0.00001040,-0.00001118,-0.00013375,-0.00001374,
 -0.00001179,0.00000990,0.00000401,-0.00000473,0.00002773,-0.00002300,-
 0.00001114,0.00000378,-0.00000009,-0.00001432,-0.00001327,-0.00000060,
 0.00001989,0.00000166,0.00000238,-0.00000527,-0.00000220,-0.00000582,-
 0.00000313,-0.00001442,-0.00000889,-0.00000432,0.00021943,-0.00018855,
 0.00004321,-0.00002998,0.00000333,-0.00001431,-0.00067920,0.00128004,-
 0.00014934,-0.00001616,-0.00010682,0.00004183,0.00117969,0.00127662,-0
 .00141718,0.00962828,-0.00474886,0.00044433,-0.04395007,0.02755014,-0.
 05101546,-0.02496163,0.01606775,-0.00408590,0.01268990,-0.01015839,0.0
 0382995,0.04798318,-0.02875718,0.05598020,0.00228953,-0.00154276,-0.00
 070308,-0.00181260,0.00081589,0.00066423,0.00195577,-0.00007598,0.0012
 4155,0.00132834,-0.00272409,-0.00060449,-0.00018735,0.00009737,0.00004
 842,0.00106483,-0.00038875,0.00168881,0.00019904,-0.00055573,-0.000343
 41,-0.00010136,0.00010841,0.00009589,0.00003394,0.00002434,0.00001940,
 -0.00011658,0.00012410,0.00005790,-0.00112628,0.00067209,0.00062521,-0
 .00015928,0.00179978,-0.00066491,-0.00198018,0.00054238,0.00006932,0.0
 0033184,0.00119889,0.00082503,-0.00024975,-0.00029887,-0.00009774,0.00
 053371,0.00013535,-0.00088007,-0.00167603,-0.00004997,0.00046782,-0.00
 037409,0.00067709,-0.00068525,0.00016558,-0.00056086,-0.00001551,-0.00
 015929,-0.00000209,0.00021843,-0.00009945,-0.00001224,-0.00014260,-0.0
 0013772,-0.00011258,-0.00012171,-0.00029068,-0.00016214,-0.00008494,-0
 .03530335,0.02005494,0.03787093,-0.00692101,-0.00496718,-0.00069662,-0
 .10789243,0.03567394,0.06554426,0.00095832,-0.00037024,0.00912861,-0.0
 0721535,0.00534831,0.00867028,-0.15039482,-0.10670461,0.04814625,-0.00
 253567,-0.01409014,0.01223219,-0.00012577,0.00160893,0.00018314,0.0010
 2742,-0.00308838,-0.00023660,-0.00197753,-0.00298089,0.00038220,0.3865
 1033,0.00058955,-0.00089987,-0.00055735,-0.00067033,0.00031086,0.00003
 779,0.00044599,0.00015977,0.00033851,-0.00106176,-0.00228365,-0.000837
 29,-0.00007123,0.00005237,0.00002667,0.00029082,-0.00031858,0.00030422
 ,0.00004440,-0.00009971,-0.00006754,-0.00002221,0.00002247,0.00002135,
 -0.00000512,0.00001988,0.00001600,-0.00002284,0.00002932,0.00001673,0.
 00039260,0.00055519,0.00027155,0.00171624,0.00064857,0.00114091,-0.000
 45978,0.00024688,0.00011054,-0.00010528,0.00119923,0.00069061,-0.00004
 007,-0.00007565,-0.00007778,-0.00099325,-0.00253278,-0.00031759,-0.002
 00186,0.00038806,0.00090867,-0.00038297,0.00017214,-0.00030967,0.00001
 086,-0.00025744,0.00003157,-0.00008612,0.00007736,0.00011409,-0.000073
 88,-0.00001837,-0.00006400,-0.00004739,-0.00004127,-0.00005020,-0.0001
 3148,-0.00006559,-0.00003812,-0.00434628,0.01036131,0.01222849,-0.0033
 2789,-0.00067921,-0.00100784,0.02373963,-0.12433653,-0.04833962,-0.005
 95473,0.00628744,0.00337689,0.02258616,-0.00692434,-0.03064345,-0.0707
 4972,-0.19531101,0.00703970,-0.03304856,-0.01890650,0.01387574,-0.0010
 2616,-0.00090035,-0.00031031,-0.00048129,-0.00780225,-0.00293527,0.000
 40072,0.00126329,0.00061759,0.07434419,0.30249971,-0.00104285,0.000308
 84,0.00004744,0.00044396,0.00049195,0.00014039,-0.00100399,-0.00025513
 ,-0.00097547,-0.00143766,0.00075095,0.00009651,0.00012426,-0.00009002,
 -0.00000293,0.00073788,-0.00055832,0.00109552,-0.00010110,0.00020577,0
 .00014482,0.00003532,-0.00003657,-0.00003609,-0.00001676,-0.00000343,-
 0.00000393,0.00004477,-0.00004660,-0.00002011,0.00066950,0.00012195,-0
 .00011643,0.00072787,-0.00083734,0.00077673,0.00074365,-0.00010709,0.0
 0003305,-0.00031743,-0.00021773,-0.00027974,0.00020920,0.00018311,0.00
 005205,-0.00019760,-0.00130099,0.00140894,-0.00065287,-0.00024267,-0.0
 0001554,0.00023046,-0.00034744,0.00038323,-0.00004904,0.00024086,0.000
 00038,0.00014033,0.00004732,-0.00025900,0.00005088,0.00001114,0.000079
 69,0.00005743,0.00005484,0.00005726,0.00018468,0.00010119,0.00007625,0
 .01054217,-0.00256675,-0.00446966,0.00101837,0.00099572,0.00030862,0.0
 6176298,-0.06013055,-0.14809760,0.03138689,-0.01739313,-0.02992863,0.0
 0629846,-0.00574047,-0.00676893,0.06272201,0.03826682,-0.08977847,0.00
 630374,-0.00107284,0.01266057,0.00109440,0.00322523,0.00009028,0.00100
 542,-0.00081269,0.00132302,-0.00012245,-0.00220084,-0.00065458,-0.2576
 4066,0.03634374,0.30811486,0.00088747,-0.00052865,-0.00022803,-0.00060
 698,0.00034987,0.00012789,0.00045419,-0.00012515,0.00024265,0.00100024
 ,-0.00083067,-0.00012400,-0.00009075,0.00003709,0.00002079,0.00038775,
 -0.00008533,0.00048610,0.00007964,-0.00022098,-0.00013677,-0.00004070,
 0.00004415,0.00003778,0.00001718,0.00000464,0.00000424,-0.00004678,0.0
 0004978,0.00002188,-0.00061100,0.00018249,0.00023257,-0.00049963,0.000
 63327,-0.00026688,-0.00078448,0.00019537,0.00002166,0.00011170,0.00012
 868,0.00028786,-0.00013694,-0.00010722,-0.00007102,-0.00052392,-0.0002
 0905,-0.00058956,0.00020167,0.00046798,0.00004407,-0.00003077,0.000157
 78,-0.00029278,0.00002953,-0.00011768,0.00000234,-0.00010004,0.0000104
 3,0.00018223,-0.00003277,-0.00000215,-0.00005839,-0.00003247,-0.000041
 33,-0.00003955,-0.00013398,-0.00007537,-0.00004591,0.00019938,0.002222
 95,0.00245317,-0.00118754,-0.00052695,-0.00018312,0.00865563,-0.009404
 06,-0.00521237,-0.00294330,0.00105526,0.00319646,-0.00090794,0.0003536
 8,0.00101541,-0.31374491,0.20273992,0.27173316,0.01224592,0.00569989,0
 .01644574,0.00017052,0.00318965,-0.00116798,0.00103065,0.00130774,-0.0
 0080365,0.00038437,-0.00293774,-0.00150552,-0.07556203,0.00054910,0.07
 604780,0.37216103,-0.00030956,-0.00002817,-0.00004267,0.00010031,-0.00
 010284,-0.00002557,-0.00007089,0.00010088,0.00001341,-0.00088990,-0.00
 038835,-0.00022486,0.00002687,0.00000173,-0.00000630,-0.00010624,0.000
 00669,-0.00017144,-0.00003115,0.00009290,0.00005859,0.00001697,-0.0000
 1637,-0.00001448,-0.00001337,0.00000594,0.00000332,0.00001864,-0.00001
 934,-0.00000741,0.00051168,0.00009293,0.00001646,0.00111971,0.00020981
 ,0.00007643,0.00028634,-0.00001371,0.00002068,-0.00000150,-0.00002384,
 -0.00008365,0.00003244,0.00002246,0.00001706,0.00027251,0.00009814,0.0
 0004694,-0.00001256,-0.00017568,-0.00004146,-0.00001002,0.00000785,0.0
 0006432,0.00000059,0.00000891,0.00001244,0.00002742,-0.00000850,-0.000
 04481,0.00000321,-0.00000179,0.00001214,0.00000402,0.00001029,0.000007
 10,0.00002964,0.00001806,0.00000914,-0.00049018,0.00018799,0.00028491,
 -0.00000104,-0.00004228,-0.00005147,-0.00417273,0.00100030,0.00064077,
 0.00066551,-0.00013606,-0.00021839,-0.00073305,0.00015477,0.00065799,0
 .18507465,-0.27841138,-0.22750021,0.02575893,-0.02411049,-0.03968711,0
 .00126278,-0.00688837,-0.00144670,0.00139382,0.00334438,0.00001400,-0.
 00105793,-0.00394722,-0.00258463,-0.00453849,0.03715925,0.01261118,-0.
 20416738,0.27179110,-0.00092793,0.00041066,0.00015267,0.00056262,-0.00
 033662,-0.00012085,-0.00039253,0.00014830,-0.00021083,-0.00134056,0.00
 041846,-0.00004326,0.00008859,-0.00003189,-0.00001554,-0.00032464,0.00
 007760,-0.00065641,-0.00008484,0.00024006,0.00014993,0.00004401,-0.000
 04581,-0.00004022,-0.00002264,-0.00000030,-0.00000209,0.00005011,-0.00
 005304,-0.00002295,0.00081377,-0.00008804,-0.00015920,0.00110396,-0.00
 034141,0.00024745,0.00082060,-0.00016590,-0.00000238,-0.00009438,-0.00
 012703,-0.00025405,0.00013305,0.00010435,0.00007170,0.00051198,0.00012
 751,0.00051357,-0.00018613,-0.00040251,-0.00007865,0.00002413,-0.00013
 809,0.00027023,-0.00003170,0.00011403,0.00000974,0.00009485,-0.0000080
 8,-0.00016962,0.00002925,0.00000132,0.00005500,0.00003299,0.00004182,0
 .00003853,0.00012654,0.00007188,0.00004307,0.00067834,-0.00246786,-0.0
 0316688,0.00129849,0.00065799,0.00011778,-0.00258402,0.00583690,0.0123
 0658,0.00105868,-0.00029008,-0.00167140,0.00066992,-0.00039538,-0.0008
 9143,0.26479506,-0.24271003,-0.39037124,0.02425730,-0.02344163,0.00183
 298,-0.00015143,0.00157855,0.00065972,-0.00080577,0.00020280,0.0002865
 9,-0.00310705,-0.00461750,-0.00231952,0.07473770,0.00804467,-0.0454825
 1,-0.36187826,0.25758427,0.42892347\\0.00000132,-0.00000013,-0.0000002
 3,0.00000107,0.00000020,-0.00000122,0.00000070,0.00000093,0.00000040,0
 .00000047,-0.00000002,0.00000091,0.00000162,0.00000174,-0.00000219,0.0
 0000171,0.00000235,0.00000131,-0.00000105,-0.00000166,0.00000060,-0.00
 000149,-0.00000209,0.00000089,-0.00000129,-0.00000101,0.00000270,-0.00
 000070,-0.00000099,0.00000159,-0.00000109,0.00000104,0.00000068,0.0000
 0198,-0.00000004,0.00000228,-0.00000061,-0.00000007,-0.00000164,0.0000
 0152,-0.00000145,-0.00000282,0.00000100,-0.00000030,-0.00000427,0.0000
 0007,-0.00000015,-0.00000067,0.00000077,0.00000045,-0.00000197,0.00000
 015,0.00000111,-0.00000310,-0.00000007,-0.00000153,-0.00000217,0.00000
 087,-0.00000127,-0.00000491,0.00000093,-0.00000058,-0.00000388,0.00000
 084,0.00000065,-0.00000492,-0.00000006,-0.00000155,-0.00000486,-0.0000
 0170,-0.00000157,-0.00000090,-0.00000108,-0.00000142,-0.00000008,0.000
 00087,0.00000018,0.00000147,-0.00000150,-0.00000086,0.00000091,-0.0000
 0087,-0.00000122,0.00000275,0.00000077,0.00000093,0.00000669,0.0000006
 5,0.00000027,0.00000329,-0.00000057,0.00000034,0.00000515,-0.00000102,
 0.00000195,0.00000408,-0.00000457,0.00000057,0.00000485,-0.00000091,0.
 00000234,-0.00000168,0.00000125,0.00000285,0.00000095\\\@


 BE NOT THE FIRST BY WHOM THE NEW ARE TRIED,
 NOR YET THE THE LAST TO LAY THE OLD ASIDE.

                          -- ALEXANDER POPE
 Job cpu time:       0 days  1 hours 59 minutes 52.6 seconds.
 File lengths (MBytes):  RWF=    490 Int=      0 D2E=      0 Chk=     16 Scr=      1
 Normal termination of Gaussian 09 at Tue Sep  8 03:06:12 2020.
