 Entering Gaussian System, Link 0=g09
 Input=product_diels_m062x_water.com
 Output=product_diels_m062x_water.log
 Initial command:
 /apps/applications/gaussian/G09.D01/2/default/g09/l1.exe "/local/2601293.1.40core-192G.q/Gau-9904.inp" -scrdir="/local/2601293.1.40core-192G.q/"
 Entering Link 1 = /apps/applications/gaussian/G09.D01/2/default/g09/l1.exe PID=      9905.
  
 Copyright (c) 1988,1990,1992,1993,1995,1998,2003,2009,2013,
            Gaussian, Inc.  All Rights Reserved.
  
 This is part of the Gaussian(R) 09 program.  It is based on
 the Gaussian(R) 03 system (copyright 2003, Gaussian, Inc.),
 the Gaussian(R) 98 system (copyright 1998, Gaussian, Inc.),
 the Gaussian(R) 94 system (copyright 1995, Gaussian, Inc.),
 the Gaussian 92(TM) system (copyright 1992, Gaussian, Inc.),
 the Gaussian 90(TM) system (copyright 1990, Gaussian, Inc.),
 the Gaussian 88(TM) system (copyright 1988, Gaussian, Inc.),
 the Gaussian 86(TM) system (copyright 1986, Carnegie Mellon
 University), and the Gaussian 82(TM) system (copyright 1983,
 Carnegie Mellon University). Gaussian is a federally registered
 trademark of Gaussian, Inc.
  
 This software contains proprietary and confidential information,
 including trade secrets, belonging to Gaussian, Inc.
  
 This software is provided under written license and may be
 used, copied, transmitted, or stored only in accord with that
 written license.
  
 The following legend is applicable only to US Government
 contracts under FAR:
  
                    RESTRICTED RIGHTS LEGEND
  
 Use, reproduction and disclosure by the US Government is
 subject to restrictions as set forth in subparagraphs (a)
 and (c) of the Commercial Computer Software - Restricted
 Rights clause in FAR 52.227-19.
  
 Gaussian, Inc.
 340 Quinnipiac St., Bldg. 40, Wallingford CT 06492
  
  
 ---------------------------------------------------------------
 Warning -- This program may not be used in any manner that
 competes with the business of Gaussian, Inc. or will provide
 assistance to any competitor of Gaussian, Inc.  The licensee
 of this program is prohibited from giving any competitor of
 Gaussian, Inc. access to this program.  By using this program,
 the user acknowledges that Gaussian, Inc. is engaged in the
 business of creating and licensing software in the field of
 computational chemistry and represents and warrants to the
 licensee that it is not a competitor of Gaussian, Inc. and that
 it will not use this program in any manner prohibited above.
 ---------------------------------------------------------------
  

 Cite this work as:
 Gaussian 09, Revision D.01,
 M. J. Frisch, G. W. Trucks, H. B. Schlegel, G. E. Scuseria, 
 M. A. Robb, J. R. Cheeseman, G. Scalmani, V. Barone, B. Mennucci, 
 G. A. Petersson, H. Nakatsuji, M. Caricato, X. Li, H. P. Hratchian, 
 A. F. Izmaylov, J. Bloino, G. Zheng, J. L. Sonnenberg, M. Hada, 
 M. Ehara, K. Toyota, R. Fukuda, J. Hasegawa, M. Ishida, T. Nakajima, 
 Y. Honda, O. Kitao, H. Nakai, T. Vreven, J. A. Montgomery, Jr., 
 J. E. Peralta, F. Ogliaro, M. Bearpark, J. J. Heyd, E. Brothers, 
 K. N. Kudin, V. N. Staroverov, T. Keith, R. Kobayashi, J. Normand, 
 K. Raghavachari, A. Rendell, J. C. Burant, S. S. Iyengar, J. Tomasi, 
 M. Cossi, N. Rega, J. M. Millam, M. Klene, J. E. Knox, J. B. Cross, 
 V. Bakken, C. Adamo, J. Jaramillo, R. Gomperts, R. E. Stratmann, 
 O. Yazyev, A. J. Austin, R. Cammi, C. Pomelli, J. W. Ochterski, 
 R. L. Martin, K. Morokuma, V. G. Zakrzewski, G. A. Voth, 
 P. Salvador, J. J. Dannenberg, S. Dapprich, A. D. Daniels, 
 O. Farkas, J. B. Foresman, J. V. Ortiz, J. Cioslowski, 
 and D. J. Fox, Gaussian, Inc., Wallingford CT, 2013.
 
 ******************************************
 Gaussian 09:  ES64L-G09RevD.01 24-Apr-2013
                 6-Jul-2021 
 ******************************************
 %nprocshared=4
 Will use up to    4 processors via shared memory.
 %chk=product_diels_m062x_water.chk
 ----------------------------------------------------------------------
 # opt freq scrf=(cpcm,solvent=water) geom=connectivity def2svp m062x e
 mpiricaldispersion=gd3
 ----------------------------------------------------------------------
 1/14=-1,18=20,19=15,26=3,38=1,57=2/1,3;
 2/9=110,12=2,17=6,18=5,40=1/2;
 3/5=43,7=101,11=2,16=1,25=1,30=1,70=2101,71=1,72=1,74=-55,124=31/1,2,3;
 4//1;
 5/5=2,38=5,53=1/2;
 6/7=2,8=2,9=2,10=2,28=1/1;
 7//1,2,3,16;
 1/14=-1,18=20,19=15,26=3/3(2);
 2/9=110/2;
 99//99;
 2/9=110/2;
 3/5=43,7=101,11=2,16=1,25=1,30=1,70=2105,71=1,72=1,74=-55,124=31/1,2,3;
 4/5=5,16=3,69=1/1;
 5/5=2,38=5,53=1/2;
 7//1,2,3,16;
 1/14=-1,18=20,19=15,26=3/3(-5);
 2/9=110/2;
 6/7=2,8=2,9=2,10=2,19=2,28=1/1;
 99/9=1/99;
 -------------------
 Title Card Required
 -------------------
 Symbolic Z-matrix:
 Charge =  0 Multiplicity = 1
 C                    -2.85341   0.18547  -0.0919 
 C                    -1.60104   0.84054  -0.66886 
 C                    -0.58906  -0.31779  -0.7963 
 C                    -1.34428  -1.54763  -0.29434 
 H                    -1.89511   1.20818  -1.66371 
 H                    -0.36501  -0.5258   -1.85426 
 C                    -3.628    -2.07883   0.56988 
 H                    -3.174    -3.07389   0.62864 
 H                    -3.94658  -1.7491    1.56731 
 H                    -4.50407  -2.10155  -0.09113 
 N                    -2.63093  -1.17099   0.04523 
 O                    -0.90741  -2.66387  -0.19223 
 O                    -3.88127   0.73378   0.21204 
 C                     0.74025  -0.19603  -0.02676 
 H                     1.04377  -1.21655   0.25157 
 C                    -1.20634   2.05306   0.19937 
 H                    -2.1414    2.43315   0.63891 
 C                    -0.28266   1.64543   1.31861 
 H                    -0.31522   2.24115   2.23527 
 C                     0.59341   0.64178   1.21797 
 H                     1.2651    0.42475   2.05208 
 C                    -0.61162   3.19949  -0.62758 
 H                    -1.3412    3.56043  -1.36696 
 H                    -0.33739   4.04229   0.0222 
 H                     0.29436   2.88355  -1.16295 
 C                     1.84822   0.33096  -0.9457 
 H                     2.01268  -0.37961  -1.76862 
 H                     1.58972   1.31439  -1.3568 
 C                     3.82293  -0.56018  -0.00908 
 C                     5.0716   -0.20345   0.74599 
 H                     4.80442   0.32516   1.67019 
 H                     5.63613  -1.11265   0.97197 
 H                     5.67956   0.47957   0.13766 
 O                     3.51683  -1.6607   -0.38132 
 O                     3.06567   0.5266   -0.23547 
 

 GradGradGradGradGradGradGradGradGradGradGradGradGradGradGradGradGradGrad
 Berny optimization.
 Initialization pass.
                           ----------------------------
                           !    Initial Parameters    !
                           ! (Angstroms and Degrees)  !
 --------------------------                            --------------------------
 ! Name  Definition              Value          Derivative Info.                !
 --------------------------------------------------------------------------------
 ! R1    R(1,2)                  1.5266         estimate D2E/DX2                !
 ! R2    R(1,11)                 1.3814         estimate D2E/DX2                !
 ! R3    R(1,13)                 1.204          estimate D2E/DX2                !
 ! R4    R(2,3)                  1.5434         estimate D2E/DX2                !
 ! R5    R(2,5)                  1.1006         estimate D2E/DX2                !
 ! R6    R(2,16)                 1.5427         estimate D2E/DX2                !
 ! R7    R(3,4)                  1.528          estimate D2E/DX2                !
 ! R8    R(3,6)                  1.1012         estimate D2E/DX2                !
 ! R9    R(3,14)                 1.5408         estimate D2E/DX2                !
 ! R10   R(4,11)                 1.383          estimate D2E/DX2                !
 ! R11   R(4,12)                 1.203          estimate D2E/DX2                !
 ! R12   R(7,8)                  1.0953         estimate D2E/DX2                !
 ! R13   R(7,9)                  1.0978         estimate D2E/DX2                !
 ! R14   R(7,10)                 1.0977         estimate D2E/DX2                !
 ! R15   R(7,11)                 1.4469         estimate D2E/DX2                !
 ! R16   R(14,15)                1.1005         estimate D2E/DX2                !
 ! R17   R(14,20)                1.5076         estimate D2E/DX2                !
 ! R18   R(14,26)                1.5329         estimate D2E/DX2                !
 ! R19   R(16,17)                1.1009         estimate D2E/DX2                !
 ! R20   R(16,18)                1.5073         estimate D2E/DX2                !
 ! R21   R(16,22)                1.5336         estimate D2E/DX2                !
 ! R22   R(18,19)                1.0937         estimate D2E/DX2                !
 ! R23   R(18,20)                1.336          estimate D2E/DX2                !
 ! R24   R(20,21)                1.0927         estimate D2E/DX2                !
 ! R25   R(22,23)                1.0997         estimate D2E/DX2                !
 ! R26   R(22,24)                1.099          estimate D2E/DX2                !
 ! R27   R(22,25)                1.0987         estimate D2E/DX2                !
 ! R28   R(26,27)                1.0996         estimate D2E/DX2                !
 ! R29   R(26,28)                1.0968         estimate D2E/DX2                !
 ! R30   R(26,35)                1.423          estimate D2E/DX2                !
 ! R31   R(29,30)                1.5022         estimate D2E/DX2                !
 ! R32   R(29,34)                1.2014         estimate D2E/DX2                !
 ! R33   R(29,35)                1.3438         estimate D2E/DX2                !
 ! R34   R(30,31)                1.0977         estimate D2E/DX2                !
 ! R35   R(30,32)                1.0938         estimate D2E/DX2                !
 ! R36   R(30,33)                1.0983         estimate D2E/DX2                !
 ! A1    A(2,1,11)             109.072          estimate D2E/DX2                !
 ! A2    A(2,1,13)             126.8965         estimate D2E/DX2                !
 ! A3    A(11,1,13)            124.0303         estimate D2E/DX2                !
 ! A4    A(1,2,3)              104.3041         estimate D2E/DX2                !
 ! A5    A(1,2,5)              105.4125         estimate D2E/DX2                !
 ! A6    A(1,2,16)             109.5401         estimate D2E/DX2                !
 ! A7    A(3,2,5)              110.5631         estimate D2E/DX2                !
 ! A8    A(3,2,16)             117.9436         estimate D2E/DX2                !
 ! A9    A(5,2,16)             108.3333         estimate D2E/DX2                !
 ! A10   A(2,3,4)              104.6465         estimate D2E/DX2                !
 ! A11   A(2,3,6)              110.7618         estimate D2E/DX2                !
 ! A12   A(2,3,14)             117.7192         estimate D2E/DX2                !
 ! A13   A(4,3,6)              105.314          estimate D2E/DX2                !
 ! A14   A(4,3,14)             109.0228         estimate D2E/DX2                !
 ! A15   A(6,3,14)             108.6156         estimate D2E/DX2                !
 ! A16   A(3,4,11)             108.7408         estimate D2E/DX2                !
 ! A17   A(3,4,12)             126.5268         estimate D2E/DX2                !
 ! A18   A(11,4,12)            124.7293         estimate D2E/DX2                !
 ! A19   A(8,7,9)              110.147          estimate D2E/DX2                !
 ! A20   A(8,7,10)             110.1388         estimate D2E/DX2                !
 ! A21   A(8,7,11)             107.6876         estimate D2E/DX2                !
 ! A22   A(9,7,10)             108.7688         estimate D2E/DX2                !
 ! A23   A(9,7,11)             109.9363         estimate D2E/DX2                !
 ! A24   A(10,7,11)            110.1575         estimate D2E/DX2                !
 ! A25   A(1,11,4)             113.1339         estimate D2E/DX2                !
 ! A26   A(1,11,7)             122.7595         estimate D2E/DX2                !
 ! A27   A(4,11,7)             124.0043         estimate D2E/DX2                !
 ! A28   A(3,14,15)            106.917          estimate D2E/DX2                !
 ! A29   A(3,14,20)            111.8541         estimate D2E/DX2                !
 ! A30   A(3,14,26)            110.5695         estimate D2E/DX2                !
 ! A31   A(15,14,20)           109.475          estimate D2E/DX2                !
 ! A32   A(15,14,26)           105.7282         estimate D2E/DX2                !
 ! A33   A(20,14,26)           111.9811         estimate D2E/DX2                !
 ! A34   A(2,16,17)            106.1858         estimate D2E/DX2                !
 ! A35   A(2,16,18)            111.2312         estimate D2E/DX2                !
 ! A36   A(2,16,22)            112.5387         estimate D2E/DX2                !
 ! A37   A(17,16,18)           108.5051         estimate D2E/DX2                !
 ! A38   A(17,16,22)           106.6535         estimate D2E/DX2                !
 ! A39   A(18,16,22)           111.4023         estimate D2E/DX2                !
 ! A40   A(16,18,19)           117.1796         estimate D2E/DX2                !
 ! A41   A(16,18,20)           123.3019         estimate D2E/DX2                !
 ! A42   A(19,18,20)           119.4613         estimate D2E/DX2                !
 ! A43   A(14,20,18)           122.9248         estimate D2E/DX2                !
 ! A44   A(14,20,21)           117.3867         estimate D2E/DX2                !
 ! A45   A(18,20,21)           119.6559         estimate D2E/DX2                !
 ! A46   A(16,22,23)           110.5263         estimate D2E/DX2                !
 ! A47   A(16,22,24)           110.563          estimate D2E/DX2                !
 ! A48   A(16,22,25)           111.5649         estimate D2E/DX2                !
 ! A49   A(23,22,24)           108.1424         estimate D2E/DX2                !
 ! A50   A(23,22,25)           108.2904         estimate D2E/DX2                !
 ! A51   A(24,22,25)           107.63           estimate D2E/DX2                !
 ! A52   A(14,26,27)           109.5474         estimate D2E/DX2                !
 ! A53   A(14,26,28)           111.2597         estimate D2E/DX2                !
 ! A54   A(14,26,35)           111.497          estimate D2E/DX2                !
 ! A55   A(27,26,28)           109.5209         estimate D2E/DX2                !
 ! A56   A(27,26,35)           109.5363         estimate D2E/DX2                !
 ! A57   A(28,26,35)           105.3934         estimate D2E/DX2                !
 ! A58   A(30,29,34)           125.8072         estimate D2E/DX2                !
 ! A59   A(30,29,35)           111.1644         estimate D2E/DX2                !
 ! A60   A(34,29,35)           123.0274         estimate D2E/DX2                !
 ! A61   A(29,30,31)           109.5871         estimate D2E/DX2                !
 ! A62   A(29,30,32)           109.6008         estimate D2E/DX2                !
 ! A63   A(29,30,33)           109.2331         estimate D2E/DX2                !
 ! A64   A(31,30,32)           110.6074         estimate D2E/DX2                !
 ! A65   A(31,30,33)           107.5538         estimate D2E/DX2                !
 ! A66   A(32,30,33)           110.2229         estimate D2E/DX2                !
 ! A67   A(26,35,29)           117.0666         estimate D2E/DX2                !
 ! D1    D(11,1,2,3)            -2.2766         estimate D2E/DX2                !
 ! D2    D(11,1,2,5)           114.2292         estimate D2E/DX2                !
 ! D3    D(11,1,2,16)         -129.4077         estimate D2E/DX2                !
 ! D4    D(13,1,2,3)           177.3329         estimate D2E/DX2                !
 ! D5    D(13,1,2,5)           -66.1613         estimate D2E/DX2                !
 ! D6    D(13,1,2,16)           50.2018         estimate D2E/DX2                !
 ! D7    D(2,1,11,4)             3.4376         estimate D2E/DX2                !
 ! D8    D(2,1,11,7)           179.893          estimate D2E/DX2                !
 ! D9    D(13,1,11,4)         -176.1856         estimate D2E/DX2                !
 ! D10   D(13,1,11,7)            0.2698         estimate D2E/DX2                !
 ! D11   D(1,2,3,4)              0.4861         estimate D2E/DX2                !
 ! D12   D(1,2,3,6)            113.5038         estimate D2E/DX2                !
 ! D13   D(1,2,3,14)          -120.7046         estimate D2E/DX2                !
 ! D14   D(5,2,3,4)           -112.3802         estimate D2E/DX2                !
 ! D15   D(5,2,3,6)              0.6375         estimate D2E/DX2                !
 ! D16   D(5,2,3,14)           126.429          estimate D2E/DX2                !
 ! D17   D(16,2,3,4)           122.2198         estimate D2E/DX2                !
 ! D18   D(16,2,3,6)          -124.7625         estimate D2E/DX2                !
 ! D19   D(16,2,3,14)            1.0291         estimate D2E/DX2                !
 ! D20   D(1,2,16,17)          -28.8438         estimate D2E/DX2                !
 ! D21   D(1,2,16,18)           89.0166         estimate D2E/DX2                !
 ! D22   D(1,2,16,22)         -145.1741         estimate D2E/DX2                !
 ! D23   D(3,2,16,17)         -147.858          estimate D2E/DX2                !
 ! D24   D(3,2,16,18)          -29.9977         estimate D2E/DX2                !
 ! D25   D(3,2,16,22)           95.8116         estimate D2E/DX2                !
 ! D26   D(5,2,16,17)           85.656          estimate D2E/DX2                !
 ! D27   D(5,2,16,18)         -156.4836         estimate D2E/DX2                !
 ! D28   D(5,2,16,22)          -30.6743         estimate D2E/DX2                !
 ! D29   D(2,3,4,11)             1.4379         estimate D2E/DX2                !
 ! D30   D(2,3,4,12)          -177.9393         estimate D2E/DX2                !
 ! D31   D(6,3,4,11)          -115.3984         estimate D2E/DX2                !
 ! D32   D(6,3,4,12)            65.2243         estimate D2E/DX2                !
 ! D33   D(14,3,4,11)          128.2104         estimate D2E/DX2                !
 ! D34   D(14,3,4,12)          -51.1669         estimate D2E/DX2                !
 ! D35   D(2,3,14,15)          148.3009         estimate D2E/DX2                !
 ! D36   D(2,3,14,20)           28.4701         estimate D2E/DX2                !
 ! D37   D(2,3,14,26)          -97.0685         estimate D2E/DX2                !
 ! D38   D(4,3,14,15)           29.4003         estimate D2E/DX2                !
 ! D39   D(4,3,14,20)          -90.4305         estimate D2E/DX2                !
 ! D40   D(4,3,14,26)          144.0308         estimate D2E/DX2                !
 ! D41   D(6,3,14,15)          -84.8625         estimate D2E/DX2                !
 ! D42   D(6,3,14,20)          155.3067         estimate D2E/DX2                !
 ! D43   D(6,3,14,26)           29.7681         estimate D2E/DX2                !
 ! D44   D(3,4,11,1)            -3.0938         estimate D2E/DX2                !
 ! D45   D(3,4,11,7)          -179.4981         estimate D2E/DX2                !
 ! D46   D(12,4,11,1)          176.2973         estimate D2E/DX2                !
 ! D47   D(12,4,11,7)           -0.1069         estimate D2E/DX2                !
 ! D48   D(8,7,11,1)          -176.5452         estimate D2E/DX2                !
 ! D49   D(8,7,11,4)            -0.4777         estimate D2E/DX2                !
 ! D50   D(9,7,11,1)           -56.5296         estimate D2E/DX2                !
 ! D51   D(9,7,11,4)           119.5379         estimate D2E/DX2                !
 ! D52   D(10,7,11,1)           63.3209         estimate D2E/DX2                !
 ! D53   D(10,7,11,4)         -120.6117         estimate D2E/DX2                !
 ! D54   D(3,14,20,18)         -30.528          estimate D2E/DX2                !
 ! D55   D(3,14,20,21)         151.5583         estimate D2E/DX2                !
 ! D56   D(15,14,20,18)       -148.8465         estimate D2E/DX2                !
 ! D57   D(15,14,20,21)         33.2398         estimate D2E/DX2                !
 ! D58   D(26,14,20,18)         94.2299         estimate D2E/DX2                !
 ! D59   D(26,14,20,21)        -83.6838         estimate D2E/DX2                !
 ! D60   D(3,14,26,27)         -62.0629         estimate D2E/DX2                !
 ! D61   D(3,14,26,28)          59.1769         estimate D2E/DX2                !
 ! D62   D(3,14,26,35)         176.5228         estimate D2E/DX2                !
 ! D63   D(15,14,26,27)         53.3142         estimate D2E/DX2                !
 ! D64   D(15,14,26,28)        174.554          estimate D2E/DX2                !
 ! D65   D(15,14,26,35)        -68.1002         estimate D2E/DX2                !
 ! D66   D(20,14,26,27)        172.4701         estimate D2E/DX2                !
 ! D67   D(20,14,26,28)        -66.2901         estimate D2E/DX2                !
 ! D68   D(20,14,26,35)         51.0558         estimate D2E/DX2                !
 ! D69   D(2,16,18,19)        -151.2208         estimate D2E/DX2                !
 ! D70   D(2,16,18,20)          31.5493         estimate D2E/DX2                !
 ! D71   D(17,16,18,19)        -34.7729         estimate D2E/DX2                !
 ! D72   D(17,16,18,20)        147.9972         estimate D2E/DX2                !
 ! D73   D(22,16,18,19)         82.3417         estimate D2E/DX2                !
 ! D74   D(22,16,18,20)        -94.8882         estimate D2E/DX2                !
 ! D75   D(2,16,22,23)          60.6031         estimate D2E/DX2                !
 ! D76   D(2,16,22,24)        -179.6895         estimate D2E/DX2                !
 ! D77   D(2,16,22,25)         -59.948          estimate D2E/DX2                !
 ! D78   D(17,16,22,23)        -55.4471         estimate D2E/DX2                !
 ! D79   D(17,16,22,24)         64.2603         estimate D2E/DX2                !
 ! D80   D(17,16,22,25)       -175.9981         estimate D2E/DX2                !
 ! D81   D(18,16,22,23)       -173.6804         estimate D2E/DX2                !
 ! D82   D(18,16,22,24)        -53.973          estimate D2E/DX2                !
 ! D83   D(18,16,22,25)         65.7686         estimate D2E/DX2                !
 ! D84   D(16,18,20,14)         -0.5111         estimate D2E/DX2                !
 ! D85   D(16,18,20,21)        177.3572         estimate D2E/DX2                !
 ! D86   D(19,18,20,14)       -177.6808         estimate D2E/DX2                !
 ! D87   D(19,18,20,21)          0.1875         estimate D2E/DX2                !
 ! D88   D(14,26,35,29)         80.38           estimate D2E/DX2                !
 ! D89   D(27,26,35,29)        -41.0408         estimate D2E/DX2                !
 ! D90   D(28,26,35,29)       -158.7801         estimate D2E/DX2                !
 ! D91   D(34,29,30,31)       -125.5127         estimate D2E/DX2                !
 ! D92   D(34,29,30,32)         -3.9608         estimate D2E/DX2                !
 ! D93   D(34,29,30,33)        116.894          estimate D2E/DX2                !
 ! D94   D(35,29,30,31)         54.8504         estimate D2E/DX2                !
 ! D95   D(35,29,30,32)        176.4023         estimate D2E/DX2                !
 ! D96   D(35,29,30,33)        -62.7429         estimate D2E/DX2                !
 ! D97   D(30,29,35,26)        179.9582         estimate D2E/DX2                !
 ! D98   D(34,29,35,26)          0.3094         estimate D2E/DX2                !
 --------------------------------------------------------------------------------
 Trust Radius=3.00D-01 FncErr=1.00D-07 GrdErr=1.00D-06
 Number of steps in this run=    210 maximum allowed number of steps=    210.
 GradGradGradGradGradGradGradGradGradGradGradGradGradGradGradGradGradGrad

                          Input orientation:                          
 ---------------------------------------------------------------------
 Center     Atomic      Atomic             Coordinates (Angstroms)
 Number     Number       Type             X           Y           Z
 ---------------------------------------------------------------------
      1          6           0       -2.853408    0.185474   -0.091900
      2          6           0       -1.601041    0.840542   -0.668856
      3          6           0       -0.589055   -0.317789   -0.796297
      4          6           0       -1.344279   -1.547631   -0.294344
      5          1           0       -1.895107    1.208175   -1.663708
      6          1           0       -0.365013   -0.525804   -1.854258
      7          6           0       -3.627999   -2.078831    0.569883
      8          1           0       -3.174002   -3.073892    0.628636
      9          1           0       -3.946576   -1.749095    1.567308
     10          1           0       -4.504065   -2.101555   -0.091133
     11          7           0       -2.630929   -1.170989    0.045233
     12          8           0       -0.907408   -2.663872   -0.192231
     13          8           0       -3.881265    0.733780    0.212036
     14          6           0        0.740250   -0.196032   -0.026759
     15          1           0        1.043770   -1.216548    0.251570
     16          6           0       -1.206342    2.053064    0.199370
     17          1           0       -2.141401    2.433149    0.638908
     18          6           0       -0.282656    1.645432    1.318612
     19          1           0       -0.315223    2.241154    2.235271
     20          6           0        0.593414    0.641784    1.217972
     21          1           0        1.265103    0.424745    2.052085
     22          6           0       -0.611615    3.199489   -0.627582
     23          1           0       -1.341197    3.560429   -1.366956
     24          1           0       -0.337394    4.042291    0.022202
     25          1           0        0.294359    2.883550   -1.162946
     26          6           0        1.848217    0.330956   -0.945698
     27          1           0        2.012680   -0.379609   -1.768622
     28          1           0        1.589716    1.314391   -1.356797
     29          6           0        3.822934   -0.560180   -0.009080
     30          6           0        5.071597   -0.203447    0.745991
     31          1           0        4.804418    0.325164    1.670192
     32          1           0        5.636131   -1.112649    0.971972
     33          1           0        5.679560    0.479570    0.137661
     34          8           0        3.516829   -1.660696   -0.381324
     35          8           0        3.065673    0.526596   -0.235466
 ---------------------------------------------------------------------
                    Distance matrix (angstroms):
                    1          2          3          4          5
     1  C    0.000000
     2  C    1.526570   0.000000
     3  C    2.424200   1.543401   0.000000
     4  C    2.306969   2.430958   1.528016   0.000000
     5  H    2.105906   1.100618   2.187862   3.126186   0.000000
     6  H    3.131123   2.190855   1.101248   2.106282   2.320384
     7  C    2.482947   3.763744   3.768673   2.498888   4.335464
     8  H    3.353419   4.413670   4.038377   2.555240   5.022600
     9  H    2.773183   4.148275   4.348357   3.205977   4.836676
    10  H    2.820491   4.173398   4.359631   3.214401   4.498218
    11  N    1.381410   2.369989   2.367567   1.382982   3.020320
    12  O    3.451920   3.604055   2.443430   1.203028   4.258350
    13  O    1.203955   2.446792   3.600164   3.449283   2.772777
    14  C    3.614439   2.639776   1.540800   2.498736   3.405364
    15  H    4.155916   3.474742   2.138203   2.471926   4.264337
    16  C    2.507101   1.542664   2.644492   3.637002   2.158540
    17  H    2.468416   2.130407   3.469474   4.165690   2.619783
    18  C    3.275635   2.517144   2.901889   3.731531   3.418395
    19  H    4.010477   3.471166   3.976629   4.670418   4.331872
    20  C    3.715450   2.900906   2.525132   3.291700   3.849366
    21  H    4.649307   3.973813   3.478870   4.025527   4.940426
    22  C    3.794322   2.558378   3.521394   4.814872   2.585777
    23  H    3.911888   2.820044   3.991484   5.219462   2.434744
    24  H    4.606342   3.510778   4.443374   5.688695   3.647050
    25  H    4.281961   2.830291   3.341171   4.803641   2.802036
    26  C    4.780734   3.497671   2.526556   3.761035   3.911205
    27  H    5.177792   3.969538   2.778176   3.847979   4.219344
    28  H    4.755604   3.298291   2.779427   4.234183   3.499924
    29  C    6.718363   5.640641   4.488219   5.268446   6.209740
    30  C    7.978661   6.900420   5.868109   6.637213   7.505617
    31  H    7.859184   6.838616   5.965443   6.721104   7.535133
    32  H    8.653856   7.673587   6.520086   7.107664   8.309788
    33  H    8.541120   7.334025   6.387769   7.323284   7.819935
    34  O    6.638677   5.703636   4.339802   4.863201   6.258113
    35  O    5.930640   4.697298   3.792697   4.873763   5.207088
                    6          7          8          9         10
     6  H    0.000000
     7  C    4.351486   0.000000
     8  H    4.532983   1.095313   0.000000
     9  H    5.102073   1.097759   1.798072   0.000000
    10  H    4.766902   1.097702   1.797936   1.784783   0.000000
    11  N    3.026335   1.446922   2.063087   2.093286   2.095993
    12  O    2.761858   2.885257   2.445279   3.628958   3.641753
    13  O    4.268507   2.846573   3.895143   2.829434   2.918718
    14  C    2.161043   4.794008   4.902345   5.188390   5.580144
    15  H    2.626082   4.761332   4.624014   5.188287   5.628424
    16  C    3.402320   4.803567   5.508324   4.882269   5.312271
    17  H    4.257562   4.751074   5.603023   4.648844   5.165141
    18  C    3.845537   5.061823   5.577452   5.000897   5.817868
    19  H    4.937893   5.693002   6.245287   5.436450   6.466659
    20  C    3.423513   5.063802   5.324189   5.142941   5.934977
    21  H    4.338241   5.692738   5.828578   5.667644   6.652734
    22  C    3.929803   6.196221   6.891968   6.358301   6.598486
    23  H    4.229385   6.386083   7.166294   6.602193   6.609805
    24  H    4.938558   6.971095   7.684671   6.996692   7.424341
    25  H    3.540675   6.558415   7.122528   6.848446   7.001780
    26  C    2.541241   6.171953   6.268509   6.649920   6.855573
    27  H    2.383722   6.338235   6.317252   6.965390   6.946008
    28  H    2.730339   6.515413   6.774362   6.970356   7.099631
    29  C    4.576545   7.626133   7.462074   8.016471   8.468854
    30  C    6.035059   8.901182   8.731731   9.186459   9.797800
    31  H    6.314183   8.837167   8.734621   8.994055   9.779524
    32  H    6.659256   9.323051   9.032320   9.622253  10.243618
    33  H    6.443243   9.662447   9.552681   9.983653  10.508129
    34  O    4.304209   7.219986   6.912623   7.714104   8.038240
    35  O    3.936704   7.227868   7.255600   7.589493   8.014296
                   11         12         13         14         15
    11  N    0.000000
    12  O    2.292512   0.000000
    13  O    2.284581   4.533354   0.000000
    14  C    3.510067   2.971934   4.720167   0.000000
    15  H    3.680769   2.469575   5.297293   1.100475   0.000000
    16  C    3.528133   4.742594   2.982597   2.983084   3.969394
    17  H    3.685363   5.309723   2.469251   3.957223   4.859592
    18  C    3.881766   4.609020   3.873707   2.499470   3.330002
    19  H    4.669206   5.504791   4.368331   3.488650   4.211607
    20  C    3.880445   3.894676   4.587278   1.507598   2.142464
    21  H    4.663999   4.392757   5.474156   2.232135   2.446362
    22  C    4.861213   5.886937   4.180346   3.703794   4.797352
    23  H    5.103333   6.349022   4.115229   4.498839   5.579176
    24  H    5.695535   6.733760   4.851938   4.373454   5.442023
    25  H    5.143568   5.758509   4.893661   3.312637   4.401508
    26  C    4.827062   4.138862   5.859145   1.532891   2.115503
    27  H    5.047718   4.028620   6.316742   2.164917   2.391742
    28  H    5.094767   4.839258   5.721012   2.184484   3.048041
    29  C    6.482930   5.180270   7.815236   3.104168   2.867492
    30  C    7.794620   6.533181   9.017607   4.399746   4.182609
    31  H    7.756504   6.710284   8.816704   4.434946   4.304862
    32  H    8.319046   6.824922   9.724589   5.080089   4.649683
    33  H    8.473318   7.306039   9.564493   4.988011   4.937645
    34  O    6.181965   4.540484   7.798550   3.159169   2.591108
    35  O    5.950787   5.095717   6.964419   2.444042   2.713641
                   16         17         18         19         20
    16  C    0.000000
    17  H    1.100906   0.000000
    18  C    1.507336   2.130124   0.000000
    19  H    2.230328   2.433139   1.093713   0.000000
    20  C    2.503674   3.320168   1.336015   2.102024   0.000000
    21  H    3.491707   4.199408   2.103240   2.414607   1.092711
    22  C    1.533571   2.128737   2.512166   3.033510   3.376391
    23  H    2.178006   2.436099   3.464101   3.971039   4.352363
    24  H    2.177954   2.494816   2.725547   2.853465   3.722864
    25  H    2.190369   3.063081   2.832669   3.511715   3.283857
    26  C    3.688789   4.779879   3.375732   4.295101   2.520439
    27  H    4.489209   5.564548   4.347456   5.321531   3.460824
    28  H    3.284088   4.376722   3.282252   4.170208   2.841558
    29  C    5.671518   6.704715   4.845963   5.478040   3.657892
    30  C    6.693516   7.680524   5.693353   6.100152   4.581627
    31  H    6.424811   7.331545   5.267356   5.495549   4.247035
    32  H    7.578792   8.554158   6.539053   6.947124   5.344862
    33  H    7.063663   8.076828   6.188853   6.590946   5.202141
    34  O    6.036353   7.058046   5.315670   6.062642   4.050372
    35  O    4.557335   5.613652   3.857235   4.524899   2.870159
                   21         22         23         24         25
    21  H    0.000000
    22  C    4.289742   0.000000
    23  H    5.321199   1.099655   0.000000
    24  H    4.446916   1.098968   1.780329   0.000000
    25  H    4.162270   1.098736   1.781805   1.773801   0.000000
    26  C    3.055409   3.792157   4.558433   4.414491   2.996232
    27  H    3.975382   4.582449   5.189771   5.318186   3.737336
    28  H    3.537982   2.988513   3.692566   3.613424   2.043964
    29  C    3.429428   5.846613   6.744738   6.204196   5.063746
    30  C    4.073070   6.765026   7.730151   6.914286   5.999633
    31  H    3.561251   6.547895   7.580224   6.555237   5.908692
    32  H    4.757742   7.758056   8.717302   7.947230   7.004428
    33  H    4.812012   6.896553   7.813232   6.993572   6.039130
    34  O    3.916735   6.381700   7.199447   6.895066   5.625426
    35  O    2.912956   4.562955   5.468539   4.899732   3.754415
                   26         27         28         29         30
    26  C    0.000000
    27  H    1.099616   0.000000
    28  H    1.096800   1.793916   0.000000
    29  C    2.360272   2.530931   3.212105   0.000000
    30  C    3.679345   3.963746   4.341549   1.502182   0.000000
    31  H    3.947409   4.485081   4.524991   2.137077   1.097707
    32  H    4.484389   4.601913   5.261859   2.134331   1.093807
    33  H    3.984337   4.221151   4.433639   2.132996   1.098270
    34  O    2.658846   2.414176   3.676473   1.201416   2.410750
    35  O    1.422991   2.068954   2.014064   1.343792   2.349458
                   31         32         33         34         35
    31  H    0.000000
    32  H    1.801822   0.000000
    33  H    1.771543   1.798089   0.000000
    34  O    3.132131   2.573559   3.086663   0.000000
    35  O    2.587536   3.279068   2.640803   2.238094   0.000000
 Stoichiometry    C13H17NO4
 Framework group  C1[X(C13H17NO4)]
 Deg. of freedom    99
 Full point group                 C1      NOp   1
 Largest Abelian subgroup         C1      NOp   1
 Largest concise Abelian subgroup C1      NOp   1
                         Standard orientation:                         
 ---------------------------------------------------------------------
 Center     Atomic      Atomic             Coordinates (Angstroms)
 Number     Number       Type             X           Y           Z
 ---------------------------------------------------------------------
      1          6           0       -2.853408    0.185474   -0.091900
      2          6           0       -1.601041    0.840542   -0.668856
      3          6           0       -0.589055   -0.317789   -0.796297
      4          6           0       -1.344279   -1.547631   -0.294344
      5          1           0       -1.895107    1.208175   -1.663708
      6          1           0       -0.365013   -0.525804   -1.854258
      7          6           0       -3.627999   -2.078831    0.569883
      8          1           0       -3.174002   -3.073892    0.628636
      9          1           0       -3.946576   -1.749095    1.567308
     10          1           0       -4.504065   -2.101555   -0.091133
     11          7           0       -2.630929   -1.170989    0.045233
     12          8           0       -0.907408   -2.663872   -0.192231
     13          8           0       -3.881265    0.733780    0.212036
     14          6           0        0.740250   -0.196032   -0.026759
     15          1           0        1.043770   -1.216548    0.251570
     16          6           0       -1.206342    2.053064    0.199370
     17          1           0       -2.141401    2.433149    0.638908
     18          6           0       -0.282656    1.645432    1.318612
     19          1           0       -0.315223    2.241154    2.235271
     20          6           0        0.593414    0.641784    1.217972
     21          1           0        1.265103    0.424745    2.052085
     22          6           0       -0.611615    3.199489   -0.627582
     23          1           0       -1.341197    3.560429   -1.366956
     24          1           0       -0.337394    4.042291    0.022202
     25          1           0        0.294359    2.883550   -1.162946
     26          6           0        1.848217    0.330956   -0.945698
     27          1           0        2.012680   -0.379609   -1.768622
     28          1           0        1.589716    1.314391   -1.356797
     29          6           0        3.822934   -0.560180   -0.009080
     30          6           0        5.071597   -0.203447    0.745991
     31          1           0        4.804418    0.325164    1.670192
     32          1           0        5.636131   -1.112649    0.971972
     33          1           0        5.679560    0.479570    0.137661
     34          8           0        3.516829   -1.660696   -0.381324
     35          8           0        3.065673    0.526596   -0.235466
 ---------------------------------------------------------------------
 Rotational constants (GHZ):      0.7384225      0.2748429      0.2203078
 Standard basis: def2SVP (5D, 7F)
 There are   355 symmetry adapted cartesian basis functions of A   symmetry.
 There are   337 symmetry adapted basis functions of A   symmetry.
   337 basis functions,   569 primitive gaussians,   355 cartesian basis functions
    67 alpha electrons       67 beta electrons
       nuclear repulsion energy      1392.3401307934 Hartrees.
 NAtoms=   35 NActive=   35 NUniq=   35 SFac= 1.00D+00 NAtFMM=   60 NAOKFM=F Big=F
 Integral buffers will be    131072 words long.
 Raffenetti 2 integral format.
 Two-electron integral symmetry is turned on.
 Nuclear repulsion after empirical dispersion term =     1392.3379467245 Hartrees.
 ------------------------------------------------------------------------------
 Polarizable Continuum Model (PCM)
 =================================
 Model                : C-PCM.
 Atomic radii         : UFF (Universal Force Field).
 Polarization charges : Total charges.
 Charge compensation  : None.
 Solution method      : On-the-fly selection.
 Cavity type          : Scaled VdW (van der Waals Surface) (Alpha=1.100).
 Cavity algorithm     : GePol (No added spheres)
                        Default sphere list used, NSphG=   35.
                        Lebedev-Laikov grids with approx.  5.0 points / Ang**2.
                        Smoothing algorithm: Karplus/York (Gamma=1.0000).
                        Polarization charges: spherical gaussians, with
                                              point-specific exponents (IZeta= 3).
                        Self-potential: point-specific (ISelfS= 7).
                        Self-field    : sphere-specific E.n sum rule (ISelfD= 2).
 1st derivatives      : Analytical E(r).r(x)/FMM algorithm (CHGder, D1EAlg=3).
                        Cavity 1st derivative terms included.
 Solvent              : Water, Eps=  78.355300 Eps(inf)=   1.777849
 ------------------------------------------------------------------------------
 One-electron integrals computed using PRISM.
   1 Symmetry operations used in ECPInt.
 ECPInt:  NShTT=   12720 NPrTT=   45736 LenC2=   11795 LenP2D=   30471.
 LDataN:  DoStor=T MaxTD1= 4 Len=   56
 NBasis=   337 RedAO= T EigKep=  3.20D-04  NBF=   337
 NBsUse=   337 1.00D-06 EigRej= -1.00D+00 NBFU=   337
 ExpMin= 1.22D-01 ExpMax= 2.27D+03 ExpMxC= 3.41D+02 IAcc=1 IRadAn=         1 AccDes= 0.00D+00
 Harris functional with IExCor= 1009 and IRadAn=       1 diagonalized for initial guess.
 HarFok:  IExCor= 1009 AccDes= 0.00D+00 IRadAn=         1 IDoV= 1 UseB2=F ITyADJ=14
 ICtDFT=  3500011 ScaDFX=  1.000000  1.000000  1.000000  1.000000
 FoFCou: FMM=F IPFlag=           0 FMFlag=      100000 FMFlg1=           0
         NFxFlg=           0 DoJE=T BraDBF=F KetDBF=T FulRan=T
         wScrn=  0.000000 ICntrl=     500 IOpCl=  0 I1Cent=   200000004 NGrid=           0
         NMat0=    1 NMatS0=      1 NMatT0=    0 NMatD0=    1 NMtDS0=    0 NMtDT0=    0
 Petite list used in FoFCou.
 Requested convergence on RMS density matrix=1.00D-08 within 128 cycles.
 Requested convergence on MAX density matrix=1.00D-06.
 Requested convergence on             energy=1.00D-06.
 No special actions if energy rises.
 Inv3:  Mode=1 IEnd=    18228675.
 Iteration    1 A*A^-1 deviation from unit magnitude is 6.11D-15 for   2450.
 Iteration    1 A*A^-1 deviation from orthogonality  is 3.47D-15 for   2462   1295.
 Iteration    1 A^-1*A deviation from unit magnitude is 5.88D-15 for   2450.
 Iteration    1 A^-1*A deviation from orthogonality  is 2.11D-15 for   2465   1715.
 Error on total polarization charges =  0.00939
 SCF Done:  E(RM062X) =  -860.328772946     A.U. after   13 cycles
            NFock= 13  Conv=0.46D-08     -V/T= 2.0097

 **********************************************************************

            Population analysis using the SCF density.

 **********************************************************************

 Orbital symmetries:
       Occupied  (A) (A) (A) (A) (A) (A) (A) (A) (A) (A) (A) (A)
                 (A) (A) (A) (A) (A) (A) (A) (A) (A) (A) (A) (A)
                 (A) (A) (A) (A) (A) (A) (A) (A) (A) (A) (A) (A)
                 (A) (A) (A) (A) (A) (A) (A) (A) (A) (A) (A) (A)
                 (A) (A) (A) (A) (A) (A) (A) (A) (A) (A) (A) (A)
                 (A) (A) (A) (A) (A) (A) (A)
       Virtual   (A) (A) (A) (A) (A) (A) (A) (A) (A) (A) (A) (A)
                 (A) (A) (A) (A) (A) (A) (A) (A) (A) (A) (A) (A)
                 (A) (A) (A) (A) (A) (A) (A) (A) (A) (A) (A) (A)
                 (A) (A) (A) (A) (A) (A) (A) (A) (A) (A) (A) (A)
                 (A) (A) (A) (A) (A) (A) (A) (A) (A) (A) (A) (A)
                 (A) (A) (A) (A) (A) (A) (A) (A) (A) (A) (A) (A)
                 (A) (A) (A) (A) (A) (A) (A) (A) (A) (A) (A) (A)
                 (A) (A) (A) (A) (A) (A) (A) (A) (A) (A) (A) (A)
                 (A) (A) (A) (A) (A) (A) (A) (A) (A) (A) (A) (A)
                 (A) (A) (A) (A) (A) (A) (A) (A) (A) (A) (A) (A)
                 (A) (A) (A) (A) (A) (A) (A) (A) (A) (A) (A) (A)
                 (A) (A) (A) (A) (A) (A) (A) (A) (A) (A) (A) (A)
                 (A) (A) (A) (A) (A) (A) (A) (A) (A) (A) (A) (A)
                 (A) (A) (A) (A) (A) (A) (A) (A) (A) (A) (A) (A)
                 (A) (A) (A) (A) (A) (A) (A) (A) (A) (A) (A) (A)
                 (A) (A) (A) (A) (A) (A) (A) (A) (A) (A) (A) (A)
                 (A) (A) (A) (A) (A) (A) (A) (A) (A) (A) (A) (A)
                 (A) (A) (A) (A) (A) (A) (A) (A) (A) (A) (A) (A)
                 (A) (A) (A) (A) (A) (A) (A) (A) (A) (A) (A) (A)
                 (A) (A) (A) (A) (A) (A) (A) (A) (A) (A) (A) (A)
                 (A) (A) (A) (A) (A) (A) (A) (A) (A) (A) (A) (A)
                 (A) (A) (A) (A) (A) (A) (A) (A) (A) (A) (A) (A)
                 (A) (A) (A) (A) (A) (A)
 The electronic state is 1-A.
 Alpha  occ. eigenvalues --  -19.67960 -19.63289 -19.63176 -19.62957 -14.81707
 Alpha  occ. eigenvalues --  -10.69202 -10.68015 -10.67727 -10.61555 -10.59437
 Alpha  occ. eigenvalues --  -10.58295 -10.57861 -10.57364 -10.57035 -10.56094
 Alpha  occ. eigenvalues --  -10.55938 -10.55840 -10.55037  -1.22923  -1.19163
 Alpha  occ. eigenvalues --   -1.17090  -1.13381  -1.06525  -0.96124  -0.89359
 Alpha  occ. eigenvalues --   -0.88149  -0.85084  -0.81328  -0.78796  -0.77573
 Alpha  occ. eigenvalues --   -0.73690  -0.70250  -0.69369  -0.64908  -0.62991
 Alpha  occ. eigenvalues --   -0.60094  -0.58588  -0.58378  -0.57561  -0.56705
 Alpha  occ. eigenvalues --   -0.55961  -0.55775  -0.54366  -0.52501  -0.51758
 Alpha  occ. eigenvalues --   -0.50644  -0.50244  -0.49781  -0.49098  -0.48259
 Alpha  occ. eigenvalues --   -0.47318  -0.47126  -0.46627  -0.45377  -0.44630
 Alpha  occ. eigenvalues --   -0.44400  -0.43405  -0.42752  -0.40552  -0.39737
 Alpha  occ. eigenvalues --   -0.38188  -0.37116  -0.36694  -0.35941  -0.34387
 Alpha  occ. eigenvalues --   -0.33731  -0.31249
 Alpha virt. eigenvalues --    0.01897   0.04081   0.04990   0.06220   0.09052
 Alpha virt. eigenvalues --    0.10945   0.11753   0.12440   0.12825   0.13699
 Alpha virt. eigenvalues --    0.14959   0.15648   0.16529   0.17072   0.17404
 Alpha virt. eigenvalues --    0.17668   0.18427   0.18639   0.19969   0.20664
 Alpha virt. eigenvalues --    0.21122   0.21508   0.22101   0.23472   0.23720
 Alpha virt. eigenvalues --    0.25148   0.27030   0.27126   0.27931   0.29435
 Alpha virt. eigenvalues --    0.30061   0.30711   0.32538   0.33471   0.35101
 Alpha virt. eigenvalues --    0.36911   0.37637   0.40937   0.43151   0.43681
 Alpha virt. eigenvalues --    0.45033   0.46410   0.46942   0.48126   0.48955
 Alpha virt. eigenvalues --    0.49808   0.50286   0.50721   0.51405   0.52467
 Alpha virt. eigenvalues --    0.53701   0.55151   0.55644   0.56241   0.57468
 Alpha virt. eigenvalues --    0.58524   0.59029   0.61747   0.62444   0.63851
 Alpha virt. eigenvalues --    0.64190   0.65338   0.66655   0.67465   0.68045
 Alpha virt. eigenvalues --    0.68561   0.69211   0.69452   0.69759   0.70187
 Alpha virt. eigenvalues --    0.70514   0.70683   0.71042   0.71091   0.71710
 Alpha virt. eigenvalues --    0.71964   0.72458   0.72686   0.73296   0.73427
 Alpha virt. eigenvalues --    0.73949   0.74442   0.74806   0.75350   0.75750
 Alpha virt. eigenvalues --    0.76788   0.77291   0.77951   0.78398   0.79503
 Alpha virt. eigenvalues --    0.80446   0.82843   0.83809   0.85037   0.86736
 Alpha virt. eigenvalues --    0.87693   0.89700   0.91569   0.92037   0.92923
 Alpha virt. eigenvalues --    0.94264   0.96940   0.97880   0.98618   1.00032
 Alpha virt. eigenvalues --    1.05141   1.06666   1.09441   1.11624   1.12361
 Alpha virt. eigenvalues --    1.13215   1.13765   1.16469   1.17354   1.19008
 Alpha virt. eigenvalues --    1.19643   1.21459   1.22478   1.24832   1.27255
 Alpha virt. eigenvalues --    1.28568   1.29434   1.31117   1.31652   1.32596
 Alpha virt. eigenvalues --    1.35735   1.37440   1.41260   1.42068   1.43486
 Alpha virt. eigenvalues --    1.44386   1.46494   1.48673   1.49960   1.53460
 Alpha virt. eigenvalues --    1.54235   1.56305   1.56522   1.56666   1.57711
 Alpha virt. eigenvalues --    1.58638   1.59985   1.61841   1.62687   1.65495
 Alpha virt. eigenvalues --    1.67071   1.67896   1.68435   1.68914   1.70863
 Alpha virt. eigenvalues --    1.71950   1.74707   1.75053   1.75793   1.76336
 Alpha virt. eigenvalues --    1.78258   1.80217   1.80767   1.81285   1.81852
 Alpha virt. eigenvalues --    1.82533   1.82926   1.83585   1.84337   1.84480
 Alpha virt. eigenvalues --    1.85148   1.85986   1.86928   1.87604   1.87675
 Alpha virt. eigenvalues --    1.88615   1.91396   1.93439   1.94903   1.95562
 Alpha virt. eigenvalues --    1.96071   1.96674   1.98895   1.99282   2.00094
 Alpha virt. eigenvalues --    2.00481   2.01363   2.02513   2.04402   2.05333
 Alpha virt. eigenvalues --    2.05690   2.07609   2.08298   2.08882   2.10542
 Alpha virt. eigenvalues --    2.10844   2.11520   2.12445   2.14315   2.14832
 Alpha virt. eigenvalues --    2.15624   2.17848   2.19135   2.21559   2.23776
 Alpha virt. eigenvalues --    2.25557   2.28885   2.31550   2.32188   2.35528
 Alpha virt. eigenvalues --    2.36110   2.36998   2.38569   2.40973   2.43345
 Alpha virt. eigenvalues --    2.44075   2.45780   2.46273   2.47803   2.48419
 Alpha virt. eigenvalues --    2.49495   2.50678   2.53888   2.55591   2.57305
 Alpha virt. eigenvalues --    2.59250   2.59824   2.61971   2.66003   2.66303
 Alpha virt. eigenvalues --    2.69161   2.70067   2.70536   2.70937   2.73184
 Alpha virt. eigenvalues --    2.73728   2.75038   2.77520   2.78050   2.79359
 Alpha virt. eigenvalues --    2.79833   2.82304   2.83479   2.84532   2.87169
 Alpha virt. eigenvalues --    2.87426   2.89052   2.90253   2.91403   2.93323
 Alpha virt. eigenvalues --    2.94076   2.95604   2.95945   2.96902   2.99155
 Alpha virt. eigenvalues --    3.01215   3.01499   3.03391   3.05477   3.06868
 Alpha virt. eigenvalues --    3.08880   3.11029   3.21122   3.22415   3.25155
 Alpha virt. eigenvalues --    3.25722   3.27669   3.32696   3.44428   3.50552
 Alpha virt. eigenvalues --    3.59516   3.66280   3.67043   3.70588   3.72753
          Condensed to atoms (all electrons):
               1          2          3          4          5          6
     1  C    4.650645   0.152433   0.013355  -0.057039   0.013921  -0.001200
     2  C    0.152433   5.769289  -0.016568  -0.002063   0.293507   0.020591
     3  C    0.013355  -0.016568   5.751734   0.151755   0.019732   0.296539
     4  C   -0.057039  -0.002063   0.151755   4.639503  -0.000521   0.012089
     5  H    0.013921   0.293507   0.019732  -0.000521   0.607139  -0.013722
     6  H   -0.001200   0.020591   0.296539   0.012089  -0.013722   0.602821
     7  C   -0.019535   0.012050   0.009367  -0.026431  -0.000315  -0.000266
     8  H    0.006452  -0.001625   0.005064  -0.004837   0.000032  -0.000114
     9  H   -0.003622   0.001178  -0.001217   0.002757  -0.000039  -0.000006
    10  H   -0.003547   0.001184  -0.000924   0.002374   0.000024   0.000081
    11  N    0.279529  -0.127361  -0.132927   0.297390   0.003201   0.003414
    12  O   -0.000312   0.006470  -0.107431   0.761308  -0.000078   0.002672
    13  O    0.764711  -0.105872   0.006328  -0.000276   0.002623  -0.000082
    14  C   -0.000598  -0.015620   0.248328  -0.027074  -0.000385  -0.009344
    15  H   -0.000464   0.008078  -0.047554  -0.007586  -0.000348   0.001743
    16  C   -0.030983   0.269636  -0.024605   0.000978  -0.008083  -0.000805
    17  H   -0.006681  -0.059901   0.009143  -0.000539   0.002248  -0.000343
    18  C   -0.000274  -0.033516  -0.032098   0.002959   0.006462   0.001044
    19  H    0.000305   0.009235  -0.000899  -0.000020  -0.000285   0.000037
    20  C    0.003070  -0.034878  -0.021641  -0.000067   0.001374   0.007384
    21  H   -0.000007  -0.001107   0.008860   0.000319   0.000041  -0.000265
    22  C    0.005943  -0.052743  -0.002635   0.000104  -0.009129   0.000398
    23  H    0.000014  -0.006746  -0.000023  -0.000043   0.004573  -0.000028
    24  H   -0.000381   0.010073  -0.000466   0.000014   0.000297   0.000002
    25  H    0.000487  -0.010881   0.002740  -0.000069  -0.000239  -0.000273
    26  C    0.000351  -0.006451  -0.029242   0.003395   0.000400  -0.008379
    27  H   -0.000030  -0.000624  -0.000400  -0.000270  -0.000003   0.005501
    28  H    0.000038   0.000917  -0.003721   0.000264  -0.000266  -0.000621
    29  C    0.000000  -0.000020   0.000695  -0.000076   0.000000   0.000027
    30  C    0.000000  -0.000001   0.000014  -0.000002   0.000000   0.000000
    31  H    0.000000   0.000000  -0.000005   0.000000   0.000000   0.000000
    32  H    0.000000   0.000000  -0.000001   0.000000   0.000000   0.000000
    33  H    0.000000   0.000000   0.000001   0.000000   0.000000   0.000000
    34  O    0.000000  -0.000006   0.000144  -0.000071   0.000000  -0.000080
    35  O    0.000001  -0.000094   0.004281  -0.000061   0.000000   0.000233
               7          8          9         10         11         12
     1  C   -0.019535   0.006452  -0.003622  -0.003547   0.279529  -0.000312
     2  C    0.012050  -0.001625   0.001178   0.001184  -0.127361   0.006470
     3  C    0.009367   0.005064  -0.001217  -0.000924  -0.132927  -0.107431
     4  C   -0.026431  -0.004837   0.002757   0.002374   0.297390   0.761308
     5  H   -0.000315   0.000032  -0.000039   0.000024   0.003201  -0.000078
     6  H   -0.000266  -0.000114  -0.000006   0.000081   0.003414   0.002672
     7  C    4.491342   0.397723   0.409008   0.409398   0.246709  -0.006321
     8  H    0.397723   0.568099  -0.018065  -0.018495  -0.028187   0.017240
     9  H    0.409008  -0.018065   0.578765  -0.023170  -0.027271   0.000235
    10  H    0.409398  -0.018495  -0.023170   0.577453  -0.024913   0.000122
    11  N    0.246709  -0.028187  -0.027271  -0.024913   7.055874  -0.096169
    12  O   -0.006321   0.017240   0.000235   0.000122  -0.096169   7.667017
    13  O    0.008317   0.000335   0.002976   0.001420  -0.102380  -0.000016
    14  C   -0.000153  -0.000065   0.000120  -0.000026  -0.002427  -0.001161
    15  H   -0.000029  -0.000086   0.000008   0.000000   0.002826   0.018118
    16  C   -0.000161   0.000030   0.000157  -0.000082  -0.002109  -0.000042
    17  H   -0.000103   0.000001  -0.000013  -0.000008   0.002923   0.000005
    18  C   -0.000128  -0.000002  -0.000020   0.000007   0.000916  -0.000032
    19  H    0.000000   0.000000   0.000000   0.000000  -0.000028   0.000001
    20  C   -0.000117  -0.000024   0.000003   0.000005   0.001167   0.000128
    21  H   -0.000002   0.000000   0.000001   0.000000  -0.000026  -0.000045
    22  C    0.000009   0.000000   0.000001   0.000000  -0.000359   0.000001
    23  H    0.000000   0.000000   0.000000   0.000000   0.000007   0.000000
    24  H    0.000000   0.000000   0.000000   0.000000   0.000005   0.000000
    25  H    0.000000   0.000000   0.000000   0.000000   0.000008   0.000000
    26  C    0.000007   0.000003   0.000000   0.000000  -0.000376  -0.000630
    27  H    0.000000   0.000000   0.000000   0.000000   0.000015   0.000228
    28  H    0.000000   0.000000   0.000000   0.000000   0.000011  -0.000007
    29  C    0.000000   0.000000   0.000000   0.000000   0.000000  -0.000022
    30  C    0.000000   0.000000   0.000000   0.000000   0.000000   0.000000
    31  H    0.000000   0.000000   0.000000   0.000000   0.000000   0.000000
    32  H    0.000000   0.000000   0.000000   0.000000   0.000000   0.000000
    33  H    0.000000   0.000000   0.000000   0.000000   0.000000   0.000000
    34  O    0.000000   0.000000   0.000000   0.000000   0.000000  -0.000001
    35  O    0.000000   0.000000   0.000000   0.000000   0.000000   0.000000
              13         14         15         16         17         18
     1  C    0.764711  -0.000598  -0.000464  -0.030983  -0.006681  -0.000274
     2  C   -0.105872  -0.015620   0.008078   0.269636  -0.059901  -0.033516
     3  C    0.006328   0.248328  -0.047554  -0.024605   0.009143  -0.032098
     4  C   -0.000276  -0.027074  -0.007586   0.000978  -0.000539   0.002959
     5  H    0.002623  -0.000385  -0.000348  -0.008083   0.002248   0.006462
     6  H   -0.000082  -0.009344   0.001743  -0.000805  -0.000343   0.001044
     7  C    0.008317  -0.000153  -0.000029  -0.000161  -0.000103  -0.000128
     8  H    0.000335  -0.000065  -0.000086   0.000030   0.000001  -0.000002
     9  H    0.002976   0.000120   0.000008   0.000157  -0.000013  -0.000020
    10  H    0.001420  -0.000026   0.000000  -0.000082  -0.000008   0.000007
    11  N   -0.102380  -0.002427   0.002826  -0.002109   0.002923   0.000916
    12  O   -0.000016  -0.001161   0.018118  -0.000042   0.000005  -0.000032
    13  O    7.672751  -0.000037   0.000005  -0.000019   0.015982   0.000177
    14  C   -0.000037   5.205407   0.364190  -0.036813   0.000581  -0.028648
    15  H    0.000005   0.364190   0.645193   0.000691   0.000025   0.007867
    16  C   -0.000019  -0.036813   0.000691   4.984369   0.375886   0.280863
    17  H    0.015982   0.000581   0.000025   0.375886   0.657414  -0.018025
    18  C    0.000177  -0.028648   0.007867   0.280863  -0.018025   4.971111
    19  H   -0.000043   0.011963  -0.000180  -0.061990  -0.009077   0.430978
    20  C   -0.000033   0.196541  -0.025753  -0.037586   0.008882   0.597173
    21  H    0.000001  -0.062628  -0.008767   0.011968  -0.000230  -0.044196
    22  C   -0.000506   0.000156  -0.000093   0.417179  -0.025254  -0.068041
    23  H    0.000161  -0.000059   0.000004  -0.020402  -0.007024   0.008187
    24  H   -0.000003   0.000218  -0.000002  -0.025154  -0.006300   0.001908
    25  H   -0.000010  -0.001334   0.000009  -0.023602   0.007932  -0.006023
    26  C    0.000000   0.393746  -0.019347   0.000077  -0.000118  -0.004931
    27  H    0.000000  -0.041971  -0.010319   0.000021   0.000004  -0.000455
    28  H    0.000000  -0.022064   0.007595   0.000157   0.000033   0.003430
    29  C    0.000000  -0.006416   0.004208   0.000008   0.000000  -0.000031
    30  C    0.000000  -0.001496   0.000499   0.000000   0.000000  -0.000003
    31  H    0.000000  -0.000030  -0.000185   0.000000   0.000000   0.000020
    32  H    0.000000   0.000045  -0.000013   0.000000   0.000000   0.000000
    33  H    0.000000   0.000060   0.000002   0.000000   0.000000  -0.000001
    34  O    0.000000  -0.012954   0.015407   0.000000   0.000000  -0.000016
    35  O    0.000000  -0.055583  -0.007125   0.000043   0.000000  -0.001014
              19         20         21         22         23         24
     1  C    0.000305   0.003070  -0.000007   0.005943   0.000014  -0.000381
     2  C    0.009235  -0.034878  -0.001107  -0.052743  -0.006746   0.010073
     3  C   -0.000899  -0.021641   0.008860  -0.002635  -0.000023  -0.000466
     4  C   -0.000020  -0.000067   0.000319   0.000104  -0.000043   0.000014
     5  H   -0.000285   0.001374   0.000041  -0.009129   0.004573   0.000297
     6  H    0.000037   0.007384  -0.000265   0.000398  -0.000028   0.000002
     7  C    0.000000  -0.000117  -0.000002   0.000009   0.000000   0.000000
     8  H    0.000000  -0.000024   0.000000   0.000000   0.000000   0.000000
     9  H    0.000000   0.000003   0.000001   0.000001   0.000000   0.000000
    10  H    0.000000   0.000005   0.000000   0.000000   0.000000   0.000000
    11  N   -0.000028   0.001167  -0.000026  -0.000359   0.000007   0.000005
    12  O    0.000001   0.000128  -0.000045   0.000001   0.000000   0.000000
    13  O   -0.000043  -0.000033   0.000001  -0.000506   0.000161  -0.000003
    14  C    0.011963   0.196541  -0.062628   0.000156  -0.000059   0.000218
    15  H   -0.000180  -0.025753  -0.008767  -0.000093   0.000004  -0.000002
    16  C   -0.061990  -0.037586   0.011968   0.417179  -0.020402  -0.025154
    17  H   -0.009077   0.008882  -0.000230  -0.025254  -0.007024  -0.006300
    18  C    0.430978   0.597173  -0.044196  -0.068041   0.008187   0.001908
    19  H    0.633887  -0.045187  -0.014878   0.000786  -0.000168   0.002674
    20  C   -0.045187   5.030740   0.434361  -0.007157  -0.000013  -0.001828
    21  H   -0.014878   0.434361   0.634654  -0.000216   0.000018  -0.000037
    22  C    0.000786  -0.007157  -0.000216   4.575710   0.388310   0.388374
    23  H   -0.000168  -0.000013   0.000018   0.388310   0.616977  -0.019230
    24  H    0.002674  -0.001828  -0.000037   0.388374  -0.019230   0.620475
    25  H   -0.000680   0.004912  -0.000074   0.398860  -0.020034  -0.021381
    26  C   -0.000102  -0.076776  -0.001084   0.000113  -0.000020   0.000163
    27  H    0.000014   0.013370  -0.000043   0.000023   0.000001   0.000003
    28  H   -0.000070  -0.010911  -0.000513  -0.001313  -0.000053  -0.000216
    29  C    0.000001  -0.000790   0.000638  -0.000006   0.000000   0.000000
    30  C    0.000000  -0.000158  -0.000098   0.000000   0.000000   0.000000
    31  H   -0.000001   0.000275   0.000236   0.000000   0.000000   0.000000
    32  H    0.000000   0.000008  -0.000008   0.000000   0.000000   0.000000
    33  H    0.000000  -0.000007  -0.000005   0.000000   0.000000   0.000000
    34  O    0.000000  -0.000043  -0.000042   0.000000   0.000000   0.000000
    35  O   -0.000011   0.013338   0.001891   0.000050   0.000000  -0.000005
              25         26         27         28         29         30
     1  C    0.000487   0.000351  -0.000030   0.000038   0.000000   0.000000
     2  C   -0.010881  -0.006451  -0.000624   0.000917  -0.000020  -0.000001
     3  C    0.002740  -0.029242  -0.000400  -0.003721   0.000695   0.000014
     4  C   -0.000069   0.003395  -0.000270   0.000264  -0.000076  -0.000002
     5  H   -0.000239   0.000400  -0.000003  -0.000266   0.000000   0.000000
     6  H   -0.000273  -0.008379   0.005501  -0.000621   0.000027   0.000000
     7  C    0.000000   0.000007   0.000000   0.000000   0.000000   0.000000
     8  H    0.000000   0.000003   0.000000   0.000000   0.000000   0.000000
     9  H    0.000000   0.000000   0.000000   0.000000   0.000000   0.000000
    10  H    0.000000   0.000000   0.000000   0.000000   0.000000   0.000000
    11  N    0.000008  -0.000376   0.000015   0.000011   0.000000   0.000000
    12  O    0.000000  -0.000630   0.000228  -0.000007  -0.000022   0.000000
    13  O   -0.000010   0.000000   0.000000   0.000000   0.000000   0.000000
    14  C   -0.001334   0.393746  -0.041971  -0.022064  -0.006416  -0.001496
    15  H    0.000009  -0.019347  -0.010319   0.007595   0.004208   0.000499
    16  C   -0.023602   0.000077   0.000021   0.000157   0.000008   0.000000
    17  H    0.007932  -0.000118   0.000004   0.000033   0.000000   0.000000
    18  C   -0.006023  -0.004931  -0.000455   0.003430  -0.000031  -0.000003
    19  H   -0.000680  -0.000102   0.000014  -0.000070   0.000001   0.000000
    20  C    0.004912  -0.076776   0.013370  -0.010911  -0.000790  -0.000158
    21  H   -0.000074  -0.001084  -0.000043  -0.000513   0.000638  -0.000098
    22  C    0.398860   0.000113   0.000023  -0.001313  -0.000006   0.000000
    23  H   -0.020034  -0.000020   0.000001  -0.000053   0.000000   0.000000
    24  H   -0.021381   0.000163   0.000003  -0.000216   0.000000   0.000000
    25  H    0.629383  -0.001349   0.000085   0.006946   0.000002   0.000000
    26  C   -0.001349   4.487678   0.393045   0.396332  -0.034151   0.008425
    27  H    0.000085   0.393045   0.622762  -0.024249  -0.005452   0.001865
    28  H    0.006946   0.396332  -0.024249   0.612194   0.005465  -0.000168
    29  C    0.000002  -0.034151  -0.005452   0.005465   4.502186   0.393882
    30  C    0.000000   0.008425   0.001865  -0.000168   0.393882   4.687637
    31  H    0.000001  -0.000239   0.000019  -0.000032  -0.007869   0.375605
    32  H    0.000000  -0.000274  -0.000026   0.000004  -0.010493   0.374208
    33  H    0.000000  -0.000143  -0.000187  -0.000027  -0.003221   0.370893
    34  O   -0.000002   0.005543   0.016541   0.000572   0.665008  -0.077492
    35  O   -0.000175   0.255052  -0.027527  -0.022330   0.318637  -0.103121
              31         32         33         34         35
     1  C    0.000000   0.000000   0.000000   0.000000   0.000001
     2  C    0.000000   0.000000   0.000000  -0.000006  -0.000094
     3  C   -0.000005  -0.000001   0.000001   0.000144   0.004281
     4  C    0.000000   0.000000   0.000000  -0.000071  -0.000061
     5  H    0.000000   0.000000   0.000000   0.000000   0.000000
     6  H    0.000000   0.000000   0.000000  -0.000080   0.000233
     7  C    0.000000   0.000000   0.000000   0.000000   0.000000
     8  H    0.000000   0.000000   0.000000   0.000000   0.000000
     9  H    0.000000   0.000000   0.000000   0.000000   0.000000
    10  H    0.000000   0.000000   0.000000   0.000000   0.000000
    11  N    0.000000   0.000000   0.000000   0.000000   0.000000
    12  O    0.000000   0.000000   0.000000  -0.000001   0.000000
    13  O    0.000000   0.000000   0.000000   0.000000   0.000000
    14  C   -0.000030   0.000045   0.000060  -0.012954  -0.055583
    15  H   -0.000185  -0.000013   0.000002   0.015407  -0.007125
    16  C    0.000000   0.000000   0.000000   0.000000   0.000043
    17  H    0.000000   0.000000   0.000000   0.000000   0.000000
    18  C    0.000020   0.000000  -0.000001  -0.000016  -0.001014
    19  H   -0.000001   0.000000   0.000000   0.000000  -0.000011
    20  C    0.000275   0.000008  -0.000007  -0.000043   0.013338
    21  H    0.000236  -0.000008  -0.000005  -0.000042   0.001891
    22  C    0.000000   0.000000   0.000000   0.000000   0.000050
    23  H    0.000000   0.000000   0.000000   0.000000   0.000000
    24  H    0.000000   0.000000   0.000000   0.000000  -0.000005
    25  H    0.000001   0.000000   0.000000  -0.000002  -0.000175
    26  C   -0.000239  -0.000274  -0.000143   0.005543   0.255052
    27  H    0.000019  -0.000026  -0.000187   0.016541  -0.027527
    28  H   -0.000032   0.000004  -0.000027   0.000572  -0.022330
    29  C   -0.007869  -0.010493  -0.003221   0.665008   0.318637
    30  C    0.375605   0.374208   0.370893  -0.077492  -0.103121
    31  H    0.565100  -0.012862  -0.011208   0.001666   0.004108
    32  H   -0.012862   0.579599  -0.011538   0.006178   0.004993
    33  H   -0.011208  -0.011538   0.561236   0.001345   0.003784
    34  O    0.001666   0.006178   0.001345   7.768515  -0.090898
    35  O    0.004108   0.004993   0.003784  -0.090898   8.062089
 Mulliken charges:
               1
     1  C    0.233419
     2  C   -0.078563
     3  C   -0.105722
     4  C    0.251836
     5  H    0.077842
     6  H    0.080951
     7  C    0.069633
     8  H    0.076521
     9  H    0.078215
    10  H    0.079097
    11  N   -0.349459
    12  O   -0.261281
    13  O   -0.266511
    14  C   -0.094474
    15  H    0.051383
    16  C   -0.069625
    17  H    0.052558
    18  C   -0.075646
    19  H    0.043741
    20  C   -0.049761
    21  H    0.041283
    22  C   -0.008566
    23  H    0.055592
    24  H    0.050799
    25  H    0.034761
    26  C    0.239285
    27  H    0.058058
    28  H    0.052603
    29  C    0.177787
    30  C   -0.030488
    31  H    0.085401
    32  H    0.070181
    33  H    0.089019
    34  O   -0.299315
    35  O   -0.360554
 Sum of Mulliken charges =   0.00000
 Mulliken charges with hydrogens summed into heavy atoms:
               1
     1  C    0.233419
     2  C   -0.000721
     3  C   -0.024771
     4  C    0.251836
     7  C    0.303465
    11  N   -0.349459
    12  O   -0.261281
    13  O   -0.266511
    14  C   -0.043091
    16  C   -0.017067
    18  C   -0.031906
    20  C   -0.008478
    22  C    0.132587
    26  C    0.349946
    29  C    0.177787
    30  C    0.214113
    34  O   -0.299315
    35  O   -0.360554
 Electronic spatial extent (au):  <R**2>=           4991.6476
 Charge=              0.0000 electrons
 Dipole moment (field-independent basis, Debye):
    X=              1.1986    Y=              3.4949    Z=             -0.5056  Tot=              3.7291
 Quadrupole moment (field-independent basis, Debye-Ang):
   XX=           -104.9803   YY=           -115.7968   ZZ=            -98.5815
   XY=             13.7194   XZ=              5.8458   YZ=             -3.3272
 Traceless Quadrupole moment (field-independent basis, Debye-Ang):
   XX=              1.4726   YY=             -9.3440   ZZ=              7.8713
   XY=             13.7194   XZ=              5.8458   YZ=             -3.3272
 Octapole moment (field-independent basis, Debye-Ang**2):
  XXX=            112.6303  YYY=             31.7383  ZZZ=             -3.9636  XYY=            -27.7655
  XXY=            -29.7547  XXZ=             14.1468  XZZ=              3.7235  YZZ=             -1.2789
  YYZ=              7.6282  XYZ=             -0.1797
 Hexadecapole moment (field-independent basis, Debye-Ang**3):
 XXXX=          -4169.2063 YYYY=          -1657.2514 ZZZZ=           -418.7802 XXXY=            255.5155
 XXXZ=             89.9029 YYYX=             29.0392 YYYZ=             -9.7723 ZZZX=             -1.7055
 ZZZY=              9.7085 XXYY=          -1022.4004 XXZZ=           -762.3777 YYZZ=           -325.6119
 XXYZ=            -46.5919 YYXZ=             -1.5176 ZZXY=              1.0694
 N-N= 1.392337946725D+03 E-N=-4.788061112135D+03  KE= 8.520422341230D+02
   1 Symmetry operations used in ECPInt.
 ECPInt:  NShTT=   12720 NPrTT=   45736 LenC2=   11795 LenP2D=   30471.
 LDataN:  DoStor=T MaxTD1= 5 Len=  102
 D1PCM: C-PCM CHGder 1st derivatives, ID1Alg=3 FixD1E=F DoIter=F DoCFld=F I1PDM=0.
 Calling FoFJK, ICntrl=      2127 FMM=F ISym2X=0 I1Cent= 0 IOpClX= 0 NMat=1 NMatS=1 NMatT=0.
 ***** Axes restored to original set *****
 -------------------------------------------------------------------
 Center     Atomic                   Forces (Hartrees/Bohr)
 Number     Number              X              Y              Z
 -------------------------------------------------------------------
      1        6           0.003805285   -0.001285425   -0.001443368
      2        6          -0.000533313   -0.000219214    0.000085813
      3        6          -0.000283109   -0.000560726   -0.000072076
      4        6          -0.001943767    0.004926563   -0.000609321
      5        1           0.000160041   -0.000245563    0.000001483
      6        1          -0.000239522    0.000203204    0.000019255
      7        6          -0.000465627   -0.000040801    0.000027417
      8        1          -0.000422499    0.000095265    0.000107103
      9        1           0.000209710   -0.000218299    0.000093146
     10        1           0.000191810   -0.000252033   -0.000115669
     11        7           0.000659042   -0.000193908    0.000184269
     12        8           0.001139991   -0.003253497    0.000409305
     13        8          -0.002401252    0.000727883    0.000778054
     14        6          -0.000075875    0.000292208    0.000065985
     15        1           0.000003835    0.000226535    0.000256753
     16        6           0.000111330   -0.000040194   -0.000019677
     17        1           0.000217860    0.000161177    0.000122535
     18        6          -0.000305768    0.000251842    0.000015668
     19        1           0.000044124    0.000073945   -0.000016876
     20        6           0.000208251   -0.000370424    0.000295225
     21        1           0.000103299   -0.000009288    0.000062937
     22        6           0.000157040    0.000206833   -0.000035223
     23        1           0.000096493   -0.000157297   -0.000009489
     24        1          -0.000094949   -0.000047216    0.000138202
     25        1          -0.000173938   -0.000068779   -0.000091162
     26        6          -0.000812684    0.000197485   -0.000717254
     27        1          -0.000063169    0.000463678   -0.000097772
     28        1          -0.000006457   -0.000349135   -0.000164859
     29        6           0.001262641    0.004965657    0.001617656
     30        6          -0.000428747   -0.000333274   -0.000306492
     31        1          -0.000068089   -0.000142879    0.000016342
     32        1           0.000159586    0.000129853    0.000134322
     33        1           0.000000438   -0.000103089   -0.000066183
     34        8          -0.001138836   -0.003157376   -0.001078223
     35        8           0.000926825   -0.001873710    0.000412178
 -------------------------------------------------------------------
 Cartesian Forces:  Max     0.004965657 RMS     0.001053385

 GradGradGradGradGradGradGradGradGradGradGradGradGradGradGradGradGradGrad
 Berny optimization.
 FormGI is forming the generalized inverse of G from B-inverse, IUseBI=4.
 Internal  Forces:  Max     0.003516592 RMS     0.000465080
 Search for a local minimum.
 Step number   1 out of a maximum of  210
 All quantities printed in internal units (Hartrees-Bohrs-Radians)
 Mixed Optimization -- En-DIIS/RFO-DIIS
 Second derivative matrix not updated -- first step.
 ITU=  0
     Eigenvalues ---    0.00322   0.00327   0.00331   0.00553   0.00737
     Eigenvalues ---    0.00887   0.00992   0.01071   0.01141   0.01246
     Eigenvalues ---    0.01248   0.01316   0.01388   0.01713   0.01785
     Eigenvalues ---    0.02435   0.02855   0.03471   0.03684   0.04160
     Eigenvalues ---    0.04310   0.04756   0.04944   0.04965   0.05459
     Eigenvalues ---    0.05569   0.05576   0.05659   0.05723   0.05776
     Eigenvalues ---    0.06294   0.07090   0.07432   0.07603   0.07642
     Eigenvalues ---    0.07846   0.09902   0.11646   0.13875   0.14506
     Eigenvalues ---    0.15010   0.15992   0.15996   0.16000   0.16000
     Eigenvalues ---    0.16000   0.16000   0.16000   0.16000   0.16000
     Eigenvalues ---    0.16000   0.16000   0.17475   0.18336   0.19771
     Eigenvalues ---    0.22085   0.23775   0.24931   0.24997   0.24999
     Eigenvalues ---    0.25000   0.25000   0.25000   0.25842   0.26227
     Eigenvalues ---    0.28088   0.28627   0.29096   0.29158   0.29562
     Eigenvalues ---    0.30152   0.31011   0.32150   0.33545   0.33582
     Eigenvalues ---    0.33614   0.33630   0.33720   0.33725   0.33796
     Eigenvalues ---    0.33822   0.33874   0.33931   0.33937   0.33938
     Eigenvalues ---    0.34039   0.34206   0.34376   0.34387   0.34501
     Eigenvalues ---    0.38651   0.42013   0.44518   0.47310   0.54944
     Eigenvalues ---    0.56364   1.02861   1.03316   1.04115
 RFO step:  Lambda=-9.89353825D-05 EMin= 3.21867107D-03
 Linear search not attempted -- first point.
 Iteration  1 RMS(Cart)=  0.01484439 RMS(Int)=  0.00005033
 Iteration  2 RMS(Cart)=  0.00008796 RMS(Int)=  0.00000218
 Iteration  3 RMS(Cart)=  0.00000000 RMS(Int)=  0.00000218
 Variable       Old X    -DE/DX   Delta X   Delta X   Delta X     New X
                                 (Linear)    (Quad)   (Total)
    R1        2.88480  -0.00057   0.00000  -0.00173  -0.00173   2.88307
    R2        2.61049  -0.00046   0.00000  -0.00105  -0.00105   2.60944
    R3        2.27514   0.00258   0.00000   0.00251   0.00251   2.27765
    R4        2.91661  -0.00065   0.00000  -0.00199  -0.00200   2.91461
    R5        2.07987  -0.00013   0.00000  -0.00039  -0.00039   2.07948
    R6        2.91521   0.00034   0.00000   0.00122   0.00122   2.91643
    R7        2.88753  -0.00068   0.00000  -0.00235  -0.00235   2.88518
    R8        2.08106  -0.00011   0.00000  -0.00032  -0.00032   2.08074
    R9        2.91169   0.00007   0.00000   0.00021   0.00021   2.91190
   R10        2.61346  -0.00115   0.00000  -0.00258  -0.00258   2.61088
   R11        2.27339   0.00347   0.00000   0.00336   0.00336   2.27675
   R12        2.06984  -0.00025   0.00000  -0.00074  -0.00074   2.06911
   R13        2.07446  -0.00004   0.00000  -0.00012  -0.00012   2.07434
   R14        2.07436  -0.00008   0.00000  -0.00024  -0.00024   2.07412
   R15        2.73429   0.00064   0.00000   0.00166   0.00166   2.73595
   R16        2.07960  -0.00015   0.00000  -0.00043  -0.00043   2.07916
   R17        2.84895   0.00007   0.00000   0.00039   0.00040   2.84934
   R18        2.89674   0.00001   0.00000   0.00004   0.00004   2.89679
   R19        2.08041  -0.00008   0.00000  -0.00023  -0.00023   2.08018
   R20        2.84845  -0.00001   0.00000  -0.00017  -0.00017   2.84828
   R21        2.89803  -0.00007   0.00000  -0.00025  -0.00025   2.89778
   R22        2.06682   0.00003   0.00000   0.00008   0.00008   2.06689
   R23        2.52470   0.00023   0.00000   0.00041   0.00041   2.52512
   R24        2.06492   0.00011   0.00000   0.00033   0.00033   2.06526
   R25        2.07805  -0.00011   0.00000  -0.00033  -0.00033   2.07772
   R26        2.07675   0.00003   0.00000   0.00008   0.00008   2.07682
   R27        2.07631  -0.00009   0.00000  -0.00025  -0.00025   2.07606
   R28        2.07797  -0.00024   0.00000  -0.00070  -0.00070   2.07727
   R29        2.07265  -0.00025   0.00000  -0.00072  -0.00072   2.07193
   R30        2.68906   0.00088   0.00000   0.00209   0.00209   2.69116
   R31        2.83871  -0.00051   0.00000  -0.00159  -0.00159   2.83712
   R32        2.27035   0.00352   0.00000   0.00338   0.00338   2.27373
   R33        2.53940  -0.00118   0.00000  -0.00210  -0.00210   2.53730
   R34        2.07437  -0.00005   0.00000  -0.00014  -0.00014   2.07423
   R35        2.06700   0.00000   0.00000   0.00000   0.00000   2.06699
   R36        2.07543  -0.00002   0.00000  -0.00006  -0.00006   2.07537
    A1        1.90367   0.00048   0.00000   0.00213   0.00212   1.90579
    A2        2.21476   0.00034   0.00000   0.00126   0.00126   2.21603
    A3        2.16474  -0.00082   0.00000  -0.00337  -0.00338   2.16136
    A4        1.82045  -0.00035   0.00000  -0.00142  -0.00142   1.81903
    A5        1.83979   0.00006   0.00000   0.00030   0.00029   1.84008
    A6        1.91184   0.00033   0.00000   0.00330   0.00330   1.91514
    A7        1.92969  -0.00007   0.00000  -0.00251  -0.00251   1.92718
    A8        2.05850   0.00001   0.00000  -0.00027  -0.00028   2.05823
    A9        1.89077   0.00004   0.00000   0.00072   0.00072   1.89150
   A10        1.82643  -0.00008   0.00000   0.00008   0.00008   1.82650
   A11        1.93316  -0.00007   0.00000  -0.00209  -0.00209   1.93107
   A12        2.05459   0.00002   0.00000   0.00035   0.00034   2.05493
   A13        1.83808   0.00000   0.00000   0.00033   0.00033   1.83841
   A14        1.90281   0.00005   0.00000  -0.00064  -0.00063   1.90217
   A15        1.89570   0.00007   0.00000   0.00190   0.00190   1.89760
   A16        1.89789   0.00052   0.00000   0.00184   0.00184   1.89972
   A17        2.20831  -0.00008   0.00000  -0.00023  -0.00023   2.20808
   A18        2.17694  -0.00043   0.00000  -0.00164  -0.00164   2.17530
   A19        1.92243  -0.00031   0.00000  -0.00240  -0.00240   1.92003
   A20        1.92228  -0.00031   0.00000  -0.00254  -0.00254   1.91974
   A21        1.87950   0.00044   0.00000   0.00223   0.00223   1.88173
   A22        1.89837   0.00018   0.00000   0.00210   0.00210   1.90047
   A23        1.91875   0.00003   0.00000   0.00051   0.00051   1.91926
   A24        1.92261  -0.00003   0.00000   0.00005   0.00005   1.92266
   A25        1.97456  -0.00057   0.00000  -0.00257  -0.00257   1.97199
   A26        2.14256   0.00015   0.00000   0.00087   0.00087   2.14343
   A27        2.16428   0.00042   0.00000   0.00194   0.00193   2.16622
   A28        1.86605   0.00005   0.00000  -0.00012  -0.00012   1.86593
   A29        1.95222   0.00022   0.00000   0.00241   0.00241   1.95463
   A30        1.92980  -0.00021   0.00000   0.00001   0.00000   1.92981
   A31        1.91070  -0.00019   0.00000  -0.00350  -0.00349   1.90721
   A32        1.84530   0.00001   0.00000  -0.00120  -0.00120   1.84410
   A33        1.95444   0.00011   0.00000   0.00200   0.00200   1.95644
   A34        1.85329   0.00017   0.00000   0.00241   0.00241   1.85570
   A35        1.94135   0.00009   0.00000   0.00111   0.00111   1.94246
   A36        1.96417  -0.00015   0.00000  -0.00061  -0.00061   1.96356
   A37        1.89377  -0.00015   0.00000  -0.00147  -0.00147   1.89230
[...]
 ,-0.00005487,0.00024934,0.00007224,0.00018603,-0.00012073,-0.00002207,
 0.00001334,-0.00000139,0.00002396,-0.00000471,0.00000514,0.00001162,0.
 00002524,0.00000218,0.00000216,-0.00000193,-0.00000056,-0.00000777,-0.
 00000512,0.00000271,-0.00000675,-0.00000335,0.00000221,-0.00008842,-0.
 00002604,0.00004924,-0.00002943,-0.00009450,0.00002128,-0.00007212,0.0
 0001360,0.00003134,-0.00096934,-0.00003726,-0.00068681,0.00021205,0.00
 018901,-0.00019866,0.00001080,-0.00000495,-0.00000471,-0.00000756,0.00
 000741,-0.00000174,0.00000919,0.00000385,0.00006532,-0.00001337,0.0000
 1552,0.00000563,-0.00005396,0.00002577,-0.00013146,0.00001575,0.000019
 85,0.00000563,-0.00000987,-0.00000670,-0.00000466,-0.00000312,0.000008
 48,-0.00000624,-0.00000074,0.00000662,0.00000253,-0.00000236,-0.000007
 15,0.00000525,0.00063894,0.00000380,0.00484467,0.00033551,-0.00054749,
 -0.00002855,0.00006327,0.00017386,0.00015600,-0.05740282,-0.01063320,-
 0.12823435,-0.01571655,-0.01298867,0.54637850,0.00001272,-0.00000458,-
 0.00000668,-0.00000797,-0.00001638,-0.00001139,-0.00004261,0.00000555,
 0.00004575,0.00002680,0.00003323,-0.00002515,-0.00000501,0.00000381,0.
 00000054,0.00000852,-0.00000150,-0.00000208,0.00000205,0.00000532,0.00
 000058,0.00000058,-0.00000037,-0.00000017,-0.00000168,-0.00000114,0.00
 000054,-0.00000120,-0.00000066,0.00000049,-0.00001867,-0.00000095,0.00
 000969,-0.00000913,-0.00001597,0.00000411,-0.00001452,0.00000431,0.000
 00668,-0.00009945,-0.00001629,-0.00010556,0.00008663,0.00004867,-0.000
 07829,-0.00000565,-0.00001777,-0.00000045,-0.00000032,0.00000153,0.000
 00067,0.00000550,0.00003884,0.00004541,0.00000129,0.00000873,-0.000004
 31,-0.00002474,0.00002098,-0.00012122,-0.00001298,-0.00003836,0.000117
 30,0.00000565,-0.00000011,0.00000256,-0.00000188,-0.00000010,0.0000003
 6,-0.00000025,0.00000154,-0.00000011,-0.00000084,-0.00000330,0.0000010
 5,0.00004501,-0.00021241,0.00079159,0.00008542,-0.00010436,0.00005254,
 0.00006206,0.00005236,0.00005552,0.01252088,-0.01296769,-0.02583779,-0
 .06130895,0.03746773,0.05696699,0.06301525,-0.00000202,0.00000229,0.00
 000033,-0.00000240,-0.00000037,-0.00000228,-0.00000356,0.00001483,0.00
 000443,-0.00000114,-0.00000561,0.00000497,-0.00000023,0.00000015,0.000
 00011,-0.00000242,-0.00000142,0.00000106,-0.00000013,-0.00000056,-0.00
 000075,-0.00000008,0.,-0.00000005,-0.00000001,0.00000021,0.00000029,0.
 00000034,0.00000013,0.00000004,0.00000328,-0.00000053,-0.00000086,0.00
 000194,0.00000236,0.00000014,0.00000144,-0.00000076,-0.00000045,-0.000
 02655,-0.00000440,-0.00002338,0.00002719,0.00001665,-0.00002828,-0.000
 00184,-0.00000009,-0.00000201,0.00000054,-0.00000043,0.00000037,0.0000
 0716,-0.00000786,0.00000178,-0.00000140,-0.00000179,0.00000009,-0.0000
 1473,-0.00000750,0.00000437,-0.00001925,0.00001773,-0.00001591,0.00000
 078,0.00000018,0.00000150,0.00000033,-0.00000077,0.00000016,0.00000018
 ,-0.00000063,-0.00000033,-0.00000003,0.00000126,-0.00000066,-0.0003987
 6,0.00000506,0.00015007,0.00011398,-0.00003913,0.00007142,0.00001115,0
 .00000480,0.00002401,0.00138986,-0.00670698,-0.00599833,0.03748759,-0.
 10782572,-0.11667175,-0.03614169,0.11244260,0.00000720,-0.00000009,-0.
 00000337,-0.00000630,-0.00000896,-0.00000634,-0.00001537,0.00001644,0.
 00002812,0.00001137,0.00001614,-0.00001170,-0.00000319,0.00000210,-0.0
 0000009,0.00000250,-0.00000183,-0.00000354,0.00000196,0.00000237,-0.00
 000122,0.00000020,-0.00000003,-0.00000010,-0.00000112,-0.00000040,0.00
 000112,-0.00000047,-0.00000019,0.00000013,-0.00000752,-0.00000166,0.00
 000434,-0.00000525,-0.00000814,0.00000199,-0.00000857,0.00000209,0.000
 00323,-0.00006110,-0.00002123,-0.00005946,0.00003111,0.00004605,-0.000
 03740,-0.00000074,-0.00000487,-0.00000183,-0.00000051,0.00000115,0.000
 00017,-0.00000181,0.00001464,0.00001219,-0.00000297,0.00000288,0.00000
 003,-0.00003816,-0.00001389,-0.00002939,-0.00008815,-0.00000027,0.0000
 0388,0.00000005,0.00000017,0.00000166,0.00000020,0.00000043,-0.0000005
 5,-0.00000001,0.00000063,-0.00000021,0.00000001,-0.00000141,-0.0000004
 8,-0.00039418,0.00002943,0.00046305,0.00014390,-0.00001906,0.00009849,
 0.00003006,0.00002003,0.00002742,0.00781159,-0.00686333,-0.01215499,0.
 05688994,-0.11526790,-0.24722685,-0.06159031,0.12556232,0.26087032,0.0
 0004664,-0.00000298,-0.00002073,0.00000004,-0.00002590,-0.00000247,-0.
 00006804,-0.00007192,0.00009651,0.00003089,0.00011204,-0.00005740,-0.0
 0000784,0.00000478,-0.00000217,0.00002680,0.00000822,0.00001125,0.0000
 0724,0.00001483,-0.00000086,0.00000094,-0.00000086,-0.00000020,-0.0000
 0470,-0.00000294,0.00000226,-0.00000427,-0.00000204,0.00000104,-0.0000
 5210,-0.00001903,0.00002842,-0.00001364,-0.00006328,0.00000845,-0.0000
 4514,0.00000804,0.00001685,-0.00006598,0.00003015,-0.00013627,0.000006
 17,0.00000348,0.00002931,0.00001463,0.00000329,-0.00000340,-0.00000653
 ,0.00000370,-0.00000076,0.00000183,-0.00000227,0.00003162,-0.00000424,
 0.00001344,0.00000200,-0.00002068,-0.00005515,-0.00005302,0.00001247,0
 .00000573,-0.00000720,-0.00000034,0.00000097,-0.00001574,-0.00000772,0
 .00000933,-0.00000271,-0.00000505,0.00000619,0.00000541,-0.00000608,-0
 .00001577,0.00001059,0.00080930,0.00094935,0.00013280,-0.00015325,-0.0
 0006492,-0.00012677,-0.00037217,-0.00002071,-0.00020600,-0.01109229,0.
 02543982,-0.00209124,-0.12083505,0.12008814,-0.03030397,-0.00345961,0.
 00299390,-0.00198084,0.12800991,0.00000155,0.00000055,-0.00000026,0.00
 000312,-0.00000043,0.00000056,-0.00000263,-0.00001365,-0.00000165,0.00
 000142,0.00000449,-0.00000352,0.00000023,0.00000017,-0.00000023,0.0000
 0017,0.00000038,0.00000107,-0.00000094,0.00000077,-0.00000037,0.000000
 33,-0.00000054,-0.00000010,-0.00000037,-0.00000020,0.00000021,0.000000
 61,-0.00000007,0.00000075,-0.00000446,-0.00000179,0.00000195,-0.000001
 28,-0.00000327,0.00000069,-0.00000107,-0.00000023,0.00000012,0.0000476
 9,0.00000567,0.00000709,-0.00000229,-0.00001077,0.00000991,0.00000138,
 -0.00000003,-0.00000072,-0.00000037,-0.00000005,0.00000026,-0.00000029
 ,0.00000247,0.00000375,-0.00000008,0.00000055,-0.00000035,-0.00001035,
 0.00000366,-0.00000251,-0.00000364,0.00000076,0.00000228,0.00000174,0.
 00000160,-0.00000156,-0.00000110,0.00000061,0.00000032,-0.00000119,0.0
 0000081,0.00000075,-0.00000176,-0.00000236,0.00000180,-0.00048701,0.00
 043784,-0.00025586,0.00005901,0.00000273,0.00001882,-0.00008900,0.0000
 1057,-0.00004555,-0.00694102,0.00705371,-0.00318143,0.12720110,-0.2546
 9214,0.05176824,0.00448029,-0.00829343,0.00461853,-0.13248901,0.265229
 16,0.00002904,-0.00000558,-0.00001257,0.00000159,-0.00001855,-0.000003
 08,-0.00006959,-0.00007295,0.00008462,0.00001489,0.00007675,-0.0000485
 6,-0.00000532,0.00000345,-0.00000111,0.00001734,0.00000453,0.00000622,
 0.00000447,0.00001039,0.00000028,0.00000079,-0.00000060,-0.00000014,-0
 .00000332,-0.00000217,0.00000160,-0.00000264,-0.00000126,0.00000072,-0
 .00003632,-0.00001219,0.00002065,-0.00000769,-0.00004163,0.00000646,-0
 .00002882,0.00000641,0.00001078,-0.00016667,0.00002128,-0.00019302,0.0
 0000311,-0.00000010,0.00001470,0.00000736,-0.00000017,-0.00000164,-0.0
 0000352,0.00000264,0.,0.00000167,0.00000323,0.00002184,-0.00000305,0.0
 0000758,0.00000163,-0.00000855,-0.00003299,-0.00004942,-0.00000573,0.0
 0000774,0.00000164,0.00000010,0.00000014,-0.00000728,-0.00000400,0.000
 00487,-0.00000164,-0.00000270,0.00000370,0.00000269,-0.00000323,-0.000
 00831,0.00000589,-0.00002988,0.00045467,0.00089788,0.00001812,-0.00001
 617,-0.00001584,-0.00016034,0.00000054,-0.00008410,-0.00492531,0.01568
 103,-0.00432228,-0.02931558,0.04758012,-0.05944058,0.01321611,-0.02119
 317,0.00885228,0.03453345,-0.05345467,0.05815038,0.00001240,0.00000211
 ,-0.00000518,-0.00000280,-0.00000708,-0.00000225,0.00004181,0.00002697
 ,-0.00000178,0.00002796,0.00001523,-0.00000456,-0.00000260,0.00000097,
 -0.00000068,0.00000581,0.00000234,-0.00000448,0.00000140,0.00000273,-0
 .00000114,0.00000041,-0.00000052,-0.00000001,-0.00000081,-0.00000053,0
 .00000032,-0.00000059,-0.00000042,0.00000055,-0.00001039,-0.00000121,0
 .00000328,-0.00000874,-0.00000944,0.00000071,-0.00001138,0.00000142,0.
 00000391,0.00019673,0.00001368,0.00009758,0.00003462,0.00002019,-0.000
 00745,0.00000698,0.00000077,-0.00000101,-0.00000223,0.00000112,-0.0000
 0094,0.00000226,0.00000070,0.00001675,-0.00000266,0.00000428,0.0000004
 7,-0.00000352,-0.00001604,-0.00001715,0.00001476,-0.00000461,-0.000005
 43,-0.00000310,-0.00000135,-0.00000537,-0.00000135,0.00000304,-0.00000
 135,-0.00000088,0.00000146,0.00000179,-0.00000044,-0.00000480,0.000002
 37,0.00026304,0.00015267,-0.00072317,-0.00004926,0.00005691,0.00006557
 ,-0.00007558,-0.00002090,-0.00006506,-0.01263750,-0.01657153,0.0201112
 1,-0.13494574,-0.09736625,0.08767855,-0.00365082,-0.00388126,0.0022503
 2,0.01132916,0.00968574,-0.01015627,0.13985921,-0.00000615,0.00000193,
 0.00000284,0.00000149,0.00000638,0.00000280,0.00002437,0.00001716,-0.0
 0002921,-0.00000058,-0.00002018,0.00001404,0.00000149,-0.00000102,0.00
 000041,-0.00000224,-0.00000074,0.00000215,-0.00000171,-0.00000217,-0.0
 0000049,0.00000005,-0.00000021,0.00000008,0.00000085,0.00000047,-0.000
 00055,0.00000072,0.00000027,0.00000012,0.00000750,0.00000292,-0.000004
 47,0.00000117,0.00000941,-0.00000168,0.00000609,-0.00000154,-0.0000027
 0,0.00011498,-0.00001199,0.00007957,0.00000369,0.00000189,-0.00000057,
 -0.00000179,-0.00000008,-0.00000015,0.00000034,-0.00000067,0.00000001,
 0.00000129,-0.00000397,-0.00000245,0.00000048,-0.00000075,-0.00000049,
 -0.00000657,0.00000471,0.00000441,-0.00001210,0.00000055,0.00000084,0.
 00000086,0.00000038,-0.00000003,0.00000044,-0.00000078,0.00000082,0.00
 000001,-0.00000028,-0.00000004,-0.00000038,0.00000123,-0.00000004,-0.0
 0017677,0.00003893,-0.00051724,-0.00001746,0.00003215,0.00004883,-0.00
 001351,-0.00000498,0.00001233,-0.00373182,-0.00722733,0.00258162,-0.09
 754481,-0.15174629,0.10160383,0.00975314,0.01018295,-0.00839580,-0.015
 57519,-0.01118851,0.01168657,0.10709763,0.15912188,0.00001007,0.000000
 41,-0.00000383,-0.00000125,-0.00000482,-0.00000115,0.00001169,0.000002
 80,0.00000545,0.00001423,0.00001436,-0.00000925,-0.00000193,0.00000095
 ,-0.00000080,0.00000538,0.00000309,-0.00000276,0.00000137,0.00000264,-
 0.00000062,0.00000014,-0.00000013,-0.00000007,-0.00000098,-0.00000048,
 0.00000061,-0.00000046,-0.00000038,0.00000039,-0.00000927,-0.00000155,
 0.00000412,-0.00000560,-0.00001000,0.00000062,-0.00000916,0.00000111,0
 .00000338,0.00006241,0.00000893,0.00004165,0.00001260,0.00000032,-0.00
 000625,0.00000193,0.00000134,0.00000012,-0.00000158,0.00000081,-0.0000
 0064,0.00000013,0.00000315,0.00001208,-0.00000173,0.00000412,0.0000002
 0,-0.00000473,-0.00001777,-0.00002096,-0.00000602,-0.00000015,-0.00000
 216,-0.00000108,-0.00000041,-0.00000269,-0.00000174,0.00000211,-0.0000
 0110,-0.00000054,0.00000078,0.00000084,-0.00000039,-0.00000342,0.00000
 158,0.00035575,-0.00000844,-0.00022294,-0.00002967,0.00001286,0.000032
 55,-0.00003631,-0.00000256,-0.00003926,-0.01046101,-0.01257860,0.01377
 041,0.08661479,0.10054955,-0.12918658,0.01415894,0.01740201,-0.0122806
 9,0.00260786,0.00107970,-0.00317265,-0.09283748,-0.10565990,0.13659973
 ,0.00036827,0.00004296,-0.00019758,-0.00024465,-0.00026178,-0.00022250
 ,-0.00007552,0.00091744,0.00027485,0.00066359,0.00060150,-0.00032423,-
 0.00012603,0.00007076,-0.00000926,0.00000104,-0.00002360,-0.00002050,0
 .00005659,0.00010091,-0.00001693,0.00000880,-0.00000613,-0.00000166,-0
 .00003207,-0.00001885,0.00001474,-0.00003064,-0.00001566,0.00001060,-0
 .00036755,-0.00006684,0.00017273,-0.00027852,-0.00039143,0.00005853,-0
 .00037224,0.00005341,0.00015483,-0.00082819,-0.00222730,0.00074432,-0.
 00136775,0.00266607,-0.00091603,0.00008896,-0.00004472,-0.00002082,-0.
 00004126,0.00003633,-0.00001322,0.00009332,0.00013288,0.00054958,-0.00
 013435,0.00009187,0.00005649,-0.00033313,0.00027092,-0.00093970,0.0000
 9498,-0.00002788,0.00015283,-0.00003727,-0.00003692,-0.00006161,-0.000
 02610,0.00005138,-0.00003107,-0.00000693,0.00003134,0.00002130,-0.0000
 1838,-0.00004409,0.00003409,0.00042545,0.00042200,0.00123526,-0.000574
 40,0.00167938,0.00207278,0.00048224,0.00127607,0.00172308,-0.16993904,
 -0.17004001,-0.07927736,-0.00036533,-0.03667650,-0.02211613,-0.0064933
 3,-0.00287686,-0.00270681,0.00272814,0.00013336,0.00172998,-0.00156404
 ,-0.00153701,-0.00106965,0.14963485,-0.00050669,0.00001052,0.00021818,
 -0.00004253,0.00024743,-0.00004832,0.00090018,0.00123822,-0.00122269,-
 0.00011191,-0.00132639,0.00079360,0.00006928,-0.00003478,0.00003481,-0
 .00031938,-0.00011266,-0.00006295,-0.00007503,-0.00016086,-0.00000277,
 -0.00000911,0.00001240,0.00000177,0.00005225,0.00003332,-0.00002424,0.
 00004177,0.00002075,-0.00001313,0.00054694,0.00025185,-0.00032162,0.00
 010672,0.00074227,-0.00011059,0.00047152,-0.00006962,-0.00017352,0.001
 07769,-0.00064852,0.00255111,0.00179579,0.00018854,-0.00117787,-0.0001
 8176,-0.00012562,0.00002106,0.00008109,-0.00003839,0.00002575,0.000009
 17,0.00022160,-0.00029826,0.00003105,-0.00014029,-0.00001095,0.0000545
 7,0.00073832,0.00054455,0.00002546,-0.00017229,0.00018955,0.00006360,0
 .00003259,0.00016305,0.00007112,-0.00010928,0.00004951,0.00003821,-0.0
 0005510,-0.00005403,0.00003755,0.00017270,-0.00008768,-0.02012109,-0.0
 0255362,-0.01135687,0.00340351,-0.00070239,0.00284858,0.00167931,0.000
 26222,0.00112301,-0.18713045,-0.64917214,-0.20186408,-0.01339131,-0.01
 855092,-0.01470333,-0.00296295,0.00048931,-0.00026146,-0.00074242,0.00
 100998,-0.00035809,-0.00051265,0.00098146,-0.00133113,0.17868096,0.787
 72790,-0.00006412,0.00001151,0.00003879,0.00004354,0.00005067,0.000080
 97,0.00037576,-0.00002678,-0.00028425,-0.00006701,-0.00020456,0.000106
 90,0.00003359,-0.00002145,-0.00000248,0.00003432,-0.00000169,0.0000403
 9,-0.00000973,-0.00002527,-0.00000503,-0.00000194,0.00000170,0.0000002
 3,0.00000840,0.00000577,-0.00000336,0.00000543,0.00000256,-0.00000174,
 0.00008261,0.00002719,-0.00004505,0.00002684,0.00010450,-0.00000331,0.
 00006821,-0.00001575,-0.00003012,0.00156404,0.00060178,0.00061295,0.00
 063494,-0.00064667,-0.00029199,-0.00002829,0.00000739,0.00001185,0.000
 00289,-0.00001234,-0.00000147,-0.00000538,-0.00007373,-0.00003032,0.00
 003287,0.00000188,-0.00001713,-0.00024984,0.00005264,0.00030458,-0.000
 02834,0.00000069,-0.00003482,0.00003741,-0.00000058,-0.00001334,-0.000
 00257,-0.00000794,0.00000928,-0.00000710,-0.00000388,0.00000231,-0.000
 01084,0.00002242,0.00001320,-0.00101062,0.00196289,-0.00729669,0.00038
 288,0.00194552,0.00187208,0.00057681,0.00091236,0.00163882,-0.08203489
 ,-0.19484795,-0.16041521,-0.01808794,-0.02760024,0.01225898,0.00068538
 ,-0.00045148,-0.00015290,0.00197614,0.00031519,0.00066976,-0.00461893,
 -0.00191613,-0.00478290,0.09590255,0.22914966,0.12631622,0.00172240,-0
 .00042249,-0.00078087,0.00002894,-0.00135780,-0.00011022,-0.00523823,-
 0.00602289,0.00751403,0.00044654,0.00541535,-0.00356514,-0.00030817,0.
 00022797,-0.00006131,0.00139348,0.00042101,0.00035423,0.00027266,0.000
 69161,0.00005742,0.00005204,-0.00004302,-0.00001221,-0.00021719,-0.000
 14268,0.00009949,-0.00015751,-0.00007944,0.00005134,-0.00233583,-0.000
 85445,0.00136584,-0.00028677,-0.00278327,0.00053016,-0.00177416,0.0004
 1571,0.00069096,-0.04177834,-0.00356601,-0.02167311,0.00189330,0.00035
 686,-0.00007371,0.00040205,0.00005899,-0.00020510,-0.00016159,0.000196
 82,0.00003867,-0.00024051,0.00006814,0.00054436,-0.00030009,0.00021853
 ,0.00020236,0.00103435,-0.00160999,-0.00296583,-0.00040796,0.00058668,
 0.00008517,-0.00013634,0.00007596,-0.00018869,-0.00018278,0.00023926,-
 0.00011048,-0.00010192,0.00020067,0.00011094,-0.00007128,-0.00053085,0
 .00018074,-0.16577602,-0.03045168,-0.06591273,-0.00873775,-0.00641615,
 -0.01018226,-0.02218252,-0.00220421,-0.01456258,-0.17113064,0.06871444
 ,-0.04527154,-0.03155808,0.03469129,-0.01901592,-0.00071875,0.00133468
 ,-0.00026705,-0.00679946,-0.00157984,-0.00463949,0.00117788,0.00161149
 ,0.00062327,0.02861052,0.03686970,0.00375299,0.42356776,-0.00054013,0.
 00008790,0.00017682,-0.00050411,-0.00027300,-0.00001535,-0.00137408,0.
 00146168,0.00001361,-0.00045549,-0.00067106,0.00050086,0.00001881,-0.0
 0000690,0.00002917,-0.00018476,-0.00007810,0.00042772,-0.00006483,-0.0
 0010602,0.00000080,-0.00000816,0.00000863,0.00000259,0.00003655,0.0000
 2516,-0.00001731,0.00003139,0.00001591,-0.00001032,0.00039896,0.000150
 17,-0.00020369,0.00019839,0.00051164,-0.00002279,0.00032563,-0.0000453
 0,-0.00009003,-0.00972126,-0.00008489,-0.00512800,0.00189795,0.0007722
 1,-0.00206652,-0.00032509,-0.00017743,0.00016061,0.00009795,0.00001374
 ,0.00001453,-0.00012146,0.00046879,-0.00030904,0.00002430,-0.00015826,
 -0.00000966,0.00116394,0.00065607,0.00043854,0.00003154,-0.00014947,0.
 00034650,-0.00007658,-0.00013985,0.00025762,0.00014179,-0.00015692,0.0
 0002334,0.00015327,-0.00011215,-0.00012125,0.00014299,0.00036753,-0.00
 020392,-0.01385599,-0.10055250,-0.01584082,-0.01946634,0.00022152,-0.0
 0825592,0.03117335,0.00879408,0.01773985,0.07045004,-0.20380342,0.0158
 4935,0.00635750,0.00408120,0.00179077,0.00058056,-0.00028252,0.0005351
 2,-0.00054101,0.00044101,-0.00033700,0.00130865,-0.00019319,0.00052871
 ,0.02703603,-0.12040855,-0.00931989,-0.09433036,0.40932226,0.00021560,
 0.00005215,-0.00008201,0.00011773,-0.00022400,0.00017899,0.00268826,0.
 00094655,-0.00056893,0.00063107,0.00039862,0.00017228,0.00002413,0.000
 01652,0.00000440,0.00074724,0.00024100,0.00008203,0.00002295,0.0000458
 8,-0.00004704,0.00000354,-0.00000380,-0.00000105,-0.00001109,-0.000005
 12,0.00000457,-0.00002028,-0.00001276,0.00001013,-0.00019816,-0.000044
 77,0.00004677,-0.00015056,-0.00027352,-0.00003708,-0.00021896,0.000025
 46,0.00006637,0.00709515,-0.00114840,0.01241305,-0.00114827,-0.0004991
 5,0.00116191,-0.00009871,-0.00030698,0.00011747,-0.00002262,0.00002957
 ,0.00002757,0.00029273,0.00087521,0.00052800,0.00006377,0.00017109,-0.
 00005056,0.00146929,-0.00129715,-0.00123414,0.00027527,0.00027053,0.00
 122230,0.00021568,0.00012192,-0.00011737,-0.00013367,0.00003535,0.0000
 5987,-0.00007133,0.00005875,0.00005243,-0.00010825,-0.00024582,0.00011
 855,-0.06288530,-0.02487318,-0.11236329,-0.03324611,-0.00461542,-0.016
 80861,-0.01805989,-0.00397539,-0.00912989,-0.04637457,0.01699234,-0.08
 985486,-0.02291220,0.01759242,0.00126249,0.00162070,0.00116022,0.00160
 265,-0.00448221,-0.00088319,-0.00139612,-0.00177370,0.00049066,-0.0007
 3645,0.00303651,-0.00423062,0.02943478,0.17339629,0.00311501,0.1838607
 9\\0.00000678,0.00000116,0.00002822,0.00001414,-0.00001138,-0.00001143
 ,-0.00001273,0.00002005,-0.00000209,-0.00001221,-0.00000480,-0.0000223
 3,-0.00000175,-0.00000083,0.00000394,-0.00000500,0.00000101,0.00000181
 ,0.00000725,-0.00000931,-0.00000008,-0.00000002,-0.00000268,0.00000169
 ,0.00000259,-0.00000782,0.00000602,0.00000010,-0.00000438,0.00000653,0
 .00000501,-0.00000002,0.00000785,0.00000419,-0.00000109,0.00000713,-0.
 00000384,-0.00001266,-0.00000162,-0.00000065,0.00000441,0.00000551,0.0
 0000270,0.00000390,-0.00000158,-0.00000170,0.00000211,0.00000542,0.000
 00205,-0.00000030,0.00000823,-0.00000334,-0.00000006,0.00000367,0.0000
 0435,-0.00000297,0.00000341,0.00000003,-0.00000721,-0.00000012,0.00000
 485,-0.00000096,-0.00000087,-0.00000540,-0.00000305,0.00000740,-0.0000
 0487,0.00000004,0.00000799,-0.00000347,0.00000072,0.00000737,-0.000002
 35,0.00000036,0.00000255,-0.00001463,0.00000086,-0.00001860,-0.0000025
 8,0.00000604,-0.00000426,-0.00000335,0.00000232,-0.00000023,0.00000709
 ,0.00002628,-0.00000850,0.00000540,0.00000403,-0.00000072,0.00000377,0
 .00000308,-0.00001020,0.00000236,0.00000296,-0.00001251,0.00000014,0.0
 0000319,-0.00001173,-0.00000575,-0.00000488,-0.00001469,0.00001085,-0.
 00000809,0.00000682\\\@


 A COMPLEXITY IS MERELY A DISARRANGEMENT OF SIMPLICITIES.

                                    -- G. O. ABELL IN "EXPLORATION OF THE UNIVERSE"
 Job cpu time:       0 days  1 hours 47 minutes 48.2 seconds.
 File lengths (MBytes):  RWF=    491 Int=      0 D2E=      0 Chk=     19 Scr=      1
 Normal termination of Gaussian 09 at Wed Jul  7 00:22:17 2021.
