 Entering Gaussian System, Link 0=g09
 Input=water_m06-2x_dienophile_pm6_cpcmtoluene_1_1_gd3.com
 Output=water_m06-2x_dienophile_pm6_cpcmtoluene_1_1_gd3.log
 Initial command:
 /apps/applications/gaussian/G09.D01/2/default/g09/l1.exe "/local/725660.1.40core-192G.q/Gau-381013.inp" -scrdir="/local/725660.1.40core-192G.q/"
 Entering Link 1 = /apps/applications/gaussian/G09.D01/2/default/g09/l1.exe PID=    381014.
  
 Copyright (c) 1988,1990,1992,1993,1995,1998,2003,2009,2013,
            Gaussian, Inc.  All Rights Reserved.
  
 This is part of the Gaussian(R) 09 program.  It is based on
 the Gaussian(R) 03 system (copyright 2003, Gaussian, Inc.),
 the Gaussian(R) 98 system (copyright 1998, Gaussian, Inc.),
 the Gaussian(R) 94 system (copyright 1995, Gaussian, Inc.),
 the Gaussian 92(TM) system (copyright 1992, Gaussian, Inc.),
 the Gaussian 90(TM) system (copyright 1990, Gaussian, Inc.),
 the Gaussian 88(TM) system (copyright 1988, Gaussian, Inc.),
 the Gaussian 86(TM) system (copyright 1986, Carnegie Mellon
 University), and the Gaussian 82(TM) system (copyright 1983,
 Carnegie Mellon University). Gaussian is a federally registered
 trademark of Gaussian, Inc.
  
 This software contains proprietary and confidential information,
 including trade secrets, belonging to Gaussian, Inc.
  
 This software is provided under written license and may be
 used, copied, transmitted, or stored only in accord with that
 written license.
  
 The following legend is applicable only to US Government
 contracts under FAR:
  
                    RESTRICTED RIGHTS LEGEND
  
 Use, reproduction and disclosure by the US Government is
 subject to restrictions as set forth in subparagraphs (a)
 and (c) of the Commercial Computer Software - Restricted
 Rights clause in FAR 52.227-19.
  
 Gaussian, Inc.
 340 Quinnipiac St., Bldg. 40, Wallingford CT 06492
  
  
 ---------------------------------------------------------------
 Warning -- This program may not be used in any manner that
 competes with the business of Gaussian, Inc. or will provide
 assistance to any competitor of Gaussian, Inc.  The licensee
 of this program is prohibited from giving any competitor of
 Gaussian, Inc. access to this program.  By using this program,
 the user acknowledges that Gaussian, Inc. is engaged in the
 business of creating and licensing software in the field of
 computational chemistry and represents and warrants to the
 licensee that it is not a competitor of Gaussian, Inc. and that
 it will not use this program in any manner prohibited above.
 ---------------------------------------------------------------
  

 Cite this work as:
 Gaussian 09, Revision D.01,
 M. J. Frisch, G. W. Trucks, H. B. Schlegel, G. E. Scuseria, 
 M. A. Robb, J. R. Cheeseman, G. Scalmani, V. Barone, B. Mennucci, 
 G. A. Petersson, H. Nakatsuji, M. Caricato, X. Li, H. P. Hratchian, 
 A. F. Izmaylov, J. Bloino, G. Zheng, J. L. Sonnenberg, M. Hada, 
 M. Ehara, K. Toyota, R. Fukuda, J. Hasegawa, M. Ishida, T. Nakajima, 
 Y. Honda, O. Kitao, H. Nakai, T. Vreven, J. A. Montgomery, Jr., 
 J. E. Peralta, F. Ogliaro, M. Bearpark, J. J. Heyd, E. Brothers, 
 K. N. Kudin, V. N. Staroverov, T. Keith, R. Kobayashi, J. Normand, 
 K. Raghavachari, A. Rendell, J. C. Burant, S. S. Iyengar, J. Tomasi, 
 M. Cossi, N. Rega, J. M. Millam, M. Klene, J. E. Knox, J. B. Cross, 
 V. Bakken, C. Adamo, J. Jaramillo, R. Gomperts, R. E. Stratmann, 
 O. Yazyev, A. J. Austin, R. Cammi, C. Pomelli, J. W. Ochterski, 
 R. L. Martin, K. Morokuma, V. G. Zakrzewski, G. A. Voth, 
 P. Salvador, J. J. Dannenberg, S. Dapprich, A. D. Daniels, 
 O. Farkas, J. B. Foresman, J. V. Ortiz, J. Cioslowski, 
 and D. J. Fox, Gaussian, Inc., Wallingford CT, 2013.
 
 ******************************************
 Gaussian 09:  ES64L-G09RevD.01 24-Apr-2013
                 6-Sep-2020 
 ******************************************
 %nprocshared=4
 Will use up to    4 processors via shared memory.
 %chk=water_m06-2x_dienophile_pm6_cpcmtoluene_1_1_gd3.chk
 ----------------------------------------------------------------------
 # opt freq scrf=(cpcm,solvent=water) geom=connectivity def2svp m062x e
 mpiricaldispersion=gd3
 ----------------------------------------------------------------------
 1/14=-1,18=20,19=15,26=3,38=1,57=2/1,3;
 2/9=110,12=2,17=6,18=5,40=1/2;
 3/5=43,7=101,11=2,16=1,25=1,30=1,70=2101,71=1,72=1,74=-55,124=31/1,2,3;
 4//1;
 5/5=2,38=5,53=1/2;
 6/7=2,8=2,9=2,10=2,28=1/1;
 7//1,2,3,16;
 1/14=-1,18=20,19=15,26=3/3(2);
 2/9=110/2;
 99//99;
 2/9=110/2;
 3/5=43,7=101,11=2,16=1,25=1,30=1,70=2105,71=1,72=1,74=-55,124=31/1,2,3;
 4/5=5,16=3,69=1/1;
 5/5=2,38=5,53=1/2;
 7//1,2,3,16;
 1/14=-1,18=20,19=15,26=3/3(-5);
 2/9=110/2;
 6/7=2,8=2,9=2,10=2,19=2,28=1/1;
 99/9=1/99;
 -------------------
 Title Card Required
 -------------------
 Symbolic Z-matrix:
 Charge =  0 Multiplicity = 1
 C                    -1.13627  -0.22271   0.00101 
 C                    -0.63396  -1.64231   0.00009 
 C                     0.69894  -1.61558   0.00019 
 C                     1.14755  -0.17777   0.00105 
 H                    -1.30698  -2.49723  -0.00131 
 H                     1.40617  -2.4425   -0.00104 
 C                    -0.05149   2.03383   0.00003 
 H                     0.97787   2.39467  -0.10362 
 H                    -0.65471   2.39504  -0.84271 
 H                    -0.47832   2.414     0.93786 
 N                    -0.01095   0.58915   0.00193 
 O                     2.27206   0.25016  -0.00113 
 O                    -2.27407   0.16974  -0.00098 
 

 GradGradGradGradGradGradGradGradGradGradGradGradGradGradGradGradGradGrad
 Berny optimization.
 Initialization pass.
                           ----------------------------
                           !    Initial Parameters    !
                           ! (Angstroms and Degrees)  !
 --------------------------                            --------------------------
 ! Name  Definition              Value          Derivative Info.                !
 --------------------------------------------------------------------------------
 ! R1    R(1,2)                  1.5058         estimate D2E/DX2                !
 ! R2    R(1,11)                 1.3876         estimate D2E/DX2                !
 ! R3    R(1,13)                 1.2036         estimate D2E/DX2                !
 ! R4    R(2,3)                  1.3332         estimate D2E/DX2                !
 ! R5    R(2,5)                  1.088          estimate D2E/DX2                !
 ! R6    R(3,4)                  1.5062         estimate D2E/DX2                !
 ! R7    R(3,6)                  1.0881         estimate D2E/DX2                !
 ! R8    R(4,11)                 1.3893         estimate D2E/DX2                !
 ! R9    R(4,12)                 1.2032         estimate D2E/DX2                !
 ! R10   R(7,8)                  1.0957         estimate D2E/DX2                !
 ! R11   R(7,9)                  1.0975         estimate D2E/DX2                !
 ! R12   R(7,10)                 1.0983         estimate D2E/DX2                !
 ! R13   R(7,11)                 1.4453         estimate D2E/DX2                !
 ! A1    A(2,1,11)             106.3226         estimate D2E/DX2                !
 ! A2    A(2,1,13)             128.5155         estimate D2E/DX2                !
 ! A3    A(11,1,13)            125.1617         estimate D2E/DX2                !
 ! A4    A(1,2,3)              108.337          estimate D2E/DX2                !
 ! A5    A(1,2,5)              122.3036         estimate D2E/DX2                !
 ! A6    A(3,2,5)              129.3593         estimate D2E/DX2                !
 ! A7    A(2,3,4)              108.477          estimate D2E/DX2                !
 ! A8    A(2,3,6)              129.3905         estimate D2E/DX2                !
 ! A9    A(4,3,6)              122.1324         estimate D2E/DX2                !
 ! A10   A(3,4,11)             106.1758         estimate D2E/DX2                !
 ! A11   A(3,4,12)             128.1625         estimate D2E/DX2                !
 ! A12   A(11,4,12)            125.6615         estimate D2E/DX2                !
 ! A13   A(8,7,9)              109.5922         estimate D2E/DX2                !
 ! A14   A(8,7,10)             109.3835         estimate D2E/DX2                !
 ! A15   A(8,7,11)             107.636          estimate D2E/DX2                !
 ! A16   A(9,7,10)             109.1567         estimate D2E/DX2                !
 ! A17   A(9,7,11)             110.2065         estimate D2E/DX2                !
 ! A18   A(10,7,11)            110.8421         estimate D2E/DX2                !
 ! A19   A(1,11,4)             110.6875         estimate D2E/DX2                !
 ! A20   A(1,11,7)             124.2007         estimate D2E/DX2                !
 ! A21   A(4,11,7)             125.1116         estimate D2E/DX2                !
 ! D1    D(11,1,2,3)            -0.0129         estimate D2E/DX2                !
 ! D2    D(11,1,2,5)          -179.9644         estimate D2E/DX2                !
 ! D3    D(13,1,2,3)           179.8679         estimate D2E/DX2                !
 ! D4    D(13,1,2,5)            -0.0836         estimate D2E/DX2                !
 ! D5    D(2,1,11,4)             0.0277         estimate D2E/DX2                !
 ! D6    D(2,1,11,7)           179.8581         estimate D2E/DX2                !
 ! D7    D(13,1,11,4)         -179.8582         estimate D2E/DX2                !
 ! D8    D(13,1,11,7)           -0.0278         estimate D2E/DX2                !
 ! D9    D(1,2,3,4)             -0.0056         estimate D2E/DX2                !
 ! D10   D(1,2,3,6)           -179.9506         estimate D2E/DX2                !
 ! D11   D(5,2,3,4)            179.9413         estimate D2E/DX2                !
 ! D12   D(5,2,3,6)             -0.0037         estimate D2E/DX2                !
 ! D13   D(2,3,4,11)             0.0222         estimate D2E/DX2                !
 ! D14   D(2,3,4,12)          -179.8487         estimate D2E/DX2                !
 ! D15   D(6,3,4,11)           179.9721         estimate D2E/DX2                !
 ! D16   D(6,3,4,12)             0.1011         estimate D2E/DX2                !
 ! D17   D(3,4,11,1)            -0.031          estimate D2E/DX2                !
 ! D18   D(3,4,11,7)          -179.8595         estimate D2E/DX2                !
 ! D19   D(12,4,11,1)          179.8442         estimate D2E/DX2                !
 ! D20   D(12,4,11,7)            0.0157         estimate D2E/DX2                !
 ! D21   D(8,7,11,1)          -174.2301         estimate D2E/DX2                !
 ! D22   D(8,7,11,4)             5.576          estimate D2E/DX2                !
 ! D23   D(9,7,11,1)           -54.7615         estimate D2E/DX2                !
 ! D24   D(9,7,11,4)           125.0445         estimate D2E/DX2                !
 ! D25   D(10,7,11,1)           66.1877         estimate D2E/DX2                !
 ! D26   D(10,7,11,4)         -114.0063         estimate D2E/DX2                !
 --------------------------------------------------------------------------------
 Trust Radius=3.00D-01 FncErr=1.00D-07 GrdErr=1.00D-06
 Number of steps in this run=     70 maximum allowed number of steps=    100.
 GradGradGradGradGradGradGradGradGradGradGradGradGradGradGradGradGradGrad

                          Input orientation:                          
 ---------------------------------------------------------------------
 Center     Atomic      Atomic             Coordinates (Angstroms)
 Number     Number       Type             X           Y           Z
 ---------------------------------------------------------------------
      1          6           0       -1.136268   -0.222707    0.001006
      2          6           0       -0.633962   -1.642307    0.000088
      3          6           0        0.698939   -1.615583    0.000194
      4          6           0        1.147551   -0.177769    0.001047
      5          1           0       -1.306976   -2.497225   -0.001308
      6          1           0        1.406170   -2.442499   -0.001038
      7          6           0       -0.051488    2.033834    0.000031
      8          1           0        0.977865    2.394673   -0.103623
      9          1           0       -0.654713    2.395041   -0.842712
     10          1           0       -0.478315    2.414002    0.937856
     11          7           0       -0.010946    0.589146    0.001925
     12          8           0        2.272061    0.250162   -0.001129
     13          8           0       -2.274066    0.169736   -0.000978
 ---------------------------------------------------------------------
                    Distance matrix (angstroms):
                    1          2          3          4          5
     1  C    0.000000
     2  C    1.505847   0.000000
     3  C    2.303929   1.333169   0.000000
     4  C    2.284261   2.306222   1.506175   0.000000
     5  H    2.280916   1.088042   2.191116   3.377067   0.000000
     6  H    3.375125   2.191449   1.088103   2.279450   2.713698
     7  C    2.503742   3.722001   3.725773   2.515727   4.701781
     8  H    3.366182   4.348097   4.021285   2.580156   5.400151
     9  H    2.792196   4.124430   4.316013   3.252605   5.006763
    10  H    2.874513   4.166207   4.301476   3.199739   5.068418
    11  N    1.387608   2.316794   2.316197   1.389343   3.347445
    12  O    3.440976   3.467911   2.440434   1.203184   4.511944
    13  O    1.203578   2.444063   3.467870   3.439219   2.836890
                    6          7          8          9         10
     6  H    0.000000
     7  C    4.707688   0.000000
     8  H    4.857180   1.095681   0.000000
     9  H    5.325171   1.097528   1.792084   0.000000
    10  H    5.293242   1.098283   1.790394   1.789385   0.000000
    11  N    3.346505   1.445258   2.061265   2.095019   2.103450
    12  O    2.828461   2.929226   2.506866   3.724886   3.623322
    13  O    4.513082   2.900813   3.941565   2.877986   3.023716
                   11         12         13
    11  N    0.000000
    12  O    2.308038   0.000000
    13  O    2.301657   4.546838   0.000000
 Stoichiometry    C5H5NO2
 Framework group  C1[X(C5H5NO2)]
 Deg. of freedom    33
 Full point group                 C1      NOp   1
 Largest Abelian subgroup         C1      NOp   1
 Largest concise Abelian subgroup C1      NOp   1
                         Standard orientation:                         
 ---------------------------------------------------------------------
 Center     Atomic      Atomic             Coordinates (Angstroms)
 Number     Number       Type             X           Y           Z
 ---------------------------------------------------------------------
      1          6           0       -1.136268   -0.222706    0.001006
      2          6           0       -0.633963   -1.642307    0.000088
      3          6           0        0.698938   -1.615584    0.000194
      4          6           0        1.147551   -0.177770    0.001047
      5          1           0       -1.306978   -2.497224   -0.001308
      6          1           0        1.406168   -2.442500   -0.001038
      7          6           0       -0.051486    2.033834    0.000031
      8          1           0        0.977867    2.394672   -0.103623
      9          1           0       -0.654711    2.395041   -0.842712
     10          1           0       -0.478313    2.414002    0.937856
     11          7           0       -0.010946    0.589146    0.001925
     12          8           0        2.272061    0.250160   -0.001129
     13          8           0       -2.274066    0.169738   -0.000978
 ---------------------------------------------------------------------
 Rotational constants (GHZ):      3.3267132      2.3587352      1.3924294
 Standard basis: def2SVP (5D, 7F)
 There are   145 symmetry adapted cartesian basis functions of A   symmetry.
 There are   137 symmetry adapted basis functions of A   symmetry.
   137 basis functions,   235 primitive gaussians,   145 cartesian basis functions
    29 alpha electrons       29 beta electrons
       nuclear repulsion energy       355.8570822364 Hartrees.
 NAtoms=   13 NActive=   13 NUniq=   13 SFac= 1.00D+00 NAtFMM=   60 NAOKFM=F Big=F
 Integral buffers will be    131072 words long.
 Raffenetti 2 integral format.
 Two-electron integral symmetry is turned on.
 Nuclear repulsion after empirical dispersion term =      355.8568573690 Hartrees.
 ------------------------------------------------------------------------------
 Polarizable Continuum Model (PCM)
 =================================
 Model                : C-PCM.
 Atomic radii         : UFF (Universal Force Field).
 Polarization charges : Total charges.
 Charge compensation  : None.
 Solution method      : On-the-fly selection.
 Cavity type          : Scaled VdW (van der Waals Surface) (Alpha=1.100).
 Cavity algorithm     : GePol (No added spheres)
                        Default sphere list used, NSphG=   13.
                        Lebedev-Laikov grids with approx.  5.0 points / Ang**2.
                        Smoothing algorithm: Karplus/York (Gamma=1.0000).
                        Polarization charges: spherical gaussians, with
                                              point-specific exponents (IZeta= 3).
                        Self-potential: point-specific (ISelfS= 7).
                        Self-field    : sphere-specific E.n sum rule (ISelfD= 2).
 1st derivatives      : Analytical E(r).r(x)/FMM algorithm (CHGder, D1EAlg=3).
                        Cavity 1st derivative terms included.
 Solvent              : Water, Eps=  78.355300 Eps(inf)=   1.777849
 ------------------------------------------------------------------------------
 Spheres list:
 ISph  on   Nord     Re0    Alpha      Xe            Ye            Ze
    1   C      1    1.9255  1.100     -1.136268     -0.222706      0.001006
    2   C      2    1.9255  1.100     -0.633963     -1.642307      0.000088
    3   C      3    1.9255  1.100      0.698938     -1.615584      0.000194
    4   C      4    1.9255  1.100      1.147551     -0.177770      0.001047
    5   H      5    1.4430  1.100     -1.306978     -2.497224     -0.001308
    6   H      6    1.4430  1.100      1.406168     -2.442500     -0.001038
    7   C      7    1.9255  1.100     -0.051486      2.033834      0.000031
    8   H      8    1.4430  1.100      0.977867      2.394672     -0.103623
    9   H      9    1.4430  1.100     -0.654711      2.395041     -0.842712
   10   H     10    1.4430  1.100     -0.478313      2.414002      0.937856
   11   N     11    1.8300  1.100     -0.010946      0.589146      0.001925
   12   O     12    1.7500  1.100      2.272061      0.250160     -0.001129
   13   O     13    1.7500  1.100     -2.274066      0.169738     -0.000978
 ------------------------------------------------------------------------------
 One-electron integrals computed using PRISM.
   1 Symmetry operations used in ECPInt.
 ECPInt:  NShTT=    2016 NPrTT=    7500 LenC2=    2004 LenP2D=    6021.
 LDataN:  DoStor=T MaxTD1= 4 Len=   56
 NBasis=   137 RedAO= T EigKep=  7.17D-04  NBF=   137
 NBsUse=   137 1.00D-06 EigRej= -1.00D+00 NBFU=   137
 ExpMin= 1.22D-01 ExpMax= 2.27D+03 ExpMxC= 3.41D+02 IAcc=1 IRadAn=         1 AccDes= 0.00D+00
 Harris functional with IExCor= 1009 and IRadAn=       1 diagonalized for initial guess.
 HarFok:  IExCor= 1009 AccDes= 0.00D+00 IRadAn=         1 IDoV= 1 UseB2=F ITyADJ=14
 ICtDFT=  3500011 ScaDFX=  1.000000  1.000000  1.000000  1.000000
 FoFCou: FMM=F IPFlag=           0 FMFlag=      100000 FMFlg1=           0
         NFxFlg=           0 DoJE=T BraDBF=F KetDBF=T FulRan=T
         wScrn=  0.000000 ICntrl=     500 IOpCl=  0 I1Cent=   200000004 NGrid=           0
         NMat0=    1 NMatS0=      1 NMatT0=    0 NMatD0=    1 NMtDS0=    0 NMtDT0=    0
 Petite list used in FoFCou.
 Requested convergence on RMS density matrix=1.00D-08 within 128 cycles.
 Requested convergence on MAX density matrix=1.00D-06.
 Requested convergence on             energy=1.00D-06.
 No special actions if energy rises.
 Inv3:  Mode=1 IEnd=     4892187.
 Iteration    1 A*A^-1 deviation from unit magnitude is 3.77D-15 for   1265.
 Iteration    1 A*A^-1 deviation from orthogonality  is 1.35D-15 for   1276   1128.
 Iteration    1 A^-1*A deviation from unit magnitude is 3.55D-15 for   1265.
 Iteration    1 A^-1*A deviation from orthogonality  is 1.52D-15 for   1269    774.
 Error on total polarization charges =  0.00580
 SCF Done:  E(RM062X) =  -398.294648960     A.U. after   12 cycles
            NFock= 12  Conv=0.76D-08     -V/T= 2.0090

 **********************************************************************

            Population analysis using the SCF density.

 **********************************************************************

 Orbital symmetries:
       Occupied  (A) (A) (A) (A) (A) (A) (A) (A) (A) (A) (A) (A)
                 (A) (A) (A) (A) (A) (A) (A) (A) (A) (A) (A) (A)
                 (A) (A) (A) (A) (A)
       Virtual   (A) (A) (A) (A) (A) (A) (A) (A) (A) (A) (A) (A)
                 (A) (A) (A) (A) (A) (A) (A) (A) (A) (A) (A) (A)
                 (A) (A) (A) (A) (A) (A) (A) (A) (A) (A) (A) (A)
                 (A) (A) (A) (A) (A) (A) (A) (A) (A) (A) (A) (A)
                 (A) (A) (A) (A) (A) (A) (A) (A) (A) (A) (A) (A)
                 (A) (A) (A) (A) (A) (A) (A) (A) (A) (A) (A) (A)
                 (A) (A) (A) (A) (A) (A) (A) (A) (A) (A) (A) (A)
                 (A) (A) (A) (A) (A) (A) (A) (A) (A) (A) (A) (A)
                 (A) (A) (A) (A) (A) (A) (A) (A) (A) (A) (A) (A)
 The electronic state is 1-A.
 Alpha  occ. eigenvalues --  -19.64297 -19.64245 -14.80932 -10.68797 -10.68662
 Alpha  occ. eigenvalues --  -10.59499 -10.59223 -10.59122  -1.19656  -1.17743
 Alpha  occ. eigenvalues --   -1.07108  -0.92745  -0.79984  -0.76262  -0.69565
 Alpha  occ. eigenvalues --   -0.63862  -0.58414  -0.57576  -0.55188  -0.52874
 Alpha  occ. eigenvalues --   -0.52355  -0.50311  -0.48784  -0.48384  -0.46811
 Alpha  occ. eigenvalues --   -0.38243  -0.36872  -0.35105  -0.33756
 Alpha virt. eigenvalues --   -0.05879   0.10230   0.11256   0.11768   0.13168
 Alpha virt. eigenvalues --    0.15906   0.17622   0.18914   0.19584   0.24042
 Alpha virt. eigenvalues --    0.25667   0.26155   0.30320   0.35211   0.41149
 Alpha virt. eigenvalues --    0.41289   0.44696   0.45455   0.47388   0.49844
 Alpha virt. eigenvalues --    0.50141   0.51678   0.57542   0.60274   0.62461
 Alpha virt. eigenvalues --    0.65021   0.65092   0.68204   0.69361   0.70323
 Alpha virt. eigenvalues --    0.70542   0.72113   0.72407   0.73280   0.75179
 Alpha virt. eigenvalues --    0.76862   0.78495   0.82943   0.86439   0.92259
 Alpha virt. eigenvalues --    0.96550   0.98773   1.07705   1.08710   1.13813
 Alpha virt. eigenvalues --    1.14290   1.18538   1.22006   1.25482   1.27298
 Alpha virt. eigenvalues --    1.28401   1.34113   1.34443   1.38769   1.43551
 Alpha virt. eigenvalues --    1.47086   1.54562   1.56544   1.62221   1.63418
 Alpha virt. eigenvalues --    1.65118   1.67046   1.75447   1.76052   1.79069
 Alpha virt. eigenvalues --    1.81336   1.81781   1.82925   1.86908   1.90162
 Alpha virt. eigenvalues --    1.95194   1.99825   2.00749   2.05184   2.08357
 Alpha virt. eigenvalues --    2.08555   2.12188   2.15105   2.20552   2.26313
 Alpha virt. eigenvalues --    2.31849   2.39740   2.40946   2.42511   2.44740
 Alpha virt. eigenvalues --    2.46762   2.53171   2.61719   2.65817   2.67075
 Alpha virt. eigenvalues --    2.70650   2.74957   2.76043   2.78553   2.81578
 Alpha virt. eigenvalues --    2.83135   2.85203   2.93459   2.95351   3.02303
 Alpha virt. eigenvalues --    3.20245   3.22501   3.24173   3.35812   3.43408
 Alpha virt. eigenvalues --    3.61029   3.68030   3.70966
          Condensed to atoms (all electrons):
               1          2          3          4          5          6
     1  C    4.606073   0.235158   0.043709  -0.124549  -0.042823   0.010010
     2  C    0.235158   5.254081   0.314232   0.034767   0.438867  -0.053087
     3  C    0.043709   0.314232   5.272029   0.228544  -0.053707   0.438386
     4  C   -0.124549   0.034767   0.228544   4.610561   0.010141  -0.042465
     5  H   -0.042823   0.438867  -0.053707   0.010141   0.573292  -0.006616
     6  H    0.010010  -0.053087   0.438386  -0.042465  -0.006616   0.572762
     7  C   -0.015727   0.009922   0.007696  -0.022327  -0.000154  -0.000093
     8  H    0.005398  -0.001053   0.003500  -0.005598   0.000015  -0.000030
     9  H   -0.004203   0.001225  -0.000723   0.002670  -0.000003   0.000008
    10  H   -0.003709   0.000660  -0.000599   0.001401   0.000001   0.000007
    11  N    0.275969  -0.127548  -0.133214   0.288052   0.005053   0.004972
    12  O   -0.000410   0.005219  -0.074136   0.741984  -0.000056   0.001850
    13  O    0.745442  -0.072805   0.004850  -0.000417   0.001929  -0.000060
               7          8          9         10         11         12
     1  C   -0.015727   0.005398  -0.004203  -0.003709   0.275969  -0.000410
     2  C    0.009922  -0.001053   0.001225   0.000660  -0.127548   0.005219
     3  C    0.007696   0.003500  -0.000723  -0.000599  -0.133214  -0.074136
     4  C   -0.022327  -0.005598   0.002670   0.001401   0.288052   0.741984
     5  H   -0.000154   0.000015  -0.000003   0.000001   0.005053  -0.000056
     6  H   -0.000093  -0.000030   0.000008   0.000007   0.004972   0.001850
     7  C    4.482593   0.399805   0.409546   0.412417   0.243149  -0.003317
     8  H    0.399805   0.570859  -0.017244  -0.019196  -0.027017   0.015881
     9  H    0.409546  -0.017244   0.581662  -0.024972  -0.027174   0.000127
    10  H    0.412417  -0.019196  -0.024972   0.581186  -0.026982   0.000074
    11  N    0.243149  -0.027017  -0.027174  -0.026982   7.131383  -0.099928
    12  O   -0.003317   0.015881   0.000127   0.000074  -0.099928   7.661154
    13  O    0.010423   0.000212   0.002517   0.000921  -0.105330  -0.000016
              13
     1  C    0.745442
     2  C   -0.072805
     3  C    0.004850
     4  C   -0.000417
     5  H    0.001929
     6  H   -0.000060
     7  C    0.010423
     8  H    0.000212
     9  H    0.002517
    10  H    0.000921
    11  N   -0.105330
    12  O   -0.000016
    13  O    7.663527
 Mulliken charges:
               1
     1  C    0.269662
     2  C   -0.039638
     3  C   -0.050568
     4  C    0.277236
     5  H    0.074062
     6  H    0.074356
     7  C    0.066068
     8  H    0.074468
     9  H    0.076565
    10  H    0.078792
    11  N   -0.401385
    12  O   -0.248426
    13  O   -0.251193
 Sum of Mulliken charges =   0.00000
 Mulliken charges with hydrogens summed into heavy atoms:
               1
     1  C    0.269662
     2  C    0.034424
     3  C    0.023788
     4  C    0.277236
     7  C    0.295893
    11  N   -0.401385
    12  O   -0.248426
    13  O   -0.251193
 Electronic spatial extent (au):  <R**2>=            820.0628
 Charge=              0.0000 electrons
 Dipole moment (field-independent basis, Debye):
    X=              0.0630    Y=             -1.4766    Z=             -0.0046  Tot=              1.4779
 Quadrupole moment (field-independent basis, Debye-Ang):
   XX=            -60.2242   YY=            -35.2983   ZZ=            -44.9927
   XY=             -0.3735   XZ=              0.0033   YZ=             -0.0187
 Traceless Quadrupole moment (field-independent basis, Debye-Ang):
   XX=            -13.3858   YY=             11.5401   ZZ=              1.8457
   XY=             -0.3735   XZ=              0.0033   YZ=             -0.0187
 Octapole moment (field-independent basis, Debye-Ang**2):
  XXX=              1.0873  YYY=             -0.8067  ZZZ=              0.1660  XYY=             -0.1871
  XXY=             -9.1859  XXZ=             -0.1607  XZZ=             -0.7153  YZZ=              4.4038
  YYZ=             -0.0563  XYZ=             -0.0010
 Hexadecapole moment (field-independent basis, Debye-Ang**3):
 XXXX=           -620.6822 YYYY=           -406.3801 ZZZZ=            -48.2560 XXXY=             -0.9386
 XXXZ=              0.0333 YYYX=              0.5979 YYYZ=             -0.0064 ZZZX=              0.0018
 ZZZY=              0.4478 XXYY=           -144.8953 XXZZ=            -90.5954 YYZZ=            -87.7116
 XXYZ=             -0.5054 YYXZ=             -0.0217 ZZXY=             -1.3933
 N-N= 3.558568573690D+02 E-N=-1.640681073326D+03  KE= 3.947564956533D+02
   1 Symmetry operations used in ECPInt.
 ECPInt:  NShTT=    2016 NPrTT=    7500 LenC2=    2004 LenP2D=    6021.
 LDataN:  DoStor=T MaxTD1= 5 Len=  102
 D1PCM: C-PCM CHGder 1st derivatives, ID1Alg=3 FixD1E=F DoIter=F DoCFld=F I1PDM=0.
 Calling FoFJK, ICntrl=      2127 FMM=F ISym2X=0 I1Cent= 0 IOpClX= 0 NMat=1 NMatS=1 NMatT=0.
 ***** Axes restored to original set *****
 -------------------------------------------------------------------
 Center     Atomic                   Forces (Hartrees/Bohr)
 Number     Number              X              Y              Z
 -------------------------------------------------------------------
      1        6          -0.000081199    0.000007103   -0.000039869
      2        6          -0.000103637   -0.000004852    0.000021234
      3        6           0.000099286   -0.000003785    0.000027776
      4        6           0.000070638    0.000016157   -0.000059701
      5        1           0.000029648   -0.000015320    0.000009196
      6        1          -0.000025662   -0.000013044    0.000007235
      7        6          -0.000045191    0.000048948    0.000012658
      8        1           0.000035564    0.000014014   -0.000012016
      9        1          -0.000011095    0.000008186   -0.000010227
     10        1          -0.000007237    0.000018632   -0.000009978
     11        7           0.000036882    0.000009821    0.000020515
     12        8          -0.000094443   -0.000046436    0.000017377
     13        8           0.000096444   -0.000039423    0.000015801
 -------------------------------------------------------------------
 Cartesian Forces:  Max     0.000103637 RMS     0.000043070

 GradGradGradGradGradGradGradGradGradGradGradGradGradGradGradGradGradGrad
 Berny optimization.
 FormGI is forming the generalized inverse of G from B-inverse, IUseBI=4.
 Internal  Forces:  Max     0.000105125 RMS     0.000028668
 Search for a local minimum.
 Step number   1 out of a maximum of   70
 All quantities printed in internal units (Hartrees-Bohrs-Radians)
 Mixed Optimization -- En-DIIS/RFO-DIIS
 Second derivative matrix not updated -- first step.
 ITU=  0
     Eigenvalues ---    0.01093   0.01119   0.01209   0.01327   0.01599
     Eigenvalues ---    0.01670   0.01887   0.02269   0.07535   0.07857
     Eigenvalues ---    0.16000   0.16000   0.16000   0.16000   0.16000
     Eigenvalues ---    0.22718   0.24802   0.25000   0.25000   0.25000
     Eigenvalues ---    0.30428   0.31557   0.33873   0.33957   0.34164
     Eigenvalues ---    0.35033   0.35040   0.38873   0.44113   0.46306
     Eigenvalues ---    0.56478   1.03046   1.03239
 RFO step:  Lambda=-2.36314832D-07 EMin= 1.09310386D-02
 Linear search not attempted -- first point.
 Iteration  1 RMS(Cart)=  0.00041664 RMS(Int)=  0.00000018
 Iteration  2 RMS(Cart)=  0.00000022 RMS(Int)=  0.00000012
 Variable       Old X    -DE/DX   Delta X   Delta X   Delta X     New X
                                 (Linear)    (Quad)   (Total)
    R1        2.84564   0.00000   0.00000   0.00002   0.00002   2.84566
    R2        2.62220   0.00004   0.00000   0.00009   0.00009   2.62228
    R3        2.27443  -0.00010   0.00000  -0.00010  -0.00010   2.27433
    R4        2.51932   0.00004   0.00000   0.00008   0.00008   2.51940
    R5        2.05610  -0.00001   0.00000  -0.00002  -0.00002   2.05608
    R6        2.84626   0.00001   0.00000   0.00004   0.00004   2.84629
    R7        2.05622  -0.00001   0.00000  -0.00002  -0.00002   2.05620
    R8        2.62548   0.00003   0.00000   0.00007   0.00007   2.62554
    R9        2.27369  -0.00011   0.00000  -0.00010  -0.00010   2.27359
   R10        2.07054   0.00004   0.00000   0.00012   0.00012   2.07065
   R11        2.07403   0.00001   0.00000   0.00003   0.00003   2.07406
   R12        2.07545   0.00001   0.00000   0.00002   0.00002   2.07547
   R13        2.73114   0.00009   0.00000   0.00023   0.00023   2.73137
    A1        1.85568   0.00003   0.00000   0.00012   0.00012   1.85580
    A2        2.24302  -0.00002   0.00000  -0.00008  -0.00008   2.24294
    A3        2.18448  -0.00001   0.00000  -0.00004  -0.00004   2.18445
    A4        1.89084  -0.00001   0.00000  -0.00005  -0.00005   1.89079
    A5        2.13460   0.00004   0.00000   0.00023   0.00023   2.13483
    A6        2.25775  -0.00003   0.00000  -0.00018  -0.00018   2.25757
    A7        1.89328  -0.00001   0.00000  -0.00003  -0.00003   1.89325
    A8        2.25829  -0.00003   0.00000  -0.00017  -0.00017   2.25812
    A9        2.13161   0.00003   0.00000   0.00020   0.00020   2.13181
   A10        1.85312   0.00003   0.00000   0.00011   0.00011   1.85322
   A11        2.23686  -0.00003   0.00000  -0.00010  -0.00010   2.23676
   A12        2.19321   0.00000   0.00000   0.00000   0.00000   2.19320
   A13        1.91275   0.00000   0.00000  -0.00002  -0.00002   1.91273
   A14        1.90910  -0.00001   0.00000  -0.00002  -0.00002   1.90908
   A15        1.87860   0.00000   0.00000  -0.00001  -0.00001   1.87860
   A16        1.90514  -0.00002   0.00000  -0.00011  -0.00011   1.90503
   A17        1.92347   0.00001   0.00000   0.00004   0.00004   1.92351
   A18        1.93456   0.00002   0.00000   0.00012   0.00012   1.93468
   A19        1.93186  -0.00004   0.00000  -0.00016  -0.00016   1.93171
   A20        2.16771   0.00000   0.00000  -0.00002  -0.00002   2.16769
   A21        2.18361   0.00004   0.00000   0.00017   0.00017   2.18378
    D1       -0.00023  -0.00001   0.00000  -0.00050  -0.00050  -0.00073
    D2       -3.14097  -0.00001   0.00000  -0.00058  -0.00058  -3.14156
    D3        3.13929   0.00001   0.00000   0.00088   0.00088   3.14016
    D4       -0.00146   0.00001   0.00000   0.00079   0.00079  -0.00067
    D5        0.00048   0.00001   0.00000   0.00098   0.00098   0.00146
    D6        3.13912   0.00001   0.00000   0.00091   0.00091   3.14003
    D7       -3.13912   0.00000   0.00000  -0.00034  -0.00034  -3.13946
    D8       -0.00048   0.00000   0.00000  -0.00041  -0.00041  -0.00089
    D9       -0.00010   0.00000   0.00000  -0.00013  -0.00013  -0.00023
   D10       -3.14073   0.00000   0.00000  -0.00007  -0.00007  -3.14080
   D11        3.14057   0.00000   0.00000  -0.00004  -0.00004   3.14053
   D12       -0.00006   0.00000   0.00000   0.00002   0.00002  -0.00004
   D13        0.00039   0.00001   0.00000   0.00071   0.00071   0.00110
   D14       -3.13895  -0.00001   0.00000  -0.00096  -0.00096  -3.13991
   D15        3.14111   0.00001   0.00000   0.00066   0.00066  -3.14142
   D16        0.00176  -0.00001   0.00000  -0.00102  -0.00102   0.00075
   D17       -0.00054  -0.00001   0.00000  -0.00105  -0.00105  -0.00159
   D18       -3.13914  -0.00001   0.00000  -0.00098  -0.00098  -3.14012
   D19        3.13887   0.00001   0.00000   0.00057   0.00057   3.13944
   D20        0.00027   0.00001   0.00000   0.00064   0.00064   0.00091
   D21       -3.04089   0.00000   0.00000   0.00001   0.00001  -3.04088
   D22        0.09732   0.00000   0.00000  -0.00007  -0.00007   0.09725
   D23       -0.95577   0.00000   0.00000   0.00000   0.00000  -0.95577
   D24        2.18244   0.00000   0.00000  -0.00007  -0.00007   2.18236
   D25        1.15519   0.00000   0.00000  -0.00004  -0.00004   1.15516
   D26       -1.98978   0.00000   0.00000  -0.00011  -0.00011  -1.98990
         Item               Value     Threshold  Converged?
 Maximum Force            0.000105     0.000450     YES
 RMS     Force            0.000029     0.000300     YES
 Maximum Displacement     0.001553     0.001800     YES
 RMS     Displacement     0.000417     0.001200     YES
 Predicted change in Energy=-1.181563D-07
 Optimization completed.
    -- Stationary point found.
                           ----------------------------
                           !   Optimized Parameters   !
                           ! (Angstroms and Degrees)  !
 --------------------------                            --------------------------
 ! Name  Definition              Value          Derivative Info.                !
 --------------------------------------------------------------------------------
 ! R1    R(1,2)                  1.5058         -DE/DX =    0.0                 !
 ! R2    R(1,11)                 1.3876         -DE/DX =    0.0                 !
 ! R3    R(1,13)                 1.2036         -DE/DX =   -0.0001              !
 ! R4    R(2,3)                  1.3332         -DE/DX =    0.0                 !
 ! R5    R(2,5)                  1.088          -DE/DX =    0.0                 !
 ! R6    R(3,4)                  1.5062         -DE/DX =    0.0                 !
 ! R7    R(3,6)                  1.0881         -DE/DX =    0.0                 !
 ! R8    R(4,11)                 1.3893         -DE/DX =    0.0                 !
 ! R9    R(4,12)                 1.2032         -DE/DX =   -0.0001              !
 ! R10   R(7,8)                  1.0957         -DE/DX =    0.0                 !
 ! R11   R(7,9)                  1.0975         -DE/DX =    0.0                 !
 ! R12   R(7,10)                 1.0983         -DE/DX =    0.0                 !
 ! R13   R(7,11)                 1.4453         -DE/DX =    0.0001              !
 ! A1    A(2,1,11)             106.3226         -DE/DX =    0.0                 !
 ! A2    A(2,1,13)             128.5155         -DE/DX =    0.0                 !
 ! A3    A(11,1,13)            125.1617         -DE/DX =    0.0                 !
 ! A4    A(1,2,3)              108.337          -DE/DX =    0.0                 !
 ! A5    A(1,2,5)              122.3036         -DE/DX =    0.0                 !
 ! A6    A(3,2,5)              129.3593         -DE/DX =    0.0                 !
 ! A7    A(2,3,4)              108.477          -DE/DX =    0.0                 !
 ! A8    A(2,3,6)              129.3905         -DE/DX =    0.0                 !
 ! A9    A(4,3,6)              122.1324         -DE/DX =    0.0                 !
 ! A10   A(3,4,11)             106.1758         -DE/DX =    0.0                 !
 ! A11   A(3,4,12)             128.1625         -DE/DX =    0.0                 !
 ! A12   A(11,4,12)            125.6615         -DE/DX =    0.0                 !
 ! A13   A(8,7,9)              109.5922         -DE/DX =    0.0                 !
 ! A14   A(8,7,10)             109.3835         -DE/DX =    0.0                 !
 ! A15   A(8,7,11)             107.636          -DE/DX =    0.0                 !
 ! A16   A(9,7,10)             109.1567         -DE/DX =    0.0                 !
 ! A17   A(9,7,11)             110.2065         -DE/DX =    0.0                 !
 ! A18   A(10,7,11)            110.8421         -DE/DX =    0.0                 !
 ! A19   A(1,11,4)             110.6875         -DE/DX =    0.0                 !
 ! A20   A(1,11,7)             124.2007         -DE/DX =    0.0                 !
 ! A21   A(4,11,7)             125.1116         -DE/DX =    0.0                 !
 ! D1    D(11,1,2,3)            -0.0129         -DE/DX =    0.0                 !
 ! D2    D(11,1,2,5)          -179.9644         -DE/DX =    0.0                 !
 ! D3    D(13,1,2,3)           179.8679         -DE/DX =    0.0                 !
 ! D4    D(13,1,2,5)            -0.0836         -DE/DX =    0.0                 !
 ! D5    D(2,1,11,4)             0.0277         -DE/DX =    0.0                 !
 ! D6    D(2,1,11,7)           179.8581         -DE/DX =    0.0                 !
 ! D7    D(13,1,11,4)         -179.8582         -DE/DX =    0.0                 !
 ! D8    D(13,1,11,7)           -0.0278         -DE/DX =    0.0                 !
 ! D9    D(1,2,3,4)             -0.0056         -DE/DX =    0.0                 !
 ! D10   D(1,2,3,6)           -179.9506         -DE/DX =    0.0                 !
 ! D11   D(5,2,3,4)            179.9413         -DE/DX =    0.0                 !
 ! D12   D(5,2,3,6)             -0.0037         -DE/DX =    0.0                 !
 ! D13   D(2,3,4,11)             0.0222         -DE/DX =    0.0                 !
 ! D14   D(2,3,4,12)          -179.8487         -DE/DX =    0.0                 !
 ! D15   D(6,3,4,11)          -180.0279         -DE/DX =    0.0                 !
 ! D16   D(6,3,4,12)             0.1011         -DE/DX =    0.0                 !
 ! D17   D(3,4,11,1)            -0.031          -DE/DX =    0.0                 !
 ! D18   D(3,4,11,7)          -179.8595         -DE/DX =    0.0                 !
 ! D19   D(12,4,11,1)          179.8442         -DE/DX =    0.0                 !
 ! D20   D(12,4,11,7)            0.0157         -DE/DX =    0.0                 !
 ! D21   D(8,7,11,1)          -174.2301         -DE/DX =    0.0                 !
 ! D22   D(8,7,11,4)             5.576          -DE/DX =    0.0                 !
 ! D23   D(9,7,11,1)           -54.7615         -DE/DX =    0.0                 !
 ! D24   D(9,7,11,4)           125.0445         -DE/DX =    0.0                 !
 ! D25   D(10,7,11,1)           66.1877         -DE/DX =    0.0                 !
 ! D26   D(10,7,11,4)         -114.0063         -DE/DX =    0.0                 !
 --------------------------------------------------------------------------------
 GradGradGradGradGradGradGradGradGradGradGradGradGradGradGradGradGradGrad

                          Input orientation:                          
 ---------------------------------------------------------------------
 Center     Atomic      Atomic             Coordinates (Angstroms)
 Number     Number       Type             X           Y           Z
 ---------------------------------------------------------------------
      1          6           0       -1.136268   -0.222707    0.001006
      2          6           0       -0.633962   -1.642307    0.000088
      3          6           0        0.698939   -1.615583    0.000194
      4          6           0        1.147551   -0.177769    0.001047
      5          1           0       -1.306976   -2.497225   -0.001308
      6          1           0        1.406170   -2.442499   -0.001038
      7          6           0       -0.051488    2.033834    0.000031
      8          1           0        0.977865    2.394673   -0.103623
      9          1           0       -0.654713    2.395041   -0.842712
     10          1           0       -0.478315    2.414002    0.937856
     11          7           0       -0.010946    0.589146    0.001925
     12          8           0        2.272061    0.250162   -0.001129
     13          8           0       -2.274066    0.169736   -0.000978
 ---------------------------------------------------------------------
                    Distance matrix (angstroms):
                    1          2          3          4          5
     1  C    0.000000
     2  C    1.505847   0.000000
     3  C    2.303929   1.333169   0.000000
     4  C    2.284261   2.306222   1.506175   0.000000
     5  H    2.280916   1.088042   2.191116   3.377067   0.000000
     6  H    3.375125   2.191449   1.088103   2.279450   2.713698
     7  C    2.503742   3.722001   3.725773   2.515727   4.701781
     8  H    3.366182   4.348097   4.021285   2.580156   5.400151
     9  H    2.792196   4.124430   4.316013   3.252605   5.006763
    10  H    2.874513   4.166207   4.301476   3.199739   5.068418
    11  N    1.387608   2.316794   2.316197   1.389343   3.347445
    12  O    3.440976   3.467911   2.440434   1.203184   4.511944
    13  O    1.203578   2.444063   3.467870   3.439219   2.836890
                    6          7          8          9         10
     6  H    0.000000
     7  C    4.707688   0.000000
     8  H    4.857180   1.095681   0.000000
     9  H    5.325171   1.097528   1.792084   0.000000
    10  H    5.293242   1.098283   1.790394   1.789385   0.000000
    11  N    3.346505   1.445258   2.061265   2.095019   2.103450
    12  O    2.828461   2.929226   2.506866   3.724886   3.623322
    13  O    4.513082   2.900813   3.941565   2.877986   3.023716
                   11         12         13
    11  N    0.000000
    12  O    2.308038   0.000000
    13  O    2.301657   4.546838   0.000000
 Stoichiometry    C5H5NO2
 Framework group  C1[X(C5H5NO2)]
 Deg. of freedom    33
 Full point group                 C1      NOp   1
 Largest Abelian subgroup         C1      NOp   1
 Largest concise Abelian subgroup C1      NOp   1
                         Standard orientation:                         
 ---------------------------------------------------------------------
 Center     Atomic      Atomic             Coordinates (Angstroms)
 Number     Number       Type             X           Y           Z
 ---------------------------------------------------------------------
      1          6           0       -1.136268   -0.222706    0.001006
      2          6           0       -0.633963   -1.642307    0.000088
      3          6           0        0.698938   -1.615584    0.000194
      4          6           0        1.147551   -0.177770    0.001047
      5          1           0       -1.306978   -2.497224   -0.001308
      6          1           0        1.406168   -2.442500   -0.001038
      7          6           0       -0.051486    2.033834    0.000031
      8          1           0        0.977867    2.394672   -0.103623
      9          1           0       -0.654711    2.395041   -0.842712
     10          1           0       -0.478313    2.414002    0.937856
     11          7           0       -0.010946    0.589146    0.001925
     12          8           0        2.272061    0.250160   -0.001129
     13          8           0       -2.274066    0.169738   -0.000978
 ---------------------------------------------------------------------
 Rotational constants (GHZ):      3.3267132      2.3587352      1.3924294
 1\1\GINC-D10S1B2\FOpt\RM062X\def2SVP\C5H5N1O2\CHMKSH\06-Sep-2020\0\\# 
 opt freq scrf=(cpcm,solvent=water) geom=connectivity def2svp m062x emp
 iricaldispersion=gd3\\Title Card Required\\0,1\C,-1.136268,-0.222707,0
 .001006\C,-0.633962,-1.642307,0.000088\C,0.698939,-1.615583,0.000194\C
 ,1.147551,-0.177769,0.001047\H,-1.306976,-2.497225,-0.001308\H,1.40617
 ,-2.442499,-0.001038\C,-0.051488,2.033834,0.000031\H,0.977865,2.394673
 ,-0.103623\H,-0.654713,2.395041,-0.842712\H,-0.478315,2.414002,0.93785
 6\N,-0.010946,0.589146,0.001925\O,2.272061,0.250162,-0.001129\O,-2.274
 066,0.169736,-0.000978\\Version=ES64L-G09RevD.01\State=1-A\HF=-398.294
 649\RMSD=7.634e-09\RMSF=4.307e-05\Dipole=0.0248005,-0.580937,-0.001795
 1\Quadrupole=-9.9520249,8.579775,1.3722499,-0.277684,0.0024757,-0.0138
 777\PG=C01 [X(C5H5N1O2)]\\@


 THE DIFFERENCE BETWEEN A NOOSE AND A HALO IS ONLY 12 INCHES.
 Job cpu time:       0 days  0 hours  1 minutes 27.7 seconds.
 File lengths (MBytes):  RWF=     26 Int=      0 D2E=      0 Chk=      3 Scr=      1
 Normal termination of Gaussian 09 at Sun Sep  6 03:03:35 2020.
 Link1:  Proceeding to internal job step number  2.
 -------------------------------------------------------------------
 #N Geom=AllCheck Guess=TCheck SCRF=Check GenChk RM062X/def2SVP Freq
 -------------------------------------------------------------------
 1/10=4,29=7,30=1,38=1,40=1/1,3;
 2/12=2,40=1/2;
 3/5=43,7=101,11=2,14=-4,16=1,25=1,30=1,70=2,71=2,72=1,74=-55,116=1,124=31,140=1/1,2,3;
 4/5=101/1;
 5/5=2,53=1,98=1/2;
 8/6=4,10=90,11=11/1;
 11/6=1,8=1,9=11,15=111,16=1/1,2,10;
 10/6=1/2;
 6/7=2,8=2,9=2,10=2,18=1,28=1/1;
 7/8=1,10=1,25=1/1,2,3,16;
 1/10=4,30=1/3;
 99//99;
 Structure from the checkpoint file:  "water_m06-2x_dienophile_pm6_cpcmtoluene_1_1_gd3.chk"
 -------------------
 Title Card Required
 -------------------
 Charge =  0 Multiplicity = 1
 Redundant internal coordinates found in file.
 C,0,-1.136268,-0.222707,0.001006
 C,0,-0.633962,-1.642307,0.000088
 C,0,0.698939,-1.615583,0.000194
 C,0,1.147551,-0.177769,0.001047
 H,0,-1.306976,-2.497225,-0.001308
 H,0,1.40617,-2.442499,-0.001038
 C,0,-0.051488,2.033834,0.000031
 H,0,0.977865,2.394673,-0.103623
 H,0,-0.654713,2.395041,-0.842712
 H,0,-0.478315,2.414002,0.937856
 N,0,-0.010946,0.589146,0.001925
 O,0,2.272061,0.250162,-0.001129
 O,0,-2.274066,0.169736,-0.000978
 Recover connectivity data from disk.

 GradGradGradGradGradGradGradGradGradGradGradGradGradGradGradGradGradGrad
 Berny optimization.
 Initialization pass.
                           ----------------------------
                           !    Initial Parameters    !
                           ! (Angstroms and Degrees)  !
 --------------------------                            --------------------------
 ! Name  Definition              Value          Derivative Info.                !
 --------------------------------------------------------------------------------
 ! R1    R(1,2)                  1.5058         calculate D2E/DX2 analytically  !
 ! R2    R(1,11)                 1.3876         calculate D2E/DX2 analytically  !
 ! R3    R(1,13)                 1.2036         calculate D2E/DX2 analytically  !
 ! R4    R(2,3)                  1.3332         calculate D2E/DX2 analytically  !
 ! R5    R(2,5)                  1.088          calculate D2E/DX2 analytically  !
 ! R6    R(3,4)                  1.5062         calculate D2E/DX2 analytically  !
 ! R7    R(3,6)                  1.0881         calculate D2E/DX2 analytically  !
 ! R8    R(4,11)                 1.3893         calculate D2E/DX2 analytically  !
 ! R9    R(4,12)                 1.2032         calculate D2E/DX2 analytically  !
 ! R10   R(7,8)                  1.0957         calculate D2E/DX2 analytically  !
 ! R11   R(7,9)                  1.0975         calculate D2E/DX2 analytically  !
 ! R12   R(7,10)                 1.0983         calculate D2E/DX2 analytically  !
 ! R13   R(7,11)                 1.4453         calculate D2E/DX2 analytically  !
 ! A1    A(2,1,11)             106.3226         calculate D2E/DX2 analytically  !
 ! A2    A(2,1,13)             128.5155         calculate D2E/DX2 analytically  !
 ! A3    A(11,1,13)            125.1617         calculate D2E/DX2 analytically  !
 ! A4    A(1,2,3)              108.337          calculate D2E/DX2 analytically  !
 ! A5    A(1,2,5)              122.3036         calculate D2E/DX2 analytically  !
 ! A6    A(3,2,5)              129.3593         calculate D2E/DX2 analytically  !
 ! A7    A(2,3,4)              108.477          calculate D2E/DX2 analytically  !
 ! A8    A(2,3,6)              129.3905         calculate D2E/DX2 analytically  !
 ! A9    A(4,3,6)              122.1324         calculate D2E/DX2 analytically  !
 ! A10   A(3,4,11)             106.1758         calculate D2E/DX2 analytically  !
 ! A11   A(3,4,12)             128.1625         calculate D2E/DX2 analytically  !
 ! A12   A(11,4,12)            125.6615         calculate D2E/DX2 analytically  !
 ! A13   A(8,7,9)              109.5922         calculate D2E/DX2 analytically  !
 ! A14   A(8,7,10)             109.3835         calculate D2E/DX2 analytically  !
 ! A15   A(8,7,11)             107.636          calculate D2E/DX2 analytically  !
 ! A16   A(9,7,10)             109.1567         calculate D2E/DX2 analytically  !
 ! A17   A(9,7,11)             110.2065         calculate D2E/DX2 analytically  !
 ! A18   A(10,7,11)            110.8421         calculate D2E/DX2 analytically  !
 ! A19   A(1,11,4)             110.6875         calculate D2E/DX2 analytically  !
 ! A20   A(1,11,7)             124.2007         calculate D2E/DX2 analytically  !
 ! A21   A(4,11,7)             125.1116         calculate D2E/DX2 analytically  !
 ! D1    D(11,1,2,3)            -0.0129         calculate D2E/DX2 analytically  !
 ! D2    D(11,1,2,5)          -179.9644         calculate D2E/DX2 analytically  !
 ! D3    D(13,1,2,3)           179.8679         calculate D2E/DX2 analytically  !
 ! D4    D(13,1,2,5)            -0.0836         calculate D2E/DX2 analytically  !
 ! D5    D(2,1,11,4)             0.0277         calculate D2E/DX2 analytically  !
 ! D6    D(2,1,11,7)           179.8581         calculate D2E/DX2 analytically  !
 ! D7    D(13,1,11,4)         -179.8582         calculate D2E/DX2 analytically  !
 ! D8    D(13,1,11,7)           -0.0278         calculate D2E/DX2 analytically  !
 ! D9    D(1,2,3,4)             -0.0056         calculate D2E/DX2 analytically  !
 ! D10   D(1,2,3,6)           -179.9506         calculate D2E/DX2 analytically  !
 ! D11   D(5,2,3,4)            179.9413         calculate D2E/DX2 analytically  !
 ! D12   D(5,2,3,6)             -0.0037         calculate D2E/DX2 analytically  !
 ! D13   D(2,3,4,11)             0.0222         calculate D2E/DX2 analytically  !
 ! D14   D(2,3,4,12)          -179.8487         calculate D2E/DX2 analytically  !
 ! D15   D(6,3,4,11)           179.9721         calculate D2E/DX2 analytically  !
 ! D16   D(6,3,4,12)             0.1011         calculate D2E/DX2 analytically  !
 ! D17   D(3,4,11,1)            -0.031          calculate D2E/DX2 analytically  !
 ! D18   D(3,4,11,7)          -179.8595         calculate D2E/DX2 analytically  !
 ! D19   D(12,4,11,1)          179.8442         calculate D2E/DX2 analytically  !
 ! D20   D(12,4,11,7)            0.0157         calculate D2E/DX2 analytically  !
 ! D21   D(8,7,11,1)          -174.2301         calculate D2E/DX2 analytically  !
 ! D22   D(8,7,11,4)             5.576          calculate D2E/DX2 analytically  !
 ! D23   D(9,7,11,1)           -54.7615         calculate D2E/DX2 analytically  !
 ! D24   D(9,7,11,4)           125.0445         calculate D2E/DX2 analytically  !
 ! D25   D(10,7,11,1)           66.1877         calculate D2E/DX2 analytically  !
 ! D26   D(10,7,11,4)         -114.0063         calculate D2E/DX2 analytically  !
 --------------------------------------------------------------------------------
 Trust Radius=3.00D-01 FncErr=1.00D-07 GrdErr=1.00D-07
 Number of steps in this run=      2 maximum allowed number of steps=      2.
 GradGradGradGradGradGradGradGradGradGradGradGradGradGradGradGradGradGrad

                          Input orientation:                          
 ---------------------------------------------------------------------
 Center     Atomic      Atomic             Coordinates (Angstroms)
 Number     Number       Type             X           Y           Z
 ---------------------------------------------------------------------
      1          6           0       -1.136268   -0.222707    0.001006
      2          6           0       -0.633962   -1.642307    0.000088
      3          6           0        0.698939   -1.615583    0.000194
      4          6           0        1.147551   -0.177769    0.001047
      5          1           0       -1.306976   -2.497225   -0.001308
      6          1           0        1.406170   -2.442499   -0.001038
      7          6           0       -0.051488    2.033834    0.000031
      8          1           0        0.977865    2.394673   -0.103623
      9          1           0       -0.654713    2.395041   -0.842712
     10          1           0       -0.478315    2.414002    0.937856
     11          7           0       -0.010946    0.589146    0.001925
     12          8           0        2.272061    0.250162   -0.001129
     13          8           0       -2.274066    0.169736   -0.000978
 ---------------------------------------------------------------------
                    Distance matrix (angstroms):
                    1          2          3          4          5
     1  C    0.000000
     2  C    1.505847   0.000000
     3  C    2.303929   1.333169   0.000000
     4  C    2.284261   2.306222   1.506175   0.000000
     5  H    2.280916   1.088042   2.191116   3.377067   0.000000
     6  H    3.375125   2.191449   1.088103   2.279450   2.713698
     7  C    2.503742   3.722001   3.725773   2.515727   4.701781
     8  H    3.366182   4.348097   4.021285   2.580156   5.400151
     9  H    2.792196   4.124430   4.316013   3.252605   5.006763
    10  H    2.874513   4.166207   4.301476   3.199739   5.068418
    11  N    1.387608   2.316794   2.316197   1.389343   3.347445
    12  O    3.440976   3.467911   2.440434   1.203184   4.511944
    13  O    1.203578   2.444063   3.467870   3.439219   2.836890
                    6          7          8          9         10
     6  H    0.000000
     7  C    4.707688   0.000000
     8  H    4.857180   1.095681   0.000000
     9  H    5.325171   1.097528   1.792084   0.000000
    10  H    5.293242   1.098283   1.790394   1.789385   0.000000
    11  N    3.346505   1.445258   2.061265   2.095019   2.103450
    12  O    2.828461   2.929226   2.506866   3.724886   3.623322
    13  O    4.513082   2.900813   3.941565   2.877986   3.023716
                   11         12         13
    11  N    0.000000
    12  O    2.308038   0.000000
    13  O    2.301657   4.546838   0.000000
 Stoichiometry    C5H5NO2
 Framework group  C1[X(C5H5NO2)]
 Deg. of freedom    33
 Full point group                 C1      NOp   1
 Largest Abelian subgroup         C1      NOp   1
 Largest concise Abelian subgroup C1      NOp   1
                         Standard orientation:                         
 ---------------------------------------------------------------------
 Center     Atomic      Atomic             Coordinates (Angstroms)
 Number     Number       Type             X           Y           Z
 ---------------------------------------------------------------------
      1          6           0       -1.136268   -0.222706    0.001006
      2          6           0       -0.633963   -1.642307    0.000088
      3          6           0        0.698938   -1.615584    0.000194
      4          6           0        1.147551   -0.177770    0.001047
      5          1           0       -1.306978   -2.497224   -0.001308
      6          1           0        1.406168   -2.442500   -0.001038
      7          6           0       -0.051486    2.033834    0.000031
      8          1           0        0.977867    2.394672   -0.103623
      9          1           0       -0.654711    2.395041   -0.842712
     10          1           0       -0.478313    2.414002    0.937856
     11          7           0       -0.010946    0.589146    0.001925
     12          8           0        2.272061    0.250160   -0.001129
     13          8           0       -2.274066    0.169738   -0.000978
 ---------------------------------------------------------------------
 Rotational constants (GHZ):      3.3267132      2.3587352      1.3924294
 Standard basis: def2SVP (5D, 7F)
 There are   145 symmetry adapted cartesian basis functions of A   symmetry.
 There are   137 symmetry adapted basis functions of A   symmetry.
   137 basis functions,   235 primitive gaussians,   145 cartesian basis functions
    29 alpha electrons       29 beta electrons
       nuclear repulsion energy       355.8570822364 Hartrees.
 NAtoms=   13 NActive=   13 NUniq=   13 SFac= 1.00D+00 NAtFMM=   60 NAOKFM=F Big=F
 Integral buffers will be    131072 words long.
 Raffenetti 2 integral format.
 Two-electron integral symmetry is turned on.
 Nuclear repulsion after empirical dispersion term =      355.8568573690 Hartrees.
 Force inversion solution in PCM.
 ------------------------------------------------------------------------------
 Polarizable Continuum Model (PCM)
 =================================
 Model                : C-PCM.
 Atomic radii         : UFF (Universal Force Field).
 Polarization charges : Total charges.
 Charge compensation  : None.
 Solution method      : Matrix inversion.
 Cavity type          : Scaled VdW (van der Waals Surface) (Alpha=1.100).
 Cavity algorithm     : GePol (No added spheres)
                        Default sphere list used, NSphG=   13.
                        Lebedev-Laikov grids with approx.  5.0 points / Ang**2.
                        Smoothing algorithm: Karplus/York (Gamma=1.0000).
                        Polarization charges: spherical gaussians, with
                                              point-specific exponents (IZeta= 3).
                        Self-potential: point-specific (ISelfS= 7).
                        Self-field    : sphere-specific E.n sum rule (ISelfD= 2).
 1st derivatives      : Analytical E(r).r(x)/FMM algorithm (CHGder, D1EAlg=3).
                        Cavity 1st derivative terms included.
 2nd derivatives      : Analytical E(r).r(xy)/FMM algorithm (CHGder, D2EAlg=3).
                        Cavity 2nd derivative terms included.
 Solvent              : Water, Eps=  78.355300 Eps(inf)=   1.777849
 ------------------------------------------------------------------------------
 Spheres list:
 ISph  on   Nord     Re0    Alpha      Xe            Ye            Ze
    1   C      1    1.9255  1.100     -1.136268     -0.222706      0.001006
    2   C      2    1.9255  1.100     -0.633963     -1.642307      0.000088
    3   C      3    1.9255  1.100      0.698938     -1.615584      0.000194
    4   C      4    1.9255  1.100      1.147551     -0.177770      0.001047
    5   H      5    1.4430  1.100     -1.306978     -2.497224     -0.001308
    6   H      6    1.4430  1.100      1.406168     -2.442500     -0.001038
    7   C      7    1.9255  1.100     -0.051486      2.033834      0.000031
    8   H      8    1.4430  1.100      0.977867      2.394672     -0.103623
    9   H      9    1.4430  1.100     -0.654711      2.395041     -0.842712
   10   H     10    1.4430  1.100     -0.478313      2.414002      0.937856
   11   N     11    1.8300  1.100     -0.010946      0.589146      0.001925
   12   O     12    1.7500  1.100      2.272061      0.250160     -0.001129
   13   O     13    1.7500  1.100     -2.274066      0.169738     -0.000978
 ------------------------------------------------------------------------------
 One-electron integrals computed using PRISM.
   1 Symmetry operations used in ECPInt.
 ECPInt:  NShTT=    2016 NPrTT=    7500 LenC2=    2004 LenP2D=    6021.
 LDataN:  DoStor=T MaxTD1= 4 Len=   56
 NBasis=   137 RedAO= T EigKep=  7.17D-04  NBF=   137
 NBsUse=   137 1.00D-06 EigRej= -1.00D+00 NBFU=   137
 Initial guess from the checkpoint file:  "water_m06-2x_dienophile_pm6_cpcmtoluene_1_1_gd3.chk"
 B after Tr=     0.000000    0.000000    0.000000
         Rot=    1.000000    0.000000    0.000000    0.000000 Ang=   0.00 deg.
 Requested convergence on RMS density matrix=1.00D-08 within 128 cycles.
 Requested convergence on MAX density matrix=1.00D-06.
 Requested convergence on             energy=1.00D-06.
 No special actions if energy rises.
 Inv3:  Mode=1 IEnd=     4892187.
 Iteration    1 A*A^-1 deviation from unit magnitude is 3.77D-15 for   1265.
 Iteration    1 A*A^-1 deviation from orthogonality  is 1.52D-15 for   1272   1187.
 Iteration    1 A^-1*A deviation from unit magnitude is 3.77D-15 for   1265.
 Iteration    1 A^-1*A deviation from orthogonality  is 1.58D-15 for   1269    774.
 Error on total polarization charges =  0.00580
 SCF Done:  E(RM062X) =  -398.294648960     A.U. after    1 cycles
            NFock=  1  Conv=0.42D-08     -V/T= 2.0090
 DoSCS=F DFT=T ScalE2(SS,OS)=  1.000000  1.000000
 Range of M.O.s used for correlation:     1   137
 NBasis=   137 NAE=    29 NBE=    29 NFC=     0 NFV=     0
 NROrb=    137 NOA=    29 NOB=    29 NVA=   108 NVB=   108
   1 Symmetry operations used in ECPInt.
 ECPInt:  NShTT=    2016 NPrTT=    7500 LenC2=    2004 LenP2D=    6021.
 LDataN:  DoStor=T MaxTD1= 5 Len=  102
 Symmetrizing basis deriv contribution to polar:
 IMax=3 JMax=2 DiffMx= 0.00D+00
 G2DrvN: will do    14 centers at a time, making    1 passes.
 Calling FoFCou, ICntrl=  3107 FMM=F I1Cent=   0 AccDes= 0.00D+00.
 NEqPCM:  Using equilibrium solvation (IEInf=0, Eps=  78.3553, EpsInf=   1.7778)
 G2PCM: DoFxE=T DoFxN=T DoGrad=T DoDP/DQ/DG/TGxP=FFFF NFrqRd=   0 IEInf=0 SqF1=F DoCFld=F IF1Alg=4.
 End of G2Drv F.D. properties file   721 does not exist.
 End of G2Drv F.D. properties file   722 does not exist.
 End of G2Drv F.D. properties file   788 does not exist.
          IDoAtm=1111111111111
 NEqPCM:  Using equilibrium solvation (IEInf=0, Eps=  78.3553, EpsInf=   1.7778)
          Differentiating once with respect to electric field.
                with respect to dipole field.
          Differentiating once with respect to nuclear coordinates.
          There are    42 degrees of freedom in the 1st order CPHF.  IDoFFX=6 NUNeed=     3.
     39 vectors produced by pass  0 Test12= 7.46D-15 2.38D-09 XBig12= 6.71D+01 6.27D+00.
 AX will form    39 AO Fock derivatives at one time.
     39 vectors produced by pass  1 Test12= 7.46D-15 2.38D-09 XBig12= 9.46D+00 5.65D-01.
     39 vectors produced by pass  2 Test12= 7.46D-15 2.38D-09 XBig12= 3.53D-01 1.97D-01.
     39 vectors produced by pass  3 Test12= 7.46D-15 2.38D-09 XBig12= 3.75D-03 1.48D-02.
     39 vectors produced by pass  4 Test12= 7.46D-15 2.38D-09 XBig12= 2.52D-05 6.14D-04.
     39 vectors produced by pass  5 Test12= 7.46D-15 2.38D-09 XBig12= 9.26D-08 5.44D-05.
     24 vectors produced by pass  6 Test12= 7.46D-15 2.38D-09 XBig12= 2.40D-10 2.05D-06.
      5 vectors produced by pass  7 Test12= 7.46D-15 2.38D-09 XBig12= 6.16D-13 1.22D-07.
      1 vectors produced by pass  8 Test12= 7.46D-15 2.38D-09 XBig12= 1.79D-15 5.93D-09.
 InvSVY:  IOpt=1 It=  1 EMax= 5.33D-15
 Solved reduced A of dimension   264 with    42 vectors.
 Isotropic polarizability for W=    0.000000       74.60 Bohr**3.
 End of Minotr F.D. properties file   721 does not exist.
 End of Minotr F.D. properties file   722 does not exist.
 End of Minotr F.D. properties file   788 does not exist.

 **********************************************************************

            Population analysis using the SCF density.

 **********************************************************************

 Orbital symmetries:
       Occupied  (A) (A) (A) (A) (A) (A) (A) (A) (A) (A) (A) (A)
                 (A) (A) (A) (A) (A) (A) (A) (A) (A) (A) (A) (A)
                 (A) (A) (A) (A) (A)
       Virtual   (A) (A) (A) (A) (A) (A) (A) (A) (A) (A) (A) (A)
                 (A) (A) (A) (A) (A) (A) (A) (A) (A) (A) (A) (A)
                 (A) (A) (A) (A) (A) (A) (A) (A) (A) (A) (A) (A)
                 (A) (A) (A) (A) (A) (A) (A) (A) (A) (A) (A) (A)
                 (A) (A) (A) (A) (A) (A) (A) (A) (A) (A) (A) (A)
                 (A) (A) (A) (A) (A) (A) (A) (A) (A) (A) (A) (A)
                 (A) (A) (A) (A) (A) (A) (A) (A) (A) (A) (A) (A)
                 (A) (A) (A) (A) (A) (A) (A) (A) (A) (A) (A) (A)
                 (A) (A) (A) (A) (A) (A) (A) (A) (A) (A) (A) (A)
 The electronic state is 1-A.
 Alpha  occ. eigenvalues --  -19.64297 -19.64245 -14.80932 -10.68797 -10.68662
 Alpha  occ. eigenvalues --  -10.59499 -10.59223 -10.59122  -1.19656  -1.17743
 Alpha  occ. eigenvalues --   -1.07108  -0.92745  -0.79984  -0.76262  -0.69565
 Alpha  occ. eigenvalues --   -0.63862  -0.58414  -0.57576  -0.55188  -0.52874
 Alpha  occ. eigenvalues --   -0.52355  -0.50311  -0.48784  -0.48384  -0.46811
 Alpha  occ. eigenvalues --   -0.38243  -0.36872  -0.35105  -0.33756
 Alpha virt. eigenvalues --   -0.05879   0.10230   0.11256   0.11768   0.13168
 Alpha virt. eigenvalues --    0.15906   0.17622   0.18914   0.19584   0.24042
 Alpha virt. eigenvalues --    0.25667   0.26155   0.30320   0.35211   0.41149
 Alpha virt. eigenvalues --    0.41289   0.44696   0.45455   0.47388   0.49844
 Alpha virt. eigenvalues --    0.50141   0.51678   0.57542   0.60274   0.62461
 Alpha virt. eigenvalues --    0.65021   0.65092   0.68204   0.69361   0.70323
 Alpha virt. eigenvalues --    0.70542   0.72113   0.72407   0.73280   0.75179
 Alpha virt. eigenvalues --    0.76862   0.78495   0.82943   0.86439   0.92259
 Alpha virt. eigenvalues --    0.96550   0.98773   1.07705   1.08710   1.13813
 Alpha virt. eigenvalues --    1.14290   1.18538   1.22006   1.25482   1.27298
 Alpha virt. eigenvalues --    1.28401   1.34113   1.34443   1.38769   1.43551
 Alpha virt. eigenvalues --    1.47086   1.54562   1.56544   1.62221   1.63418
 Alpha virt. eigenvalues --    1.65118   1.67046   1.75447   1.76052   1.79069
 Alpha virt. eigenvalues --    1.81336   1.81781   1.82925   1.86908   1.90162
 Alpha virt. eigenvalues --    1.95194   1.99825   2.00749   2.05184   2.08357
 Alpha virt. eigenvalues --    2.08555   2.12188   2.15105   2.20552   2.26313
 Alpha virt. eigenvalues --    2.31849   2.39740   2.40946   2.42511   2.44740
 Alpha virt. eigenvalues --    2.46762   2.53171   2.61719   2.65817   2.67075
 Alpha virt. eigenvalues --    2.70650   2.74957   2.76043   2.78553   2.81578
 Alpha virt. eigenvalues --    2.83135   2.85203   2.93459   2.95351   3.02303
 Alpha virt. eigenvalues --    3.20245   3.22501   3.24173   3.35812   3.43408
 Alpha virt. eigenvalues --    3.61029   3.68030   3.70966
          Condensed to atoms (all electrons):
               1          2          3          4          5          6
     1  C    4.606072   0.235158   0.043709  -0.124549  -0.042823   0.010010
     2  C    0.235158   5.254080   0.314232   0.034767   0.438867  -0.053087
     3  C    0.043709   0.314232   5.272029   0.228544  -0.053707   0.438386
     4  C   -0.124549   0.034767   0.228544   4.610560   0.010141  -0.042465
     5  H   -0.042823   0.438867  -0.053707   0.010141   0.573292  -0.006616
     6  H    0.010010  -0.053087   0.438386  -0.042465  -0.006616   0.572762
     7  C   -0.015727   0.009922   0.007696  -0.022327  -0.000154  -0.000093
     8  H    0.005398  -0.001053   0.003500  -0.005598   0.000015  -0.000030
     9  H   -0.004203   0.001225  -0.000723   0.002670  -0.000003   0.000008
    10  H   -0.003709   0.000660  -0.000599   0.001401   0.000001   0.000007
    11  N    0.275969  -0.127548  -0.133214   0.288052   0.005053   0.004972
    12  O   -0.000410   0.005219  -0.074136   0.741984  -0.000056   0.001850
    13  O    0.745442  -0.072805   0.004850  -0.000417   0.001929  -0.000060
               7          8          9         10         11         12
     1  C   -0.015727   0.005398  -0.004203  -0.003709   0.275969  -0.000410
     2  C    0.009922  -0.001053   0.001225   0.000660  -0.127548   0.005219
     3  C    0.007696   0.003500  -0.000723  -0.000599  -0.133214  -0.074136
     4  C   -0.022327  -0.005598   0.002670   0.001401   0.288052   0.741984
     5  H   -0.000154   0.000015  -0.000003   0.000001   0.005053  -0.000056
     6  H   -0.000093  -0.000030   0.000008   0.000007   0.004972   0.001850
     7  C    4.482593   0.399805   0.409546   0.412417   0.243149  -0.003317
     8  H    0.399805   0.570859  -0.017244  -0.019196  -0.027017   0.015881
     9  H    0.409546  -0.017244   0.581662  -0.024972  -0.027174   0.000127
    10  H    0.412417  -0.019196  -0.024972   0.581186  -0.026982   0.000074
    11  N    0.243149  -0.027017  -0.027174  -0.026982   7.131382  -0.099928
    12  O   -0.003317   0.015881   0.000127   0.000074  -0.099928   7.661155
    13  O    0.010423   0.000212   0.002517   0.000921  -0.105330  -0.000016
              13
     1  C    0.745442
     2  C   -0.072805
     3  C    0.004850
     4  C   -0.000417
     5  H    0.001929
     6  H   -0.000060
     7  C    0.010423
     8  H    0.000212
     9  H    0.002517
    10  H    0.000921
    11  N   -0.105330
    12  O   -0.000016
    13  O    7.663527
 Mulliken charges:
               1
     1  C    0.269662
     2  C   -0.039637
     3  C   -0.050569
     4  C    0.277236
     5  H    0.074062
     6  H    0.074356
     7  C    0.066068
     8  H    0.074469
     9  H    0.076565
    10  H    0.078792
    11  N   -0.401385
    12  O   -0.248426
    13  O   -0.251193
 Sum of Mulliken charges =   0.00000
 Mulliken charges with hydrogens summed into heavy atoms:
               1
     1  C    0.269662
     2  C    0.034425
     3  C    0.023788
     4  C    0.277236
     7  C    0.295892
    11  N   -0.401385
    12  O   -0.248426
    13  O   -0.251193
 APT charges:
               1
     1  C    1.418895
     2  C   -0.172891
     3  C   -0.167308
     4  C    1.429245
     5  H    0.119627
     6  H    0.120649
     7  C    0.350924
     8  H    0.061044
     9  H    0.007062
    10  H   -0.001918
    11  N   -1.197912
    12  O   -0.988593
    13  O   -0.978825
 Sum of APT charges =   0.00000
 APT charges with hydrogens summed into heavy atoms:
               1
     1  C    1.418895
     2  C   -0.053264
     3  C   -0.046658
     4  C    1.429245
     7  C    0.417112
    11  N   -1.197912
    12  O   -0.988593
    13  O   -0.978825
 Electronic spatial extent (au):  <R**2>=            820.0628
 Charge=              0.0000 electrons
 Dipole moment (field-independent basis, Debye):
    X=              0.0630    Y=             -1.4766    Z=             -0.0046  Tot=              1.4779
 Quadrupole moment (field-independent basis, Debye-Ang):
   XX=            -60.2242   YY=            -35.2983   ZZ=            -44.9927
   XY=             -0.3735   XZ=              0.0033   YZ=             -0.0187
 Traceless Quadrupole moment (field-independent basis, Debye-Ang):
   XX=            -13.3858   YY=             11.5401   ZZ=              1.8457
   XY=             -0.3735   XZ=              0.0033   YZ=             -0.0187
 Octapole moment (field-independent basis, Debye-Ang**2):
  XXX=              1.0873  YYY=             -0.8067  ZZZ=              0.1660  XYY=             -0.1871
  XXY=             -9.1859  XXZ=             -0.1607  XZZ=             -0.7153  YZZ=              4.4039
  YYZ=             -0.0563  XYZ=             -0.0010
 Hexadecapole moment (field-independent basis, Debye-Ang**3):
 XXXX=           -620.6822 YYYY=           -406.3801 ZZZZ=            -48.2560 XXXY=             -0.9386
 XXXZ=              0.0333 YYYX=              0.5979 YYYZ=             -0.0064 ZZZX=              0.0018
 ZZZY=              0.4478 XXYY=           -144.8953 XXZZ=            -90.5954 YYZZ=            -87.7116
 XXYZ=             -0.5054 YYXZ=             -0.0217 ZZXY=             -1.3933
 N-N= 3.558568573690D+02 E-N=-1.640681074359D+03  KE= 3.947564963890D+02
  Exact polarizability: 108.477  -0.193  74.535  -0.016   0.135  40.789
 Approx polarizability: 117.506   0.271  64.684   0.008   0.072  42.198
   1 Symmetry operations used in ECPInt.
 ECPInt:  NShTT=    2016 NPrTT=    7500 LenC2=    2004 LenP2D=    6021.
 LDataN:  DoStor=T MaxTD1= 6 Len=  172
 D2PCM: C-PCM CHGder 2nd derivatives, FixD1E=F FixD2E=F DoIter=F DoCFld=F I1PDM=0
 Calling FoFJK, ICntrl=    100127 FMM=F ISym2X=0 I1Cent= 0 IOpClX= 0 NMat=1 NMatS=1 NMatT=0.
 Full mass-weighted force constant matrix:
 Low frequencies ---   -9.1583    0.0006    0.0013    0.0015    3.8444    8.4466
 Low frequencies ---   84.4203  147.4049  187.1181
 Diagonal vibrational polarizability:
       22.0842906      13.1240081      31.2298710
 Harmonic frequencies (cm**-1), IR intensities (KM/Mole), Raman scattering
 activities (A**4/AMU), depolarization ratios for plane and unpolarized
 incident light, reduced masses (AMU), force constants (mDyne/A),
 and normal coordinates:
                      1                      2                      3
                      A                      A                      A
 Frequencies --     84.2182               147.3751               187.1107
 Red. masses --      1.0281                 7.4509                 3.9580
 Frc consts  --      0.0043                 0.0953                 0.0816
 IR Inten    --      0.0094                20.1328                 2.5929
  Atom  AN      X      Y      Z        X      Y      Z        X      Y      Z
     1   6     0.00   0.00   0.01     0.00   0.00  -0.01     0.00   0.00  -0.11
     2   6     0.00   0.00   0.00     0.00   0.00   0.20     0.00   0.00   0.10
     3   6     0.00   0.00  -0.01     0.00   0.00   0.19     0.00   0.00   0.10
     4   6     0.00   0.00  -0.01     0.00   0.00  -0.01     0.00   0.00  -0.10
     5   1     0.00   0.00   0.01     0.00   0.00   0.26     0.00   0.00   0.25
     6   1     0.00   0.00  -0.02     0.00   0.00   0.25     0.00   0.00   0.26
     7   6    -0.01   0.00  -0.01     0.00   0.00   0.30     0.00   0.00   0.18
     8   1     0.05   0.00   0.57     0.00   0.02   0.43    -0.01   0.05   0.34
     9   1     0.46   0.03  -0.34     0.07   0.10   0.29     0.00   0.36   0.33
    10   1    -0.54  -0.04  -0.24    -0.09  -0.11   0.31    -0.01  -0.40   0.34
    11   7     0.00   0.00   0.00     0.00   0.00   0.18     0.00   0.00  -0.39
    12   8     0.00   0.00  -0.01     0.00   0.00  -0.38     0.00   0.00   0.06
    13   8     0.00   0.00   0.03     0.00   0.00  -0.37     0.00   0.00   0.06
                      4                      5                      6
                      A                      A                      A
 Frequencies --    268.4794               291.0539               394.1670
 Red. masses --      3.1253                 4.0741                 9.1967
 Frc consts  --      0.1327                 0.2033                 0.8419
 IR Inten    --      4.8589                 0.0004                37.4301
  Atom  AN      X      Y      Z        X      Y      Z        X      Y      Z
     1   6    -0.06  -0.02   0.00     0.00   0.00   0.11     0.02   0.07   0.00
     2   6     0.01   0.00   0.00     0.00   0.00   0.32     0.01   0.14   0.00
     3   6     0.01   0.02   0.00     0.00   0.00  -0.32    -0.02   0.13   0.00
     4   6    -0.06   0.02   0.00     0.00   0.00  -0.12     0.00   0.06   0.00
     5   1     0.02  -0.02   0.00     0.00   0.00   0.60    -0.07   0.20   0.00
     6   1     0.03   0.03   0.01     0.00   0.00  -0.61     0.05   0.19   0.00
     7   6     0.32   0.02   0.00     0.00   0.00   0.00    -0.06   0.31   0.00
     8   1     0.45  -0.33   0.06     0.00   0.00   0.00    -0.07   0.37  -0.01
     9   1     0.50   0.24  -0.03     0.00   0.01   0.01    -0.07   0.29   0.00
    10   1     0.42   0.17  -0.01     0.01   0.00   0.01    -0.06   0.30   0.00
    11   7    -0.06   0.01   0.00     0.00   0.00  -0.01     0.01   0.24   0.00
    12   8    -0.09   0.11   0.00     0.00   0.00   0.14     0.18  -0.43   0.00
    13   8    -0.10  -0.15   0.00     0.00   0.00  -0.13    -0.13  -0.40   0.00
                      7                      8                      9
                      A                      A                      A
 Frequencies --    583.1574               619.9918               643.2546
 Red. masses --      3.7834                 9.0883                 1.9753
 Frc consts  --      0.7581                 2.0583                 0.4816
 IR Inten    --      0.2168                 3.1711                 0.0785
  Atom  AN      X      Y      Z        X      Y      Z        X      Y      Z
     1   6    -0.11  -0.07   0.00    -0.29   0.06   0.00     0.00   0.00   0.17
     2   6     0.18  -0.13   0.00    -0.01   0.19   0.00     0.00   0.00   0.03
     3   6     0.17   0.14   0.00     0.02   0.20   0.00     0.00   0.00   0.03
     4   6    -0.12   0.06   0.00     0.28   0.07   0.00     0.00   0.00   0.18
     5   1     0.46  -0.36   0.00     0.23   0.00  -0.01     0.00   0.00  -0.66
     6   1     0.45   0.38   0.00    -0.21   0.02  -0.01     0.00   0.00  -0.68
     7   6     0.01   0.00   0.00     0.01  -0.33   0.00     0.00   0.00  -0.01
     8   1     0.08  -0.19   0.00     0.00  -0.30   0.00     0.00   0.01   0.03
     9   1     0.09   0.12   0.00     0.02  -0.29   0.00     0.00   0.08   0.02
    10   1     0.10   0.09   0.01     0.01  -0.30  -0.01    -0.01  -0.09   0.03
    11   7    -0.13   0.00   0.00     0.00  -0.16   0.00     0.00   0.00  -0.13
    12   8    -0.03  -0.19   0.00     0.35   0.03   0.00     0.00   0.00  -0.05
    13   8    -0.03   0.19   0.00    -0.36   0.02   0.00     0.00   0.00  -0.05
                     10                     11                     12
                      A                      A                      A
 Frequencies --    710.1218               761.1710               777.3698
[...]
 Vib (V=0)    4  0.137691D+01          0.138905          0.319840
 Vib (V=0)    5  0.132535D+01          0.122330          0.281676
 Vib (V=0)    6  0.117544D+01          0.070199          0.161639
 Vib (V=0)    7  0.106378D+01          0.026852          0.061830
 Vib (V=0)    8  0.105285D+01          0.022365          0.051497
 Electronic      0.100000D+01          0.000000          0.000000
 Translational   0.459862D+08          7.662628         17.643852
 Rotational      0.262564D+06          5.419235         12.478250
 ***** Axes restored to original set *****
 -------------------------------------------------------------------
 Center     Atomic                   Forces (Hartrees/Bohr)
 Number     Number              X              Y              Z
 -------------------------------------------------------------------
      1        6          -0.000081218    0.000007056   -0.000039872
      2        6          -0.000103720   -0.000004913    0.000021230
      3        6           0.000099225   -0.000003740    0.000027774
      4        6           0.000070507    0.000016179   -0.000059704
      5        1           0.000029706   -0.000015255    0.000009197
      6        1          -0.000025619   -0.000013088    0.000007236
      7        6          -0.000045185    0.000048928    0.000012658
      8        1           0.000035570    0.000014023   -0.000012017
      9        1          -0.000011098    0.000008190   -0.000010233
     10        1          -0.000007240    0.000018637   -0.000009972
     11        7           0.000036902    0.000009822    0.000020522
     12        8          -0.000094335   -0.000046408    0.000017378
     13        8           0.000096506   -0.000039429    0.000015802
 -------------------------------------------------------------------
 Cartesian Forces:  Max     0.000103720 RMS     0.000043064
 FormGI is forming the generalized inverse of G from B-inverse, IUseBI=4.

 GradGradGradGradGradGradGradGradGradGradGradGradGradGradGradGradGradGrad
 Berny optimization.
 Internal  Forces:  Max     0.000105015 RMS     0.000028665
 Search for a local minimum.
 Step number   1 out of a maximum of    2
 All quantities printed in internal units (Hartrees-Bohrs-Radians)
 Second derivative matrix not updated -- analytic derivatives used.
 ITU=  0
     Eigenvalues ---    0.00046   0.00435   0.01374   0.01405   0.01819
     Eigenvalues ---    0.01950   0.04641   0.05035   0.05724   0.05974
     Eigenvalues ---    0.08541   0.09653   0.12979   0.13881   0.17085
     Eigenvalues ---    0.17662   0.19005   0.21088   0.22633   0.24066
     Eigenvalues ---    0.25130   0.33573   0.34624   0.34737   0.34929
     Eigenvalues ---    0.35664   0.37406   0.37612   0.38364   0.40713
     Eigenvalues ---    0.60210   0.92480   0.94957
 Angle between quadratic step and forces=  78.34 degrees.
 Linear search not attempted -- first point.
 Iteration  1 RMS(Cart)=  0.00061260 RMS(Int)=  0.00000031
 Iteration  2 RMS(Cart)=  0.00000034 RMS(Int)=  0.00000001
 Variable       Old X    -DE/DX   Delta X   Delta X   Delta X     New X
                                 (Linear)    (Quad)   (Total)
    R1        2.84564   0.00000   0.00000  -0.00002  -0.00002   2.84562
    R2        2.62220   0.00004   0.00000   0.00013   0.00013   2.62233
    R3        2.27443  -0.00010   0.00000  -0.00011  -0.00011   2.27432
    R4        2.51932   0.00004   0.00000   0.00010   0.00010   2.51942
    R5        2.05610  -0.00001   0.00000  -0.00002  -0.00002   2.05608
    R6        2.84626   0.00001   0.00000   0.00001   0.00001   2.84627
    R7        2.05622  -0.00001   0.00000  -0.00002  -0.00002   2.05619
    R8        2.62548   0.00003   0.00000   0.00007   0.00007   2.62554
    R9        2.27369  -0.00011   0.00000  -0.00011  -0.00011   2.27358
   R10        2.07054   0.00004   0.00000   0.00011   0.00011   2.07065
   R11        2.07403   0.00001   0.00000   0.00004   0.00004   2.07406
   R12        2.07545   0.00001   0.00000   0.00000   0.00000   2.07546
   R13        2.73114   0.00009   0.00000   0.00022   0.00022   2.73136
    A1        1.85568   0.00003   0.00000   0.00008   0.00008   1.85576
    A2        2.24302  -0.00002   0.00000  -0.00004  -0.00004   2.24298
    A3        2.18448  -0.00001   0.00000  -0.00004  -0.00004   2.18445
    A4        1.89084  -0.00001   0.00000  -0.00004  -0.00004   1.89080
    A5        2.13460   0.00004   0.00000   0.00037   0.00037   2.13497
    A6        2.25775  -0.00003   0.00000  -0.00033  -0.00033   2.25741
    A7        1.89328  -0.00001   0.00000   0.00000   0.00000   1.89328
    A8        2.25829  -0.00003   0.00000  -0.00032  -0.00032   2.25797
    A9        2.13161   0.00003   0.00000   0.00031   0.00031   2.13193
   A10        1.85312   0.00003   0.00000   0.00006   0.00006   1.85317
   A11        2.23686  -0.00003   0.00000  -0.00009  -0.00009   2.23677
   A12        2.19321   0.00000   0.00000   0.00003   0.00003   2.19324
   A13        1.91275   0.00000   0.00000  -0.00001  -0.00001   1.91273
   A14        1.90910  -0.00001   0.00000   0.00004   0.00004   1.90914
   A15        1.87860   0.00000   0.00000  -0.00003  -0.00003   1.87857
   A16        1.90514  -0.00002   0.00000  -0.00009  -0.00009   1.90506
   A17        1.92347   0.00001   0.00000   0.00010   0.00010   1.92357
   A18        1.93456   0.00002   0.00000  -0.00001  -0.00001   1.93455
   A19        1.93186  -0.00004   0.00000  -0.00010  -0.00010   1.93176
   A20        2.16771   0.00000   0.00000  -0.00011  -0.00011   2.16760
   A21        2.18361   0.00004   0.00000   0.00021   0.00021   2.18382
    D1       -0.00023  -0.00001   0.00000  -0.00011  -0.00011  -0.00033
    D2       -3.14097  -0.00001   0.00000  -0.00012  -0.00012  -3.14109
    D3        3.13929   0.00001   0.00000   0.00028   0.00028   3.13956
    D4       -0.00146   0.00001   0.00000   0.00027   0.00027  -0.00119
    D5        0.00048   0.00001   0.00000   0.00022   0.00022   0.00070
    D6        3.13912   0.00001   0.00000   0.00045   0.00045   3.13957
    D7       -3.13912   0.00000   0.00000  -0.00015  -0.00015  -3.13927
    D8       -0.00048   0.00000   0.00000   0.00008   0.00008  -0.00040
    D9       -0.00010   0.00000   0.00000  -0.00003  -0.00003  -0.00013
   D10       -3.14073   0.00000   0.00000  -0.00001  -0.00001  -3.14074
   D11        3.14057   0.00000   0.00000  -0.00002  -0.00002   3.14055
   D12       -0.00006   0.00000   0.00000   0.00000   0.00000  -0.00006
   D13        0.00039   0.00001   0.00000   0.00016   0.00016   0.00055
   D14       -3.13895  -0.00001   0.00000  -0.00032  -0.00032  -3.13927
   D15        3.14111   0.00001   0.00000   0.00014   0.00014   3.14124
   D16        0.00176  -0.00001   0.00000  -0.00034  -0.00034   0.00142
   D17       -0.00054  -0.00001   0.00000  -0.00023  -0.00023  -0.00077
   D18       -3.13914  -0.00001   0.00000  -0.00047  -0.00047  -3.13961
   D19        3.13887   0.00001   0.00000   0.00023   0.00023   3.13910
   D20        0.00027   0.00001   0.00000  -0.00001  -0.00001   0.00026
   D21       -3.04089   0.00000   0.00000  -0.00154  -0.00154  -3.04243
   D22        0.09732   0.00000   0.00000  -0.00127  -0.00127   0.09605
   D23       -0.95577   0.00000   0.00000  -0.00152  -0.00152  -0.95729
   D24        2.18244   0.00000   0.00000  -0.00125  -0.00125   2.18119
   D25        1.15519   0.00000   0.00000  -0.00157  -0.00157   1.15363
   D26       -1.98978   0.00000   0.00000  -0.00130  -0.00130  -1.99108
         Item               Value     Threshold  Converged?
 Maximum Force            0.000105     0.000450     YES
 RMS     Force            0.000029     0.000300     YES
 Maximum Displacement     0.002492     0.001800     NO 
 RMS     Displacement     0.000613     0.001200     YES
 Predicted change in Energy=-8.310738D-08
 GradGradGradGradGradGradGradGradGradGradGradGradGradGradGradGradGradGrad

 1\1\GINC-D10S1B2\Freq\RM062X\def2SVP\C5H5N1O2\CHMKSH\06-Sep-2020\0\\#N
  Geom=AllCheck Guess=TCheck SCRF=Check GenChk RM062X/def2SVP Freq\\Tit
 le Card Required\\0,1\C,-1.136268,-0.222707,0.001006\C,-0.633962,-1.64
 2307,0.000088\C,0.698939,-1.615583,0.000194\C,1.147551,-0.177769,0.001
 047\H,-1.306976,-2.497225,-0.001308\H,1.40617,-2.442499,-0.001038\C,-0
 .051488,2.033834,0.000031\H,0.977865,2.394673,-0.103623\H,-0.654713,2.
 395041,-0.842712\H,-0.478315,2.414002,0.937856\N,-0.010946,0.589146,0.
 001925\O,2.272061,0.250162,-0.001129\O,-2.274066,0.169736,-0.000978\\V
 ersion=ES64L-G09RevD.01\State=1-A\HF=-398.294649\RMSD=4.222e-09\RMSF=4
 .306e-05\ZeroPoint=0.0972987\Thermal=0.1043616\Dipole=0.0247983,-0.580
 9375,-0.0017951\DipoleDeriv=2.5357771,0.2187788,0.0067054,-0.1603602,1
 .273886,0.005206,0.0026135,-0.0008016,0.4470215,-0.0798313,0.149935,0.
 002154,0.3787026,-0.2859419,-0.0008949,0.0000715,0.0003762,-0.1528992,
 -0.0496741,-0.1386991,-0.001913,-0.356315,-0.3023739,-0.0011437,0.0001
 88,0.0002482,-0.1498758,2.5848818,-0.2053721,-0.0066162,0.1575787,1.27
 82523,0.0039704,-0.0035646,-0.0008454,0.4246013,0.1139255,-0.022944,-0
 .0001097,-0.0183276,0.0691501,0.0001019,-0.0004975,-0.0002318,0.175806
 3,0.1123773,0.0224074,0.0001101,0.017529,0.0709304,0.0000998,0.0005046
 ,-0.0002502,0.1786408,0.0655334,-0.0157431,-0.0011451,-0.0909058,0.743
 9658,0.0232225,0.0011528,0.0100507,0.2432735,0.0036743,-0.0864078,0.01
 57872,0.0324009,0.0594406,-0.0049814,0.0160614,0.001582,0.1200166,0.06
 53703,0.0709307,-0.0848883,0.005826,-0.0309496,-0.0091096,-0.0752886,0
 .0551251,-0.0132335,0.0883726,0.0544379,0.0682548,0.0105541,-0.0465592
 ,-0.0016085,0.060076,-0.0755156,-0.0475675,-1.8696837,-0.0120034,0.001
 7421,0.0428325,-1.3941643,-0.014691,-0.0005298,0.007853,-0.3298886,-1.
 7924289,-0.0685893,0.0030606,-0.5265724,-0.7283932,-0.0002544,0.000196
 4,0.0016147,-0.4449563,-1.7782941,0.0332691,-0.0031419,0.507057,-0.707
 243,0.0000828,-0.0009838,0.0007946,-0.4509391\Polar=108.4773565,-0.192
 6778,74.5351235,-0.0161352,0.1348728,40.7885621\PG=C01 [X(C5H5N1O2)]\N
 Imag=0\\1.04474224,-0.18868129,0.60027636,0.00126580,-0.00041089,0.201
 04450,-0.09485630,0.01496176,-0.00004337,0.89173799,-0.00173702,-0.203
 40846,-0.00005108,0.15097170,0.62825303,0.00002563,-0.00018012,-0.0735
 5580,0.00041409,0.00056237,0.11248093,-0.03304256,0.01992504,-0.000009
 62,-0.57422014,-0.00411337,-0.00002353,0.90340085,0.03042839,-0.005136
 35,0.00000025,-0.01494366,-0.11271140,-0.00013270,-0.13912698,0.615231
 67,-0.00000396,-0.00000634,0.00209741,-0.00005777,-0.00013387,-0.04972
 386,-0.00032230,0.00050696,0.11237108,-0.10421664,-0.03442927,-0.00003
 434,-0.03023571,-0.03136605,0.00000364,-0.09383158,0.00567171,-0.00004
 612,1.03034104,0.02919157,0.06608289,0.00004468,-0.02071134,-0.0072268
 2,-0.00000875,-0.01023704,-0.20230647,-0.00017804,0.20754369,0.6105388
 8,0.00004618,0.00004980,-0.01622217,0.00000435,-0.00000529,0.00234985,
 0.00003658,-0.00005765,-0.07383567,-0.00123535,-0.00047316,0.19948462,
 0.01145689,0.00930245,0.00002989,-0.17230503,-0.14988167,-0.00023130,-
 0.00540902,-0.02374960,-0.00003452,-0.00464685,0.00397980,-0.00000247,
 0.16985403,-0.01911076,-0.00719555,-0.00003428,-0.15042821,-0.24793748
 ,-0.00031735,0.00544648,0.00951558,0.00000540,0.00298158,-0.00226287,-
 0.00002448,0.16042931,0.24921947,-0.00002573,0.00000557,0.00098432,-0.
 00023036,-0.00033724,-0.03809508,0.00002802,-0.00000072,0.00902254,0.0
 0000290,-0.00001620,0.01214844,0.00023691,0.00035105,0.02451706,-0.004
 39052,-0.00409945,0.00000029,-0.00609883,0.02320551,0.00002942,-0.1837
 1803,0.15194144,0.00021866,0.01095097,-0.00861711,-0.00002665,0.001371
 16,-0.00066589,-0.00000195,0.18213321,-0.00302411,-0.00258431,-0.00002
 427,-0.00609295,0.01026232,0.00000492,0.15236738,-0.23552487,-0.000271
 80,0.01980444,-0.00685522,-0.00003132,0.00071028,-0.00007081,0.0000082
 3,-0.16252245,0.23599977,-0.00000535,-0.00001768,0.01216735,-0.0000265
 7,0.00000112,0.00910310,0.00021495,-0.00029175,-0.03741404,0.00002676,
 0.00000564,0.00099862,0.00000297,0.00000868,-0.00606701,-0.00022326,0.
 00030251,0.02378928,0.00849756,-0.02863079,0.00060294,-0.00552931,-0.0
 0337678,-0.00015476,-0.00375817,0.00395686,0.00016453,0.01256340,0.025
 81461,-0.00066034,0.00095383,-0.00120122,-0.00006413,0.00079421,0.0009
 7285,0.00006033,0.62650001,-0.01816807,-0.02569125,0.00004950,0.000265
 37,0.00304719,-0.00001395,-0.00046075,0.00342428,0.00000497,0.02315030
 ,-0.02326480,-0.00002072,0.00000845,0.00055053,0.00000501,-0.00001000,
 0.00062299,0.00001295,-0.00378213,0.50941306,0.00099758,0.00050398,0.0
 0022017,0.00020448,-0.00013846,0.00240495,-0.00020074,-0.00015028,0.00
 336435,-0.00106497,0.00045057,-0.00484435,-0.00001677,0.00003111,0.000
 81232,0.00001530,0.00003011,0.00115472,0.00048281,0.00214593,0.5926578
 5,0.00076690,0.00159067,0.00007226,-0.00008269,-0.00007117,0.00004003,
 0.00007049,-0.00001610,0.00005384,-0.00209652,0.00132571,-0.00009523,-
 0.00004940,0.00001871,0.00000719,-0.00002359,-0.00007822,-0.00000306,-
 0.30462295,-0.08958699,0.02637359,0.31908872,0.00544995,-0.00419548,0.
 00056518,-0.00147580,-0.00124575,-0.00012119,-0.00004892,-0.00003541,0
 .00000908,-0.00514155,0.00023821,0.00009998,0.00034738,-0.00040503,-0.
 00005026,0.00007935,0.00006884,-0.00000057,-0.07760126,-0.07387221,0.0
 0762243,0.09465367,0.08915521,-0.00045388,-0.00020734,-0.00009802,-0.0
 0002828,0.00002385,0.00024284,-0.00002379,0.00002789,0.00007737,0.0004
 0925,-0.00001269,0.00137853,0.00000067,-0.00000653,-0.00000293,0.00000
 089,-0.00000116,-0.00004411,0.02628674,0.00853391,-0.05041909,-0.02799
 257,-0.00901951,0.04680953,-0.00013734,-0.00093490,0.00076551,0.000266
 04,-0.00004725,-0.00032217,-0.00023654,-0.00009398,-0.00013727,-0.0001
 7628,-0.00027022,-0.00065574,-0.00001195,0.00004437,-0.00001384,0.0000
 1167,0.00004979,0.00001850,-0.13397141,0.04805078,-0.12109930,-0.01092
 353,0.00955309,-0.02190281,0.13565481,0.00528765,0.00224214,0.00015339
 ,0.00052242,-0.00066838,-0.00018646,0.00052863,-0.00146258,-0.00082806
 ,-0.00690957,-0.00119892,0.00299289,-0.00002414,-0.00000602,-0.0000774
 5,-0.00019368,-0.00026875,-0.00025989,0.04325537,-0.06945918,0.0612162
 9,-0.00456283,0.00378957,-0.00963967,-0.05446350,0.08681100,-0.0019328
 2,-0.00013061,0.00060631,0.00008442,0.00011167,-0.00026204,0.00015634,
 0.00009147,-0.00010910,0.00140317,-0.00127963,-0.00014171,-0.00002721,
 0.00002732,-0.00000062,-0.00000421,-0.00002393,-0.00000668,-0.12161356
 ,0.06637235,-0.21950510,0.00350338,-0.00253575,0.00456366,0.12996186,-
 0.07177320,0.22570213,0.00018079,-0.00089766,-0.00075755,0.00020245,-0
 .00003253,0.00030844,-0.00019681,-0.00006988,0.00004710,-0.00006291,0.
 00011601,0.00071875,-0.00000022,0.00002336,0.00002655,0.00001584,0.000
 04929,-0.00003302,-0.09176085,0.03528178,0.09429607,-0.00708779,0.0101
 0089,0.02443536,0.00779112,-0.00629203,-0.01544562,0.08944957,0.005653
 13,0.00227860,-0.00034158,0.00050948,-0.00087665,0.00031725,0.00025934
 ,-0.00145561,0.00082010,-0.00701509,-0.00026009,-0.00268864,0.00000268
 ,-0.00003663,0.00011551,-0.00015106,-0.00021957,0.00025035,0.03217128,
 -0.07168293,-0.07151086,-0.00262215,0.00416082,0.01023927,-0.00465671,
 0.00396366,0.00771236,-0.04062455,0.08977383,0.00171719,0.00026887,0.0
 0045230,-0.00007797,-0.00011632,-0.00032450,-0.00011035,-0.00008809,-0
 .00022711,-0.00112691,0.00123525,-0.00006364,0.00002887,-0.00003471,0.
 00000182,0.00000113,0.00001154,-0.00001205,0.09480844,-0.07645295,-0.2
 5947887,-0.00110532,0.00051623,0.00000338,0.01060299,-0.00688917,-0.01
 744371,-0.10150236,0.08357984,0.26814624,-0.15563140,-0.04816220,-0.00
 074972,0.00978761,-0.00741015,-0.00001629,0.00779301,0.00990040,0.0000
 2522,-0.16046973,0.04901379,0.00074264,0.00011404,0.00053588,0.0000280
 1,0.00033516,-0.00024833,-0.00002435,-0.10994632,0.00626411,0.00004688
 ,0.00463809,-0.03733013,-0.00068778,0.00120957,0.02307098,0.00356879,0
 .00086438,0.01656368,-0.00297462,0.64010888,-0.06990209,-0.21794425,-0
 .00035496,-0.02087084,-0.05502925,-0.00001620,0.02321026,-0.05439276,-
 0.00003329,0.06732387,-0.21138758,-0.00029024,0.00389469,-0.00444079,-
 0.00000622,-0.00374173,-0.00469079,-0.00001409,0.01042308,-0.25439713,
 -0.00137764,-0.00198718,-0.02107683,0.00045188,0.00114603,-0.02593263,
 0.00231475,0.00078057,-0.02747397,-0.00223324,-0.00748630,0.81286936,-
 0.00032748,-0.00026828,-0.06490174,-0.00020997,0.00004815,0.01599207,0
 .00019948,0.00006500,0.01485224,0.00028843,-0.00023868,-0.05881043,0.0
 0001306,-0.00002216,-0.00018163,-0.00001078,-0.00002124,-0.00050683,0.
 00003891,-0.00081067,-0.06191183,-0.00089532,0.00304971,-0.00160996,0.
 00293915,0.02538100,0.00692653,-0.00213412,-0.02823796,0.00918750,0.00
 006793,0.00097755,0.10185195,0.02801051,0.02663828,-0.00001437,0.00507
 646,-0.00354495,-0.00002479,-0.02160988,-0.02784779,0.00007095,-0.6866
 4662,-0.25193130,0.00111150,-0.00098744,-0.00030639,-0.00000452,-0.000
 29741,-0.00221917,-0.00001181,-0.00097911,-0.01237443,0.00025350,0.000
 40436,0.00197700,-0.00011165,0.00002315,0.00191535,-0.00032268,0.00007
 729,0.00218126,0.00035119,-0.11891765,-0.00182787,0.00007854,0.8149235
 9,0.00231964,-0.01035917,0.00006812,-0.00098768,-0.00842217,-0.0000452
 6,-0.04905398,-0.00686342,0.00014872,-0.24019355,-0.21118788,0.0003771
 2,-0.00254118,0.00113597,-0.00000490,0.00231798,0.00198795,0.00000726,
 -0.00222941,-0.00063416,0.00060189,0.00149550,0.00214902,-0.00013494,0
 .00088544,0.00110082,-0.00017578,0.00054881,0.00095384,-0.00018274,0.0
 1746278,0.03197841,0.00003047,0.26901625,0.19470060,-0.00001533,-0.000
 03930,0.00836847,0.00000717,0.00003620,0.00063711,0.00006659,0.0000076
 8,0.01883289,0.00135322,0.00050704,-0.07084160,0.00000488,0.00000450,-
 0.00218885,0.00000393,0.00001099,-0.00092790,-0.00008471,0.00009609,-0
 .00153120,0.00003710,-0.00012870,-0.00100563,0.00020023,0.00012404,-0.
 00008337,-0.00026997,-0.00020909,-0.00007993,0.00004505,0.00027833,0.0
 1904858,-0.00136144,-0.00067408,0.03181900,-0.70138013,0.23341735,-0.0
 0112772,-0.02374255,0.02740373,-0.00004840,0.00475837,0.00394919,0.000
 02163,0.02852742,-0.02521815,0.00001579,-0.00034004,0.00223278,0.00001
 096,-0.00108385,0.00023119,0.00000390,0.00125911,0.01136158,-0.0002884
 2,-0.00008209,-0.00056367,0.00006784,0.00050069,-0.00213464,0.00066814
 ,0.00052715,-0.00227128,-0.00061229,-0.11988565,-0.00096248,-0.0000478
 2,-0.01907725,0.00095939,0.00001327,0.83001882,0.22229300,-0.19436516,
 0.00033594,0.04827974,-0.00403617,0.00013745,0.00130391,-0.00828264,-0
 .00004384,-0.00142051,-0.01090932,0.00007169,-0.00247844,0.00193364,0.
 00000764,0.00245710,0.00127245,-0.00000454,0.00022754,0.00194361,0.000
 57493,-0.00015962,0.00126904,-0.00025495,0.00073706,0.00108925,-0.0007
 1101,0.00101594,0.00087470,0.00038548,-0.02217450,0.03191821,0.0000471
 2,-0.00167624,0.00346020,-0.00001370,-0.24840498,0.17383217,-0.0012878
 4,0.00043235,-0.07116309,-0.00004023,-0.00000111,0.01875042,-0.0000116
 2,0.00002195,0.00069191,0.00002032,-0.00003603,0.00839950,-0.00000499,
 0.00001144,-0.00095036,-0.00000276,0.00000542,-0.00223446,0.00013281,0
 .00007759,-0.00292391,0.00000412,-0.00000664,0.00010443,-0.00035711,-0
 .00021371,-0.00024629,0.00031036,-0.00004655,-0.00016144,-0.00007175,0
 .00030337,0.02006355,-0.00001443,-0.00001589,-0.00204756,0.00132312,-0
 .00053220,0.03171729\\0.00008122,-0.00000706,0.00003987,0.00010372,0.0
 0000491,-0.00002123,-0.00009923,0.00000374,-0.00002777,-0.00007051,-0.
 00001618,0.00005970,-0.00002971,0.00001525,-0.00000920,0.00002562,0.00
 001309,-0.00000724,0.00004518,-0.00004893,-0.00001266,-0.00003557,-0.0
 0001402,0.00001202,0.00001110,-0.00000819,0.00001023,0.00000724,-0.000
 01864,0.00000997,-0.00003690,-0.00000982,-0.00002052,0.00009433,0.0000
 4641,-0.00001738,-0.00009651,0.00003943,-0.00001580\\\@


 YOU CAN WIPE THE SLATE CLEAN, BUT YOU'LL STILL
 HAVE TO EAT A LITTLE CHALK DUST.
 Job cpu time:       0 days  0 hours  6 minutes 44.1 seconds.
 File lengths (MBytes):  RWF=     50 Int=      0 D2E=      0 Chk=      7 Scr=      1
 Normal termination of Gaussian 09 at Sun Sep  6 03:05:17 2020.
