 Entering Gaussian System, Link 0=g09
 Input=water_m06-2x_TS2_scan2_diene_dienophile_pm6_cpcmtoluene_2_3_gd3.com
 Output=water_m06-2x_TS2_scan2_diene_dienophile_pm6_cpcmtoluene_2_3_gd3.log
 Initial command:
 /apps/applications/gaussian/G09.D01/2/default/g09/l1.exe "/local/725837.1.40core-192G.q/Gau-31618.inp" -scrdir="/local/725837.1.40core-192G.q/"
 Entering Link 1 = /apps/applications/gaussian/G09.D01/2/default/g09/l1.exe PID=     31619.
  
 Copyright (c) 1988,1990,1992,1993,1995,1998,2003,2009,2013,
            Gaussian, Inc.  All Rights Reserved.
  
 This is part of the Gaussian(R) 09 program.  It is based on
 the Gaussian(R) 03 system (copyright 2003, Gaussian, Inc.),
 the Gaussian(R) 98 system (copyright 1998, Gaussian, Inc.),
 the Gaussian(R) 94 system (copyright 1995, Gaussian, Inc.),
 the Gaussian 92(TM) system (copyright 1992, Gaussian, Inc.),
 the Gaussian 90(TM) system (copyright 1990, Gaussian, Inc.),
 the Gaussian 88(TM) system (copyright 1988, Gaussian, Inc.),
 the Gaussian 86(TM) system (copyright 1986, Carnegie Mellon
 University), and the Gaussian 82(TM) system (copyright 1983,
 Carnegie Mellon University). Gaussian is a federally registered
 trademark of Gaussian, Inc.
  
 This software contains proprietary and confidential information,
 including trade secrets, belonging to Gaussian, Inc.
  
 This software is provided under written license and may be
 used, copied, transmitted, or stored only in accord with that
 written license.
  
 The following legend is applicable only to US Government
 contracts under FAR:
  
                    RESTRICTED RIGHTS LEGEND
  
 Use, reproduction and disclosure by the US Government is
 subject to restrictions as set forth in subparagraphs (a)
 and (c) of the Commercial Computer Software - Restricted
 Rights clause in FAR 52.227-19.
  
 Gaussian, Inc.
 340 Quinnipiac St., Bldg. 40, Wallingford CT 06492
  
  
 ---------------------------------------------------------------
 Warning -- This program may not be used in any manner that
 competes with the business of Gaussian, Inc. or will provide
 assistance to any competitor of Gaussian, Inc.  The licensee
 of this program is prohibited from giving any competitor of
 Gaussian, Inc. access to this program.  By using this program,
 the user acknowledges that Gaussian, Inc. is engaged in the
 business of creating and licensing software in the field of
 computational chemistry and represents and warrants to the
 licensee that it is not a competitor of Gaussian, Inc. and that
 it will not use this program in any manner prohibited above.
 ---------------------------------------------------------------
  

 Cite this work as:
 Gaussian 09, Revision D.01,
 M. J. Frisch, G. W. Trucks, H. B. Schlegel, G. E. Scuseria, 
 M. A. Robb, J. R. Cheeseman, G. Scalmani, V. Barone, B. Mennucci, 
 G. A. Petersson, H. Nakatsuji, M. Caricato, X. Li, H. P. Hratchian, 
 A. F. Izmaylov, J. Bloino, G. Zheng, J. L. Sonnenberg, M. Hada, 
 M. Ehara, K. Toyota, R. Fukuda, J. Hasegawa, M. Ishida, T. Nakajima, 
 Y. Honda, O. Kitao, H. Nakai, T. Vreven, J. A. Montgomery, Jr., 
 J. E. Peralta, F. Ogliaro, M. Bearpark, J. J. Heyd, E. Brothers, 
 K. N. Kudin, V. N. Staroverov, T. Keith, R. Kobayashi, J. Normand, 
 K. Raghavachari, A. Rendell, J. C. Burant, S. S. Iyengar, J. Tomasi, 
 M. Cossi, N. Rega, J. M. Millam, M. Klene, J. E. Knox, J. B. Cross, 
 V. Bakken, C. Adamo, J. Jaramillo, R. Gomperts, R. E. Stratmann, 
 O. Yazyev, A. J. Austin, R. Cammi, C. Pomelli, J. W. Ochterski, 
 R. L. Martin, K. Morokuma, V. G. Zakrzewski, G. A. Voth, 
 P. Salvador, J. J. Dannenberg, S. Dapprich, A. D. Daniels, 
 O. Farkas, J. B. Foresman, J. V. Ortiz, J. Cioslowski, 
 and D. J. Fox, Gaussian, Inc., Wallingford CT, 2013.
 
 ******************************************
 Gaussian 09:  ES64L-G09RevD.01 24-Apr-2013
                 6-Sep-2020 
 ******************************************
 %nprocshared=4
 Will use up to    4 processors via shared memory.
 ----------------------------------------------------------------------
 # opt=(calcfc,ts,noeigentest) scrf=(cpcm,solvent=water) geom=connectiv
 ity def2svp m062x empiricaldispersion=gd3
 ----------------------------------------------------------------------
 1/5=1,10=4,11=1,14=-1,18=20,26=3,38=1,57=2/1,3;
 2/9=110,12=2,17=6,18=5,40=1/2;
 3/5=43,7=101,11=2,16=1,25=1,30=1,70=2101,71=2,72=1,74=-55,124=31,140=1/1,2,3;
 4//1;
 5/5=2,38=5,53=1/2;
 8/6=4,10=90,11=11/1;
 11/6=1,8=1,9=11,15=111,16=1/1,2,10;
 10/6=1,13=1/2;
 6/7=2,8=2,9=2,10=2,28=1/1;
 7/10=1,18=20,25=1/1,2,3,16;
 1/5=1,10=4,11=1,14=-1,18=20,26=3/3(2);
 2/9=110/2;
 99//99;
 2/9=110/2;
 3/5=43,7=101,11=2,16=1,25=1,30=1,70=2105,71=1,72=1,74=-55,124=31/1,2,3;
 4/5=5,16=3,69=1/1;
 5/5=2,38=5,53=1/2;
 7//1,2,3,16;
 1/5=1,11=1,14=-1,18=20,26=3/3(-5);
 2/9=110/2;
 6/7=2,8=2,9=2,10=2,19=2,28=1/1;
 99/9=1/99;
 -------------------
 Title Card Required
 -------------------
 Symbolic Z-matrix:
 Charge =  0 Multiplicity = 1
 C                    -2.44745   0.79037  -0.59944 
 C                    -1.49296  -0.22921  -1.12554 
 C                    -0.21187   0.21229  -0.83846 
 C                    -0.32886   1.52602  -0.13977 
 H                    -1.78718  -0.89988  -1.92826 
 H                     0.69939  -0.04755  -1.37196 
 C                    -2.24235   2.90932   0.72235 
 H                    -2.80068   2.62297   1.62343 
 H                    -1.41005   3.56511   1.00121 
 H                    -2.91698   3.43998   0.03772 
 N                    -1.68442   1.74618   0.0709 
 O                     0.55407   2.2815    0.20206 
 O                    -3.65074   0.83661  -0.69716 
 C                    -0.97068  -2.63892   0.2581 
 H                    -1.06678  -3.59782  -0.25998 
 C                     0.32518  -2.17351   0.54861 
 H                     1.17878  -2.77364   0.2236 
 C                    -2.10067  -1.85625   0.39462 
 H                    -2.0772   -1.03108   1.11323 
 C                    -3.46265  -2.32125  -0.01814 
 H                    -4.03717  -1.49445  -0.4593 
 H                    -3.39891  -3.14565  -0.74089 
 H                    -4.02509  -2.67131   0.86188 
 C                     0.56621  -0.89295   1.00128 
 H                    -0.20246  -0.37187   1.57916 
 C                     1.9505   -0.35069   1.19158 
 H                     2.34384  -0.65334   2.17698 
 H                     1.91376   0.74475   1.16584 
 C                     3.79122  -0.15033  -0.38354 
 C                     3.92527   1.2975    0.00903 
 H                     4.13165   1.38987   1.08457 
 H                     4.75416   1.72607  -0.56142 
 H                     2.99491   1.84468  -0.20318 
 O                     2.80361  -0.87196   0.18054 
 O                     4.50451  -0.69668  -1.18079 
 
 Add virtual bond connecting atoms C18        and C2         Dist= 4.36D+00.
 Add virtual bond connecting atoms H21        and O13        Dist= 4.49D+00.
 Add virtual bond connecting atoms C24        and C3         Dist= 4.31D+00.
 Add virtual bond connecting atoms H28        and O12        Dist= 4.28D+00.

 GradGradGradGradGradGradGradGradGradGradGradGradGradGradGradGradGradGrad
 Berny optimization.
 Initialization pass.
                           ----------------------------
                           !    Initial Parameters    !
                           ! (Angstroms and Degrees)  !
 --------------------------                            --------------------------
 ! Name  Definition              Value          Derivative Info.                !
 --------------------------------------------------------------------------------
 ! R1    R(1,2)                  1.4924         calculate D2E/DX2 analytically  !
 ! R2    R(1,11)                 1.3947         calculate D2E/DX2 analytically  !
 ! R3    R(1,13)                 1.2081         calculate D2E/DX2 analytically  !
 ! R4    R(2,3)                  1.3851         calculate D2E/DX2 analytically  !
 ! R5    R(2,5)                  1.0866         calculate D2E/DX2 analytically  !
 ! R6    R(2,18)                 2.3081         calculate D2E/DX2 analytically  !
 ! R7    R(3,4)                  1.4926         calculate D2E/DX2 analytically  !
 ! R8    R(3,6)                  1.0874         calculate D2E/DX2 analytically  !
 ! R9    R(3,24)                 2.2829         calculate D2E/DX2 analytically  !
 ! R10   R(4,11)                 1.3894         calculate D2E/DX2 analytically  !
 ! R11   R(4,12)                 1.2113         calculate D2E/DX2 analytically  !
 ! R12   R(7,8)                  1.098          calculate D2E/DX2 analytically  !
 ! R13   R(7,9)                  1.0957         calculate D2E/DX2 analytically  !
 ! R14   R(7,10)                 1.0979         calculate D2E/DX2 analytically  !
 ! R15   R(7,11)                 1.4452         calculate D2E/DX2 analytically  !
 ! R16   R(12,28)                2.267          calculate D2E/DX2 analytically  !
 ! R17   R(13,21)                2.3748         calculate D2E/DX2 analytically  !
 ! R18   R(14,15)                1.0941         calculate D2E/DX2 analytically  !
 ! R19   R(14,16)                1.4072         calculate D2E/DX2 analytically  !
 ! R20   R(14,18)                1.3813         calculate D2E/DX2 analytically  !
 ! R21   R(16,17)                1.0929         calculate D2E/DX2 analytically  !
 ! R22   R(16,24)                1.3794         calculate D2E/DX2 analytically  !
 ! R23   R(18,19)                1.0945         calculate D2E/DX2 analytically  !
 ! R24   R(18,20)                1.4972         calculate D2E/DX2 analytically  !
 ! R25   R(20,21)                1.0992         calculate D2E/DX2 analytically  !
 ! R26   R(20,22)                1.0982         calculate D2E/DX2 analytically  !
 ! R27   R(20,23)                1.1015         calculate D2E/DX2 analytically  !
 ! R28   R(24,25)                1.0938         calculate D2E/DX2 analytically  !
 ! R29   R(24,26)                1.4988         calculate D2E/DX2 analytically  !
 ! R30   R(26,27)                1.1033         calculate D2E/DX2 analytically  !
 ! R31   R(26,28)                1.0964         calculate D2E/DX2 analytically  !
 ! R32   R(26,34)                1.4219         calculate D2E/DX2 analytically  !
 ! R33   R(29,30)                1.5061         calculate D2E/DX2 analytically  !
 ! R34   R(29,34)                1.347          calculate D2E/DX2 analytically  !
 ! R35   R(29,35)                1.2012         calculate D2E/DX2 analytically  !
 ! R36   R(30,31)                1.099          calculate D2E/DX2 analytically  !
 ! R37   R(30,32)                1.0937         calculate D2E/DX2 analytically  !
 ! R38   R(30,33)                1.1            calculate D2E/DX2 analytically  !
 ! A1    A(2,1,11)             106.7218         calculate D2E/DX2 analytically  !
 ! A2    A(2,1,13)             129.3919         calculate D2E/DX2 analytically  !
 ! A3    A(11,1,13)            123.8862         calculate D2E/DX2 analytically  !
 ! A4    A(1,2,3)              107.4998         calculate D2E/DX2 analytically  !
 ! A5    A(1,2,5)              120.5905         calculate D2E/DX2 analytically  !
 ! A6    A(1,2,18)              94.647          calculate D2E/DX2 analytically  !
 ! A7    A(3,2,5)              126.8901         calculate D2E/DX2 analytically  !
 ! A8    A(3,2,18)             109.3722         calculate D2E/DX2 analytically  !
 ! A9    A(5,2,18)              88.8634         calculate D2E/DX2 analytically  !
 ! A10   A(2,3,4)              107.7632         calculate D2E/DX2 analytically  !
 ! A11   A(2,3,6)              126.6703         calculate D2E/DX2 analytically  !
 ! A12   A(2,3,24)             109.1444         calculate D2E/DX2 analytically  !
 ! A13   A(4,3,6)              120.3745         calculate D2E/DX2 analytically  !
 ! A14   A(4,3,24)              94.3359         calculate D2E/DX2 analytically  !
 ! A15   A(6,3,24)              89.6603         calculate D2E/DX2 analytically  !
 ! A16   A(3,4,11)             106.6738         calculate D2E/DX2 analytically  !
 ! A17   A(3,4,12)             128.6054         calculate D2E/DX2 analytically  !
 ! A18   A(11,4,12)            124.7198         calculate D2E/DX2 analytically  !
 ! A19   A(8,7,9)              109.4802         calculate D2E/DX2 analytically  !
 ! A20   A(8,7,10)             108.9848         calculate D2E/DX2 analytically  !
 ! A21   A(8,7,11)             110.8748         calculate D2E/DX2 analytically  !
 ! A22   A(9,7,10)             109.6443         calculate D2E/DX2 analytically  !
 ! A23   A(9,7,11)             107.6482         calculate D2E/DX2 analytically  !
 ! A24   A(10,7,11)            110.19           calculate D2E/DX2 analytically  !
 ! A25   A(1,11,4)             110.6283         calculate D2E/DX2 analytically  !
 ! A26   A(1,11,7)             123.8501         calculate D2E/DX2 analytically  !
 ! A27   A(4,11,7)             124.9277         calculate D2E/DX2 analytically  !
 ! A28   A(4,12,28)             97.7226         calculate D2E/DX2 analytically  !
 ! A29   A(1,13,21)             96.684          calculate D2E/DX2 analytically  !
 ! A30   A(15,14,16)           117.9358         calculate D2E/DX2 analytically  !
 ! A31   A(15,14,18)           118.1334         calculate D2E/DX2 analytically  !
 ! A32   A(16,14,18)           123.0594         calculate D2E/DX2 analytically  !
 ! A33   A(14,16,17)           118.4394         calculate D2E/DX2 analytically  !
 ! A34   A(14,16,24)           122.3897         calculate D2E/DX2 analytically  !
 ! A35   A(17,16,24)           118.0915         calculate D2E/DX2 analytically  !
 ! A36   A(2,18,14)             96.8308         calculate D2E/DX2 analytically  !
 ! A37   A(2,18,19)             83.9916         calculate D2E/DX2 analytically  !
 ! A38   A(2,18,20)            106.074          calculate D2E/DX2 analytically  !
 ! A39   A(14,18,19)           118.3293         calculate D2E/DX2 analytically  !
 ! A40   A(14,18,20)           122.7473         calculate D2E/DX2 analytically  !
 ! A41   A(19,18,20)           115.7652         calculate D2E/DX2 analytically  !
 ! A42   A(18,20,21)           110.6399         calculate D2E/DX2 analytically  !
 ! A43   A(18,20,22)           111.2099         calculate D2E/DX2 analytically  !
 ! A44   A(18,20,23)           110.0565         calculate D2E/DX2 analytically  !
 ! A45   A(21,20,22)           109.3202         calculate D2E/DX2 analytically  !
 ! A46   A(21,20,23)           107.0256         calculate D2E/DX2 analytically  !
 ! A47   A(22,20,23)           108.4725         calculate D2E/DX2 analytically  !
 ! A48   A(13,21,20)           133.9045         calculate D2E/DX2 analytically  !
 ! A49   A(3,24,16)             97.2055         calculate D2E/DX2 analytically  !
 ! A50   A(3,24,25)             87.4553         calculate D2E/DX2 analytically  !
 ! A51   A(3,24,26)            104.0016         calculate D2E/DX2 analytically  !
 ! A52   A(16,24,25)           119.5276         calculate D2E/DX2 analytically  !
 ! A53   A(16,24,26)           122.6083         calculate D2E/DX2 analytically  !
 ! A54   A(25,24,26)           114.1815         calculate D2E/DX2 analytically  !
 ! A55   A(24,26,27)           110.0849         calculate D2E/DX2 analytically  !
 ! A56   A(24,26,28)           109.12           calculate D2E/DX2 analytically  !
 ! A57   A(24,26,34)           109.3432         calculate D2E/DX2 analytically  !
 ! A58   A(27,26,28)           107.8779         calculate D2E/DX2 analytically  !
 ! A59   A(27,26,34)           108.6995         calculate D2E/DX2 analytically  !
 ! A60   A(28,26,34)           111.698          calculate D2E/DX2 analytically  !
 ! A61   A(12,28,26)           135.0233         calculate D2E/DX2 analytically  !
 ! A62   A(30,29,34)           118.1076         calculate D2E/DX2 analytically  !
 ! A63   A(30,29,35)           123.8752         calculate D2E/DX2 analytically  !
 ! A64   A(34,29,35)           118.0125         calculate D2E/DX2 analytically  !
 ! A65   A(29,30,31)           110.6455         calculate D2E/DX2 analytically  !
 ! A66   A(29,30,32)           107.9511         calculate D2E/DX2 analytically  !
 ! A67   A(29,30,33)           110.6481         calculate D2E/DX2 analytically  !
 ! A68   A(31,30,32)           109.5835         calculate D2E/DX2 analytically  !
 ! A69   A(31,30,33)           107.807          calculate D2E/DX2 analytically  !
 ! A70   A(32,30,33)           110.2095         calculate D2E/DX2 analytically  !
 ! A71   A(26,34,29)           122.7715         calculate D2E/DX2 analytically  !
 ! D1    D(11,1,2,3)            -4.4833         calculate D2E/DX2 analytically  !
 ! D2    D(11,1,2,5)          -161.0564         calculate D2E/DX2 analytically  !
 ! D3    D(11,1,2,18)          107.5148         calculate D2E/DX2 analytically  !
 ! D4    D(13,1,2,3)           175.6402         calculate D2E/DX2 analytically  !
 ! D5    D(13,1,2,5)            19.0671         calculate D2E/DX2 analytically  !
 ! D6    D(13,1,2,18)          -72.3618         calculate D2E/DX2 analytically  !
 ! D7    D(2,1,11,4)             8.2441         calculate D2E/DX2 analytically  !
 ! D8    D(2,1,11,7)           179.7789         calculate D2E/DX2 analytically  !
 ! D9    D(13,1,11,4)         -171.8709         calculate D2E/DX2 analytically  !
 ! D10   D(13,1,11,7)           -0.3361         calculate D2E/DX2 analytically  !
 ! D11   D(2,1,13,21)           37.9739         calculate D2E/DX2 analytically  !
 ! D12   D(11,1,13,21)        -141.8836         calculate D2E/DX2 analytically  !
 ! D13   D(1,2,3,4)             -0.6402         calculate D2E/DX2 analytically  !
 ! D14   D(1,2,3,6)           -154.8649         calculate D2E/DX2 analytically  !
 ! D15   D(1,2,3,24)           100.619          calculate D2E/DX2 analytically  !
 ! D16   D(5,2,3,4)            154.0241         calculate D2E/DX2 analytically  !
 ! D17   D(5,2,3,6)             -0.2006         calculate D2E/DX2 analytically  !
 ! D18   D(5,2,3,24)          -104.7167         calculate D2E/DX2 analytically  !
 ! D19   D(18,2,3,4)          -102.2303         calculate D2E/DX2 analytically  !
 ! D20   D(18,2,3,6)           103.545          calculate D2E/DX2 analytically  !
 ! D21   D(18,2,3,24)           -0.9711         calculate D2E/DX2 analytically  !
 ! D22   D(1,2,18,14)         -160.9545         calculate D2E/DX2 analytically  !
 ! D23   D(1,2,18,19)          -43.0524         calculate D2E/DX2 analytically  !
 ! D24   D(1,2,18,20)           72.0692         calculate D2E/DX2 analytically  !
 ! D25   D(3,2,18,14)          -50.5662         calculate D2E/DX2 analytically  !
 ! D26   D(3,2,18,19)           67.3359         calculate D2E/DX2 analytically  !
 ! D27   D(3,2,18,20)         -177.5424         calculate D2E/DX2 analytically  !
 ! D28   D(5,2,18,14)           78.4439         calculate D2E/DX2 analytically  !
 ! D29   D(5,2,18,19)         -163.654          calculate D2E/DX2 analytically  !
 ! D30   D(5,2,18,20)          -48.5324         calculate D2E/DX2 analytically  !
 ! D31   D(2,3,4,11)             5.5645         calculate D2E/DX2 analytically  !
 ! D32   D(2,3,4,12)          -174.7888         calculate D2E/DX2 analytically  !
 ! D33   D(6,3,4,11)           161.719          calculate D2E/DX2 analytically  !
 ! D34   D(6,3,4,12)           -18.6343         calculate D2E/DX2 analytically  !
 ! D35   D(24,3,4,11)         -106.1293         calculate D2E/DX2 analytically  !
 ! D36   D(24,3,4,12)           73.5175         calculate D2E/DX2 analytically  !
 ! D37   D(2,3,24,16)           52.7996         calculate D2E/DX2 analytically  !
 ! D38   D(2,3,24,25)          -66.6486         calculate D2E/DX2 analytically  !
 ! D39   D(2,3,24,26)          179.0519         calculate D2E/DX2 analytically  !
 ! D40   D(4,3,24,16)          163.2986         calculate D2E/DX2 analytically  !
 ! D41   D(4,3,24,25)           43.8504         calculate D2E/DX2 analytically  !
 ! D42   D(4,3,24,26)          -70.4491         calculate D2E/DX2 analytically  !
 ! D43   D(6,3,24,16)          -76.2597         calculate D2E/DX2 analytically  !
 ! D44   D(6,3,24,25)          164.2921         calculate D2E/DX2 analytically  !
 ! D45   D(6,3,24,26)           49.9926         calculate D2E/DX2 analytically  !
 ! D46   D(3,4,11,1)            -8.6195         calculate D2E/DX2 analytically  !
 ! D47   D(3,4,11,7)           179.9562         calculate D2E/DX2 analytically  !
 ! D48   D(12,4,11,1)          171.7164         calculate D2E/DX2 analytically  !
 ! D49   D(12,4,11,7)            0.2921         calculate D2E/DX2 analytically  !
 ! D50   D(3,4,12,28)          -46.9612         calculate D2E/DX2 analytically  !
 ! D51   D(11,4,12,28)         132.6271         calculate D2E/DX2 analytically  !
 ! D52   D(8,7,11,1)            70.348          calculate D2E/DX2 analytically  !
 ! D53   D(8,7,11,4)          -119.3258         calculate D2E/DX2 analytically  !
 ! D54   D(9,7,11,1)          -169.9254         calculate D2E/DX2 analytically  !
 ! D55   D(9,7,11,4)             0.4008         calculate D2E/DX2 analytically  !
 ! D56   D(10,7,11,1)          -50.396          calculate D2E/DX2 analytically  !
 ! D57   D(10,7,11,4)          119.9302         calculate D2E/DX2 analytically  !
 ! D58   D(4,12,28,26)          11.1487         calculate D2E/DX2 analytically  !
 ! D59   D(1,13,21,20)          22.2044         calculate D2E/DX2 analytically  !
 ! D60   D(15,14,16,17)          1.5403         calculate D2E/DX2 analytically  !
 ! D61   D(15,14,16,24)        169.4259         calculate D2E/DX2 analytically  !
 ! D62   D(18,14,16,17)       -167.5604         calculate D2E/DX2 analytically  !
 ! D63   D(18,14,16,24)          0.3252         calculate D2E/DX2 analytically  !
 ! D64   D(15,14,18,2)        -108.165          calculate D2E/DX2 analytically  !
 ! D65   D(15,14,18,19)        164.9987         calculate D2E/DX2 analytically  !
 ! D66   D(15,14,18,20)          5.9517         calculate D2E/DX2 analytically  !
 ! D67   D(16,14,18,2)          60.9155         calculate D2E/DX2 analytically  !
 ! D68   D(16,14,18,19)        -25.9209         calculate D2E/DX2 analytically  !
 ! D69   D(16,14,18,20)        175.0321         calculate D2E/DX2 analytically  !
 ! D70   D(14,16,24,3)         -62.4639         calculate D2E/DX2 analytically  !
 ! D71   D(14,16,24,25)         28.6923         calculate D2E/DX2 analytically  !
 ! D72   D(14,16,24,26)       -174.2034         calculate D2E/DX2 analytically  !
 ! D73   D(17,16,24,3)         105.4618         calculate D2E/DX2 analytically  !
 ! D74   D(17,16,24,25)       -163.382          calculate D2E/DX2 analytically  !
 ! D75   D(17,16,24,26)         -6.2777         calculate D2E/DX2 analytically  !
 ! D76   D(2,18,20,21)         -32.9572         calculate D2E/DX2 analytically  !
 ! D77   D(2,18,20,22)          88.7382         calculate D2E/DX2 analytically  !
 ! D78   D(2,18,20,23)        -151.0303         calculate D2E/DX2 analytically  !
 ! D79   D(14,18,20,21)       -142.377          calculate D2E/DX2 analytically  !
 ! D80   D(14,18,20,22)        -20.6816         calculate D2E/DX2 analytically  !
 ! D81   D(14,18,20,23)         99.5498         calculate D2E/DX2 analytically  !
 ! D82   D(19,18,20,21)         58.081          calculate D2E/DX2 analytically  !
 ! D83   D(19,18,20,22)        179.7764         calculate D2E/DX2 analytically  !
 ! D84   D(19,18,20,23)        -59.9921         calculate D2E/DX2 analytically  !
 ! D85   D(18,20,21,13)         -6.6523         calculate D2E/DX2 analytically  !
 ! D86   D(22,20,21,13)       -129.4537         calculate D2E/DX2 analytically  !
 ! D87   D(23,20,21,13)        113.2557         calculate D2E/DX2 analytically  !
 ! D88   D(3,24,26,27)         167.88           calculate D2E/DX2 analytically  !
 ! D89   D(3,24,26,28)          49.6695         calculate D2E/DX2 analytically  !
 ! D90   D(3,24,26,34)         -72.7698         calculate D2E/DX2 analytically  !
 ! D91   D(16,24,26,27)        -83.881          calculate D2E/DX2 analytically  !
 ! D92   D(16,24,26,28)        157.9084         calculate D2E/DX2 analytically  !
 ! D93   D(16,24,26,34)         35.4691         calculate D2E/DX2 analytically  !
 ! D94   D(25,24,26,27)         74.3364         calculate D2E/DX2 analytically  !
 ! D95   D(25,24,26,28)        -43.8742         calculate D2E/DX2 analytically  !
 ! D96   D(25,24,26,34)       -166.3135         calculate D2E/DX2 analytically  !
 ! D97   D(24,26,28,12)        -27.1243         calculate D2E/DX2 analytically  !
 ! D98   D(27,26,28,12)       -146.7103         calculate D2E/DX2 analytically  !
 ! D99   D(34,26,28,12)         93.8892         calculate D2E/DX2 analytically  !
 ! D100  D(24,26,34,29)        143.5954         calculate D2E/DX2 analytically  !
 ! D101  D(27,26,34,29)        -96.202          calculate D2E/DX2 analytically  !
 ! D102  D(28,26,34,29)         22.7117         calculate D2E/DX2 analytically  !
 ! D103  D(34,29,30,31)         61.5498         calculate D2E/DX2 analytically  !
 ! D104  D(34,29,30,32)       -178.544          calculate D2E/DX2 analytically  !
 ! D105  D(34,29,30,33)        -57.8707         calculate D2E/DX2 analytically  !
 ! D106  D(35,29,30,31)       -119.2561         calculate D2E/DX2 analytically  !
 ! D107  D(35,29,30,32)          0.65           calculate D2E/DX2 analytically  !
 ! D108  D(35,29,30,33)        121.3234         calculate D2E/DX2 analytically  !
 ! D109  D(30,29,34,26)         -4.5027         calculate D2E/DX2 analytically  !
 ! D110  D(35,29,34,26)        176.2552         calculate D2E/DX2 analytically  !
 --------------------------------------------------------------------------------
 Trust Radius=3.00D-01 FncErr=1.00D-07 GrdErr=1.00D-06
 Number of steps in this run=    210 maximum allowed number of steps=    210.
 Search for a saddle point of order  1.
 GradGradGradGradGradGradGradGradGradGradGradGradGradGradGradGradGradGrad

                          Input orientation:                          
 ---------------------------------------------------------------------
 Center     Atomic      Atomic             Coordinates (Angstroms)
 Number     Number       Type             X           Y           Z
 ---------------------------------------------------------------------
      1          6           0       -2.447445    0.790366   -0.599444
      2          6           0       -1.492960   -0.229211   -1.125542
      3          6           0       -0.211872    0.212285   -0.838460
      4          6           0       -0.328860    1.526018   -0.139774
      5          1           0       -1.787180   -0.899878   -1.928256
      6          1           0        0.699393   -0.047552   -1.371961
      7          6           0       -2.242350    2.909322    0.722347
      8          1           0       -2.800681    2.622966    1.623427
      9          1           0       -1.410046    3.565105    1.001207
     10          1           0       -2.916983    3.439977    0.037723
     11          7           0       -1.684420    1.746176    0.070896
     12          8           0        0.554069    2.281495    0.202058
     13          8           0       -3.650743    0.836609   -0.697162
     14          6           0       -0.970683   -2.638924    0.258099
     15          1           0       -1.066776   -3.597817   -0.259983
     16          6           0        0.325182   -2.173512    0.548612
     17          1           0        1.178775   -2.773644    0.223598
     18          6           0       -2.100673   -1.856245    0.394615
     19          1           0       -2.077204   -1.031083    1.113228
     20          6           0       -3.462646   -2.321248   -0.018144
     21          1           0       -4.037170   -1.494449   -0.459301
     22          1           0       -3.398906   -3.145654   -0.740892
     23          1           0       -4.025093   -2.671313    0.861883
     24          6           0        0.566212   -0.892950    1.001280
     25          1           0       -0.202460   -0.371869    1.579159
     26          6           0        1.950503   -0.350694    1.191577
     27          1           0        2.343841   -0.653338    2.176976
     28          1           0        1.913760    0.744752    1.165837
     29          6           0        3.791215   -0.150331   -0.383539
     30          6           0        3.925270    1.297501    0.009031
     31          1           0        4.131653    1.389866    1.084569
     32          1           0        4.754157    1.726070   -0.561422
     33          1           0        2.994914    1.844681   -0.203181
     34          8           0        2.803609   -0.871960    0.180540
     35          8           0        4.504513   -0.696683   -1.180788
 ---------------------------------------------------------------------
                    Distance matrix (angstroms):
                    1          2          3          4          5
     1  C    0.000000
     2  C    1.492434   0.000000
     3  C    2.321442   1.385107   0.000000
     4  C    2.289297   2.325445   1.492562   0.000000
     5  H    2.249137   1.086605   2.214985   3.348184   0.000000
     6  H    3.346861   2.213625   1.087448   2.247601   2.686814
     7  C    2.505827   3.718423   3.719270   2.513608   4.662926
     8  H    2.902474   4.171556   4.309780   3.228323   5.104122
     9  H    3.367114   4.350491   4.007667   2.574622   5.353509
    10  H    2.765300   4.104140   4.301548   3.223837   4.896516
    11  N    1.394681   2.317385   2.312606   1.389386   3.317947
    12  O    3.446006   3.500928   2.439462   1.211263   4.487852
    13  O    1.208145   2.444485   3.497939   3.438150   2.829107
    14  C    3.830958   2.827358   3.147639   4.232846   2.910515
    15  H    4.612768   3.504045   3.947452   5.178094   3.252844
    16  C    4.217827   3.144636   2.811481   3.819446   3.495582
    17  H    5.150635   3.928420   3.460872   4.570787   4.115624
    18  C    2.848325   2.308123   3.060533   3.855463   2.531530
    19  H    2.527449   2.448761   2.972291   3.341480   3.058096
    20  C    3.324257   3.079385   4.202290   4.963554   2.911358
    21  H    2.786978   2.918511   4.205901   4.793421   2.752053
    22  H    4.051856   3.505171   4.630600   5.622370   3.008489
    23  H    4.075251   4.040472   5.074146   5.681817   3.991380
    24  C    3.804997   3.033828   2.282893   2.820384   3.757750
    25  H    3.337223   3.000192   2.487208   2.563724   3.884854
    26  C    4.883822   4.152257   3.018917   3.238833   4.899514
    27  H    5.722693   5.080113   4.046458   4.154546   5.829155
    28  H    4.705147   4.219569   2.969687   2.710044   5.096585
    29  C    6.312876   5.336600   4.045139   4.454726   5.836648
    30  C    6.421754   5.742414   4.360261   4.262861   6.419785
    31  H    6.817612   6.256379   4.893970   4.627497   7.025142
    32  H    7.262235   6.570223   5.199013   5.104397   7.180037
    33  H    5.557686   5.029194   3.654008   3.339617   5.777275
    34  O    5.562847   4.536461   3.362599   3.957937   5.052044
    35  O    7.132951   6.015918   4.815361   5.420849   6.339195
                    6          7          8          9         10
     6  H    0.000000
     7  C    4.667235   0.000000
     8  H    5.324898   1.098034   0.000000
     9  H    4.809673   1.095693   1.791270   0.000000
    10  H    5.218069   1.097923   1.787593   1.792991   0.000000
    11  N    3.313889   1.445193   2.103604   2.061374   2.095059
    12  O    2.814803   2.912873   3.659404   2.478718   3.662962
    13  O    4.490075   2.880055   3.049395   3.917891   2.802853
    14  C    3.487328   5.711015   5.735896   6.263803   6.386680
    15  H    4.118280   6.685043   6.726946   7.281201   7.283024
    16  C    2.889349   5.697158   5.825156   6.012286   6.502607
    17  H    3.194870   6.651988   6.849744   6.891038   7.444385
    18  C    3.772603   4.778923   4.697161   5.498723   5.370633
    19  H    3.853958   3.963187   3.759760   4.645707   4.674646
    20  C    4.932046   5.421837   5.251496   6.316755   5.787278
    21  H    5.036019   4.900089   4.777004   5.885062   5.084330
    22  H    5.176151   6.335726   6.262975   7.212819   6.648987
    23  H    5.847645   5.860131   5.487123   6.763933   6.265382
    24  C    2.522837   4.735303   4.907617   4.876459   5.642282
    25  H    3.102842   3.957460   3.965066   4.158372   4.926949
    26  C    2.868606   5.331782   5.621645   5.163624   6.276383
    27  H    3.958047   5.986789   6.124271   5.767960   7.000564
    28  H    2.922816   4.706941   5.095393   4.362245   5.645614
    29  C    3.247600   6.854806   7.427798   6.540268   7.620216
    30  C    3.758003   6.414540   7.042837   5.881500   7.169899
    31  H    4.458825   6.562611   7.061739   5.953910   7.414992
    32  H    4.499313   7.211051   7.915400   6.619763   7.883073
    33  H    3.196249   5.423928   6.126267   4.879967   6.128094
    34  O    2.741830   6.328772   6.760510   6.173810   7.165080
    35  O    3.864823   7.883233   8.499974   7.609596   8.583433
                   11         12         13         14         15
    11  N    0.000000
    12  O    2.305342   0.000000
    13  O    2.298619   4.536159   0.000000
    14  C    4.446748   5.151556   4.491612   0.000000
    15  H    5.389733   6.116121   5.150936   1.094129   0.000000
    16  C    4.430651   4.474324   5.140113   1.407221   2.149423
    17  H    5.352567   5.093638   6.099670   2.153952   2.440412
    18  C    3.640810   4.919921   3.293350   1.381340   2.128501
    19  H    2.992307   4.327471   3.040035   2.130912   3.081363
    20  C    4.440040   6.112915   3.235507   2.527273   2.725492
    21  H    4.039578   5.981189   2.374813   3.350795   3.645151
    22  H    5.246757   6.780053   3.990458   2.674140   2.423748
    23  H    5.061484   6.777492   3.856978   3.113683   3.296761
    24  C    3.591092   3.273531   4.864030   2.441882   3.402020
    25  H    2.992854   3.083680   4.304964   2.734027   3.812640
    26  C    4.343438   3.139681   6.029177   3.826317   4.664205
    27  H    5.140051   3.964446   6.812903   4.314013   5.122600
    28  H    3.892126   2.266982   5.868807   4.537980   5.456598
    29  C    5.812558   4.090943   7.513664   5.411143   5.958230
    30  C    5.627944   3.517172   7.622802   6.287116   6.996930
    31  H    5.914490   3.791165   8.002896   6.553475   7.328606
    32  H    6.469583   4.304897   8.452923   7.245590   7.894169
    33  H    4.688389   2.512519   6.739806   6.003453   6.791269
    34  O    5.197024   3.873651   6.734109   4.168148   4.754391
    35  O    6.770315   5.136907   8.312225   5.985020   6.348521
                   16         17         18         19         20
    16  C    0.000000
    17  H    1.092892   0.000000
    18  C    2.451356   3.409640   0.000000
    19  H    2.719447   3.798600   1.094462   0.000000
    20  C    3.832842   4.669678   1.497187   2.205443   0.000000
    21  H    4.528480   5.413758   2.147112   2.555195   1.099224
    22  H    4.059152   4.692952   2.153453   3.107421   1.098213
    23  H    4.389856   5.243865   2.141511   2.558867   1.101517
    24  C    1.379436   2.125331   2.899699   2.649389   4.394423
    25  H    2.141577   3.084458   2.685094   2.041157   4.120712
    26  C    2.525418   2.720888   4.394754   4.085522   5.886314
    27  H    3.006241   3.109463   4.937358   4.562882   6.427734
    28  H    3.379469   3.715794   4.845167   4.368541   6.301421
    29  C    4.120140   3.751697   6.183042   6.119998   7.580560
    30  C    5.029882   4.915638   6.812252   6.532323   8.226627
    31  H    5.241577   5.176444   7.060819   6.664212   8.524184
    32  H    6.004560   5.800607   7.793310   7.554723   9.175608
    33  H    4.882472   4.980906   6.326075   5.977402   7.686955
    34  O    2.823493   2.501668   5.006658   4.971676   6.434739
    35  O    4.758010   4.164925   6.888756   6.978061   8.213804
                   21         22         23         24         25
    21  H    0.000000
    22  H    1.792527   0.000000
    23  H    1.769373   1.784936   0.000000
    24  C    4.866849   4.881803   4.925656   0.000000
    25  H    4.485589   4.826364   4.518235   1.093767   0.000000
    26  C    6.315521   6.337382   6.418856   1.498838   2.187674
    27  H    6.955194   6.906862   6.809186   2.144677   2.630638
    28  H    6.562672   6.855311   6.857978   2.127212   2.428181
    29  C    7.943299   7.797275   8.306690   3.587457   4.455413
    30  C    8.450726   8.599277   8.926764   4.131090   4.721255
    31  H    8.799573   8.978450   9.114564   4.234449   4.704558
    32  H    9.363205   9.499386   9.921593   5.180752   5.792365
    33  H    7.788812   8.128561   8.414812   3.852784   4.279373
    34  O    6.898779   6.670076   7.094580   2.383275   3.353010
    35  O    8.609142   8.285831   8.990320   4.506679   5.466114
                   26         27         28         29         30
    26  C    0.000000
    27  H    1.103322   0.000000
    28  H    1.096364   1.778209   0.000000
    29  C    2.430917   2.983981   2.593565   0.000000
    30  C    2.831019   3.317631   2.385352   1.506087   0.000000
    31  H    2.792564   2.926484   2.311239   2.154866   1.099048
    32  H    3.904668   4.355460   3.466160   2.116549   1.093683
    33  H    2.802823   3.511288   2.062268   2.155620   1.100001
    34  O    1.421866   2.060325   2.091984   1.346959   2.448285
    35  O    3.502969   3.993114   3.781056   1.201208   2.393316
                   31         32         33         34         35
    31  H    0.000000
    32  H    1.791600   0.000000
    33  H    1.776888   1.799261   0.000000
    34  O    2.774315   3.332402   2.750269   0.000000
    35  O    3.102346   2.513099   3.113380   2.185637   0.000000
 Stoichiometry    C13H17NO4
 Framework group  C1[X(C13H17NO4)]
 Deg. of freedom    99
 Full point group                 C1      NOp   1
 Largest Abelian subgroup         C1      NOp   1
 Largest concise Abelian subgroup C1      NOp   1
                         Standard orientation:                         
 ---------------------------------------------------------------------
 Center     Atomic      Atomic             Coordinates (Angstroms)
 Number     Number       Type             X           Y           Z
 ---------------------------------------------------------------------
      1          6           0       -2.447445    0.790366   -0.599444
      2          6           0       -1.492960   -0.229211   -1.125542
      3          6           0       -0.211872    0.212285   -0.838460
      4          6           0       -0.328860    1.526018   -0.139774
      5          1           0       -1.787180   -0.899878   -1.928256
      6          1           0        0.699393   -0.047552   -1.371961
      7          6           0       -2.242350    2.909322    0.722347
      8          1           0       -2.800681    2.622966    1.623427
      9          1           0       -1.410046    3.565105    1.001207
     10          1           0       -2.916983    3.439977    0.037723
     11          7           0       -1.684420    1.746176    0.070896
     12          8           0        0.554069    2.281495    0.202058
     13          8           0       -3.650743    0.836609   -0.697162
     14          6           0       -0.970683   -2.638924    0.258099
     15          1           0       -1.066776   -3.597817   -0.259983
     16          6           0        0.325182   -2.173512    0.548612
     17          1           0        1.178775   -2.773644    0.223598
     18          6           0       -2.100673   -1.856245    0.394615
     19          1           0       -2.077204   -1.031083    1.113228
     20          6           0       -3.462646   -2.321248   -0.018144
     21          1           0       -4.037170   -1.494449   -0.459301
     22          1           0       -3.398906   -3.145654   -0.740892
     23          1           0       -4.025093   -2.671313    0.861883
     24          6           0        0.566212   -0.892950    1.001280
     25          1           0       -0.202460   -0.371869    1.579159
     26          6           0        1.950503   -0.350694    1.191577
     27          1           0        2.343841   -0.653338    2.176976
     28          1           0        1.913760    0.744752    1.165837
     29          6           0        3.791215   -0.150331   -0.383539
     30          6           0        3.925270    1.297501    0.009031
     31          1           0        4.131653    1.389866    1.084569
     32          1           0        4.754157    1.726070   -0.561422
     33          1           0        2.994914    1.844681   -0.203181
     34          8           0        2.803609   -0.871960    0.180540
     35          8           0        4.504513   -0.696683   -1.180788
 ---------------------------------------------------------------------
 Rotational constants (GHZ):      0.6474034      0.2899965      0.2223120
 Standard basis: def2SVP (5D, 7F)
 There are   355 symmetry adapted cartesian basis functions of A   symmetry.
 There are   337 symmetry adapted basis functions of A   symmetry.
   337 basis functions,   569 primitive gaussians,   355 cartesian basis functions
    67 alpha electrons       67 beta electrons
       nuclear repulsion energy      1376.7011082133 Hartrees.
 NAtoms=   35 NActive=   35 NUniq=   35 SFac= 1.00D+00 NAtFMM=   60 NAOKFM=F Big=F
 Integral buffers will be    131072 words long.
 Raffenetti 2 integral format.
 Two-electron integral symmetry is turned on.
 Nuclear repulsion after empirical dispersion term =     1376.6988304387 Hartrees.
 Force inversion solution in PCM.
 ------------------------------------------------------------------------------
 Polarizable Continuum Model (PCM)
 =================================
 Model                : C-PCM.
 Atomic radii         : UFF (Universal Force Field).
 Polarization charges : Total charges.
 Charge compensation  : None.
 Solution method      : Matrix inversion.
 Cavity type          : Scaled VdW (van der Waals Surface) (Alpha=1.100).
 Cavity algorithm     : GePol (No added spheres)
                        Default sphere list used, NSphG=   35.
                        Lebedev-Laikov grids with approx.  5.0 points / Ang**2.
                        Smoothing algorithm: Karplus/York (Gamma=1.0000).
                        Polarization charges: spherical gaussians, with
                                              point-specific exponents (IZeta= 3).
                        Self-potential: point-specific (ISelfS= 7).
                        Self-field    : sphere-specific E.n sum rule (ISelfD= 2).
 1st derivatives      : Analytical E(r).r(x)/FMM algorithm (CHGder, D1EAlg=3).
                        Cavity 1st derivative terms included.
 2nd derivatives      : Analytical E(r).r(xy)/FMM algorithm (CHGder, D2EAlg=3).
                        Cavity 2nd derivative terms included.
 Solvent              : Water, Eps=  78.355300 Eps(inf)=   1.777849
 ------------------------------------------------------------------------------
 One-electron integrals computed using PRISM.
   1 Symmetry operations used in ECPInt.
 ECPInt:  NShTT=   12720 NPrTT=   45736 LenC2=   11876 LenP2D=   30565.
 LDataN:  DoStor=T MaxTD1= 4 Len=   56
 NBasis=   337 RedAO= T EigKep=  3.48D-04  NBF=   337
 NBsUse=   337 1.00D-06 EigRej= -1.00D+00 NBFU=   337
 ExpMin= 1.22D-01 ExpMax= 2.27D+03 ExpMxC= 3.41D+02 IAcc=1 IRadAn=         1 AccDes= 0.00D+00
 Harris functional with IExCor= 1009 and IRadAn=       1 diagonalized for initial guess.
 HarFok:  IExCor= 1009 AccDes= 0.00D+00 IRadAn=         1 IDoV= 1 UseB2=F ITyADJ=14
 ICtDFT=  3500011 ScaDFX=  1.000000  1.000000  1.000000  1.000000
 FoFCou: FMM=F IPFlag=           0 FMFlag=      100000 FMFlg1=           0
         NFxFlg=           0 DoJE=T BraDBF=F KetDBF=T FulRan=T
         wScrn=  0.000000 ICntrl=     500 IOpCl=  0 I1Cent=   200000004 NGrid=           0
         NMat0=    1 NMatS0=      1 NMatT0=    0 NMatD0=    1 NMtDS0=    0 NMtDT0=    0
 Petite list used in FoFCou.
 Requested convergence on RMS density matrix=1.00D-08 within 128 cycles.
 Requested convergence on MAX density matrix=1.00D-06.
 Requested convergence on             energy=1.00D-06.
 No special actions if energy rises.
 Inv3:  Mode=1 IEnd=    18362028.
 Iteration    1 A*A^-1 deviation from unit magnitude is 8.22D-15 for   2469.
 Iteration    1 A*A^-1 deviation from orthogonality  is 2.13D-15 for   2470   1131.
 Iteration    1 A^-1*A deviation from unit magnitude is 7.99D-15 for   2469.
 Iteration    1 A^-1*A deviation from orthogonality  is 1.40D-15 for   1661    612.
 Error on total polarization charges =  0.00954
 SCF Done:  E(RM062X) =  -860.230128568     A.U. after   15 cycles
            NFock= 15  Conv=0.28D-08     -V/T= 2.0098
 DoSCS=F DFT=T ScalE2(SS,OS)=  1.000000  1.000000
 Range of M.O.s used for correlation:     1   337
 NBasis=   337 NAE=    67 NBE=    67 NFC=     0 NFV=     0
 NROrb=    337 NOA=    67 NOB=    67 NVA=   270 NVB=   270
 PrsmSu:  requested number of processors reduced to:   3 ShMem   1 Linda.
   1 Symmetry operations used in ECPInt.
 ECPInt:  NShTT=   12720 NPrTT=   45736 LenC2=   11876 LenP2D=   30565.
 LDataN:  DoStor=T MaxTD1= 5 Len=  102
 Number of processors reduced to   2 by ecpmxn.
 Symmetrizing basis deriv contribution to polar:
 IMax=3 JMax=2 DiffMx= 0.00D+00
 G2DrvN: will do    18 centers at a time, making    2 passes.
 Calling FoFCou, ICntrl=  3107 FMM=F I1Cent=   0 AccDes= 0.00D+00.
 Calling FoFCou, ICntrl=  3107 FMM=F I1Cent=   0 AccDes= 0.00D+00.
 NEqPCM:  Using equilibrium solvation (IEInf=0, Eps=  78.3553, EpsInf=   1.7778)
 G2PCM: DoFxE=T DoFxN=T DoGrad=T DoDP/DQ/DG/TGxP=FFFF NFrqRd=   0 IEInf=0 SqF1=F DoCFld=F IF1Alg=4.
 End of G2Drv F.D. properties file   721 does not exist.
 End of G2Drv F.D. properties file   722 does not exist.
 End of G2Drv F.D. properties file   788 does not exist.
          IDoAtm=11111111111111111111111111111111111
 NEqPCM:  Using equilibrium solvation (IEInf=0, Eps=  78.3553, EpsInf=   1.7778)
          Differentiating once with respect to nuclear coordinates.
          There are   108 degrees of freedom in the 1st order CPHF.  IDoFFX=6 NUNeed=     0.
    105 vectors produced by pass  0 Test12= 1.81D-14 1.00D-09 XBig12= 1.85D-01 1.17D-01.
 AX will form    56 AO Fock derivatives at one time.
    105 vectors produced by pass  1 Test12= 1.81D-14 1.00D-09 XBig12= 9.89D-02 8.04D-02.
    102 vectors produced by pass  2 Test12= 1.81D-14 1.00D-09 XBig12= 1.52D-03 3.86D-03.
    102 vectors produced by pass  3 Test12= 1.81D-14 1.00D-09 XBig12= 9.91D-06 3.19D-04.
    102 vectors produced by pass  4 Test12= 1.81D-14 1.00D-09 XBig12= 5.92D-08 2.40D-05.
    102 vectors produced by pass  5 Test12= 1.81D-14 1.00D-09 XBig12= 2.44D-10 1.18D-06.
     63 vectors produced by pass  6 Test12= 1.81D-14 1.00D-09 XBig12= 8.01D-13 7.53D-08.
      6 vectors produced by pass  7 Test12= 1.81D-14 1.00D-09 XBig12= 2.58D-15 3.20D-09.
 InvSVY:  IOpt=1 It=  1 EMax= 9.17D-16
 Solved reduced A of dimension   687 with   108 vectors.
 End of Minotr F.D. properties file   721 does not exist.
 End of Minotr F.D. properties file   722 does not exist.
 End of Minotr F.D. properties file   788 does not exist.

 **********************************************************************

            Population analysis using the SCF density.

 **********************************************************************

 Orbital symmetries:
       Occupied  (A) (A) (A) (A) (A) (A) (A) (A) (A) (A) (A) (A)
                 (A) (A) (A) (A) (A) (A) (A) (A) (A) (A) (A) (A)
                 (A) (A) (A) (A) (A) (A) (A) (A) (A) (A) (A) (A)
                 (A) (A) (A) (A) (A) (A) (A) (A) (A) (A) (A) (A)
                 (A) (A) (A) (A) (A) (A) (A) (A) (A) (A) (A) (A)
                 (A) (A) (A) (A) (A) (A) (A)
       Virtual   (A) (A) (A) (A) (A) (A) (A) (A) (A) (A) (A) (A)
                 (A) (A) (A) (A) (A) (A) (A) (A) (A) (A) (A) (A)
                 (A) (A) (A) (A) (A) (A) (A) (A) (A) (A) (A) (A)
                 (A) (A) (A) (A) (A) (A) (A) (A) (A) (A) (A) (A)
                 (A) (A) (A) (A) (A) (A) (A) (A) (A) (A) (A) (A)
                 (A) (A) (A) (A) (A) (A) (A) (A) (A) (A) (A) (A)
                 (A) (A) (A) (A) (A) (A) (A) (A) (A) (A) (A) (A)
                 (A) (A) (A) (A) (A) (A) (A) (A) (A) (A) (A) (A)
                 (A) (A) (A) (A) (A) (A) (A) (A) (A) (A) (A) (A)
                 (A) (A) (A) (A) (A) (A) (A) (A) (A) (A) (A) (A)
                 (A) (A) (A) (A) (A) (A) (A) (A) (A) (A) (A) (A)
                 (A) (A) (A) (A) (A) (A) (A) (A) (A) (A) (A) (A)
                 (A) (A) (A) (A) (A) (A) (A) (A) (A) (A) (A) (A)
                 (A) (A) (A) (A) (A) (A) (A) (A) (A) (A) (A) (A)
                 (A) (A) (A) (A) (A) (A) (A) (A) (A) (A) (A) (A)
                 (A) (A) (A) (A) (A) (A) (A) (A) (A) (A) (A) (A)
                 (A) (A) (A) (A) (A) (A) (A) (A) (A) (A) (A) (A)
                 (A) (A) (A) (A) (A) (A) (A) (A) (A) (A) (A) (A)
                 (A) (A) (A) (A) (A) (A) (A) (A) (A) (A) (A) (A)
                 (A) (A) (A) (A) (A) (A) (A) (A) (A) (A) (A) (A)
                 (A) (A) (A) (A) (A) (A) (A) (A) (A) (A) (A) (A)
                 (A) (A) (A) (A) (A) (A) (A) (A) (A) (A) (A) (A)
                 (A) (A) (A) (A) (A) (A)
 The electronic state is 1-A.
 Alpha  occ. eigenvalues --  -19.68017 -19.63681 -19.63341 -19.62168 -14.80686
 Alpha  occ. eigenvalues --  -10.69386 -10.68304 -10.67968 -10.62173 -10.59260
 Alpha  occ. eigenvalues --  -10.58820 -10.58691 -10.58403 -10.58140 -10.56558
 Alpha  occ. eigenvalues --  -10.56307 -10.56240 -10.55149  -1.22368  -1.18881
 Alpha  occ. eigenvalues --   -1.16862  -1.13395  -1.06340  -0.93837  -0.90666
 Alpha  occ. eigenvalues --   -0.88097  -0.83774  -0.82056  -0.79131  -0.76299
 Alpha  occ. eigenvalues --   -0.74347  -0.69842  -0.69089  -0.65730  -0.62918
 Alpha  occ. eigenvalues --   -0.60274  -0.58688  -0.58524  -0.57793  -0.57364
 Alpha  occ. eigenvalues --   -0.56850  -0.54520  -0.54107  -0.52320  -0.51988
 Alpha  occ. eigenvalues --   -0.51357  -0.50634  -0.50196  -0.49198  -0.48154
 Alpha  occ. eigenvalues --   -0.47890  -0.46937  -0.46480  -0.46134  -0.45582
 Alpha  occ. eigenvalues --   -0.45141  -0.42974  -0.42434  -0.41622  -0.41160
 Alpha  occ. eigenvalues --   -0.37449  -0.37353  -0.35626  -0.34609  -0.34160
 Alpha  occ. eigenvalues --   -0.30320  -0.28614
 Alpha virt. eigenvalues --   -0.04132  -0.00995   0.05440   0.07793   0.08919
 Alpha virt. eigenvalues --    0.10121   0.10419   0.11222   0.13111   0.13824
 Alpha virt. eigenvalues --    0.14179   0.14649   0.15254   0.16419   0.16668
 Alpha virt. eigenvalues --    0.17228   0.18106   0.18627   0.19237   0.19428
 Alpha virt. eigenvalues --    0.19977   0.20585   0.21558   0.21857   0.24451
 Alpha virt. eigenvalues --    0.25176   0.25439   0.26733   0.28453   0.29287
 Alpha virt. eigenvalues --    0.30385   0.31791   0.33608   0.34578   0.36238
 Alpha virt. eigenvalues --    0.37111   0.38618   0.40362   0.41119   0.43507
 Alpha virt. eigenvalues --    0.44173   0.45827   0.46906   0.47292   0.48306
 Alpha virt. eigenvalues --    0.48785   0.49488   0.50125   0.50666   0.51246
 Alpha virt. eigenvalues --    0.52284   0.52865   0.55192   0.56155   0.57691
 Alpha virt. eigenvalues --    0.58747   0.59148   0.60708   0.62260   0.63322
 Alpha virt. eigenvalues --    0.63403   0.63906   0.65949   0.66326   0.66787
 Alpha virt. eigenvalues --    0.68048   0.68276   0.68606   0.69438   0.69788
 Alpha virt. eigenvalues --    0.70270   0.70674   0.71012   0.71336   0.71611
 Alpha virt. eigenvalues --    0.71848   0.72483   0.72930   0.73403   0.73640
 Alpha virt. eigenvalues --    0.74087   0.74667   0.75149   0.75459   0.75971
 Alpha virt. eigenvalues --    0.76577   0.77300   0.77705   0.78741   0.79985
 Alpha virt. eigenvalues --    0.80362   0.81976   0.83102   0.84819   0.86663
 Alpha virt. eigenvalues --    0.87986   0.90230   0.90673   0.91919   0.93620
 Alpha virt. eigenvalues --    0.95533   0.95560   0.98477   0.99753   1.00642
 Alpha virt. eigenvalues --    1.02749   1.05398   1.07285   1.09168   1.11243
 Alpha virt. eigenvalues --    1.12445   1.13615   1.15050   1.17186   1.17891
 Alpha virt. eigenvalues --    1.20496   1.21514   1.22685   1.25639   1.25914
 Alpha virt. eigenvalues --    1.28614   1.30437   1.32618   1.33949   1.34230
 Alpha virt. eigenvalues --    1.35486   1.36275   1.37508   1.38704   1.40607
 Alpha virt. eigenvalues --    1.44283   1.44647   1.46963   1.48106   1.49187
 Alpha virt. eigenvalues --    1.50762   1.56327   1.56588   1.57176   1.58402
 Alpha virt. eigenvalues --    1.58793   1.59552   1.61273   1.61814   1.62593
 Alpha virt. eigenvalues --    1.63424   1.64628   1.66263   1.67442   1.69471
 Alpha virt. eigenvalues --    1.70548   1.73219   1.74358   1.74708   1.75146
 Alpha virt. eigenvalues --    1.75591   1.78254   1.78875   1.79904   1.81073
 Alpha virt. eigenvalues --    1.81708   1.82135   1.82758   1.83296   1.83591
 Alpha virt. eigenvalues --    1.84632   1.84672   1.86648   1.87295   1.87864
 Alpha virt. eigenvalues --    1.88617   1.89674   1.91463   1.92864   1.93634
 Alpha virt. eigenvalues --    1.94208   1.95590   1.95824   1.96686   1.97333
 Alpha virt. eigenvalues --    1.99380   2.00278   2.01748   2.02094   2.03636
 Alpha virt. eigenvalues --    2.04734   2.05821   2.06235   2.07467   2.07984
 Alpha virt. eigenvalues --    2.10170   2.11325   2.12837   2.13810   2.14502
 Alpha virt. eigenvalues --    2.15626   2.16677   2.19738   2.22538   2.25114
 Alpha virt. eigenvalues --    2.26099   2.27905   2.30166   2.31662   2.32829
 Alpha virt. eigenvalues --    2.34593   2.36153   2.39120   2.39613   2.41088
 Alpha virt. eigenvalues --    2.42060   2.43600   2.44476   2.46761   2.47077
 Alpha virt. eigenvalues --    2.48001   2.48681   2.50835   2.52862   2.55183
 Alpha virt. eigenvalues --    2.56077   2.58517   2.60194   2.63564   2.66681
 Alpha virt. eigenvalues --    2.66857   2.67954   2.68804   2.71044   2.72496
 Alpha virt. eigenvalues --    2.73004   2.75377   2.76502   2.77827   2.78149
 Alpha virt. eigenvalues --    2.78675   2.79640   2.80576   2.82676   2.83548
 Alpha virt. eigenvalues --    2.85803   2.86956   2.87998   2.89130   2.90705
 Alpha virt. eigenvalues --    2.91319   2.93628   2.95643   2.96307   2.96971
 Alpha virt. eigenvalues --    2.99601   3.02566   3.05518   3.09539   3.12981
 Alpha virt. eigenvalues --    3.18006   3.19933   3.21752   3.24324   3.25393
 Alpha virt. eigenvalues --    3.27014   3.33200   3.37651   3.44846   3.47705
 Alpha virt. eigenvalues --    3.60669   3.66509   3.69593   3.70077   3.73472
          Condensed to atoms (all electrons):
               1          2          3          4          5          6
     1  C    4.663948   0.145317   0.082642  -0.107060  -0.035753   0.007988
     2  C    0.145317   5.723199   0.019179   0.074266   0.417759  -0.033912
     3  C    0.082642   0.019179   5.753137   0.130909  -0.036812   0.416961
     4  C   -0.107060   0.074266   0.130909   4.687249   0.008223  -0.035514
     5  H   -0.035753   0.417759  -0.036812   0.008223   0.584004  -0.006589
     6  H    0.007988  -0.033912   0.416961  -0.035514  -0.006589   0.585978
     7  C   -0.017195   0.010758   0.008247  -0.023339  -0.000165  -0.000117
     8  H   -0.003154   0.000567  -0.000752   0.002959  -0.000011  -0.000003
     9  H    0.006227  -0.001527   0.004534  -0.005874   0.000017  -0.000027
    10  H   -0.004542   0.002141  -0.001092   0.002087   0.000012   0.000024
    11  N    0.269276  -0.141030  -0.137328   0.289830   0.005087   0.004204
    12  O    0.000386   0.006546  -0.091233   0.690520  -0.000055   0.000991
    13  O    0.727305  -0.090812   0.006601   0.000485   0.001426  -0.000060
    14  C   -0.004246   0.007568  -0.057040   0.003998  -0.003086  -0.003588
    15  H   -0.000070   0.000538  -0.000740   0.000057   0.001079  -0.000046
    16  C    0.004469  -0.057678  -0.008085  -0.003759  -0.003255  -0.001111
    17  H    0.000048  -0.000686   0.000490  -0.000084  -0.000043   0.001314
    18  C   -0.008051   0.132915  -0.043434   0.001999  -0.004419   0.001493
    19  H   -0.005101   0.002428  -0.026099   0.006011   0.003404  -0.000243
    20  C   -0.001839  -0.024137   0.005072  -0.000277  -0.003864  -0.000033
    21  H    0.001718  -0.014535   0.001914  -0.000107   0.001345  -0.000023
    22  H    0.000241  -0.001840  -0.000224   0.000015   0.001707  -0.000005
    23  H   -0.000215   0.002470  -0.000192   0.000007  -0.000019   0.000002
    24  C    0.002024  -0.050815   0.133173  -0.006314   0.001712  -0.014050
    25  H    0.004661  -0.021252   0.000287  -0.002661  -0.000175   0.003808
    26  C   -0.000432   0.007110  -0.027301   0.001037  -0.000071  -0.001523
    27  H    0.000002  -0.000119   0.002105  -0.000173   0.000001   0.000408
    28  H    0.000022   0.000751  -0.008570   0.000666  -0.000015  -0.000968
    29  C    0.000003  -0.000090   0.000432   0.000023   0.000000   0.000895
    30  C    0.000000  -0.000012   0.000676  -0.000728   0.000000  -0.001109
    31  H    0.000000   0.000000  -0.000016  -0.000028   0.000000   0.000010
    32  H    0.000000   0.000001  -0.000008   0.000022   0.000000   0.000000
    33  H   -0.000006   0.000056  -0.001569  -0.000123  -0.000001   0.000944
    34  O   -0.000003   0.000242  -0.000383  -0.000701  -0.000002   0.007321
    35  O    0.000000  -0.000001  -0.000018   0.000005   0.000000  -0.000314
               7          8          9         10         11         12
     1  C   -0.017195  -0.003154   0.006227  -0.004542   0.269276   0.000386
     2  C    0.010758   0.000567  -0.001527   0.002141  -0.141030   0.006546
     3  C    0.008247  -0.000752   0.004534  -0.001092  -0.137328  -0.091233
     4  C   -0.023339   0.002959  -0.005874   0.002087   0.289830   0.690520
     5  H   -0.000165  -0.000011   0.000017   0.000012   0.005087  -0.000055
     6  H   -0.000117  -0.000003  -0.000027   0.000024   0.004204   0.000991
     7  C    4.479937   0.410155   0.398641   0.409164   0.250319  -0.005146
     8  H    0.410155   0.585167  -0.018759  -0.025491  -0.027305   0.000180
     9  H    0.398641  -0.018759   0.572858  -0.018099  -0.027413   0.016421
    10  H    0.409164  -0.025491  -0.018099   0.587274  -0.027784   0.000104
    11  N    0.250319  -0.027305  -0.027413  -0.027784   7.112632  -0.090251
    12  O   -0.005146   0.000180   0.016421   0.000104  -0.090251   7.713515
    13  O    0.008607   0.000687   0.000266   0.003503  -0.098612  -0.000013
    14  C    0.000010  -0.000001  -0.000001   0.000001   0.000073   0.000018
    15  H    0.000000   0.000000   0.000000   0.000000  -0.000006   0.000000
    16  C    0.000026  -0.000002   0.000004  -0.000001  -0.000280   0.000119
    17  H    0.000000   0.000000   0.000000   0.000000  -0.000008  -0.000007
    18  C   -0.000057   0.000091   0.000014  -0.000026  -0.004412   0.000015
    19  H   -0.000447  -0.000243  -0.000010   0.000069   0.004613  -0.000040
    20  C    0.000013  -0.000016  -0.000001   0.000006  -0.000142   0.000000
    21  H   -0.000043   0.000020   0.000001  -0.000023   0.001009   0.000000
    22  H    0.000000   0.000000   0.000000   0.000000  -0.000010   0.000000
    23  H   -0.000001   0.000002   0.000000   0.000000   0.000001   0.000000
    24  C   -0.000010   0.000125  -0.000041  -0.000013  -0.005476  -0.003611
    25  H   -0.000399  -0.000257  -0.000002   0.000039   0.005181  -0.001625
    26  C   -0.000024  -0.000014  -0.000029   0.000002   0.000837  -0.008501
    27  H    0.000000   0.000001  -0.000001   0.000000  -0.000015   0.000218
    28  H    0.000044   0.000023   0.000052  -0.000006  -0.000493   0.025060
    29  C    0.000000   0.000000   0.000000   0.000000   0.000001   0.000389
    30  C    0.000001   0.000000   0.000005   0.000000  -0.000031  -0.009495
    31  H    0.000000   0.000000   0.000000   0.000000   0.000000  -0.000036
    32  H    0.000000   0.000000   0.000000   0.000000   0.000000   0.000052
    33  H   -0.000009   0.000000  -0.000035   0.000001   0.000305   0.026189
    34  O    0.000000   0.000000   0.000000   0.000000  -0.000005   0.000031
    35  O    0.000000   0.000000   0.000000   0.000000   0.000000   0.000000
              13         14         15         16         17         18
     1  C    0.727305  -0.004246  -0.000070   0.004469   0.000048  -0.008051
     2  C   -0.090812   0.007568   0.000538  -0.057678  -0.000686   0.132915
     3  C    0.006601  -0.057040  -0.000740  -0.008085   0.000490  -0.043434
     4  C    0.000485   0.003998   0.000057  -0.003759  -0.000084   0.001999
     5  H    0.001426  -0.003086   0.001079  -0.003255  -0.000043  -0.004419
     6  H   -0.000060  -0.003588  -0.000046  -0.001111   0.001314   0.001493
     7  C    0.008607   0.000010   0.000000   0.000026   0.000000  -0.000057
     8  H    0.000687  -0.000001   0.000000  -0.000002   0.000000   0.000091
     9  H    0.000266  -0.000001   0.000000   0.000004   0.000000   0.000014
    10  H    0.003503   0.000001   0.000000  -0.000001   0.000000  -0.000026
    11  N   -0.098612   0.000073  -0.000006  -0.000280  -0.000008  -0.004412
    12  O   -0.000013   0.000018   0.000000   0.000119  -0.000007   0.000015
    13  O    7.694912   0.000178  -0.000003   0.000022   0.000000  -0.001821
    14  C    0.000178   4.975794   0.441977   0.393179  -0.047316   0.435939
    15  H   -0.000003   0.441977   0.631115  -0.051266  -0.012368  -0.067936
    16  C    0.000022   0.393179  -0.051266   4.993018   0.445369  -0.009365
    17  H    0.000000  -0.047316  -0.012368   0.445369   0.624228   0.013669
    18  C   -0.001821   0.435939  -0.067936  -0.009365   0.013669   5.005122
    19  H   -0.001354  -0.002309   0.007148  -0.033944  -0.000212   0.365742
    20  C   -0.009864  -0.059099  -0.012274   0.011719  -0.000181   0.394635
    21  H    0.026329   0.006598   0.000186  -0.000386   0.000010  -0.019426
    22  H    0.000147  -0.014379   0.005497   0.000636  -0.000010  -0.021066
    23  H   -0.000018  -0.002281   0.000233  -0.000400   0.000000  -0.011659
    24  C    0.000028  -0.013140   0.013957   0.378410  -0.076119  -0.044398
    25  H   -0.000066  -0.032319  -0.000231   0.005006   0.006567   0.016159
    26  C    0.000000   0.009844  -0.000165  -0.057794  -0.016351   0.000306
    27  H    0.000000  -0.000212   0.000001  -0.011968   0.000255  -0.000078
    28  H    0.000001  -0.000162   0.000007   0.012694   0.000772   0.000191
    29  C    0.000000   0.000001  -0.000001  -0.000781   0.000578   0.000000
    30  C    0.000000   0.000004   0.000000   0.000404   0.000222   0.000001
    31  H    0.000000   0.000000   0.000000  -0.000048  -0.000006   0.000000
    32  H    0.000000   0.000000   0.000000   0.000001  -0.000004   0.000000
    33  H    0.000000   0.000000   0.000000  -0.000172  -0.000029  -0.000003
    34  O    0.000000   0.000022  -0.000015   0.006475   0.012395   0.000017
    35  O    0.000000   0.000000   0.000000  -0.000088   0.000096   0.000000
              19         20         21         22         23         24
     1  C   -0.005101  -0.001839   0.001718   0.000241  -0.000215   0.002024
     2  C    0.002428  -0.024137  -0.014535  -0.001840   0.002470  -0.050815
     3  C   -0.026099   0.005072   0.001914  -0.000224  -0.000192   0.133173
     4  C    0.006011  -0.000277  -0.000107   0.000015   0.000007  -0.006314
     5  H    0.003404  -0.003864   0.001345   0.001707  -0.000019   0.001712
     6  H   -0.000243  -0.000033  -0.000023  -0.000005   0.000002  -0.014050
     7  C   -0.000447   0.000013  -0.000043   0.000000  -0.000001  -0.000010
     8  H   -0.000243  -0.000016   0.000020   0.000000   0.000002   0.000125
     9  H   -0.000010  -0.000001   0.000001   0.000000   0.000000  -0.000041
    10  H    0.000069   0.000006  -0.000023   0.000000   0.000000  -0.000013
    11  N    0.004613  -0.000142   0.001009  -0.000010   0.000001  -0.005476
    12  O   -0.000040   0.000000   0.000000   0.000000   0.000000  -0.003611
    13  O   -0.001354  -0.009864   0.026329   0.000147  -0.000018   0.000028
    14  C   -0.002309  -0.059099   0.006598  -0.014379  -0.002281  -0.013140
    15  H    0.007148  -0.012274   0.000186   0.005497   0.000233   0.013957
    16  C   -0.033944   0.011719  -0.000386   0.000636  -0.000400   0.378410
    17  H   -0.000212  -0.000181   0.000010  -0.000010   0.000000  -0.076119
    18  C    0.365742   0.394635  -0.019426  -0.021066  -0.011659  -0.044398
    19  H    0.633890  -0.036844  -0.004088   0.006069  -0.004354   0.019967
    20  C   -0.036844   4.575056   0.379022   0.399019   0.381251   0.000414
    21  H   -0.004088   0.379022   0.600384  -0.020204  -0.016920   0.000119
    22  H    0.006069   0.399019  -0.020204   0.608548  -0.019175   0.000032
    23  H   -0.004354   0.381251  -0.016920  -0.019175   0.598645  -0.000045
    24  C    0.019967   0.000414   0.000119   0.000032  -0.000045   5.258794
    25  H    0.001422   0.000383  -0.000010  -0.000008  -0.000015   0.355399
    26  C    0.000431  -0.000019  -0.000003   0.000002   0.000001   0.318272
    27  H   -0.000019   0.000001   0.000000   0.000000   0.000000  -0.012894
    28  H   -0.000050  -0.000003   0.000000   0.000000   0.000000  -0.028056
    29  C    0.000000   0.000000   0.000000   0.000000   0.000000   0.006884
    30  C    0.000000   0.000000   0.000000   0.000000   0.000000  -0.003095
    31  H    0.000000   0.000000   0.000000   0.000000   0.000000   0.001333
    32  H    0.000000   0.000000   0.000000   0.000000   0.000000  -0.000005
    33  H    0.000000   0.000000   0.000000   0.000000   0.000000  -0.000836
    34  O   -0.000007   0.000000   0.000000   0.000000   0.000000  -0.089395
    35  O    0.000000   0.000000   0.000000   0.000000   0.000000   0.000124
              25         26         27         28         29         30
     1  C    0.004661  -0.000432   0.000002   0.000022   0.000003   0.000000
     2  C   -0.021252   0.007110  -0.000119   0.000751  -0.000090  -0.000012
     3  C    0.000287  -0.027301   0.002105  -0.008570   0.000432   0.000676
     4  C   -0.002661   0.001037  -0.000173   0.000666   0.000023  -0.000728
     5  H   -0.000175  -0.000071   0.000001  -0.000015   0.000000   0.000000
     6  H    0.003808  -0.001523   0.000408  -0.000968   0.000895  -0.001109
     7  C   -0.000399  -0.000024   0.000000   0.000044   0.000000   0.000001
     8  H   -0.000257  -0.000014   0.000001   0.000023   0.000000   0.000000
     9  H   -0.000002  -0.000029  -0.000001   0.000052   0.000000   0.000005
    10  H    0.000039   0.000002   0.000000  -0.000006   0.000000   0.000000
    11  N    0.005181   0.000837  -0.000015  -0.000493   0.000001  -0.000031
    12  O   -0.001625  -0.008501   0.000218   0.025060   0.000389  -0.009495
    13  O   -0.000066   0.000000   0.000000   0.000001   0.000000   0.000000
    14  C   -0.032319   0.009844  -0.000212  -0.000162   0.000001   0.000004
    15  H   -0.000231  -0.000165   0.000001   0.000007  -0.000001   0.000000
    16  C    0.005006  -0.057794  -0.011968   0.012694  -0.000781   0.000404
    17  H    0.006567  -0.016351   0.000255   0.000772   0.000578   0.000222
    18  C    0.016159   0.000306  -0.000078   0.000191   0.000000   0.000001
    19  H    0.001422   0.000431  -0.000019  -0.000050   0.000000   0.000000
    20  C    0.000383  -0.000019   0.000001  -0.000003   0.000000   0.000000
    21  H   -0.000010  -0.000003   0.000000   0.000000   0.000000   0.000000
    22  H   -0.000008   0.000002   0.000000   0.000000   0.000000   0.000000
    23  H   -0.000015   0.000001   0.000000   0.000000   0.000000   0.000000
    24  C    0.355399   0.318272  -0.012894  -0.028056   0.006884  -0.003095
    25  H    0.611167  -0.023115   0.001023  -0.007319   0.000012   0.000028
    26  C   -0.023115   4.547272   0.388014   0.377743  -0.042935   0.011166
    27  H    0.001023   0.388014   0.596881  -0.025302   0.001997  -0.002208
    28  H   -0.007319   0.377743  -0.025302   0.612076  -0.018362   0.022275
    29  C    0.000012  -0.042935   0.001997  -0.018362   4.477258   0.335566
    30  C    0.000028   0.011166  -0.002208   0.022275   0.335566   4.928812
    31  H   -0.000014  -0.002152   0.000269  -0.000226  -0.001038   0.361867
    32  H   -0.000002   0.001221  -0.000029  -0.000590  -0.002700   0.358186
    33  H    0.000074  -0.006539   0.000806  -0.003484   0.003208   0.344524
    34  O    0.002882   0.295128  -0.027039  -0.025825   0.307220  -0.116785
    35  O    0.000002   0.001509   0.000097  -0.000021   0.738368  -0.104626
              31         32         33         34         35
     1  C    0.000000   0.000000  -0.000006  -0.000003   0.000000
     2  C    0.000000   0.000001   0.000056   0.000242  -0.000001
     3  C   -0.000016  -0.000008  -0.001569  -0.000383  -0.000018
     4  C   -0.000028   0.000022  -0.000123  -0.000701   0.000005
     5  H    0.000000   0.000000  -0.000001  -0.000002   0.000000
     6  H    0.000010   0.000000   0.000944   0.007321  -0.000314
     7  C    0.000000   0.000000  -0.000009   0.000000   0.000000
     8  H    0.000000   0.000000   0.000000   0.000000   0.000000
     9  H    0.000000   0.000000  -0.000035   0.000000   0.000000
    10  H    0.000000   0.000000   0.000001   0.000000   0.000000
    11  N    0.000000   0.000000   0.000305  -0.000005   0.000000
    12  O   -0.000036   0.000052   0.026189   0.000031   0.000000
    13  O    0.000000   0.000000   0.000000   0.000000   0.000000
    14  C    0.000000   0.000000   0.000000   0.000022   0.000000
    15  H    0.000000   0.000000   0.000000  -0.000015   0.000000
    16  C   -0.000048   0.000001  -0.000172   0.006475  -0.000088
    17  H   -0.000006  -0.000004  -0.000029   0.012395   0.000096
    18  C    0.000000   0.000000  -0.000003   0.000017   0.000000
    19  H    0.000000   0.000000   0.000000  -0.000007   0.000000
    20  C    0.000000   0.000000   0.000000   0.000000   0.000000
    21  H    0.000000   0.000000   0.000000   0.000000   0.000000
    22  H    0.000000   0.000000   0.000000   0.000000   0.000000
    23  H    0.000000   0.000000   0.000000   0.000000   0.000000
    24  C    0.001333  -0.000005  -0.000836  -0.089395   0.000124
    25  H   -0.000014  -0.000002   0.000074   0.002882   0.000002
    26  C   -0.002152   0.001221  -0.006539   0.295128   0.001509
    27  H    0.000269  -0.000029   0.000806  -0.027039   0.000097
    28  H   -0.000226  -0.000590  -0.003484  -0.025825  -0.000021
    29  C   -0.001038  -0.002700   0.003208   0.307220   0.738368
    30  C    0.361867   0.358186   0.344524  -0.116785  -0.104626
    31  H    0.559462  -0.011250  -0.011274   0.001592   0.001821
    32  H   -0.011250   0.575039  -0.008057   0.005054   0.007592
    33  H   -0.011274  -0.008057   0.557400   0.003154   0.001776
    34  O    0.001592   0.005054   0.003154   8.062036  -0.092442
    35  O    0.001821   0.007592   0.001776  -0.092442   7.732392
 Mulliken charges:
               1
     1  C    0.271392
     2  C   -0.115364
     3  C   -0.125462
     4  C    0.286376
     5  H    0.068560
     6  H    0.066895
     7  C    0.071031
     8  H    0.076031
     9  H    0.072781
    10  H    0.072649
    11  N   -0.382771
    12  O   -0.270742
    13  O   -0.267876
    14  C   -0.036022
    15  H    0.043328
    16  C   -0.011171
    17  H    0.047412
    18  C   -0.132157
    19  H    0.064172
    20  C    0.002002
    21  H    0.057112
    22  H    0.055009
    23  H    0.072681
    24  C   -0.142456
    25  H    0.075371
    26  C    0.227070
    27  H    0.087979
    28  H    0.067077
    29  C    0.193073
    30  C   -0.125651
    31  H    0.099736
    32  H    0.075475
    33  H    0.093699
    34  O   -0.350968
    35  O   -0.286273
 Sum of Mulliken charges =   0.00000
 Mulliken charges with hydrogens summed into heavy atoms:
               1
     1  C    0.271392
     2  C   -0.046804
     3  C   -0.058566
     4  C    0.286376
     7  C    0.292491
    11  N   -0.382771
    12  O   -0.270742
    13  O   -0.267876
    14  C    0.007306
    16  C    0.036242
    18  C   -0.067985
    20  C    0.186804
    24  C   -0.067084
    26  C    0.382126
    29  C    0.193073
    30  C    0.143259
    34  O   -0.350968
    35  O   -0.286273
 APT charges:
               1
     1  C   -0.870094
     2  C   -0.522856
     3  C   -0.337780
     4  C   -0.380952
     5  H    0.507425
     6  H    0.274146
     7  C   -1.009151
     8  H    0.423345
     9  H    0.310680
    10  H    0.657888
    11  N   -0.107887
    12  O    0.118502
    13  O    0.805516
    14  C   -0.591299
    15  H    0.630463
    16  C   -0.468614
    17  H    0.465442
    18  C   -0.263026
    19  H    0.031771
    20  C   -0.943758
    21  H    0.213151
    22  H    0.483455
    23  H    0.650215
    24  C   -0.409631
    25  H    0.187187
    26  C   -0.405339
    27  H    0.586968
    28  H    0.134336
    29  C   -1.142744
    30  C   -0.614662
    31  H    0.391051
    32  H    0.844155
    33  H   -0.229245
    34  O   -0.292458
    35  O    0.873802
 Sum of APT charges =   0.00000
 APT charges with hydrogens summed into heavy atoms:
               1
     1  C   -0.870094
     2  C   -0.015431
     3  C   -0.063635
     4  C   -0.380952
     7  C    0.382762
    11  N   -0.107887
    12  O    0.118502
    13  O    0.805516
    14  C    0.039163
    16  C   -0.003172
    18  C   -0.231255
    20  C    0.403063
    24  C   -0.222444
    26  C    0.315966
    29  C   -1.142744
    30  C    0.391299
    34  O   -0.292458
    35  O    0.873802
 Electronic spatial extent (au):  <R**2>=           4951.7550
 Charge=              0.0000 electrons
 Dipole moment (field-independent basis, Debye):
    X=             -2.4604    Y=              0.3415    Z=              3.7521  Tot=              4.4998
 Quadrupole moment (field-independent basis, Debye-Ang):
   XX=           -130.9805   YY=           -103.0037   ZZ=           -103.9139
   XY=             11.4470   XZ=              7.8404   YZ=              1.7578
 Traceless Quadrupole moment (field-independent basis, Debye-Ang):
   XX=            -18.3478   YY=              9.6290   ZZ=              8.7188
   XY=             11.4470   XZ=              7.8404   YZ=              1.7578
 Octapole moment (field-independent basis, Debye-Ang**2):
  XXX=            -15.6917  YYY=              4.9534  ZZZ=              4.8759  XYY=            -26.9892
  XXY=             36.2004  XXZ=             72.4169  XZZ=             -3.4201  YZZ=              8.9187
  YYZ=             -4.2550  XYZ=            -18.8521
 Hexadecapole moment (field-independent basis, Debye-Ang**3):
 XXXX=          -4784.8335 YYYY=          -1764.6490 ZZZZ=           -432.3807 XXXY=            265.4829
 XXXZ=            152.7804 YYYX=            -66.5079 YYYZ=             43.8021 ZZZX=             20.2675
 ZZZY=             16.2205 XXYY=           -945.7837 XXZZ=           -789.7429 YYZZ=           -383.1916
 XXYZ=            -21.1388 YYXZ=             -3.4749 ZZXY=              1.3403
 N-N= 1.376698830439D+03 E-N=-4.756033678563D+03  KE= 8.519165694716D+02
  Exact polarizability:   0.000   0.000   0.000   0.000   0.000   0.000
 Approx polarizability: 246.303   9.913 215.873  11.795  -2.531 160.795
   1 Symmetry operations used in ECPInt.
 ECPInt:  NShTT=   12720 NPrTT=   45736 LenC2=   11876 LenP2D=   30565.
 LDataN:  DoStor=T MaxTD1= 6 Len=  172
 D2PCM: C-PCM CHGder 2nd derivatives, FixD1E=F FixD2E=F DoIter=F DoCFld=F I1PDM=0
 Calling FoFJK, ICntrl=    100147 FMM=F ISym2X=0 I1Cent= 0 IOpClX= 0 NMat=1 NMatS=1 NMatT=0.
 ***** Axes restored to original set *****
 -------------------------------------------------------------------
 Center     Atomic                   Forces (Hartrees/Bohr)
 Number     Number              X              Y              Z
 -------------------------------------------------------------------
      1        6          -0.000018847    0.000007897   -0.000006553
      2        6           0.000003690   -0.000004573   -0.000034665
      3        6           0.000013129    0.000000034   -0.000033936
      4        6           0.000017752    0.000024035    0.000000062
      5        1           0.000009029    0.000009601   -0.000008278
      6        1          -0.000013080    0.000005138   -0.000016845
      7        6           0.000007560    0.000005225   -0.000001599
      8        1          -0.000000545   -0.000004216    0.000007330
      9        1           0.000014701   -0.000011137    0.000000562
     10        1          -0.000001824   -0.000007450    0.000002845
     11        7           0.000001460    0.000027346    0.000003894
     12        8          -0.000000414    0.000007136   -0.000011185
     13        8           0.000003622    0.000001255   -0.000006709
     14        6           0.000002817   -0.000012773    0.000004903
     15        1           0.000013406   -0.000003045    0.000003149
     16        6           0.000009162   -0.000009942    0.000010030
     17        1           0.000000447   -0.000006233   -0.000001200
     18        6           0.000001660   -0.000007644    0.000015121
     19        1           0.000007833    0.000003355    0.000014792
     20        6          -0.000002688   -0.000001698    0.000005527
     21        1          -0.000001708    0.000007551    0.000007708
     22        1           0.000001637   -0.000002843    0.000006494
     23        1           0.000002491    0.000003428    0.000013583
     24        6          -0.000003757   -0.000014795    0.000024150
     25        1          -0.000004712    0.000002243    0.000013093
     26        6           0.000001282   -0.000002288    0.000005008
     27        1          -0.000007967   -0.000003033    0.000011017
     28        1          -0.000010550    0.000008965    0.000010277
     29        6           0.000001650   -0.000008329   -0.000007692
     30        6          -0.000005325   -0.000000196   -0.000004891
     31        1          -0.000006389    0.000000547   -0.000002657
     32        1          -0.000014606    0.000000796   -0.000006498
     33        1          -0.000013207    0.000007426   -0.000003856
     34        8           0.000001581   -0.000012570   -0.000003613
     35        8          -0.000009289   -0.000009210   -0.000009370
 -------------------------------------------------------------------
 Cartesian Forces:  Max     0.000034665 RMS     0.000010058
 FormGI is forming the generalized inverse of G from B-inverse, IUseBI=4.
 GSVD:  received Info=                   1 from GESDD.

 GradGradGradGradGradGradGradGradGradGradGradGradGradGradGradGradGradGrad
 Berny optimization.
 Internal  Forces:  Max     0.000080175 RMS     0.000015802
 Search for a saddle point.
 Step number   1 out of a maximum of  210
 All quantities printed in internal units (Hartrees-Bohrs-Radians)
 Swapping is turned off.
 Second derivative matrix not updated -- analytic derivatives used.
 ITU=  0
     Eigenvalues ---   -0.02044   0.00058   0.00070   0.00105   0.00222
     Eigenvalues ---    0.00281   0.00343   0.00404   0.00693   0.00790
     Eigenvalues ---    0.00907   0.01083   0.01202   0.01424   0.01610
     Eigenvalues ---    0.01710   0.01826   0.01836   0.01997   0.02068
     Eigenvalues ---    0.02398   0.02498   0.02753   0.02967   0.03130
     Eigenvalues ---    0.03397   0.03643   0.03732   0.04174   0.04225
     Eigenvalues ---    0.04379   0.04709   0.04757   0.04805   0.05458
     Eigenvalues ---    0.05550   0.05581   0.05718   0.05877   0.05994
     Eigenvalues ---    0.06179   0.07511   0.07990   0.09533   0.10250
     Eigenvalues ---    0.10739   0.10926   0.11187   0.12001   0.12031
     Eigenvalues ---    0.12100   0.12951   0.12968   0.13127   0.14004
     Eigenvalues ---    0.14773   0.15787   0.15985   0.17689   0.18460
     Eigenvalues ---    0.19129   0.20951   0.22521   0.23037   0.23540
     Eigenvalues ---    0.24140   0.30450   0.31106   0.31794   0.32052
[...]
    32  H    0.000000   0.000001  -0.000008   0.000023   0.000000   0.000001
    33  H   -0.000006   0.000058  -0.001594  -0.000162  -0.000001   0.000955
    34  O   -0.000003   0.000244  -0.000341  -0.000700  -0.000002   0.007218
    35  O    0.000000  -0.000001  -0.000019   0.000005   0.000000  -0.000314
               7          8          9         10         11         12
     1  C   -0.017178  -0.003149   0.006226  -0.004541   0.269215   0.000388
     2  C    0.010749   0.000564  -0.001528   0.002143  -0.141037   0.006544
     3  C    0.008243  -0.000749   0.004536  -0.001095  -0.137344  -0.091202
     4  C   -0.023347   0.002954  -0.005884   0.002097   0.290062   0.690052
     5  H   -0.000165  -0.000011   0.000017   0.000012   0.005088  -0.000055
     6  H   -0.000117  -0.000003  -0.000027   0.000024   0.004196   0.000976
     7  C    4.480006   0.410177   0.398640   0.409136   0.250305  -0.005156
     8  H    0.410177   0.585146  -0.018760  -0.025486  -0.027326   0.000180
     9  H    0.398640  -0.018760   0.572829  -0.018088  -0.027410   0.016431
    10  H    0.409136  -0.025486  -0.018088   0.587235  -0.027767   0.000104
    11  N    0.250305  -0.027326  -0.027410  -0.027767   7.112411  -0.090186
    12  O   -0.005156   0.000180   0.016431   0.000104  -0.090186   7.713784
    13  O    0.008597   0.000682   0.000266   0.003513  -0.098602  -0.000013
    14  C    0.000010  -0.000001  -0.000001   0.000001   0.000073   0.000017
    15  H    0.000000   0.000000   0.000000   0.000000  -0.000006   0.000000
    16  C    0.000027  -0.000002   0.000004  -0.000001  -0.000279   0.000120
    17  H    0.000000   0.000000   0.000000   0.000000  -0.000008  -0.000007
    18  C   -0.000057   0.000091   0.000014  -0.000026  -0.004416   0.000015
    19  H   -0.000449  -0.000243  -0.000010   0.000069   0.004614  -0.000040
    20  C    0.000013  -0.000017  -0.000001   0.000006  -0.000141   0.000000
    21  H   -0.000043   0.000020   0.000001  -0.000023   0.001009   0.000000
    22  H    0.000000   0.000000   0.000000   0.000000  -0.000010   0.000000
    23  H   -0.000001   0.000002   0.000000   0.000000   0.000001   0.000000
    24  C   -0.000009   0.000126  -0.000041  -0.000013  -0.005483  -0.003637
    25  H   -0.000401  -0.000259  -0.000002   0.000039   0.005187  -0.001621
    26  C   -0.000024  -0.000014  -0.000029   0.000002   0.000839  -0.008440
    27  H    0.000000   0.000001  -0.000001   0.000000  -0.000015   0.000218
    28  H    0.000044   0.000023   0.000053  -0.000006  -0.000500   0.024975
    29  C    0.000000   0.000000   0.000000   0.000000   0.000001   0.000387
    30  C    0.000001   0.000000   0.000005   0.000000  -0.000032  -0.009699
    31  H    0.000000   0.000000   0.000000   0.000000   0.000000  -0.000037
    32  H    0.000000   0.000000   0.000000   0.000000   0.000000   0.000054
    33  H   -0.000010   0.000000  -0.000035   0.000001   0.000314   0.026621
    34  O    0.000000   0.000000   0.000000   0.000000  -0.000005   0.000032
    35  O    0.000000   0.000000   0.000000   0.000000   0.000000   0.000000
              13         14         15         16         17         18
     1  C    0.727330  -0.004238  -0.000070   0.004471   0.000048  -0.008067
     2  C   -0.090814   0.007511   0.000539  -0.057681  -0.000684   0.133067
     3  C    0.006600  -0.056998  -0.000740  -0.008089   0.000488  -0.043462
     4  C    0.000490   0.003993   0.000057  -0.003769  -0.000084   0.001993
     5  H    0.001428  -0.003079   0.001078  -0.003254  -0.000043  -0.004424
     6  H   -0.000060  -0.003581  -0.000046  -0.001097   0.001309   0.001494
     7  C    0.008597   0.000010   0.000000   0.000027   0.000000  -0.000057
     8  H    0.000682  -0.000001   0.000000  -0.000002   0.000000   0.000091
     9  H    0.000266  -0.000001   0.000000   0.000004   0.000000   0.000014
    10  H    0.003513   0.000001   0.000000  -0.000001   0.000000  -0.000026
    11  N   -0.098602   0.000073  -0.000006  -0.000279  -0.000008  -0.004416
    12  O   -0.000013   0.000017   0.000000   0.000120  -0.000007   0.000015
    13  O    7.694849   0.000178  -0.000003   0.000022   0.000000  -0.001826
    14  C    0.000178   4.975862   0.442013   0.393183  -0.047323   0.435741
    15  H   -0.000003   0.442013   0.631075  -0.051281  -0.012366  -0.067949
    16  C    0.000022   0.393183  -0.051281   4.993201   0.445386  -0.009259
    17  H    0.000000  -0.047323  -0.012366   0.445386   0.624177   0.013666
    18  C   -0.001826   0.435741  -0.067949  -0.009259   0.013666   5.005151
    19  H   -0.001352  -0.002289   0.007147  -0.033973  -0.000212   0.365721
    20  C   -0.009863  -0.059104  -0.012258   0.011719  -0.000182   0.394628
    21  H    0.026329   0.006607   0.000185  -0.000386   0.000010  -0.019422
    22  H    0.000147  -0.014374   0.005492   0.000636  -0.000010  -0.021066
    23  H   -0.000018  -0.002292   0.000232  -0.000399   0.000000  -0.011658
    24  C    0.000028  -0.013106   0.013958   0.378254  -0.076111  -0.044410
    25  H   -0.000066  -0.032329  -0.000231   0.005012   0.006564   0.016154
    26  C    0.000000   0.009840  -0.000165  -0.057783  -0.016339   0.000304
    27  H    0.000000  -0.000211   0.000001  -0.011982   0.000252  -0.000078
    28  H    0.000001  -0.000163   0.000007   0.012697   0.000773   0.000192
    29  C    0.000000   0.000001  -0.000001  -0.000778   0.000581   0.000000
    30  C    0.000000   0.000004   0.000000   0.000408   0.000222   0.000001
    31  H    0.000000   0.000000   0.000000  -0.000048  -0.000006   0.000000
    32  H    0.000000   0.000000   0.000000   0.000001  -0.000004   0.000000
    33  H    0.000000   0.000000   0.000000  -0.000173  -0.000029  -0.000004
    34  O    0.000000   0.000020  -0.000015   0.006455   0.012387   0.000017
    35  O    0.000000   0.000000   0.000000  -0.000089   0.000097   0.000000
              19         20         21         22         23         24
     1  C   -0.005097  -0.001837   0.001717   0.000240  -0.000215   0.002025
     2  C    0.002403  -0.024184  -0.014532  -0.001841   0.002474  -0.050794
     3  C   -0.026107   0.005074   0.001913  -0.000224  -0.000192   0.133304
     4  C    0.006015  -0.000277  -0.000107   0.000015   0.000007  -0.006331
     5  H    0.003405  -0.003860   0.001341   0.001706  -0.000019   0.001712
     6  H   -0.000243  -0.000033  -0.000023  -0.000005   0.000002  -0.013972
     7  C   -0.000449   0.000013  -0.000043   0.000000  -0.000001  -0.000009
     8  H   -0.000243  -0.000017   0.000020   0.000000   0.000002   0.000126
     9  H   -0.000010  -0.000001   0.000001   0.000000   0.000000  -0.000041
    10  H    0.000069   0.000006  -0.000023   0.000000   0.000000  -0.000013
    11  N    0.004614  -0.000141   0.001009  -0.000010   0.000001  -0.005483
    12  O   -0.000040   0.000000   0.000000   0.000000   0.000000  -0.003637
    13  O   -0.001352  -0.009863   0.026329   0.000147  -0.000018   0.000028
    14  C   -0.002289  -0.059104   0.006607  -0.014374  -0.002292  -0.013106
    15  H    0.007147  -0.012258   0.000185   0.005492   0.000232   0.013958
    16  C   -0.033973   0.011719  -0.000386   0.000636  -0.000399   0.378254
    17  H   -0.000212  -0.000182   0.000010  -0.000010   0.000000  -0.076111
    18  C    0.365721   0.394628  -0.019422  -0.021066  -0.011658  -0.044410
    19  H    0.633925  -0.036845  -0.004088   0.006069  -0.004359   0.019981
    20  C   -0.036845   4.575022   0.379025   0.399019   0.381258   0.000416
    21  H   -0.004088   0.379025   0.600373  -0.020203  -0.016920   0.000119
    22  H    0.006069   0.399019  -0.020203   0.608531  -0.019173   0.000032
    23  H   -0.004359   0.381258  -0.016920  -0.019173   0.598644  -0.000045
    24  C    0.019981   0.000416   0.000119   0.000032  -0.000045   5.259066
    25  H    0.001416   0.000384  -0.000010  -0.000008  -0.000015   0.355378
    26  C    0.000431  -0.000019  -0.000003   0.000002   0.000001   0.318249
    27  H   -0.000019   0.000001   0.000000   0.000000   0.000000  -0.012990
    28  H   -0.000050  -0.000003   0.000000   0.000000   0.000000  -0.028078
    29  C    0.000000   0.000000   0.000000   0.000000   0.000000   0.006844
    30  C    0.000000   0.000000   0.000000   0.000000   0.000000  -0.003131
    31  H    0.000000   0.000000   0.000000   0.000000   0.000000   0.001329
    32  H    0.000000   0.000000   0.000000   0.000000   0.000000  -0.000004
    33  H    0.000000   0.000000   0.000000   0.000000   0.000000  -0.000849
    34  O   -0.000007   0.000000   0.000000   0.000000   0.000000  -0.089504
    35  O    0.000000   0.000000   0.000000   0.000000   0.000000   0.000126
              25         26         27         28         29         30
     1  C    0.004658  -0.000433   0.000002   0.000022   0.000003   0.000000
     2  C   -0.021227   0.007111  -0.000119   0.000742  -0.000092  -0.000012
     3  C    0.000221  -0.027333   0.002108  -0.008515   0.000449   0.000689
     4  C   -0.002632   0.001063  -0.000173   0.000671   0.000018  -0.000731
     5  H   -0.000175  -0.000071   0.000001  -0.000015   0.000000   0.000000
     6  H    0.003798  -0.001521   0.000401  -0.000956   0.000925  -0.001135
     7  C   -0.000401  -0.000024   0.000000   0.000044   0.000000   0.000001
     8  H   -0.000259  -0.000014   0.000001   0.000023   0.000000   0.000000
     9  H   -0.000002  -0.000029  -0.000001   0.000053   0.000000   0.000005
    10  H    0.000039   0.000002   0.000000  -0.000006   0.000000   0.000000
    11  N    0.005187   0.000839  -0.000015  -0.000500   0.000001  -0.000032
    12  O   -0.001621  -0.008440   0.000218   0.024975   0.000387  -0.009699
    13  O   -0.000066   0.000000   0.000000   0.000001   0.000000   0.000000
    14  C   -0.032329   0.009840  -0.000211  -0.000163   0.000001   0.000004
    15  H   -0.000231  -0.000165   0.000001   0.000007  -0.000001   0.000000
    16  C    0.005012  -0.057783  -0.011982   0.012697  -0.000778   0.000408
    17  H    0.006564  -0.016339   0.000252   0.000773   0.000581   0.000222
    18  C    0.016154   0.000304  -0.000078   0.000192   0.000000   0.000001
    19  H    0.001416   0.000431  -0.000019  -0.000050   0.000000   0.000000
    20  C    0.000384  -0.000019   0.000001  -0.000003   0.000000   0.000000
    21  H   -0.000010  -0.000003   0.000000   0.000000   0.000000   0.000000
    22  H   -0.000008   0.000002   0.000000   0.000000   0.000000   0.000000
    23  H   -0.000015   0.000001   0.000000   0.000000   0.000000   0.000000
    24  C    0.355378   0.318249  -0.012990  -0.028078   0.006844  -0.003131
    25  H    0.611195  -0.023123   0.001021  -0.007311   0.000012   0.000028
    26  C   -0.023123   4.546868   0.388055   0.377738  -0.042881   0.011158
    27  H    0.001021   0.388055   0.596896  -0.025253   0.002022  -0.002189
    28  H   -0.007311   0.377738  -0.025253   0.612089  -0.018337   0.022298
    29  C    0.000012  -0.042881   0.002022  -0.018337   4.477252   0.335683
    30  C    0.000028   0.011158  -0.002189   0.022298   0.335683   4.929156
    31  H   -0.000014  -0.002230   0.000260  -0.000178  -0.001025   0.361819
    32  H   -0.000002   0.001222  -0.000029  -0.000594  -0.002703   0.358130
    33  H    0.000076  -0.006488   0.000807  -0.003598   0.003218   0.344459
    34  O    0.002886   0.295248  -0.027017  -0.025816   0.307126  -0.116758
    35  O    0.000002   0.001510   0.000094  -0.000021   0.738355  -0.104619
              31         32         33         34         35
     1  C    0.000000   0.000000  -0.000006  -0.000003   0.000000
     2  C    0.000000   0.000001   0.000058   0.000244  -0.000001
     3  C   -0.000016  -0.000008  -0.001594  -0.000341  -0.000019
     4  C   -0.000028   0.000023  -0.000162  -0.000700   0.000005
     5  H    0.000000   0.000000  -0.000001  -0.000002   0.000000
     6  H    0.000011   0.000001   0.000955   0.007218  -0.000314
     7  C    0.000000   0.000000  -0.000010   0.000000   0.000000
     8  H    0.000000   0.000000   0.000000   0.000000   0.000000
     9  H    0.000000   0.000000  -0.000035   0.000000   0.000000
    10  H    0.000000   0.000000   0.000001   0.000000   0.000000
    11  N    0.000000   0.000000   0.000314  -0.000005   0.000000
    12  O   -0.000037   0.000054   0.026621   0.000032   0.000000
    13  O    0.000000   0.000000   0.000000   0.000000   0.000000
    14  C    0.000000   0.000000   0.000000   0.000020   0.000000
    15  H    0.000000   0.000000   0.000000  -0.000015   0.000000
    16  C   -0.000048   0.000001  -0.000173   0.006455  -0.000089
    17  H   -0.000006  -0.000004  -0.000029   0.012387   0.000097
    18  C    0.000000   0.000000  -0.000004   0.000017   0.000000
    19  H    0.000000   0.000000   0.000000  -0.000007   0.000000
    20  C    0.000000   0.000000   0.000000   0.000000   0.000000
    21  H    0.000000   0.000000   0.000000   0.000000   0.000000
    22  H    0.000000   0.000000   0.000000   0.000000   0.000000
    23  H    0.000000   0.000000   0.000000   0.000000   0.000000
    24  C    0.001329  -0.000004  -0.000849  -0.089504   0.000126
    25  H   -0.000014  -0.000002   0.000076   0.002886   0.000002
    26  C   -0.002230   0.001222  -0.006488   0.295248   0.001510
    27  H    0.000260  -0.000029   0.000807  -0.027017   0.000094
    28  H   -0.000178  -0.000594  -0.003598  -0.025816  -0.000021
    29  C   -0.001025  -0.002703   0.003218   0.307126   0.738355
    30  C    0.361819   0.358130   0.344459  -0.116758  -0.104619
    31  H    0.559470  -0.011218  -0.011242   0.001612   0.001819
    32  H   -0.011218   0.575127  -0.008043   0.005056   0.007594
    33  H   -0.011242  -0.008043   0.557133   0.003147   0.001776
    34  O    0.001612   0.005056   0.003147   8.062135  -0.092471
    35  O    0.001819   0.007594   0.001776  -0.092471   7.732484
 Mulliken charges:
               1
     1  C    0.271426
     2  C   -0.115545
     3  C   -0.125507
     4  C    0.286505
     5  H    0.068608
     6  H    0.066976
     7  C    0.071012
     8  H    0.076054
     9  H    0.072797
    10  H    0.072662
    11  N   -0.382747
    12  O   -0.270804
    13  O   -0.267844
    14  C   -0.035965
    15  H    0.043347
    16  C   -0.011273
    17  H    0.047447
    18  C   -0.132127
    19  H    0.064187
    20  C    0.002056
    21  H    0.057111
    22  H    0.055024
    23  H    0.072685
    24  C   -0.142440
    25  H    0.075394
    26  C    0.227255
    27  H    0.087934
    28  H    0.067071
    29  C    0.192942
    30  C   -0.125757
    31  H    0.099725
    32  H    0.075397
    33  H    0.093671
    34  O   -0.350946
    35  O   -0.286329
 Sum of Mulliken charges =   0.00000
 Mulliken charges with hydrogens summed into heavy atoms:
               1
     1  C    0.271426
     2  C   -0.046938
     3  C   -0.058531
     4  C    0.286505
     7  C    0.292524
    11  N   -0.382747
    12  O   -0.270804
    13  O   -0.267844
    14  C    0.007382
    16  C    0.036175
    18  C   -0.067939
    20  C    0.186875
    24  C   -0.067046
    26  C    0.382260
    29  C    0.192942
    30  C    0.143035
    34  O   -0.350946
    35  O   -0.286329
 Electronic spatial extent (au):  <R**2>=           4947.8720
 Charge=              0.0000 electrons
 Dipole moment (field-independent basis, Debye):
    X=             -2.4714    Y=              0.3394    Z=              3.7511  Tot=              4.5049
 Quadrupole moment (field-independent basis, Debye-Ang):
   XX=           -131.0080   YY=           -103.0086   ZZ=           -103.9044
   XY=             11.4486   XZ=              7.8125   YZ=              1.7617
 Traceless Quadrupole moment (field-independent basis, Debye-Ang):
   XX=            -18.3677   YY=              9.6317   ZZ=              8.7360
   XY=             11.4486   XZ=              7.8125   YZ=              1.7617
 Octapole moment (field-independent basis, Debye-Ang**2):
  XXX=            -15.8586  YYY=              4.9389  ZZZ=              4.9188  XYY=            -26.9623
  XXY=             36.0928  XXZ=             72.3222  XZZ=             -3.4213  YZZ=              8.9103
  YYZ=             -4.2418  XYZ=            -18.8799
 Hexadecapole moment (field-independent basis, Debye-Ang**3):
 XXXX=          -4778.5036 YYYY=          -1764.4855 ZZZZ=           -433.0887 XXXY=            265.0578
 XXXZ=            152.2037 YYYX=            -66.4297 YYYZ=             43.8187 ZZZX=             20.3629
 ZZZY=             16.1862 XXYY=           -945.0645 XXZZ=           -788.9790 YYZZ=           -383.2430
 XXYZ=            -21.0457 YYXZ=             -3.5096 ZZXY=              1.3555
 N-N= 1.376912600225D+03 E-N=-4.756459784741D+03  KE= 8.519160411593D+02
 1\1\GINC-D8S1B4\FTS\RM062X\def2SVP\C13H17N1O4\CHMKSH\06-Sep-2020\0\\# 
 opt=(calcfc,ts,noeigentest) scrf=(cpcm,solvent=water) geom=connectivit
 y def2svp m062x empiricaldispersion=gd3\\Title Card Required\\0,1\C,-2
 .4452418669,0.7907718634,-0.6004763182\C,-1.4908221136,-0.2292258505,-
 1.1260062291\C,-0.209676869,0.2117814898,-0.8379933265\C,-0.3266375967
 ,1.5255095824,-0.1393248431\H,-1.7845286744,-0.8992084138,-1.929487727
 9\H,0.7015559009,-0.0482666441,-1.3714516212\C,-2.2399125281,2.9085496
 727,0.7234339921\H,-2.7978060891,2.6213317112,1.6245345172\H,-1.407422
 2349,3.564006421,1.0025215729\H,-2.9148909882,3.4397570608,0.039603483
 1\N,-1.6822163424,1.7460146197,0.0707250931\O,0.5562681146,2.280812873
 1,0.203011723\O,-3.6484293264,0.837645965,-0.6991273187\C,-0.970422730
 1,-2.6390126806,0.2581642131\H,-1.0663019646,-3.5979551552,-0.25986164
 94\C,0.3251822492,-2.1740299603,0.5501508958\H,1.1790292836,-2.7744579
 13,0.2263389334\C,-2.1001373608,-1.8555942907,0.3934575801\H,-2.076747
 8189,-1.0306405837,1.1123270787\C,-3.4621094618,-2.3200588794,-0.01989
 82172\H,-4.0362224579,-1.4929879577,-0.4610810073\H,-3.39839238,-3.144
 4188946,-0.742702524\H,-4.0248689024,-2.6700444833,0.8599709231\C,0.56
 59110498,-0.8934194695,1.003028935\H,-0.2033066374,-0.3722107346,1.580
 1009648\C,1.9502552662,-0.35199507,1.1954627882\H,2.3419260407,-0.6555
 220699,2.1812438207\H,1.9143373072,0.7434965031,1.1704564148\C,3.78836
 62108,-0.1504040941,-0.3830911199\C,3.9191022613,1.2989521799,0.004950
 6426\H,4.1291524139,1.3947800644,1.0794965697\H,4.7446111285,1.7284730
 154,-0.5696497853\H,2.9863872397,1.8429160571,-0.205145177\O,2.8045577
 227,-0.8735617335,0.1856213437\O,4.5013671542,-0.6969502002,-1.1804916
 201\\Version=ES64L-G09RevD.01\State=1-A\HF=-860.2301292\RMSD=4.635e-09
 \RMSF=1.943e-06\Dipole=-0.9726663,0.1339274,1.4755395\Quadrupole=-13.6
 587817,7.1618651,6.4969166,8.5127957,5.8014971,1.3116417\PG=C01 [X(C13
 H17N1O4)]\\@


 A ROPE OVER THE TOP OF A FENCE HAS THE SAME LENGTH ON EACH SIDE.
 WEIGHS 1/3 POUND PER FOOT.  ON ONE END HANGS A MONKEY HOLDING A
 BANANA, AND ON THE OTHER END A WEIGHT EQUAL TO THE WEIGHT
 OF THE MONKEY.  THE BANANA WEIGHS TWO OUNCES PER INCH.
 THE ROPE IS AS LONG AS THE AGE OF THE MONKEY, 
 AND THE WEIGHT OF THE MONKEY (IN OUNCES) IS AS MUCH
 AS THE AGE OF THE MONKEY'S MOTHER.  THE COMBINED AGES OF MONKEY
 AND MOTHER ARE THIRTY YEARS.  HALF THE WEIGHT OF THE MONKEY,
  PLUS THE WEIGHT OF THE BANANA, IS ONE FOURTH AS MUCH AS THE WEIGHT
 OF THE WEIGHT AND THE ROPE.
 THE MONKEY'S MOTHER IS HALF AS OLD AS THE MONKEY WILL BE
 WHEN IT IS 3 TIMES AS OLD AS ITS MOTHER WAS WHEN
 SHE WAS HALF AS OLD AS THE MONKEY WILL BE WHEN IT IS
 AS OLD AS ITS MOTHER WILL BE WHEN SHE IS 4 TIMES AS
 OLD AS THE MONKEY WAS WHEN IT WAS TWICE AS OLD AS 
 ITS MOTHER WAS WHEN SHE WAS ONE THIRD AS OLD AS THE
 MONKEY WAS WHEN IT WAS AS OLD AS ITS MOTHER WAS WHEN 
 SHE WAS 3 TIMES AS OLD AS THE MONKEY WAS WHEN IT WAS AS OLD AS ITS
 MOTHER WAS WHEN SHE WAS 3 TIMES AS OLD AS THE MONKEY 
 WAS WHEN IT WAS ONE FOURTH WAS OLD AS IT IS NOW.

 HOW LONG IS THE BANANA?
 Job cpu time:       0 days  2 hours 11 minutes 31.7 seconds.
 File lengths (MBytes):  RWF=    491 Int=      0 D2E=      0 Chk=     18 Scr=      1
 Normal termination of Gaussian 09 at Sun Sep  6 20:04:58 2020.
