 Entering Gaussian System, Link 0=g09
 Input=water_m06-2x_diene_pm6_cpcmtoluene_1_gd3.com
 Output=water_m06-2x_diene_pm6_cpcmtoluene_1_gd3.log
 Initial command:
 /apps/applications/gaussian/G09.D01/2/default/g09/l1.exe "/local/725661.1.40core-192G.q/Gau-381324.inp" -scrdir="/local/725661.1.40core-192G.q/"
 Entering Link 1 = /apps/applications/gaussian/G09.D01/2/default/g09/l1.exe PID=    381325.
  
 Copyright (c) 1988,1990,1992,1993,1995,1998,2003,2009,2013,
            Gaussian, Inc.  All Rights Reserved.
  
 This is part of the Gaussian(R) 09 program.  It is based on
 the Gaussian(R) 03 system (copyright 2003, Gaussian, Inc.),
 the Gaussian(R) 98 system (copyright 1998, Gaussian, Inc.),
 the Gaussian(R) 94 system (copyright 1995, Gaussian, Inc.),
 the Gaussian 92(TM) system (copyright 1992, Gaussian, Inc.),
 the Gaussian 90(TM) system (copyright 1990, Gaussian, Inc.),
 the Gaussian 88(TM) system (copyright 1988, Gaussian, Inc.),
 the Gaussian 86(TM) system (copyright 1986, Carnegie Mellon
 University), and the Gaussian 82(TM) system (copyright 1983,
 Carnegie Mellon University). Gaussian is a federally registered
 trademark of Gaussian, Inc.
  
 This software contains proprietary and confidential information,
 including trade secrets, belonging to Gaussian, Inc.
  
 This software is provided under written license and may be
 used, copied, transmitted, or stored only in accord with that
 written license.
  
 The following legend is applicable only to US Government
 contracts under FAR:
  
                    RESTRICTED RIGHTS LEGEND
  
 Use, reproduction and disclosure by the US Government is
 subject to restrictions as set forth in subparagraphs (a)
 and (c) of the Commercial Computer Software - Restricted
 Rights clause in FAR 52.227-19.
  
 Gaussian, Inc.
 340 Quinnipiac St., Bldg. 40, Wallingford CT 06492
  
  
 ---------------------------------------------------------------
 Warning -- This program may not be used in any manner that
 competes with the business of Gaussian, Inc. or will provide
 assistance to any competitor of Gaussian, Inc.  The licensee
 of this program is prohibited from giving any competitor of
 Gaussian, Inc. access to this program.  By using this program,
 the user acknowledges that Gaussian, Inc. is engaged in the
 business of creating and licensing software in the field of
 computational chemistry and represents and warrants to the
 licensee that it is not a competitor of Gaussian, Inc. and that
 it will not use this program in any manner prohibited above.
 ---------------------------------------------------------------
  

 Cite this work as:
 Gaussian 09, Revision D.01,
 M. J. Frisch, G. W. Trucks, H. B. Schlegel, G. E. Scuseria, 
 M. A. Robb, J. R. Cheeseman, G. Scalmani, V. Barone, B. Mennucci, 
 G. A. Petersson, H. Nakatsuji, M. Caricato, X. Li, H. P. Hratchian, 
 A. F. Izmaylov, J. Bloino, G. Zheng, J. L. Sonnenberg, M. Hada, 
 M. Ehara, K. Toyota, R. Fukuda, J. Hasegawa, M. Ishida, T. Nakajima, 
 Y. Honda, O. Kitao, H. Nakai, T. Vreven, J. A. Montgomery, Jr., 
 J. E. Peralta, F. Ogliaro, M. Bearpark, J. J. Heyd, E. Brothers, 
 K. N. Kudin, V. N. Staroverov, T. Keith, R. Kobayashi, J. Normand, 
 K. Raghavachari, A. Rendell, J. C. Burant, S. S. Iyengar, J. Tomasi, 
 M. Cossi, N. Rega, J. M. Millam, M. Klene, J. E. Knox, J. B. Cross, 
 V. Bakken, C. Adamo, J. Jaramillo, R. Gomperts, R. E. Stratmann, 
 O. Yazyev, A. J. Austin, R. Cammi, C. Pomelli, J. W. Ochterski, 
 R. L. Martin, K. Morokuma, V. G. Zakrzewski, G. A. Voth, 
 P. Salvador, J. J. Dannenberg, S. Dapprich, A. D. Daniels, 
 O. Farkas, J. B. Foresman, J. V. Ortiz, J. Cioslowski, 
 and D. J. Fox, Gaussian, Inc., Wallingford CT, 2013.
 
 ******************************************
 Gaussian 09:  ES64L-G09RevD.01 24-Apr-2013
                 6-Sep-2020 
 ******************************************
 %chk=water_m06-2x_diene_pm6_cpcmtoluene_1_gd3.chk
 %nprocshared=4
 Will use up to    4 processors via shared memory.
 ----------------------------------------------------------------------
 # opt freq scrf=(cpcm,solvent=water) geom=connectivity def2svp m062x e
 mpiricaldispersion=gd3
 ----------------------------------------------------------------------
 1/14=-1,18=20,19=15,26=3,38=1,57=2/1,3;
 2/9=110,12=2,17=6,18=5,40=1/2;
 3/5=43,7=101,11=2,16=1,25=1,30=1,70=2101,71=1,72=1,74=-55,124=31/1,2,3;
 4//1;
 5/5=2,38=5,53=1/2;
 6/7=2,8=2,9=2,10=2,28=1/1;
 7//1,2,3,16;
 1/14=-1,18=20,19=15,26=3/3(2);
 2/9=110/2;
 99//99;
 2/9=110/2;
 3/5=43,7=101,11=2,16=1,25=1,30=1,70=2105,71=1,72=1,74=-55,124=31/1,2,3;
 4/5=5,16=3,69=1/1;
 5/5=2,38=5,53=1/2;
 7//1,2,3,16;
 1/14=-1,18=20,19=15,26=3/3(-5);
 2/9=110/2;
 6/7=2,8=2,9=2,10=2,19=2,28=1/1;
 99/9=1/99;
 -------------------
 Title Card Required
 -------------------
 Symbolic Z-matrix:
 Charge =  0 Multiplicity = 1
 C                    -2.59008   0.64609  -0.2565 
 H                    -2.92282   1.57136  -0.74096 
 C                    -1.13473   0.4407   -0.18466 
 H                    -0.50881   1.33728  -0.17045 
 C                    -3.51801  -0.18599   0.23667 
 H                    -3.18703  -1.08517   0.77048 
 C                    -4.99575   0.02484   0.12996 
 H                    -5.46227   0.06426   1.12643 
 H                    -5.22991   0.95662  -0.40269 
 H                    -5.47341  -0.81023  -0.40604 
 C                    -0.52849  -0.75217  -0.15388 
 H                    -1.11662  -1.67353  -0.21793 
 C                     0.94881  -0.96416  -0.0524 
 H                     1.30409  -1.52399  -0.93338 
 H                     1.17687  -1.57686   0.83618 
 C                     2.94724   0.3851    0.0725 
 C                     3.74219  -0.89022  -0.02093 
 H                     3.5607   -1.38397  -0.98565 
 H                     4.80333  -0.6418    0.06903 
 H                     3.45498  -1.59236   0.77272 
 O                     1.60717   0.28991   0.03616 
 O                     3.43956   1.47675   0.17105 
 

 GradGradGradGradGradGradGradGradGradGradGradGradGradGradGradGradGradGrad
 Berny optimization.
 Initialization pass.
                           ----------------------------
                           !    Initial Parameters    !
                           ! (Angstroms and Degrees)  !
 --------------------------                            --------------------------
 ! Name  Definition              Value          Derivative Info.                !
 --------------------------------------------------------------------------------
 ! R1    R(1,2)                  1.0961         estimate D2E/DX2                !
 ! R2    R(1,3)                  1.4715         estimate D2E/DX2                !
 ! R3    R(1,5)                  1.3404         estimate D2E/DX2                !
 ! R4    R(3,4)                  1.0935         estimate D2E/DX2                !
 ! R5    R(3,11)                 1.3384         estimate D2E/DX2                !
 ! R6    R(5,6)                  1.0968         estimate D2E/DX2                !
 ! R7    R(5,7)                  1.4965         estimate D2E/DX2                !
 ! R8    R(7,8)                  1.101          estimate D2E/DX2                !
 ! R9    R(7,9)                  1.0985         estimate D2E/DX2                !
 ! R10   R(7,10)                 1.1013         estimate D2E/DX2                !
 ! R11   R(11,12)                1.0949         estimate D2E/DX2                !
 ! R12   R(11,13)                1.4959         estimate D2E/DX2                !
 ! R13   R(13,14)                1.1026         estimate D2E/DX2                !
 ! R14   R(13,15)                1.1032         estimate D2E/DX2                !
 ! R15   R(13,21)                1.4191         estimate D2E/DX2                !
 ! R16   R(16,17)                1.5057         estimate D2E/DX2                !
 ! R17   R(16,21)                1.3439         estimate D2E/DX2                !
 ! R18   R(16,22)                1.2016         estimate D2E/DX2                !
 ! R19   R(17,18)                1.0988         estimate D2E/DX2                !
 ! R20   R(17,19)                1.0935         estimate D2E/DX2                !
 ! R21   R(17,20)                1.0979         estimate D2E/DX2                !
 ! A1    A(2,1,3)              116.0794         estimate D2E/DX2                !
 ! A2    A(2,1,5)              118.4553         estimate D2E/DX2                !
 ! A3    A(3,1,5)              125.455          estimate D2E/DX2                !
 ! A4    A(1,3,4)              116.8902         estimate D2E/DX2                !
 ! A5    A(1,3,11)             124.9938         estimate D2E/DX2                !
 ! A6    A(4,3,11)             118.1097         estimate D2E/DX2                !
 ! A7    A(1,5,6)              118.6255         estimate D2E/DX2                !
 ! A8    A(1,5,7)              124.7438         estimate D2E/DX2                !
 ! A9    A(6,5,7)              116.6264         estimate D2E/DX2                !
 ! A10   A(5,7,8)              111.034          estimate D2E/DX2                !
 ! A11   A(5,7,9)              111.3799         estimate D2E/DX2                !
 ! A12   A(5,7,10)             110.8652         estimate D2E/DX2                !
 ! A13   A(8,7,9)              108.5518         estimate D2E/DX2                !
 ! A14   A(8,7,10)             106.4915         estimate D2E/DX2                !
 ! A15   A(9,7,10)             108.3451         estimate D2E/DX2                !
 ! A16   A(3,11,12)            120.3524         estimate D2E/DX2                !
 ! A17   A(3,11,13)            125.1123         estimate D2E/DX2                !
 ! A18   A(12,11,13)           114.5306         estimate D2E/DX2                !
 ! A19   A(11,13,14)           109.6312         estimate D2E/DX2                !
 ! A20   A(11,13,15)           109.7257         estimate D2E/DX2                !
 ! A21   A(11,13,21)           109.7039         estimate D2E/DX2                !
 ! A22   A(14,13,15)           107.1554         estimate D2E/DX2                !
 ! A23   A(14,13,21)           110.429          estimate D2E/DX2                !
 ! A24   A(15,13,21)           110.1588         estimate D2E/DX2                !
 ! A25   A(17,16,21)           117.6955         estimate D2E/DX2                !
 ! A26   A(17,16,22)           123.9363         estimate D2E/DX2                !
 ! A27   A(21,16,22)           118.3673         estimate D2E/DX2                !
 ! A28   A(16,17,18)           110.3565         estimate D2E/DX2                !
 ! A29   A(16,17,19)           108.3488         estimate D2E/DX2                !
 ! A30   A(16,17,20)           111.0211         estimate D2E/DX2                !
 ! A31   A(18,17,19)           109.5473         estimate D2E/DX2                !
 ! A32   A(18,17,20)           107.7034         estimate D2E/DX2                !
 ! A33   A(19,17,20)           109.8565         estimate D2E/DX2                !
 ! A34   A(13,21,16)           121.7936         estimate D2E/DX2                !
 ! D1    D(2,1,3,4)             27.3678         estimate D2E/DX2                !
 ! D2    D(2,1,3,11)          -151.6974         estimate D2E/DX2                !
 ! D3    D(5,1,3,4)           -151.439          estimate D2E/DX2                !
 ! D4    D(5,1,3,11)            29.4958         estimate D2E/DX2                !
 ! D5    D(2,1,5,6)           -176.6834         estimate D2E/DX2                !
 ! D6    D(2,1,5,7)              2.5398         estimate D2E/DX2                !
 ! D7    D(3,1,5,6)              2.0977         estimate D2E/DX2                !
 ! D8    D(3,1,5,7)           -178.6792         estimate D2E/DX2                !
 ! D9    D(1,3,11,12)            2.1681         estimate D2E/DX2                !
 ! D10   D(1,3,11,13)         -178.6645         estimate D2E/DX2                !
 ! D11   D(4,3,11,12)         -176.8867         estimate D2E/DX2                !
 ! D12   D(4,3,11,13)            2.2808         estimate D2E/DX2                !
 ! D13   D(1,5,7,8)           -121.3978         estimate D2E/DX2                !
 ! D14   D(1,5,7,9)             -0.2925         estimate D2E/DX2                !
 ! D15   D(1,5,7,10)           120.4342         estimate D2E/DX2                !
 ! D16   D(6,5,7,8)             57.8394         estimate D2E/DX2                !
 ! D17   D(6,5,7,9)            178.9447         estimate D2E/DX2                !
 ! D18   D(6,5,7,10)           -60.3286         estimate D2E/DX2                !
 ! D19   D(3,11,13,14)        -120.1379         estimate D2E/DX2                !
 ! D20   D(3,11,13,15)         122.4372         estimate D2E/DX2                !
 ! D21   D(3,11,13,21)           1.2869         estimate D2E/DX2                !
 ! D22   D(12,11,13,14)         59.0724         estimate D2E/DX2                !
 ! D23   D(12,11,13,15)        -58.3525         estimate D2E/DX2                !
 ! D24   D(12,11,13,21)       -179.5028         estimate D2E/DX2                !
 ! D25   D(11,13,21,16)       -176.7506         estimate D2E/DX2                !
 ! D26   D(14,13,21,16)        -55.8064         estimate D2E/DX2                !
 ! D27   D(15,13,21,16)         62.3603         estimate D2E/DX2                !
 ! D28   D(21,16,17,18)         62.6067         estimate D2E/DX2                !
 ! D29   D(21,16,17,19)       -177.4563         estimate D2E/DX2                !
 ! D30   D(21,16,17,20)        -56.7374         estimate D2E/DX2                !
 ! D31   D(22,16,17,18)       -117.0479         estimate D2E/DX2                !
 ! D32   D(22,16,17,19)          2.889          estimate D2E/DX2                !
 ! D33   D(22,16,17,20)        123.608          estimate D2E/DX2                !
 ! D34   D(17,16,21,13)          1.5868         estimate D2E/DX2                !
 ! D35   D(22,16,21,13)       -178.7389         estimate D2E/DX2                !
 --------------------------------------------------------------------------------
 Trust Radius=3.00D-01 FncErr=1.00D-07 GrdErr=1.00D-06
 Number of steps in this run=    100 maximum allowed number of steps=    132.
 GradGradGradGradGradGradGradGradGradGradGradGradGradGradGradGradGradGrad

                          Input orientation:                          
 ---------------------------------------------------------------------
 Center     Atomic      Atomic             Coordinates (Angstroms)
 Number     Number       Type             X           Y           Z
 ---------------------------------------------------------------------
      1          6           0       -2.590081    0.646093   -0.256496
      2          1           0       -2.922822    1.571355   -0.740961
      3          6           0       -1.134727    0.440696   -0.184656
      4          1           0       -0.508805    1.337276   -0.170447
      5          6           0       -3.518007   -0.185993    0.236668
      6          1           0       -3.187032   -1.085168    0.770484
      7          6           0       -4.995754    0.024838    0.129957
      8          1           0       -5.462270    0.064260    1.126427
      9          1           0       -5.229908    0.956622   -0.402694
     10          1           0       -5.473411   -0.810234   -0.406036
     11          6           0       -0.528491   -0.752169   -0.153880
     12          1           0       -1.116615   -1.673528   -0.217928
     13          6           0        0.948806   -0.964155   -0.052399
     14          1           0        1.304091   -1.523988   -0.933384
     15          1           0        1.176869   -1.576858    0.836184
     16          6           0        2.947236    0.385101    0.072499
     17          6           0        3.742191   -0.890222   -0.020931
     18          1           0        3.560695   -1.383965   -0.985654
     19          1           0        4.803334   -0.641797    0.069031
     20          1           0        3.454982   -1.592364    0.772724
     21          8           0        1.607169    0.289908    0.036160
     22          8           0        3.439562    1.476748    0.171050
 ---------------------------------------------------------------------
                    Distance matrix (angstroms):
                    1          2          3          4          5
     1  C    0.000000
     2  H    1.096144   0.000000
     3  C    1.471531   2.187498   0.000000
     4  H    2.194732   2.491537   1.093543   0.000000
     5  C    1.340382   2.097207   2.500055   3.397262   0.000000
     6  H    2.099596   3.067798   2.729928   3.731821   1.096823
     7  C    2.514471   2.728967   3.896081   4.684597   1.496520
     8  H    3.240444   3.493890   4.537430   5.276293   2.152779
     9  H    2.662046   2.411424   4.133307   4.742114   2.155216
    10  H    3.233704   3.505659   4.520842   5.414297   2.150895
    11  C    2.493155   3.387661   1.338430   2.089603   3.067619
    12  H    2.748314   3.750362   2.114563   3.071910   2.861136
    13  C    3.893363   4.678935   2.516388   2.726747   4.543293
    14  H    4.509102   5.242611   3.220002   3.472103   5.139249
    15  H    4.508367   5.404267   3.233592   3.513827   4.933131
    16  C    5.553218   6.043715   4.090433   3.593032   6.492493
    17  C    6.520232   7.141443   5.057912   4.801569   7.298820
    18  H    6.518041   7.129501   5.100782   4.962917   7.282666
    19  H    7.511805   8.077600   6.041251   5.673879   8.335501
    20  H    6.527846   7.278512   5.110317   5.018363   7.133569
    21  O    4.222490   4.771461   2.754903   2.370024   5.151127
    22  O    6.101588   6.428114   4.703621   3.965561   7.153795
                    6          7          8          9         10
     6  H    0.000000
     7  C    2.216724   0.000000
     8  H    2.573828   1.100974   0.000000
     9  H    3.117466   1.098529   1.785641   0.000000
    10  H    2.585985   1.101267   1.764456   1.783560   0.000000
    11  C    2.834286   4.543208   5.162162   5.008512   4.951685
    12  H    2.368492   4.248905   4.869488   4.885796   4.445485
    13  C    4.218642   6.029026   6.599179   6.479861   6.433788
    14  H    4.823475   6.574010   7.249069   7.009151   6.835355
    15  H    4.392005   6.416032   6.845121   7.000009   6.808601
    16  C    6.346504   7.951363   8.481362   8.210854   8.518516
    17  C    6.976996   8.787024   9.324675   9.168159   9.223992
    18  H    6.978905   8.743119   9.379346   9.115530   9.070843
    19  H    8.033341   9.821926  10.344043  10.170713  10.289098
    20  H    6.661351   8.628061   9.076723   9.127226   9.039768
    21  O    5.041273   6.608907   7.156575   6.883511   7.179169
    22  O    7.129830   8.559456   9.063690   8.703989   9.219783
                   11         12         13         14         15
    11  C    0.000000
    12  H    1.094940   0.000000
    13  C    1.495875   2.190108   0.000000
    14  H    2.135811   2.528647   1.102622   0.000000
    15  H    2.137426   2.525978   1.103176   1.774923   0.000000
    16  C    3.664056   4.564777   2.414501   2.712259   2.750763
    17  C    4.274981   4.925482   2.794540   2.679284   2.790518
    18  H    4.220481   4.748734   2.805204   2.261548   3.006481
    19  H    5.337624   6.016029   3.869890   3.745370   3.822841
    20  H    4.175234   4.678406   2.712267   2.746236   2.279049
    21  O    2.383922   3.367290   1.419140   2.078964   2.076057
    22  O    4.562795   5.552863   3.494539   3.845052   3.858328
                   16         17         18         19         20
    16  C    0.000000
    17  C    1.505700   0.000000
    18  H    2.150724   1.098824   0.000000
    19  H    2.121233   1.093541   1.790901   0.000000
    20  H    2.158353   1.097898   1.773837   1.793548   0.000000
    21  O    1.343935   2.440140   2.768071   3.329358   2.738592
    22  O    1.201578   2.393948   3.088093   2.521610   3.127571
                   21         22
    21  O    0.000000
    22  O    2.187338   0.000000
 Stoichiometry    C8H12O2
 Framework group  C1[X(C8H12O2)]
 Deg. of freedom    60
 Full point group                 C1      NOp   1
 Largest Abelian subgroup         C1      NOp   1
 Largest concise Abelian subgroup C1      NOp   1
                         Standard orientation:                         
 ---------------------------------------------------------------------
 Center     Atomic      Atomic             Coordinates (Angstroms)
 Number     Number       Type             X           Y           Z
 ---------------------------------------------------------------------
      1          6           0       -2.590081    0.646093   -0.256496
      2          1           0       -2.922822    1.571355   -0.740961
      3          6           0       -1.134727    0.440696   -0.184656
      4          1           0       -0.508805    1.337276   -0.170447
      5          6           0       -3.518007   -0.185993    0.236668
      6          1           0       -3.187032   -1.085168    0.770484
      7          6           0       -4.995754    0.024838    0.129957
      8          1           0       -5.462270    0.064260    1.126427
      9          1           0       -5.229908    0.956622   -0.402694
     10          1           0       -5.473411   -0.810234   -0.406036
     11          6           0       -0.528491   -0.752169   -0.153880
     12          1           0       -1.116615   -1.673528   -0.217928
     13          6           0        0.948806   -0.964155   -0.052399
     14          1           0        1.304091   -1.523988   -0.933384
     15          1           0        1.176869   -1.576858    0.836184
     16          6           0        2.947236    0.385101    0.072499
     17          6           0        3.742191   -0.890222   -0.020931
     18          1           0        3.560695   -1.383965   -0.985654
     19          1           0        4.803334   -0.641797    0.069031
     20          1           0        3.454982   -1.592364    0.772724
     21          8           0        1.607169    0.289908    0.036160
     22          8           0        3.439562    1.476748    0.171050
 ---------------------------------------------------------------------
 Rotational constants (GHZ):      4.9915694      0.4112591      0.3851182
 Standard basis: def2SVP (5D, 7F)
 There are   210 symmetry adapted cartesian basis functions of A   symmetry.
 There are   200 symmetry adapted basis functions of A   symmetry.
   200 basis functions,   334 primitive gaussians,   210 cartesian basis functions
    38 alpha electrons       38 beta electrons
       nuclear repulsion energy       486.5740966038 Hartrees.
 NAtoms=   22 NActive=   22 NUniq=   22 SFac= 1.00D+00 NAtFMM=   60 NAOKFM=F Big=F
 Integral buffers will be    131072 words long.
 Raffenetti 2 integral format.
 Two-electron integral symmetry is turned on.
 Nuclear repulsion after empirical dispersion term =      486.5734408220 Hartrees.
 ------------------------------------------------------------------------------
 Polarizable Continuum Model (PCM)
 =================================
 Model                : C-PCM.
 Atomic radii         : UFF (Universal Force Field).
 Polarization charges : Total charges.
 Charge compensation  : None.
 Solution method      : On-the-fly selection.
 Cavity type          : Scaled VdW (van der Waals Surface) (Alpha=1.100).
 Cavity algorithm     : GePol (No added spheres)
                        Default sphere list used, NSphG=   22.
                        Lebedev-Laikov grids with approx.  5.0 points / Ang**2.
                        Smoothing algorithm: Karplus/York (Gamma=1.0000).
                        Polarization charges: spherical gaussians, with
                                              point-specific exponents (IZeta= 3).
                        Self-potential: point-specific (ISelfS= 7).
                        Self-field    : sphere-specific E.n sum rule (ISelfD= 2).
 1st derivatives      : Analytical E(r).r(x)/FMM algorithm (CHGder, D1EAlg=3).
                        Cavity 1st derivative terms included.
 Solvent              : Water, Eps=  78.355300 Eps(inf)=   1.777849
 ------------------------------------------------------------------------------
 One-electron integrals computed using PRISM.
   1 Symmetry operations used in ECPInt.
 ECPInt:  NShTT=    4656 NPrTT=   16456 LenC2=    4284 LenP2D=   11453.
 LDataN:  DoStor=T MaxTD1= 4 Len=   56
 NBasis=   200 RedAO= T EigKep=  1.14D-03  NBF=   200
 NBsUse=   200 1.00D-06 EigRej= -1.00D+00 NBFU=   200
 ExpMin= 1.22D-01 ExpMax= 2.27D+03 ExpMxC= 3.41D+02 IAcc=1 IRadAn=         1 AccDes= 0.00D+00
 Harris functional with IExCor= 1009 and IRadAn=       1 diagonalized for initial guess.
 HarFok:  IExCor= 1009 AccDes= 0.00D+00 IRadAn=         1 IDoV= 1 UseB2=F ITyADJ=14
 ICtDFT=  3500011 ScaDFX=  1.000000  1.000000  1.000000  1.000000
 FoFCou: FMM=F IPFlag=           0 FMFlag=      100000 FMFlg1=           0
         NFxFlg=           0 DoJE=T BraDBF=F KetDBF=T FulRan=T
         wScrn=  0.000000 ICntrl=     500 IOpCl=  0 I1Cent=   200000004 NGrid=           0
         NMat0=    1 NMatS0=      1 NMatT0=    0 NMatD0=    1 NMtDS0=    0 NMtDT0=    0
 Petite list used in FoFCou.
 Requested convergence on RMS density matrix=1.00D-08 within 128 cycles.
 Requested convergence on MAX density matrix=1.00D-06.
 Requested convergence on             energy=1.00D-06.
 No special actions if energy rises.
 Inv3:  Mode=1 IEnd=     9720000.
 Iteration    1 A*A^-1 deviation from unit magnitude is 5.77D-15 for   1796.
 Iteration    1 A*A^-1 deviation from orthogonality  is 2.55D-15 for   1794   1316.
 Iteration    1 A^-1*A deviation from unit magnitude is 5.55D-15 for   1796.
 Iteration    1 A^-1*A deviation from orthogonality  is 1.66D-15 for   1426    825.
 Error on total polarization charges =  0.00972
 SCF Done:  E(RM062X) =  -461.942037462     A.U. after   12 cycles
            NFock= 12  Conv=0.99D-08     -V/T= 2.0101

 **********************************************************************

            Population analysis using the SCF density.

 **********************************************************************

 Orbital symmetries:
       Occupied  (A) (A) (A) (A) (A) (A) (A) (A) (A) (A) (A) (A)
                 (A) (A) (A) (A) (A) (A) (A) (A) (A) (A) (A) (A)
                 (A) (A) (A) (A) (A) (A) (A) (A) (A) (A) (A) (A)
                 (A) (A)
       Virtual   (A) (A) (A) (A) (A) (A) (A) (A) (A) (A) (A) (A)
                 (A) (A) (A) (A) (A) (A) (A) (A) (A) (A) (A) (A)
                 (A) (A) (A) (A) (A) (A) (A) (A) (A) (A) (A) (A)
                 (A) (A) (A) (A) (A) (A) (A) (A) (A) (A) (A) (A)
                 (A) (A) (A) (A) (A) (A) (A) (A) (A) (A) (A) (A)
                 (A) (A) (A) (A) (A) (A) (A) (A) (A) (A) (A) (A)
                 (A) (A) (A) (A) (A) (A) (A) (A) (A) (A) (A) (A)
                 (A) (A) (A) (A) (A) (A) (A) (A) (A) (A) (A) (A)
                 (A) (A) (A) (A) (A) (A) (A) (A) (A) (A) (A) (A)
                 (A) (A) (A) (A) (A) (A) (A) (A) (A) (A) (A) (A)
                 (A) (A) (A) (A) (A) (A) (A) (A) (A) (A) (A) (A)
                 (A) (A) (A) (A) (A) (A) (A) (A) (A) (A) (A) (A)
                 (A) (A) (A) (A) (A) (A) (A) (A) (A) (A) (A) (A)
                 (A) (A) (A) (A) (A) (A)
 The electronic state is 1-A.
 Alpha  occ. eigenvalues --  -19.67902 -19.62142 -10.69335 -10.62279 -10.56516
 Alpha  occ. eigenvalues --  -10.56184 -10.55777 -10.55741 -10.55318 -10.54878
 Alpha  occ. eigenvalues --   -1.22434  -1.13404  -0.91145  -0.87177  -0.83846
 Alpha  occ. eigenvalues --   -0.81063  -0.74346  -0.68520  -0.64818  -0.59674
 Alpha  occ. eigenvalues --   -0.58371  -0.58140  -0.56503  -0.53498  -0.50995
 Alpha  occ. eigenvalues --   -0.50580  -0.48126  -0.47619  -0.46985  -0.45706
 Alpha  occ. eigenvalues --   -0.45339  -0.42581  -0.41381  -0.40487  -0.37884
 Alpha  occ. eigenvalues --   -0.36113  -0.35567  -0.27907
 Alpha virt. eigenvalues --    0.00892   0.05433   0.09414   0.10967   0.12043
 Alpha virt. eigenvalues --    0.12451   0.14480   0.14954   0.15276   0.16783
 Alpha virt. eigenvalues --    0.18097   0.18436   0.19325   0.20793   0.21491
 Alpha virt. eigenvalues --    0.24157   0.24853   0.28871   0.30214   0.31172
 Alpha virt. eigenvalues --    0.36102   0.36729   0.39840   0.41463   0.43357
 Alpha virt. eigenvalues --    0.45359   0.46728   0.48110   0.48558   0.49226
 Alpha virt. eigenvalues --    0.50711   0.52519   0.54919   0.55944   0.56804
 Alpha virt. eigenvalues --    0.58878   0.60780   0.63130   0.64147   0.64805
 Alpha virt. eigenvalues --    0.65860   0.66288   0.67972   0.68662   0.69191
 Alpha virt. eigenvalues --    0.70336   0.71211   0.71659   0.71789   0.72966
 Alpha virt. eigenvalues --    0.73495   0.73646   0.74419   0.74802   0.75187
 Alpha virt. eigenvalues --    0.76306   0.76749   0.77714   0.79299   0.84337
 Alpha virt. eigenvalues --    0.89377   0.90754   0.92145   0.95497   0.96685
 Alpha virt. eigenvalues --    1.03908   1.07897   1.11112   1.12223   1.12677
 Alpha virt. eigenvalues --    1.16359   1.21492   1.23758   1.26088   1.31906
 Alpha virt. eigenvalues --    1.33024   1.33528   1.36682   1.37683   1.39547
 Alpha virt. eigenvalues --    1.44332   1.47835   1.55689   1.57915   1.58922
 Alpha virt. eigenvalues --    1.59737   1.59810   1.60546   1.63334   1.65207
 Alpha virt. eigenvalues --    1.70563   1.72536   1.73051   1.74798   1.76675
 Alpha virt. eigenvalues --    1.78668   1.80070   1.82007   1.82454   1.82919
 Alpha virt. eigenvalues --    1.83570   1.84553   1.84777   1.86875   1.87060
 Alpha virt. eigenvalues --    1.89858   1.91009   1.91790   1.93571   1.95810
 Alpha virt. eigenvalues --    1.96102   1.99487   2.00013   2.06114   2.08015
 Alpha virt. eigenvalues --    2.09552   2.10222   2.12132   2.15758   2.17372
 Alpha virt. eigenvalues --    2.19628   2.21862   2.28083   2.30240   2.31053
 Alpha virt. eigenvalues --    2.33318   2.34450   2.39511   2.40877   2.45607
 Alpha virt. eigenvalues --    2.47076   2.48012   2.53007   2.54533   2.55396
 Alpha virt. eigenvalues --    2.58193   2.62766   2.68410   2.70206   2.71093
 Alpha virt. eigenvalues --    2.72633   2.75768   2.77605   2.79798   2.85352
 Alpha virt. eigenvalues --    2.85628   2.90482   2.91583   2.93440   2.93491
 Alpha virt. eigenvalues --    2.95139   2.99489   3.06582   3.11058   3.12410
 Alpha virt. eigenvalues --    3.16937   3.24304   3.26955   3.37357   3.47533
 Alpha virt. eigenvalues --    3.67072   3.70467
          Condensed to atoms (all electrons):
               1          2          3          4          5          6
     1  C    4.887318   0.410451   0.324183  -0.042776   0.629662  -0.033803
     2  H    0.410451   0.642693  -0.044017  -0.007224  -0.048394   0.008392
     3  C    0.324183  -0.044017   4.858955   0.409445  -0.046534  -0.020660
     4  H   -0.042776  -0.007224   0.409445   0.632301   0.009388   0.000075
     5  C    0.629662  -0.048394  -0.046534   0.009388   4.886173   0.401784
     6  H   -0.033803   0.008392  -0.020660   0.000075   0.401784   0.634046
     7  C   -0.055000  -0.014653   0.010250  -0.000251   0.388955  -0.043621
     8  H    0.001311   0.000277  -0.000508   0.000016  -0.019491  -0.003424
     9  H   -0.012310   0.007084   0.000583   0.000002  -0.026261   0.006464
    10  H    0.001313   0.000148  -0.000204   0.000000  -0.018091  -0.003393
    11  C   -0.051036   0.009773   0.609779  -0.047736  -0.020184   0.008992
    12  H   -0.019513   0.000076  -0.022984   0.008121   0.008602   0.002182
    13  C    0.010313  -0.000281  -0.062805  -0.022401   0.000191  -0.000084
    14  H   -0.000269   0.000012   0.001765   0.000837   0.000072   0.000023
    15  H    0.000136  -0.000002   0.001382   0.000661  -0.000073  -0.000027
    16  C    0.000000   0.000000  -0.001182   0.001144   0.000000   0.000000
    17  C    0.000002   0.000000   0.000008   0.000335   0.000000   0.000000
    18  H    0.000000   0.000000  -0.000012  -0.000019   0.000000   0.000000
    19  H    0.000000   0.000000   0.000003  -0.000006   0.000000   0.000000
    20  H    0.000000   0.000000  -0.000018  -0.000014   0.000000   0.000000
    21  O    0.000524  -0.000016   0.007538   0.015958   0.000006   0.000000
    22  O   -0.000001   0.000000  -0.000188   0.000291   0.000000   0.000000
               7          8          9         10         11         12
     1  C   -0.055000   0.001311  -0.012310   0.001313  -0.051036  -0.019513
     2  H   -0.014653   0.000277   0.007084   0.000148   0.009773   0.000076
     3  C    0.010250  -0.000508   0.000583  -0.000204   0.609779  -0.022984
     4  H   -0.000251   0.000016   0.000002   0.000000  -0.047736   0.008121
     5  C    0.388955  -0.019491  -0.026261  -0.018091  -0.020184   0.008602
     6  H   -0.043621  -0.003424   0.006464  -0.003393   0.008992   0.002182
     7  C    4.576824   0.387121   0.401952   0.384821   0.000220  -0.000139
     8  H    0.387121   0.617165  -0.021754  -0.022015   0.000065   0.000026
     9  H    0.401952  -0.021754   0.616004  -0.021467   0.000008   0.000005
    10  H    0.384821  -0.022015  -0.021467   0.615828  -0.000030  -0.000040
    11  C    0.000220   0.000065   0.000008  -0.000030   5.042510   0.396039
    12  H   -0.000139   0.000026   0.000005  -0.000040   0.396039   0.605616
    13  C    0.000003   0.000001   0.000001  -0.000002   0.333272  -0.034014
    14  H    0.000001   0.000000   0.000000   0.000000  -0.031113  -0.001577
    15  H   -0.000002   0.000000   0.000000   0.000000  -0.026291  -0.002077
    16  C    0.000000   0.000000   0.000000   0.000000   0.008116   0.000059
    17  C    0.000000   0.000000   0.000000   0.000000  -0.000321   0.000033
    18  H    0.000000   0.000000   0.000000   0.000000   0.000355  -0.000002
    19  H    0.000000   0.000000   0.000000   0.000000  -0.000010  -0.000001
    20  H    0.000000   0.000000   0.000000   0.000000   0.000811  -0.000010
    21  O    0.000000   0.000000   0.000000   0.000000  -0.072331   0.002313
    22  O    0.000000   0.000000   0.000000   0.000000   0.000208   0.000003
              13         14         15         16         17         18
     1  C    0.010313  -0.000269   0.000136   0.000000   0.000002   0.000000
     2  H   -0.000281   0.000012  -0.000002   0.000000   0.000000   0.000000
     3  C   -0.062805   0.001765   0.001382  -0.001182   0.000008  -0.000012
     4  H   -0.022401   0.000837   0.000661   0.001144   0.000335  -0.000019
     5  C    0.000191   0.000072  -0.000073   0.000000   0.000000   0.000000
     6  H   -0.000084   0.000023  -0.000027   0.000000   0.000000   0.000000
     7  C    0.000003   0.000001  -0.000002   0.000000   0.000000   0.000000
     8  H    0.000001   0.000000   0.000000   0.000000   0.000000   0.000000
     9  H    0.000001   0.000000   0.000000   0.000000   0.000000   0.000000
    10  H   -0.000002   0.000000   0.000000   0.000000   0.000000   0.000000
    11  C    0.333272  -0.031113  -0.026291   0.008116  -0.000321   0.000355
    12  H   -0.034014  -0.001577  -0.002077   0.000059   0.000033  -0.000002
    13  C    4.521502   0.397930   0.394275  -0.041714   0.010199  -0.001140
    14  H    0.397930   0.627287  -0.034391  -0.012347   0.010638  -0.000446
    15  H    0.394275  -0.034391   0.624665  -0.007842   0.003403  -0.000966
    16  C   -0.041714  -0.012347  -0.007842   4.474437   0.338667  -0.001594
    17  C    0.010199   0.010638   0.003403   0.338667   4.873997   0.366898
    18  H   -0.001140  -0.000446  -0.000966  -0.001594   0.366898   0.556673
    19  H    0.000593  -0.000005  -0.000015  -0.001750   0.360730  -0.010398
    20  H    0.002094  -0.002441   0.000104  -0.001877   0.364167  -0.010992
    21  O    0.292556  -0.027681  -0.028003   0.318736  -0.119557   0.002208
    22  O    0.001324  -0.000028   0.000043   0.734829  -0.103387   0.001479
              19         20         21         22
     1  C    0.000000   0.000000   0.000524  -0.000001
     2  H    0.000000   0.000000  -0.000016   0.000000
     3  C    0.000003  -0.000018   0.007538  -0.000188
     4  H   -0.000006  -0.000014   0.015958   0.000291
     5  C    0.000000   0.000000   0.000006   0.000000
     6  H    0.000000   0.000000   0.000000   0.000000
     7  C    0.000000   0.000000   0.000000   0.000000
     8  H    0.000000   0.000000   0.000000   0.000000
     9  H    0.000000   0.000000   0.000000   0.000000
    10  H    0.000000   0.000000   0.000000   0.000000
    11  C   -0.000010   0.000811  -0.072331   0.000208
    12  H   -0.000001  -0.000010   0.002313   0.000003
    13  C    0.000593   0.002094   0.292556   0.001324
    14  H   -0.000005  -0.002441  -0.027681  -0.000028
    15  H   -0.000015   0.000104  -0.028003   0.000043
    16  C   -0.001750  -0.001877   0.318736   0.734829
    17  C    0.360730   0.364167  -0.119557  -0.103387
    18  H   -0.010398  -0.010992   0.002208   0.001479
    19  H    0.570824  -0.012420   0.004982   0.007826
    20  H   -0.012420   0.564834   0.001320   0.001807
    21  O    0.004982   0.001320   8.038385  -0.092381
    22  O    0.007826   0.001807  -0.092381   7.738536
 Mulliken charges:
               1
     1  C   -0.050505
     2  H    0.035680
     3  C   -0.024781
     4  H    0.041851
     5  C   -0.145805
     6  H    0.043054
     7  C   -0.036482
     8  H    0.061208
     9  H    0.049690
    10  H    0.063133
    11  C   -0.161094
    12  H    0.057282
    13  C    0.198187
    14  H    0.071734
    15  H    0.075020
    16  C    0.192318
    17  C   -0.105811
    18  H    0.097957
    19  H    0.079648
    20  H    0.092635
    21  O   -0.344557
    22  O   -0.290360
 Sum of Mulliken charges =   0.00000
 Mulliken charges with hydrogens summed into heavy atoms:
               1
     1  C   -0.014825
     3  C    0.017071
     5  C   -0.102752
     7  C    0.137549
    11  C   -0.103813
    13  C    0.344941
    16  C    0.192318
    17  C    0.164428
    21  O   -0.344557
    22  O   -0.290360
 Electronic spatial extent (au):  <R**2>=           2819.3858
 Charge=              0.0000 electrons
 Dipole moment (field-independent basis, Debye):
    X=             -1.4895    Y=             -5.5328    Z=             -0.3438  Tot=              5.7401
 Quadrupole moment (field-independent basis, Debye-Ang):
   XX=            -57.6722   YY=            -60.6832   ZZ=            -61.0090
   XY=            -13.9232   XZ=             -1.7020   YZ=             -1.7457
 Traceless Quadrupole moment (field-independent basis, Debye-Ang):
   XX=              2.1159   YY=             -0.8951   ZZ=             -1.2208
   XY=            -13.9232   XZ=             -1.7020   YZ=             -1.7457
 Octapole moment (field-independent basis, Debye-Ang**2):
  XXX=            -22.1280  YYY=             -8.3310  ZZZ=              2.0018  XYY=             -9.5548
  XXY=            -48.4982  XXZ=             -1.8401  XZZ=             13.7125  YZZ=             -0.7970
  YYZ=             -2.0804  XYZ=              1.6566
 Hexadecapole moment (field-independent basis, Debye-Ang**3):
 XXXX=          -3196.6329 YYYY=           -312.0276 ZZZZ=            -93.2889 XXXY=           -131.1065
 XXXZ=            -25.1680 YYYX=            -18.2939 YYYZ=             -3.9910 ZZZX=             -4.0490
 ZZZY=              0.4474 XXYY=           -646.4502 XXZZ=           -566.1464 YYZZ=            -63.4570
 XXYZ=            -16.4673 YYXZ=              2.4360 ZZXY=              0.8871
 N-N= 4.865734408220D+02 E-N=-2.047670061549D+03  KE= 4.573412770436D+02
   1 Symmetry operations used in ECPInt.
 ECPInt:  NShTT=    4656 NPrTT=   16456 LenC2=    4284 LenP2D=   11453.
 LDataN:  DoStor=T MaxTD1= 5 Len=  102
 D1PCM: C-PCM CHGder 1st derivatives, ID1Alg=3 FixD1E=F DoIter=F DoCFld=F I1PDM=0.
 Calling FoFJK, ICntrl=      2127 FMM=F ISym2X=0 I1Cent= 0 IOpClX= 0 NMat=1 NMatS=1 NMatT=0.
 ***** Axes restored to original set *****
 -------------------------------------------------------------------
 Center     Atomic                   Forces (Hartrees/Bohr)
 Number     Number              X              Y              Z
 -------------------------------------------------------------------
      1        6           0.000001076    0.000003663   -0.000017813
      2        1           0.000009925   -0.000004518   -0.000029265
      3        6           0.000009946   -0.000008774   -0.000005473
      4        1          -0.000006622    0.000011294   -0.000030493
      5        6           0.000007212   -0.000004313    0.000005767
      6        1           0.000008760    0.000004288    0.000022841
      7        6          -0.000001563    0.000004936    0.000003701
      8        1           0.000003978    0.000008351    0.000004508
      9        1           0.000002011   -0.000010139   -0.000012990
     10        1           0.000003406   -0.000016369    0.000018933
     11        6          -0.000014158   -0.000000948    0.000008713
     12        1           0.000007288   -0.000015282    0.000022754
     13        6           0.000006747    0.000012229    0.000006836
     14        1          -0.000015711   -0.000029440    0.000015138
     15        1          -0.000013546    0.000001293    0.000024097
     16        6           0.000042081   -0.000063649   -0.000018221
     17        6          -0.000017860    0.000019673    0.000010647
     18        1          -0.000005991   -0.000011061    0.000004615
     19        1           0.000011231    0.000002232   -0.000003099
     20        1          -0.000002143    0.000014824    0.000016738
     21        8          -0.000050547    0.000003743   -0.000014550
     22        8           0.000014480    0.000077968   -0.000033382
 -------------------------------------------------------------------
 Cartesian Forces:  Max     0.000077968 RMS     0.000019775

 GradGradGradGradGradGradGradGradGradGradGradGradGradGradGradGradGradGrad
 Berny optimization.
 FormGI is forming the generalized inverse of G from B-inverse, IUseBI=4.
 Internal  Forces:  Max     0.000071732 RMS     0.000016943
 Search for a local minimum.
 Step number   1 out of a maximum of  100
 All quantities printed in internal units (Hartrees-Bohrs-Radians)
 Mixed Optimization -- En-DIIS/RFO-DIIS
 Second derivative matrix not updated -- first step.
 ITU=  0
     Eigenvalues ---    0.00691   0.00812   0.00821   0.01089   0.01143
     Eigenvalues ---    0.01439   0.01657   0.01707   0.02029   0.02033
     Eigenvalues ---    0.02433   0.02877   0.02903   0.06393   0.07163
     Eigenvalues ---    0.07310   0.07324   0.07504   0.07524   0.11447
     Eigenvalues ---    0.13969   0.15998   0.15999   0.15999   0.15999
     Eigenvalues ---    0.16000   0.16000   0.16000   0.16000   0.16000
     Eigenvalues ---    0.16000   0.22000   0.22000   0.22000   0.22001
     Eigenvalues ---    0.22025   0.25000   0.25000   0.25000   0.31787
     Eigenvalues ---    0.32745   0.32814   0.33333   0.33394   0.33542
     Eigenvalues ---    0.33575   0.33813   0.33845   0.33916   0.34036
     Eigenvalues ---    0.34112   0.34248   0.34406   0.34407   0.35558
     Eigenvalues ---    0.42590   0.56332   0.57119   0.57558   1.04034
 RFO step:  Lambda=-1.06973428D-07 EMin= 6.90552280D-03
 Linear search not attempted -- first point.
 Iteration  1 RMS(Cart)=  0.00047379 RMS(Int)=  0.00000005
 Iteration  2 RMS(Cart)=  0.00000010 RMS(Int)=  0.00000001
 Variable       Old X    -DE/DX   Delta X   Delta X   Delta X     New X
                                 (Linear)    (Quad)   (Total)
    R1        2.07141   0.00001   0.00000   0.00002   0.00002   2.07143
    R2        2.78079  -0.00004   0.00000  -0.00010  -0.00010   2.78069
    R3        2.53296   0.00000   0.00000   0.00000   0.00000   2.53295
    R4        2.06650   0.00001   0.00000   0.00002   0.00002   2.06652
    R5        2.52927  -0.00001   0.00000  -0.00002  -0.00002   2.52925
    R6        2.07269   0.00001   0.00000   0.00003   0.00003   2.07272
    R7        2.82801  -0.00001   0.00000  -0.00003  -0.00003   2.82799
    R8        2.08054   0.00000   0.00000   0.00000   0.00000   2.08054
    R9        2.07592   0.00000   0.00000   0.00000   0.00000   2.07592
   R10        2.08109   0.00000   0.00000   0.00001   0.00001   2.08110
   R11        2.06914   0.00001   0.00000   0.00002   0.00002   2.06916
   R12        2.82679  -0.00003   0.00000  -0.00010  -0.00010   2.82669
   R13        2.08365   0.00001   0.00000   0.00002   0.00002   2.08367
   R14        2.08470   0.00001   0.00000   0.00003   0.00003   2.08473
   R15        2.68179   0.00001   0.00000   0.00003   0.00003   2.68181
   R16        2.84536  -0.00002   0.00000  -0.00006  -0.00006   2.84530
   R17        2.53967   0.00004   0.00000   0.00007   0.00007   2.53974
   R18        2.27065   0.00007   0.00000   0.00007   0.00007   2.27072
   R19        2.07648   0.00001   0.00000   0.00002   0.00002   2.07649
   R20        2.06649   0.00001   0.00000   0.00003   0.00003   2.06652
   R21        2.07473   0.00000   0.00000   0.00001   0.00001   2.07474
    A1        2.02597   0.00001   0.00000   0.00004   0.00004   2.02600
    A2        2.06744   0.00004   0.00000   0.00023   0.00023   2.06767
    A3        2.18960  -0.00006   0.00000  -0.00027  -0.00027   2.18934
    A4        2.04012   0.00001   0.00000   0.00002   0.00002   2.04014
    A5        2.18155  -0.00004   0.00000  -0.00019  -0.00019   2.18136
    A6        2.06140   0.00003   0.00000   0.00018   0.00018   2.06158
    A7        2.07041  -0.00001   0.00000  -0.00006  -0.00006   2.07034
    A8        2.17719   0.00002   0.00000   0.00008   0.00008   2.17727
    A9        2.03551   0.00000   0.00000  -0.00001  -0.00001   2.03550
   A10        1.93791   0.00000   0.00000  -0.00002  -0.00002   1.93789
   A11        1.94395   0.00000   0.00000   0.00000   0.00000   1.94395
   A12        1.93496  -0.00001   0.00000  -0.00006  -0.00006   1.93490
   A13        1.89459   0.00001   0.00000   0.00006   0.00006   1.89465
   A14        1.85863   0.00000   0.00000  -0.00002  -0.00002   1.85861
   A15        1.89098   0.00001   0.00000   0.00004   0.00004   1.89102
   A16        2.10055   0.00002   0.00000   0.00010   0.00010   2.10065
   A17        2.18362  -0.00001   0.00000  -0.00006  -0.00006   2.18356
   A18        1.99894  -0.00001   0.00000  -0.00004  -0.00004   1.99889
   A19        1.91343  -0.00001   0.00000  -0.00009  -0.00009   1.91334
   A20        1.91507  -0.00001   0.00000  -0.00013  -0.00013   1.91494
   A21        1.91469  -0.00003   0.00000  -0.00016  -0.00016   1.91454
   A22        1.87021   0.00000   0.00000   0.00000   0.00000   1.87021
   A23        1.92735   0.00003   0.00000   0.00021   0.00021   1.92756
   A24        1.92263   0.00002   0.00000   0.00017   0.00017   1.92280
   A25        2.05417  -0.00002   0.00000  -0.00007  -0.00007   2.05410
   A26        2.16310   0.00003   0.00000   0.00011   0.00011   2.16320
   A27        2.06590  -0.00001   0.00000  -0.00003  -0.00003   2.06587
   A28        1.92608  -0.00001   0.00000  -0.00008  -0.00008   1.92600
   A29        1.89104   0.00001   0.00000   0.00009   0.00009   1.89113
   A30        1.93768   0.00000   0.00000  -0.00003  -0.00003   1.93766
   A31        1.91196   0.00000   0.00000   0.00001   0.00001   1.91197
   A32        1.87978   0.00000   0.00000  -0.00001  -0.00001   1.87977
   A33        1.91736   0.00000   0.00000   0.00002   0.00002   1.91738
   A34        2.12570   0.00003   0.00000   0.00010   0.00010   2.12580
    D1        0.47766   0.00000   0.00000  -0.00009  -0.00009   0.47757
    D2       -2.64762   0.00000   0.00000  -0.00026  -0.00026  -2.64788
    D3       -2.64311   0.00000   0.00000  -0.00017  -0.00017  -2.64328
    D4        0.51480  -0.00001   0.00000  -0.00034  -0.00034   0.51446
    D5       -3.08371   0.00000   0.00000  -0.00004  -0.00004  -3.08375
    D6        0.04433   0.00000   0.00000   0.00006   0.00006   0.04439
    D7        0.03661   0.00000   0.00000   0.00003   0.00003   0.03664
    D8       -3.11854   0.00000   0.00000   0.00014   0.00014  -3.11840
    D9        0.03784   0.00000   0.00000   0.00016   0.00016   0.03800
   D10       -3.11828   0.00001   0.00000   0.00031   0.00031  -3.11798
   D11       -3.08726   0.00000   0.00000  -0.00001  -0.00001  -3.08727
   D12        0.03981   0.00000   0.00000   0.00013   0.00013   0.03994
   D13       -2.11879   0.00000   0.00000  -0.00019  -0.00019  -2.11898
   D14       -0.00511   0.00000   0.00000  -0.00012  -0.00012  -0.00523
   D15        2.10197   0.00000   0.00000  -0.00011  -0.00011   2.10186
   D16        1.00949   0.00000   0.00000  -0.00009  -0.00009   1.00940
   D17        3.12317   0.00000   0.00000  -0.00002  -0.00002   3.12315
   D18       -1.05293   0.00000   0.00000  -0.00001  -0.00001  -1.05294
   D19       -2.09680  -0.00001   0.00000  -0.00020  -0.00020  -2.09700
   D20        2.13693   0.00000   0.00000  -0.00007  -0.00007   2.13686
   D21        0.02246   0.00000   0.00000  -0.00010  -0.00010   0.02236
   D22        1.03101  -0.00001   0.00000  -0.00006  -0.00006   1.03095
   D23       -1.01844   0.00001   0.00000   0.00007   0.00007  -1.01838
   D24       -3.13292   0.00000   0.00000   0.00004   0.00004  -3.13287
   D25       -3.08488   0.00000   0.00000  -0.00002  -0.00002  -3.08490
   D26       -0.97401  -0.00001   0.00000  -0.00009  -0.00009  -0.97410
   D27        1.08839   0.00002   0.00000   0.00014   0.00014   1.08853
   D28        1.09269   0.00000   0.00000  -0.00003  -0.00003   1.09266
   D29       -3.09720   0.00000   0.00000  -0.00002  -0.00002  -3.09722
   D30       -0.99025   0.00000   0.00000   0.00004   0.00004  -0.99021
   D31       -2.04287   0.00000   0.00000   0.00019   0.00019  -2.04268
   D32        0.05042   0.00000   0.00000   0.00020   0.00020   0.05062
   D33        2.15737   0.00001   0.00000   0.00027   0.00027   2.15764
   D34        0.02769   0.00000   0.00000   0.00011   0.00011   0.02780
   D35       -3.11958   0.00000   0.00000  -0.00010  -0.00010  -3.11968
         Item               Value     Threshold  Converged?
 Maximum Force            0.000072     0.000450     YES
 RMS     Force            0.000017     0.000300     YES
 Maximum Displacement     0.001518     0.001800     YES
 RMS     Displacement     0.000474     0.001200     YES
 Predicted change in Energy=-5.348736D-08
 Optimization completed.
    -- Stationary point found.
                           ----------------------------
                           !   Optimized Parameters   !
                           ! (Angstroms and Degrees)  !
 --------------------------                            --------------------------
 ! Name  Definition              Value          Derivative Info.                !
 --------------------------------------------------------------------------------
 ! R1    R(1,2)                  1.0961         -DE/DX =    0.0                 !
 ! R2    R(1,3)                  1.4715         -DE/DX =    0.0                 !
 ! R3    R(1,5)                  1.3404         -DE/DX =    0.0                 !
 ! R4    R(3,4)                  1.0935         -DE/DX =    0.0                 !
 ! R5    R(3,11)                 1.3384         -DE/DX =    0.0                 !
 ! R6    R(5,6)                  1.0968         -DE/DX =    0.0                 !
 ! R7    R(5,7)                  1.4965         -DE/DX =    0.0                 !
 ! R8    R(7,8)                  1.101          -DE/DX =    0.0                 !
 ! R9    R(7,9)                  1.0985         -DE/DX =    0.0                 !
 ! R10   R(7,10)                 1.1013         -DE/DX =    0.0                 !
 ! R11   R(11,12)                1.0949         -DE/DX =    0.0                 !
 ! R12   R(11,13)                1.4959         -DE/DX =    0.0                 !
 ! R13   R(13,14)                1.1026         -DE/DX =    0.0                 !
 ! R14   R(13,15)                1.1032         -DE/DX =    0.0                 !
 ! R15   R(13,21)                1.4191         -DE/DX =    0.0                 !
 ! R16   R(16,17)                1.5057         -DE/DX =    0.0                 !
 ! R17   R(16,21)                1.3439         -DE/DX =    0.0                 !
 ! R18   R(16,22)                1.2016         -DE/DX =    0.0001              !
 ! R19   R(17,18)                1.0988         -DE/DX =    0.0                 !
 ! R20   R(17,19)                1.0935         -DE/DX =    0.0                 !
 ! R21   R(17,20)                1.0979         -DE/DX =    0.0                 !
 ! A1    A(2,1,3)              116.0794         -DE/DX =    0.0                 !
 ! A2    A(2,1,5)              118.4553         -DE/DX =    0.0                 !
 ! A3    A(3,1,5)              125.455          -DE/DX =   -0.0001              !
 ! A4    A(1,3,4)              116.8902         -DE/DX =    0.0                 !
 ! A5    A(1,3,11)             124.9938         -DE/DX =    0.0                 !
 ! A6    A(4,3,11)             118.1097         -DE/DX =    0.0                 !
 ! A7    A(1,5,6)              118.6255         -DE/DX =    0.0                 !
 ! A8    A(1,5,7)              124.7438         -DE/DX =    0.0                 !
 ! A9    A(6,5,7)              116.6264         -DE/DX =    0.0                 !
 ! A10   A(5,7,8)              111.034          -DE/DX =    0.0                 !
 ! A11   A(5,7,9)              111.3799         -DE/DX =    0.0                 !
 ! A12   A(5,7,10)             110.8652         -DE/DX =    0.0                 !
 ! A13   A(8,7,9)              108.5518         -DE/DX =    0.0                 !
 ! A14   A(8,7,10)             106.4915         -DE/DX =    0.0                 !
 ! A15   A(9,7,10)             108.3451         -DE/DX =    0.0                 !
 ! A16   A(3,11,12)            120.3524         -DE/DX =    0.0                 !
 ! A17   A(3,11,13)            125.1123         -DE/DX =    0.0                 !
 ! A18   A(12,11,13)           114.5306         -DE/DX =    0.0                 !
 ! A19   A(11,13,14)           109.6312         -DE/DX =    0.0                 !
 ! A20   A(11,13,15)           109.7257         -DE/DX =    0.0                 !
 ! A21   A(11,13,21)           109.7039         -DE/DX =    0.0                 !
 ! A22   A(14,13,15)           107.1554         -DE/DX =    0.0                 !
 ! A23   A(14,13,21)           110.429          -DE/DX =    0.0                 !
 ! A24   A(15,13,21)           110.1588         -DE/DX =    0.0                 !
 ! A25   A(17,16,21)           117.6955         -DE/DX =    0.0                 !
 ! A26   A(17,16,22)           123.9363         -DE/DX =    0.0                 !
 ! A27   A(21,16,22)           118.3673         -DE/DX =    0.0                 !
 ! A28   A(16,17,18)           110.3565         -DE/DX =    0.0                 !
 ! A29   A(16,17,19)           108.3488         -DE/DX =    0.0                 !
 ! A30   A(16,17,20)           111.0211         -DE/DX =    0.0                 !
 ! A31   A(18,17,19)           109.5473         -DE/DX =    0.0                 !
 ! A32   A(18,17,20)           107.7034         -DE/DX =    0.0                 !
 ! A33   A(19,17,20)           109.8565         -DE/DX =    0.0                 !
 ! A34   A(13,21,16)           121.7936         -DE/DX =    0.0                 !
 ! D1    D(2,1,3,4)             27.3678         -DE/DX =    0.0                 !
 ! D2    D(2,1,3,11)          -151.6974         -DE/DX =    0.0                 !
 ! D3    D(5,1,3,4)           -151.439          -DE/DX =    0.0                 !
 ! D4    D(5,1,3,11)            29.4958         -DE/DX =    0.0                 !
 ! D5    D(2,1,5,6)           -176.6834         -DE/DX =    0.0                 !
 ! D6    D(2,1,5,7)              2.5398         -DE/DX =    0.0                 !
 ! D7    D(3,1,5,6)              2.0977         -DE/DX =    0.0                 !
 ! D8    D(3,1,5,7)           -178.6792         -DE/DX =    0.0                 !
 ! D9    D(1,3,11,12)            2.1681         -DE/DX =    0.0                 !
 ! D10   D(1,3,11,13)         -178.6645         -DE/DX =    0.0                 !
 ! D11   D(4,3,11,12)         -176.8867         -DE/DX =    0.0                 !
 ! D12   D(4,3,11,13)            2.2808         -DE/DX =    0.0                 !
 ! D13   D(1,5,7,8)           -121.3978         -DE/DX =    0.0                 !
 ! D14   D(1,5,7,9)             -0.2925         -DE/DX =    0.0                 !
 ! D15   D(1,5,7,10)           120.4342         -DE/DX =    0.0                 !
 ! D16   D(6,5,7,8)             57.8394         -DE/DX =    0.0                 !
 ! D17   D(6,5,7,9)            178.9447         -DE/DX =    0.0                 !
 ! D18   D(6,5,7,10)           -60.3286         -DE/DX =    0.0                 !
 ! D19   D(3,11,13,14)        -120.1379         -DE/DX =    0.0                 !
 ! D20   D(3,11,13,15)         122.4372         -DE/DX =    0.0                 !
 ! D21   D(3,11,13,21)           1.2869         -DE/DX =    0.0                 !
 ! D22   D(12,11,13,14)         59.0724         -DE/DX =    0.0                 !
 ! D23   D(12,11,13,15)        -58.3525         -DE/DX =    0.0                 !
 ! D24   D(12,11,13,21)       -179.5028         -DE/DX =    0.0                 !
 ! D25   D(11,13,21,16)       -176.7506         -DE/DX =    0.0                 !
 ! D26   D(14,13,21,16)        -55.8064         -DE/DX =    0.0                 !
 ! D27   D(15,13,21,16)         62.3603         -DE/DX =    0.0                 !
 ! D28   D(21,16,17,18)         62.6067         -DE/DX =    0.0                 !
 ! D29   D(21,16,17,19)       -177.4563         -DE/DX =    0.0                 !
 ! D30   D(21,16,17,20)        -56.7374         -DE/DX =    0.0                 !
 ! D31   D(22,16,17,18)       -117.0479         -DE/DX =    0.0                 !
 ! D32   D(22,16,17,19)          2.889          -DE/DX =    0.0                 !
 ! D33   D(22,16,17,20)        123.608          -DE/DX =    0.0                 !
 ! D34   D(17,16,21,13)          1.5868         -DE/DX =    0.0                 !
 ! D35   D(22,16,21,13)       -178.7389         -DE/DX =    0.0                 !
 --------------------------------------------------------------------------------
 GradGradGradGradGradGradGradGradGradGradGradGradGradGradGradGradGradGrad

                          Input orientation:                          
 ---------------------------------------------------------------------
 Center     Atomic      Atomic             Coordinates (Angstroms)
 Number     Number       Type             X           Y           Z
 ---------------------------------------------------------------------
      1          6           0       -2.590081    0.646093   -0.256496
      2          1           0       -2.922822    1.571355   -0.740961
      3          6           0       -1.134727    0.440696   -0.184656
      4          1           0       -0.508805    1.337276   -0.170447
      5          6           0       -3.518007   -0.185993    0.236668
      6          1           0       -3.187032   -1.085168    0.770484
      7          6           0       -4.995754    0.024838    0.129957
      8          1           0       -5.462270    0.064260    1.126427
      9          1           0       -5.229908    0.956622   -0.402694
     10          1           0       -5.473411   -0.810234   -0.406036
     11          6           0       -0.528491   -0.752169   -0.153880
     12          1           0       -1.116615   -1.673528   -0.217928
     13          6           0        0.948806   -0.964155   -0.052399
     14          1           0        1.304091   -1.523988   -0.933384
     15          1           0        1.176869   -1.576858    0.836184
     16          6           0        2.947236    0.385101    0.072499
     17          6           0        3.742191   -0.890222   -0.020931
     18          1           0        3.560695   -1.383965   -0.985654
     19          1           0        4.803334   -0.641797    0.069031
     20          1           0        3.454982   -1.592364    0.772724
     21          8           0        1.607169    0.289908    0.036160
     22          8           0        3.439562    1.476748    0.171050
 ---------------------------------------------------------------------
                    Distance matrix (angstroms):
                    1          2          3          4          5
     1  C    0.000000
     2  H    1.096144   0.000000
     3  C    1.471531   2.187498   0.000000
     4  H    2.194732   2.491537   1.093543   0.000000
     5  C    1.340382   2.097207   2.500055   3.397262   0.000000
     6  H    2.099596   3.067798   2.729928   3.731821   1.096823
     7  C    2.514471   2.728967   3.896081   4.684597   1.496520
     8  H    3.240444   3.493890   4.537430   5.276293   2.152779
     9  H    2.662046   2.411424   4.133307   4.742114   2.155216
    10  H    3.233704   3.505659   4.520842   5.414297   2.150895
    11  C    2.493155   3.387661   1.338430   2.089603   3.067619
    12  H    2.748314   3.750362   2.114563   3.071910   2.861136
    13  C    3.893363   4.678935   2.516388   2.726747   4.543293
    14  H    4.509102   5.242611   3.220002   3.472103   5.139249
    15  H    4.508367   5.404267   3.233592   3.513827   4.933131
    16  C    5.553218   6.043715   4.090433   3.593032   6.492493
    17  C    6.520232   7.141443   5.057912   4.801569   7.298820
    18  H    6.518041   7.129501   5.100782   4.962917   7.282666
    19  H    7.511805   8.077600   6.041251   5.673879   8.335501
    20  H    6.527846   7.278512   5.110317   5.018363   7.133569
    21  O    4.222490   4.771461   2.754903   2.370024   5.151127
    22  O    6.101588   6.428114   4.703621   3.965561   7.153795
                    6          7          8          9         10
     6  H    0.000000
     7  C    2.216724   0.000000
     8  H    2.573828   1.100974   0.000000
     9  H    3.117466   1.098529   1.785641   0.000000
    10  H    2.585985   1.101267   1.764456   1.783560   0.000000
    11  C    2.834286   4.543208   5.162162   5.008512   4.951685
    12  H    2.368492   4.248905   4.869488   4.885796   4.445485
    13  C    4.218642   6.029026   6.599179   6.479861   6.433788
    14  H    4.823475   6.574010   7.249069   7.009151   6.835355
    15  H    4.392005   6.416032   6.845121   7.000009   6.808601
    16  C    6.346504   7.951363   8.481362   8.210854   8.518516
    17  C    6.976996   8.787024   9.324675   9.168159   9.223992
    18  H    6.978905   8.743119   9.379346   9.115530   9.070843
    19  H    8.033341   9.821926  10.344043  10.170713  10.289098
    20  H    6.661351   8.628061   9.076723   9.127226   9.039768
    21  O    5.041273   6.608907   7.156575   6.883511   7.179169
    22  O    7.129830   8.559456   9.063690   8.703989   9.219783
                   11         12         13         14         15
    11  C    0.000000
    12  H    1.094940   0.000000
    13  C    1.495875   2.190108   0.000000
    14  H    2.135811   2.528647   1.102622   0.000000
    15  H    2.137426   2.525978   1.103176   1.774923   0.000000
    16  C    3.664056   4.564777   2.414501   2.712259   2.750763
    17  C    4.274981   4.925482   2.794540   2.679284   2.790518
    18  H    4.220481   4.748734   2.805204   2.261548   3.006481
    19  H    5.337624   6.016029   3.869890   3.745370   3.822841
    20  H    4.175234   4.678406   2.712267   2.746236   2.279049
    21  O    2.383922   3.367290   1.419140   2.078964   2.076057
    22  O    4.562795   5.552863   3.494539   3.845052   3.858328
                   16         17         18         19         20
    16  C    0.000000
    17  C    1.505700   0.000000
    18  H    2.150724   1.098824   0.000000
    19  H    2.121233   1.093541   1.790901   0.000000
    20  H    2.158353   1.097898   1.773837   1.793548   0.000000
    21  O    1.343935   2.440140   2.768071   3.329358   2.738592
    22  O    1.201578   2.393948   3.088093   2.521610   3.127571
                   21         22
    21  O    0.000000
    22  O    2.187338   0.000000
 Stoichiometry    C8H12O2
 Framework group  C1[X(C8H12O2)]
 Deg. of freedom    60
 Full point group                 C1      NOp   1
 Largest Abelian subgroup         C1      NOp   1
 Largest concise Abelian subgroup C1      NOp   1
                         Standard orientation:                         
 ---------------------------------------------------------------------
 Center     Atomic      Atomic             Coordinates (Angstroms)
 Number     Number       Type             X           Y           Z
 ---------------------------------------------------------------------
      1          6           0       -2.590081    0.646093   -0.256496
      2          1           0       -2.922822    1.571355   -0.740961
      3          6           0       -1.134727    0.440696   -0.184656
      4          1           0       -0.508805    1.337276   -0.170447
      5          6           0       -3.518007   -0.185993    0.236668
      6          1           0       -3.187032   -1.085168    0.770484
      7          6           0       -4.995754    0.024838    0.129957
      8          1           0       -5.462270    0.064260    1.126427
      9          1           0       -5.229908    0.956622   -0.402694
     10          1           0       -5.473411   -0.810234   -0.406036
     11          6           0       -0.528491   -0.752169   -0.153880
     12          1           0       -1.116615   -1.673528   -0.217928
     13          6           0        0.948806   -0.964155   -0.052399
     14          1           0        1.304091   -1.523988   -0.933384
     15          1           0        1.176869   -1.576858    0.836184
     16          6           0        2.947236    0.385101    0.072499
     17          6           0        3.742191   -0.890222   -0.020931
     18          1           0        3.560695   -1.383965   -0.985654
     19          1           0        4.803334   -0.641797    0.069031
     20          1           0        3.454982   -1.592364    0.772724
     21          8           0        1.607169    0.289908    0.036160
     22          8           0        3.439562    1.476748    0.171050
 ---------------------------------------------------------------------
 Rotational constants (GHZ):      4.9915694      0.4112591      0.3851182
 1\1\GINC-D10S1B2\FOpt\RM062X\def2SVP\C8H12O2\CHMKSH\06-Sep-2020\0\\# o
 pt freq scrf=(cpcm,solvent=water) geom=connectivity def2svp m062x empi
 ricaldispersion=gd3\\Title Card Required\\0,1\C,-2.590081,0.646093,-0.
 256496\H,-2.922822,1.571355,-0.740961\C,-1.134727,0.440696,-0.184656\H
 ,-0.508805,1.337276,-0.170447\C,-3.518007,-0.185993,0.236668\H,-3.1870
 32,-1.085168,0.770484\C,-4.995754,0.024838,0.129957\H,-5.46227,0.06426
 ,1.126427\H,-5.229908,0.956622,-0.402694\H,-5.473411,-0.810234,-0.4060
 36\C,-0.528491,-0.752169,-0.15388\H,-1.116615,-1.673528,-0.217928\C,0.
 948806,-0.964155,-0.052399\H,1.304091,-1.523988,-0.933384\H,1.176869,-
 1.576858,0.836184\C,2.947236,0.385101,0.072499\C,3.742191,-0.890222,-0
 .020931\H,3.560695,-1.383965,-0.985654\H,4.803334,-0.641797,0.069031\H
 ,3.454982,-1.592364,0.772724\O,1.607169,0.289908,0.03616\O,3.439562,1.
 476748,0.17105\\Version=ES64L-G09RevD.01\State=1-A\HF=-461.9420375\RMS
 D=9.868e-09\RMSF=1.977e-05\Dipole=-0.5860054,-2.1767633,-0.1352498\Qua
 drupole=1.5731516,-0.6654876,-0.907664,-10.3515688,-1.2653706,-1.29784
 95\PG=C01 [X(C8H12O2)]\\@


 SOME THINGS ARE EASY, THEY ARE ONLY HARD TO DO.
            -- A. EINSTEIN TO J. O. HIRSCHFELDER
 THE ONLY TROUBLE WITH A SURE THING IS THE UNCERTAINTY.
     -- FROM A TEABAG (BELONGING TO W.H.?)
 Job cpu time:       0 days  0 hours  2 minutes 58.1 seconds.
 File lengths (MBytes):  RWF=     51 Int=      0 D2E=      0 Chk=      5 Scr=      1
 Normal termination of Gaussian 09 at Sun Sep  6 03:06:13 2020.
 Link1:  Proceeding to internal job step number  2.
 -------------------------------------------------------------------
 #N Geom=AllCheck Guess=TCheck SCRF=Check GenChk RM062X/def2SVP Freq
 -------------------------------------------------------------------
 1/10=4,29=7,30=1,38=1,40=1/1,3;
 2/12=2,40=1/2;
 3/5=43,7=101,11=2,14=-4,16=1,25=1,30=1,70=2,71=2,72=1,74=-55,116=1,124=31,140=1/1,2,3;
 4/5=101/1;
 5/5=2,53=1,98=1/2;
 8/6=4,10=90,11=11/1;
 11/6=1,8=1,9=11,15=111,16=1/1,2,10;
 10/6=1/2;
 6/7=2,8=2,9=2,10=2,18=1,28=1/1;
 7/8=1,10=1,25=1/1,2,3,16;
 1/10=4,30=1/3;
 99//99;
 Structure from the checkpoint file:  "water_m06-2x_diene_pm6_cpcmtoluene_1_gd3.chk"
 -------------------
 Title Card Required
 -------------------
 Charge =  0 Multiplicity = 1
 Redundant internal coordinates found in file.
 C,0,-2.590081,0.646093,-0.256496
 H,0,-2.922822,1.571355,-0.740961
 C,0,-1.134727,0.440696,-0.184656
 H,0,-0.508805,1.337276,-0.170447
 C,0,-3.518007,-0.185993,0.236668
 H,0,-3.187032,-1.085168,0.770484
 C,0,-4.995754,0.024838,0.129957
 H,0,-5.46227,0.06426,1.126427
 H,0,-5.229908,0.956622,-0.402694
 H,0,-5.473411,-0.810234,-0.406036
 C,0,-0.528491,-0.752169,-0.15388
 H,0,-1.116615,-1.673528,-0.217928
 C,0,0.948806,-0.964155,-0.052399
 H,0,1.304091,-1.523988,-0.933384
 H,0,1.176869,-1.576858,0.836184
 C,0,2.947236,0.385101,0.072499
 C,0,3.742191,-0.890222,-0.020931
 H,0,3.560695,-1.383965,-0.985654
 H,0,4.803334,-0.641797,0.069031
 H,0,3.454982,-1.592364,0.772724
 O,0,1.607169,0.289908,0.03616
 O,0,3.439562,1.476748,0.17105
 Recover connectivity data from disk.

 GradGradGradGradGradGradGradGradGradGradGradGradGradGradGradGradGradGrad
 Berny optimization.
 Initialization pass.
                           ----------------------------
                           !    Initial Parameters    !
                           ! (Angstroms and Degrees)  !
 --------------------------                            --------------------------
 ! Name  Definition              Value          Derivative Info.                !
 --------------------------------------------------------------------------------
 ! R1    R(1,2)                  1.0961         calculate D2E/DX2 analytically  !
 ! R2    R(1,3)                  1.4715         calculate D2E/DX2 analytically  !
 ! R3    R(1,5)                  1.3404         calculate D2E/DX2 analytically  !
 ! R4    R(3,4)                  1.0935         calculate D2E/DX2 analytically  !
 ! R5    R(3,11)                 1.3384         calculate D2E/DX2 analytically  !
 ! R6    R(5,6)                  1.0968         calculate D2E/DX2 analytically  !
 ! R7    R(5,7)                  1.4965         calculate D2E/DX2 analytically  !
 ! R8    R(7,8)                  1.101          calculate D2E/DX2 analytically  !
 ! R9    R(7,9)                  1.0985         calculate D2E/DX2 analytically  !
 ! R10   R(7,10)                 1.1013         calculate D2E/DX2 analytically  !
 ! R11   R(11,12)                1.0949         calculate D2E/DX2 analytically  !
 ! R12   R(11,13)                1.4959         calculate D2E/DX2 analytically  !
 ! R13   R(13,14)                1.1026         calculate D2E/DX2 analytically  !
 ! R14   R(13,15)                1.1032         calculate D2E/DX2 analytically  !
 ! R15   R(13,21)                1.4191         calculate D2E/DX2 analytically  !
 ! R16   R(16,17)                1.5057         calculate D2E/DX2 analytically  !
 ! R17   R(16,21)                1.3439         calculate D2E/DX2 analytically  !
 ! R18   R(16,22)                1.2016         calculate D2E/DX2 analytically  !
 ! R19   R(17,18)                1.0988         calculate D2E/DX2 analytically  !
 ! R20   R(17,19)                1.0935         calculate D2E/DX2 analytically  !
 ! R21   R(17,20)                1.0979         calculate D2E/DX2 analytically  !
 ! A1    A(2,1,3)              116.0794         calculate D2E/DX2 analytically  !
 ! A2    A(2,1,5)              118.4553         calculate D2E/DX2 analytically  !
 ! A3    A(3,1,5)              125.455          calculate D2E/DX2 analytically  !
 ! A4    A(1,3,4)              116.8902         calculate D2E/DX2 analytically  !
 ! A5    A(1,3,11)             124.9938         calculate D2E/DX2 analytically  !
 ! A6    A(4,3,11)             118.1097         calculate D2E/DX2 analytically  !
 ! A7    A(1,5,6)              118.6255         calculate D2E/DX2 analytically  !
 ! A8    A(1,5,7)              124.7438         calculate D2E/DX2 analytically  !
 ! A9    A(6,5,7)              116.6264         calculate D2E/DX2 analytically  !
 ! A10   A(5,7,8)              111.034          calculate D2E/DX2 analytically  !
 ! A11   A(5,7,9)              111.3799         calculate D2E/DX2 analytically  !
 ! A12   A(5,7,10)             110.8652         calculate D2E/DX2 analytically  !
 ! A13   A(8,7,9)              108.5518         calculate D2E/DX2 analytically  !
 ! A14   A(8,7,10)             106.4915         calculate D2E/DX2 analytically  !
 ! A15   A(9,7,10)             108.3451         calculate D2E/DX2 analytically  !
 ! A16   A(3,11,12)            120.3524         calculate D2E/DX2 analytically  !
 ! A17   A(3,11,13)            125.1123         calculate D2E/DX2 analytically  !
 ! A18   A(12,11,13)           114.5306         calculate D2E/DX2 analytically  !
 ! A19   A(11,13,14)           109.6312         calculate D2E/DX2 analytically  !
 ! A20   A(11,13,15)           109.7257         calculate D2E/DX2 analytically  !
 ! A21   A(11,13,21)           109.7039         calculate D2E/DX2 analytically  !
 ! A22   A(14,13,15)           107.1554         calculate D2E/DX2 analytically  !
 ! A23   A(14,13,21)           110.429          calculate D2E/DX2 analytically  !
 ! A24   A(15,13,21)           110.1588         calculate D2E/DX2 analytically  !
 ! A25   A(17,16,21)           117.6955         calculate D2E/DX2 analytically  !
 ! A26   A(17,16,22)           123.9363         calculate D2E/DX2 analytically  !
 ! A27   A(21,16,22)           118.3673         calculate D2E/DX2 analytically  !
 ! A28   A(16,17,18)           110.3565         calculate D2E/DX2 analytically  !
 ! A29   A(16,17,19)           108.3488         calculate D2E/DX2 analytically  !
 ! A30   A(16,17,20)           111.0211         calculate D2E/DX2 analytically  !
 ! A31   A(18,17,19)           109.5473         calculate D2E/DX2 analytically  !
 ! A32   A(18,17,20)           107.7034         calculate D2E/DX2 analytically  !
 ! A33   A(19,17,20)           109.8565         calculate D2E/DX2 analytically  !
 ! A34   A(13,21,16)           121.7936         calculate D2E/DX2 analytically  !
 ! D1    D(2,1,3,4)             27.3678         calculate D2E/DX2 analytically  !
 ! D2    D(2,1,3,11)          -151.6974         calculate D2E/DX2 analytically  !
 ! D3    D(5,1,3,4)           -151.439          calculate D2E/DX2 analytically  !
 ! D4    D(5,1,3,11)            29.4958         calculate D2E/DX2 analytically  !
 ! D5    D(2,1,5,6)           -176.6834         calculate D2E/DX2 analytically  !
 ! D6    D(2,1,5,7)              2.5398         calculate D2E/DX2 analytically  !
 ! D7    D(3,1,5,6)              2.0977         calculate D2E/DX2 analytically  !
 ! D8    D(3,1,5,7)           -178.6792         calculate D2E/DX2 analytically  !
 ! D9    D(1,3,11,12)            2.1681         calculate D2E/DX2 analytically  !
 ! D10   D(1,3,11,13)         -178.6645         calculate D2E/DX2 analytically  !
 ! D11   D(4,3,11,12)         -176.8867         calculate D2E/DX2 analytically  !
 ! D12   D(4,3,11,13)            2.2808         calculate D2E/DX2 analytically  !
 ! D13   D(1,5,7,8)           -121.3978         calculate D2E/DX2 analytically  !
 ! D14   D(1,5,7,9)             -0.2925         calculate D2E/DX2 analytically  !
 ! D15   D(1,5,7,10)           120.4342         calculate D2E/DX2 analytically  !
 ! D16   D(6,5,7,8)             57.8394         calculate D2E/DX2 analytically  !
 ! D17   D(6,5,7,9)            178.9447         calculate D2E/DX2 analytically  !
 ! D18   D(6,5,7,10)           -60.3286         calculate D2E/DX2 analytically  !
 ! D19   D(3,11,13,14)        -120.1379         calculate D2E/DX2 analytically  !
 ! D20   D(3,11,13,15)         122.4372         calculate D2E/DX2 analytically  !
 ! D21   D(3,11,13,21)           1.2869         calculate D2E/DX2 analytically  !
 ! D22   D(12,11,13,14)         59.0724         calculate D2E/DX2 analytically  !
 ! D23   D(12,11,13,15)        -58.3525         calculate D2E/DX2 analytically  !
 ! D24   D(12,11,13,21)       -179.5028         calculate D2E/DX2 analytically  !
 ! D25   D(11,13,21,16)       -176.7506         calculate D2E/DX2 analytically  !
 ! D26   D(14,13,21,16)        -55.8064         calculate D2E/DX2 analytically  !
 ! D27   D(15,13,21,16)         62.3603         calculate D2E/DX2 analytically  !
 ! D28   D(21,16,17,18)         62.6067         calculate D2E/DX2 analytically  !
 ! D29   D(21,16,17,19)       -177.4563         calculate D2E/DX2 analytically  !
 ! D30   D(21,16,17,20)        -56.7374         calculate D2E/DX2 analytically  !
 ! D31   D(22,16,17,18)       -117.0479         calculate D2E/DX2 analytically  !
 ! D32   D(22,16,17,19)          2.889          calculate D2E/DX2 analytically  !
 ! D33   D(22,16,17,20)        123.608          calculate D2E/DX2 analytically  !
 ! D34   D(17,16,21,13)          1.5868         calculate D2E/DX2 analytically  !
 ! D35   D(22,16,21,13)       -178.7389         calculate D2E/DX2 analytically  !
 --------------------------------------------------------------------------------
 Trust Radius=3.00D-01 FncErr=1.00D-07 GrdErr=1.00D-07
 Number of steps in this run=      2 maximum allowed number of steps=      2.
 GradGradGradGradGradGradGradGradGradGradGradGradGradGradGradGradGradGrad

                          Input orientation:                          
 ---------------------------------------------------------------------
 Center     Atomic      Atomic             Coordinates (Angstroms)
 Number     Number       Type             X           Y           Z
 ---------------------------------------------------------------------
      1          6           0       -2.590081    0.646093   -0.256496
      2          1           0       -2.922822    1.571355   -0.740961
      3          6           0       -1.134727    0.440696   -0.184656
      4          1           0       -0.508805    1.337276   -0.170447
      5          6           0       -3.518007   -0.185993    0.236668
      6          1           0       -3.187032   -1.085168    0.770484
      7          6           0       -4.995754    0.024838    0.129957
      8          1           0       -5.462270    0.064260    1.126427
      9          1           0       -5.229908    0.956622   -0.402694
     10          1           0       -5.473411   -0.810234   -0.406036
     11          6           0       -0.528491   -0.752169   -0.153880
     12          1           0       -1.116615   -1.673528   -0.217928
     13          6           0        0.948806   -0.964155   -0.052399
     14          1           0        1.304091   -1.523988   -0.933384
     15          1           0        1.176869   -1.576858    0.836184
     16          6           0        2.947236    0.385101    0.072499
     17          6           0        3.742191   -0.890222   -0.020931
     18          1           0        3.560695   -1.383965   -0.985654
     19          1           0        4.803334   -0.641797    0.069031
     20          1           0        3.454982   -1.592364    0.772724
     21          8           0        1.607169    0.289908    0.036160
     22          8           0        3.439562    1.476748    0.171050
 ---------------------------------------------------------------------
                    Distance matrix (angstroms):
                    1          2          3          4          5
     1  C    0.000000
     2  H    1.096144   0.000000
     3  C    1.471531   2.187498   0.000000
     4  H    2.194732   2.491537   1.093543   0.000000
     5  C    1.340382   2.097207   2.500055   3.397262   0.000000
     6  H    2.099596   3.067798   2.729928   3.731821   1.096823
[...]
 01056,0.00001099,-0.00002556,-0.00000071,-0.12723090,-0.25346977,-0.01
 468326,0.13703733,0.26746052,0.00331775,0.00074607,-0.00772947,-0.0003
 7794,0.00021227,0.00022702,-0.00302618,0.00204953,0.00728054,-0.000337
 64,0.00064895,0.01042647,0.00010474,-0.00180567,0.00040762,0.00058241,
 0.00028498,0.00017569,0.00001710,0.00042910,0.00010315,-0.00002633,-0.
 00003550,0.00000456,-0.00008082,-0.00003530,-0.00004370,0.00011715,0.0
 0000618,-0.00002082,-0.01125063,-0.01619558,-0.04006553,0.01211447,0.0
 1559247,0.02580569,0.00312465,0.00027575,-0.00131140,0.00023606,0.0000
 2041,0.00048704,-0.01771210,0.01075162,-0.00210148,-0.00074761,-0.0022
 3977,0.00031657,-0.00018651,-0.00074367,-0.00004468,-0.00005349,-0.000
 20951,0.00004137,0.00009721,0.00021909,0.00006712,0.00012142,-0.000065
 71,-0.00000908,0.00008793,-0.00006130,0.00004340,0.00019100,-0.0000549
 6,0.00005578,-0.24385591,0.03695769,-0.01094701,-0.00791597,0.00340431
 ,-0.00037933,0.54117506,-0.00174567,-0.00399772,-0.00054118,0.00140732
 ,-0.00023618,0.00015241,0.03087439,0.00007275,0.00180957,0.00006408,-0
 .00103605,0.00026377,0.00004430,-0.00036985,0.00030687,0.00013278,0.00
 012746,-0.00038262,0.00024938,0.00082022,0.00011595,0.00019518,-0.0000
 9737,-0.00002983,-0.00002341,-0.00005156,0.00001843,0.00040688,-0.0000
 8715,0.00008276,0.01970084,-0.09213134,0.00113634,-0.02380266,0.004862
 61,-0.00175266,-0.04029223,0.53413408,-0.00193880,-0.00174438,0.012813
 56,0.00137152,-0.00017209,-0.00024061,0.00002530,0.00124827,0.00694767
 ,0.00027932,-0.00055093,-0.00740878,-0.00055948,0.00112268,-0.00065151
 ,-0.00017522,0.00002471,0.00018615,-0.00010303,-0.00075107,-0.00056547
 ,0.00003610,0.00012313,-0.00001369,0.00001230,0.00007285,0.00003389,-0
 .00028717,0.00001393,0.00001206,-0.01180142,0.00278531,-0.07431164,-0.
 00096125,0.00041521,0.00134200,-0.00775614,-0.00390622,0.58598140,-0.0
 0008859,0.00061412,-0.00203914,-0.00062272,0.00005153,-0.00010663,-0.0
 0240805,-0.00200104,-0.00015027,0.00002897,0.00008504,0.00106269,0.000
 20217,0.00029495,0.00001200,0.00005866,-0.00004175,-0.00003089,-0.0000
 9325,-0.00013687,0.00012556,-0.00011940,0.00002254,0.00001089,-0.00002
 579,0.00002095,-0.00002425,-0.00011749,0.00004032,-0.00004823,-0.01227
 132,0.01801043,0.02453007,0.00057347,-0.00058435,-0.00091448,-0.075749
 92,0.04486550,0.07784884,0.08551078,0.00029989,-0.00013759,0.00037768,
 0.00001446,0.00001097,0.00000402,-0.00014386,0.00139914,-0.00016534,-0
 .00027311,0.00007337,-0.00047892,-0.00013218,0.00001100,0.00000812,-0.
 00003460,-0.00002616,-0.00001583,0.00000044,-0.00005619,-0.00000126,-0
 .00002026,0.00000978,0.00000346,-0.00000115,0.00000912,-0.00000228,-0.
 00003556,0.00000704,-0.00000963,0.00590853,-0.00186558,-0.00361200,0.0
 0029168,0.00010116,0.00030240,0.03766602,-0.10510760,-0.09768927,-0.04
 153693,0.12562137,0.00025867,0.00008768,-0.00050354,-0.00006368,0.0000
 4660,0.00003842,-0.00089337,0.00079219,-0.00036605,-0.00003164,0.00004
 130,0.00023567,-0.00006382,-0.00008856,0.00003366,-0.00000719,-0.00000
 068,0.00001227,0.00001003,0.00002230,0.00000780,0.00000227,-0.00000699
 ,0.00000188,0.00000319,-0.00000346,-0.00000025,0.00000970,-0.00000065,
 -0.00000060,-0.00061900,0.00285256,0.00596731,0.00060207,-0.00027397,0
 .00019539,0.07045570,-0.10306980,-0.22533986,-0.07692417,0.11419928,0.
 23413546,-0.00059449,-0.00021825,0.00275307,-0.00008602,0.00006157,-0.
 00014980,-0.00221321,-0.00150853,-0.00028494,0.00014305,-0.00003572,-0
 .00103353,-0.00008000,0.00062121,-0.00022876,-0.00000156,0.00005637,0.
 00012671,-0.00015025,-0.00045420,-0.00015610,-0.00010164,0.00007388,0.
 00000740,-0.00003295,0.00004744,-0.00001632,-0.00024071,0.00005403,-0.
 00004496,-0.00819238,0.01984522,-0.02572415,0.00048484,-0.00065793,0.0
 0091929,-0.05978165,0.03306145,-0.05244639,0.00329388,-0.00470107,0.00
 939816,0.06776889,0.00064769,-0.00009503,-0.00023782,0.00000355,0.0000
 1767,0.00002554,-0.00044725,0.00171395,0.00005297,-0.00030700,0.000108
 17,0.00031997,-0.00012752,-0.00018527,0.00004883,-0.00001007,0.0000227
 0,0.00002342,0.00000759,-0.00002394,-0.00001867,-0.00000926,0.00000145
 ,0.00000376,-0.00000467,0.00000220,-0.00000425,-0.00002325,0.00000472,
 -0.00000872,0.00542652,-0.00228752,0.00433623,0.00022348,0.00006302,-0
 .00030675,0.02657394,-0.11749015,0.10932847,-0.00238276,0.00928791,-0.
 01152913,-0.02787481,0.13988223,-0.00028723,-0.00005600,-0.00010114,-0
 .00007074,0.00002555,0.00000261,0.00061902,-0.00115083,-0.00035498,-0.
 00000550,-0.00000661,0.00017434,0.00006593,0.00014666,-0.00003367,0.00
 001694,0.00002426,0.00001418,-0.00003033,-0.00004027,-0.00000997,-0.00
 001434,0.00000571,0.00000073,-0.00000798,0.00000450,-0.00000534,-0.000
 02404,0.00001262,-0.00000670,-0.00124379,-0.00036473,0.00229733,-0.000
 50057,0.00019868,0.00026790,-0.04599181,0.11533156,-0.23001193,-0.0063
 2758,0.01286937,-0.01977088,0.05184014,-0.12530227,0.23763781,-0.00064
 567,0.00110887,-0.00056195,0.00063017,-0.00023282,0.00016017,0.0010737
 7,-0.00164957,0.00015238,-0.00160977,0.00167003,0.00000004,0.00053842,
 -0.00064136,0.00010171,-0.00011878,-0.00006299,0.00006823,0.00018393,0
 .00047866,-0.00011415,0.00029854,-0.00009399,-0.00002857,0.00008074,-0
 .00008401,0.00004949,0.00035701,-0.00006288,0.00009278,-0.00022218,0.0
 0503369,0.00034751,0.00293630,0.00001567,0.00022582,-0.03523640,-0.039
 17060,-0.00317945,0.00449605,0.00897432,0.00300691,0.00457908,0.009326
 53,-0.00166313,0.63108071,-0.00019233,0.00071156,-0.00015054,0.0002181
 1,-0.00008462,0.00005162,0.00176509,-0.00059316,0.00019284,-0.00058711
 ,0.00127336,-0.00003390,0.00029230,-0.00027006,0.00007017,-0.00002825,
 -0.00000067,0.00001217,0.00007507,0.00018054,-0.00008380,0.00011708,-0
 .00003395,-0.00000847,0.00002266,-0.00002937,0.00001743,0.00012299,-0.
 00002129,0.00003238,-0.00086652,-0.00447074,-0.00012093,-0.00031000,0.
 00052232,-0.00001725,-0.03818101,-0.00865164,-0.00074886,-0.00021640,0
 .00084479,-0.00057399,-0.00030955,0.00055302,0.00066956,0.16130167,1.0
 1971849,-0.00002532,0.00003693,0.00005293,0.00003474,-0.00000969,0.000
 00182,0.00010414,-0.00013201,0.00004255,-0.00006517,0.00009238,-0.0001
 5466,0.00000556,-0.00002197,0.00000959,-0.00000597,0.00000651,-0.00000
 046,0.00000928,0.00001611,-0.00001589,0.00001431,-0.00000373,-0.000000
 76,0.00000223,-0.00000287,0.00000243,0.00001168,-0.00000257,0.00000426
 ,-0.00032385,-0.00038335,-0.00046728,-0.00006841,0.00002843,0.00061844
 ,-0.00295919,-0.00041469,-0.00980040,-0.00117843,-0.00097257,0.0006229
 6,0.00185708,0.00173757,0.00067745,0.01814074,0.06532340,0.24178553,0.
 00004348,-0.00017741,0.00004613,-0.00010060,0.00003445,-0.00002268,-0.
 00063068,0.00019961,-0.00007918,0.00010760,-0.00034755,0.00002021,-0.0
 0007952,0.00011368,-0.00001650,0.00001977,0.00000657,-0.00001087,-0.00
 003372,-0.00007260,0.00002241,-0.00004482,0.00001379,0.00000304,-0.000
 01065,0.00001154,-0.00000709,-0.00005185,0.00000932,-0.00001360,0.0000
 2442,0.00073762,0.00006002,-0.00019983,-0.00002603,-0.00003452,-0.0042
 2554,0.00529667,0.00011473,-0.00078444,-0.00001426,0.00117480,-0.00021
 394,-0.00007173,-0.00102815,-0.13211790,0.06253895,0.00528947,0.599662
 21,-0.00001198,-0.00003697,-0.00002585,0.00000117,0.00000187,0.0000015
 5,-0.00010337,0.00013607,-0.00000582,-0.00001422,-0.00005964,0.0000150
 0,-0.00000294,0.00000064,-0.00000272,-0.00000023,-0.00000253,-0.000001
 43,-0.00000155,0.00000171,0.00000693,-0.00000136,-0.00000035,-0.000000
 32,0.00000084,-0.00000001,0.00000003,0.00000131,-0.00000033,0.00000018
 ,0.00023505,0.00003564,0.00013226,0.00000670,-0.00000406,-0.00000102,0
 .00041260,-0.00087761,-0.00005009,-0.00049480,0.00049734,0.00035862,-0
 .00060098,0.00046868,-0.00028429,0.05744443,-0.17035231,-0.00506971,0.
 05622621,0.53253542,0.00001084,0.00001171,0.00004233,0.00000703,0.0000
 0207,0.00000167,-0.00007916,0.00003435,-0.00006464,-0.00001628,0.00001
 086,0.00005908,-0.00000931,-0.00000237,0.00000127,-0.00000003,-0.00000
 137,0.00000145,-0.00000062,-0.00000033,-0.00000206,0.00000071,0.000000
 42,-0.00000028,0.00000038,-0.00000012,0.00000034,0.00000070,-0.0000006
 8,0.00000085,0.00017991,0.00011469,-0.00060398,0.00000825,-0.00000526,
 -0.00003733,-0.00021963,-0.00002812,-0.00017415,-0.00051176,-0.0002599
 9,0.00005384,0.00025736,0.00017726,-0.00009808,0.00429518,-0.00389620,
 -0.09865268,0.00750832,-0.00308925,0.55051663,0.00000158,-0.00000062,-
 0.00000187,0.00002047,-0.00000489,0.00000599,0.00008153,-0.00002900,0.
 00000746,0.00001302,0.00000456,-0.00001725,0.00000381,-0.00002613,0.00
 000177,-0.00000197,0.00000092,0.00000173,0.00000657,0.00001536,-0.0000
 0230,0.00000794,-0.00000278,-0.00000079,0.00000198,-0.00000227,0.00000
 130,0.00001023,-0.00000237,0.00000279,-0.00018713,-0.00019307,0.000017
 87,0.00000715,0.00000806,0.00001068,-0.00069505,0.00126324,0.00102536,
 -0.00153008,-0.00019183,-0.00023984,0.00026424,-0.00014604,-0.00011080
 ,0.00518297,0.00263406,0.01985374,-0.05410257,-0.01798919,-0.04203946,
 0.05277866,-0.00000157,0.00000053,-0.00002758,-0.00000190,-0.00000060,
 -0.00000071,-0.00003318,-0.00000052,-0.00000858,-0.00002500,0.00000282
 ,0.00002707,0.00000325,0.00000247,0.00000114,-0.00000051,-0.00000129,-
 0.00000030,-0.00000069,-0.00000057,0.00000203,-0.00000085,0.00000008,0
 .00000003,-0.00000002,0.,-0.00000024,-0.00000050,0.00000049,-0.0000005
 5,-0.00000398,0.00007052,0.00007834,0.00001846,-0.00000062,-0.00001330
 ,-0.00013061,0.00048257,-0.00009242,0.00001271,0.00039506,-0.00000980,
 0.00015911,-0.00001267,0.00020439,-0.00902473,-0.01067870,-0.02661798,
 -0.01898324,-0.09774160,-0.11528994,0.02090415,0.10514209,0.00001170,0
 .00002441,-0.00002326,-0.00002706,0.00000592,-0.00000496,-0.00013196,-
 0.00003215,-0.00000087,0.00000299,0.00000886,0.00000451,-0.00000406,0.
 00001892,-0.00000117,0.00000327,0.,-0.00000140,-0.00000569,-0.00001327
 ,0.00000199,-0.00000741,0.00000220,0.00000087,-0.00000204,0.00000189,-
 0.00000139,-0.00000957,0.00000216,-0.00000272,-0.00002228,0.00033263,0
 .00022845,0.00000249,-0.00001802,-0.00001260,-0.00126927,0.00005182,0.
 00006475,-0.00005307,0.00006836,0.00057861,-0.00005590,-0.00018324,-0.
 00025557,0.00010648,0.00018365,0.00146059,-0.04231162,-0.11233509,-0.2
 6115584,0.04594408,0.12126536,0.27707348,0.00002091,-0.00004160,0.0000
 1230,-0.00001799,0.00000646,-0.00000419,-0.00011645,0.00006926,-0.0000
 1094,0.00002319,-0.00007190,0.00000409,-0.00001804,0.00001893,-0.00000
 375,0.00000328,0.00000092,-0.00000216,-0.00000533,-0.00001363,0.000004
 84,-0.00000871,0.00000256,0.00000070,-0.00000198,0.00000231,-0.0000013
 5,-0.00000993,0.00000168,-0.00000256,0.00013640,-0.00002543,-0.0000082
 3,-0.00005550,0.00000247,-0.00000745,0.00099391,0.00118523,0.00008980,
 0.00009842,-0.00004801,0.00004271,0.00010701,-0.00004615,-0.00003738,-
 0.01633628,-0.00852519,-0.00176634,-0.32085601,-0.06374424,-0.02361795
 ,-0.00099087,0.00056942,0.00078558,0.33978369,0.00000231,0.00006427,0.
 00000467,-0.00000748,-0.00000092,-0.00000035,-0.00006837,-0.00009597,-
 0.00000426,-0.00002709,0.00008255,-0.00000889,0.00001307,-0.00000044,0
 .00000094,0.00000017,0.00000049,0.00000154,-0.00000026,-0.00000271,-0.
 00000610,0.00000155,0.00000014,0.00000018,-0.00000020,-0.00000017,0.00
 000009,-0.00000117,0.00000055,-0.00000006,0.00010514,0.00043851,0.0000
 4708,0.00004936,-0.00001690,0.00000545,-0.00180432,-0.00182020,-0.0002
 1941,-0.00011030,0.00015169,0.00044766,0.00007660,0.00015074,-0.000375
 60,0.02972058,0.00769588,0.00317646,-0.07196397,-0.06189405,-0.0057291
 0,-0.01196799,-0.00305439,0.00112935,0.06867662,0.06478759,0.00000223,
 0.00000852,-0.00006411,-0.00000639,-0.00000087,-0.00000043,0.00001393,
 -0.00002787,0.00001940,-0.00000186,0.00001210,0.00003843,0.00000763,-0
 .00000036,0.00000262,0.00000021,-0.00000193,-0.00000268,0.00000013,0.0
 0000340,0.00000532,-0.00000122,-0.00000016,-0.00000013,-0.00000011,-0.
 00000007,-0.00000017,0.00000091,0.00000011,-0.00000049,-0.00006092,-0.
 00000263,0.00031494,0.00000511,0.00000152,-0.00001647,-0.00004632,-0.0
 0009435,-0.00070623,0.00003996,0.00022969,0.00020388,-0.00012266,-0.00
 015375,0.00022274,0.00285667,0.00035257,-0.00268176,-0.02446021,-0.005
 17736,-0.04791185,-0.02595391,-0.00427489,0.00035605,0.02539390,0.0064
 9860,0.04512352,0.00000762,0.00002065,-0.00002727,0.00001849,-0.000006
 24,0.00000622,0.00003237,-0.00001463,0.00002671,0.00000937,0.00001137,
 0.00000460,0.00000345,-0.00003000,0.00000526,-0.00000218,-0.00000158,-
 0.00000111,0.00000913,0.00002073,0.00000039,0.00000892,-0.00000348,-0.
 00000077,0.00000268,-0.00000275,0.00000176,0.00001325,-0.00000349,0.00
 000355,-0.00015408,-0.00011354,-0.00004606,0.00001534,0.00000486,-0.00
 000787,-0.00182617,0.00167965,-0.00129691,0.00007047,-0.00014319,0.000
 01317,-0.00148463,-0.00012102,0.00027826,0.00741152,0.00682134,-0.0181
 4219,-0.06729464,-0.04544134,0.05494087,0.00024271,0.00350281,-0.00407
 114,-0.00340191,-0.01722398,0.02193796,0.06761399,-0.00000554,-0.00000
 222,0.00005228,-0.00000296,0.00000164,-0.00000286,-0.00008799,0.000011
 43,-0.00000846,-0.00001937,-0.00000682,-0.00003373,-0.00000687,0.00001
 152,-0.00000200,0.00000012,0.00000169,0.00000300,-0.00000318,-0.000009
 87,-0.00000465,-0.00000180,0.00000118,0.00000034,-0.00000068,0.0000008
 2,-0.00000040,-0.00000513,0.00000110,-0.00000085,0.00001469,0.00022534
 ,-0.00021798,0.00001507,-0.00000909,0.00002040,-0.00044854,0.00049714,
 0.00040233,0.00026527,-0.00004999,-0.00015373,0.00016597,0.00047504,-0
 .00013879,-0.01207251,-0.01484926,0.02114455,-0.04576691,-0.15705237,0
 .13519224,0.00397258,0.01029132,-0.01123321,0.00045582,-0.00326299,0.0
 0304358,0.04973002,0.16788708,-0.00001068,-0.00002380,-0.00002979,0.00
 001955,-0.00000591,0.00000449,0.00014659,0.00001775,0.00001968,0.00000
 214,-0.00001208,0.00000503,0.00000970,-0.00001844,0.00000143,-0.000002
 57,-0.00000119,-0.00000065,0.00000553,0.00001482,0.00000191,0.00000616
 ,-0.00000232,-0.00000072,0.00000181,-0.00000188,0.00000106,0.00000953,
 -0.00000181,0.00000220,-0.00000723,-0.00037727,0.00011010,-0.00000681,
 0.00002159,-0.00000414,0.00131231,0.00004621,0.00028647,0.00002939,0.0
 0021167,-0.00056845,-0.00012025,-0.00000106,0.00041611,-0.00182998,-0.
 00389915,0.00417769,0.05422176,0.13313475,-0.19020799,0.00692908,0.018
 13512,-0.01703423,-0.00111945,-0.00418515,0.00339220,-0.05931652,-0.14
 187348,0.20156738,0.00057582,-0.00261357,0.00065530,-0.00051989,0.0002
 4069,-0.00017753,-0.00007150,0.00201897,-0.00022276,-0.00212202,-0.002
 08190,-0.00023437,-0.00086203,0.00074977,-0.00005976,0.00018127,0.0001
 3175,-0.00027955,-0.00015579,-0.00036550,0.00024253,-0.00037151,0.0001
 0656,0.00002655,-0.00012618,0.00010335,-0.00006090,-0.00036459,0.00005
 435,-0.00010422,-0.02651459,-0.05085197,-0.00364560,-0.00869780,0.0026
 0671,-0.00085461,-0.09955082,-0.04817606,-0.00090460,0.00090308,-0.003
 36451,-0.00531101,-0.00197231,-0.00804457,0.00404781,-0.27961390,0.055
 28950,0.00012616,-0.03393387,0.00195311,-0.00087440,-0.00120867,0.0000
 4571,0.00050398,-0.00256884,0.00596932,0.00045741,-0.00112855,0.000237
 31,-0.00062328,0.53662888,0.00041739,0.00084405,0.00011522,-0.00023137
 ,0.00003416,-0.00005120,0.00276970,-0.00230254,0.00035871,0.00229677,0
 .00124404,0.00023406,0.00006321,0.00005563,0.00006635,0.00002505,0.000
 04209,-0.00004161,-0.00002213,-0.00009123,-0.00006585,-0.00004277,0.00
 002549,0.00000827,-0.00003086,0.00001935,-0.00000983,-0.00008863,0.000
 02199,-0.00002247,-0.00892761,-0.00225577,-0.00076349,0.00048844,0.000
 79331,-0.00003879,-0.03686790,-0.22170093,-0.01018001,-0.01568315,-0.0
 2952462,-0.00290136,-0.01665123,-0.03097061,-0.00174775,0.00733663,-0.
 11653513,-0.00418969,0.02645676,0.00826838,0.00004807,-0.00110255,-0.0
 0020601,-0.00082119,0.00293886,-0.00500764,-0.00072426,-0.00178413,0.0
 0029334,0.00081949,0.12490349,0.41468278,-0.00010796,-0.00013733,0.000
 17826,-0.00007454,0.00002334,-0.00001635,0.00019244,0.00011923,0.00004
 262,-0.00025110,-0.00021229,-0.00083881,-0.00008969,0.00008120,-0.0000
 1341,0.00000697,0.00000372,-0.00003749,-0.00000545,-0.00001695,-0.0000
 0805,-0.00000674,0.00000033,0.00000296,-0.00000304,0.00000381,-0.00000
 161,-0.00001458,0.00000073,-0.00000054,-0.00215219,-0.00303854,0.00209
 987,-0.00043858,0.00017070,0.00123100,-0.00000582,-0.00977797,-0.06500
 428,-0.01574359,-0.02564059,0.00466178,0.01397811,0.02269464,0.0092719
 8,-0.00308546,-0.00308437,-0.05372832,0.00151192,-0.00061251,0.0189457
 1,-0.00302213,0.00270678,-0.00032374,0.00014642,-0.00074086,0.00210168
 ,0.00253310,-0.00240413,-0.00043408,0.01531174,0.02443972,0.06741759,0
 .00019099,-0.00028322,0.00019208,-0.00021892,0.00007884,-0.00005459,-0
 .00017543,0.00040939,-0.00003282,0.00047552,-0.00034803,0.00001658,-0.
 00016021,0.00021519,-0.00002716,0.00004357,0.00002770,-0.00003327,-0.0
 0005979,-0.00015950,0.00003063,-0.00010114,0.00003255,0.00001013,-0.00
 003073,0.00002926,-0.00001711,-0.00012389,0.00002211,-0.00003230,0.000
 13186,-0.00377646,-0.00014608,-0.00139505,0.00029474,-0.00011164,0.001
 50990,0.01278374,0.00060659,-0.00142489,-0.00251482,-0.00082367,-0.001
 49525,-0.00259320,0.00047527,-0.19294833,-0.24198245,-0.02091426,0.014
 82308,0.01212478,0.00015906,0.00009350,0.00299114,0.00061050,0.0032210
 2,-0.00143960,-0.00006245,-0.00016716,0.00356463,0.00034321,-0.0785062
 0,-0.08626396,-0.00867983,0.25631754,0.00019532,-0.00035168,0.00019387
 ,-0.00023726,0.00008388,-0.00005852,-0.00053756,0.00034912,-0.00006063
 ,0.00038978,-0.00054772,-0.00000100,-0.00018941,0.00024191,-0.00003405
 ,0.00004304,0.00002310,-0.00003178,-0.00006690,-0.00017455,0.00003990,
 -0.00010971,0.00003458,0.00001034,-0.00003162,0.00003116,-0.00001806,-
 0.00013183,0.00002412,-0.00003425,0.00038815,-0.00254267,-0.00009508,-
 0.00110143,0.00012896,-0.00009599,0.00481812,0.01265852,0.00056784,-0.
 00109504,-0.00165201,-0.00023607,-0.00121058,-0.00168632,-0.00002569,-
 0.21931564,-0.70492906,-0.05374151,-0.01422145,-0.05392391,-0.00728895
 ,0.00285581,-0.00469098,0.00154064,-0.00141439,0.00178396,0.00030842,0
 .00309794,-0.00445602,-0.00199785,-0.07891252,-0.01773012,-0.00457864,
 0.30678718,0.77732574,0.00002397,-0.00003716,0.00002244,-0.00002267,0.
 00000839,-0.00000407,-0.00005603,0.00008002,-0.00001717,0.00005298,-0.
 00005769,-0.00002962,-0.00001817,0.00002097,-0.00000345,0.00000445,0.0
 0000211,-0.00000057,-0.00000707,-0.00001750,0.00000339,-0.00001075,0.0
 0000334,0.00000103,-0.00000296,0.00000283,-0.00000188,-0.00001273,0.00
 000251,-0.00000341,0.00004452,-0.00018596,0.00033430,-0.00008519,0.000
 01395,-0.00015540,0.00026186,0.00068173,0.00656060,0.00039307,0.000573
 63,-0.00019931,-0.00075358,-0.00100300,-0.00033491,-0.01914142,-0.0542
 8832,-0.08395402,-0.00198840,-0.00699383,0.02928571,-0.00241352,0.0039
 1605,-0.00095155,0.00010139,-0.00004226,-0.00039646,0.00315799,-0.0037
 8444,-0.00170573,-0.00801889,-0.00453240,0.01445323,0.02849112,0.06563
 705,0.03709685\\-0.00000106,-0.00000361,0.00001778,-0.00000993,0.00000
 451,0.00002927,-0.00000990,0.00000878,0.00000548,0.00000661,-0.0000113
 1,0.00003050,-0.00000723,0.00000431,-0.00000576,-0.00000875,-0.0000043
 3,-0.00002282,0.00000151,-0.00000493,-0.00000371,-0.00000397,-0.000008
 35,-0.00000451,-0.00000201,0.00001014,0.00001299,-0.00000340,0.0000163
 7,-0.00001893,0.00001418,0.00000098,-0.00000871,-0.00000731,0.00001526
 ,-0.00002275,-0.00000672,-0.00001223,-0.00000683,0.00001570,0.00002946
 ,-0.00001511,0.00001354,-0.00000127,-0.00002413,-0.00004198,0.00006372
 ,0.00001823,0.00001781,-0.00001968,-0.00001065,0.00000600,0.00001107,-
 0.00000459,-0.00001124,-0.00000223,0.00000310,0.00000215,-0.00001481,-
 0.00001676,0.00005051,-0.00000382,0.00001455,-0.00001452,-0.00007803,0
 .00003338\\\@


 NOTHING PUZZLES ME MORE THAN TIME AND SPACE; AND YET NOTHING TROUBLES ME LESS
                                                          -- CHARLES LAMB (1810)
 Job cpu time:       0 days  0 hours 17 minutes 58.1 seconds.
 File lengths (MBytes):  RWF=    133 Int=      0 D2E=      0 Chk=     11 Scr=      1
 Normal termination of Gaussian 09 at Sun Sep  6 03:10:44 2020.
