 Entering Gaussian System, Link 0=g09
 Input=diene_ma_freq.com
 Output=diene_ma_freq.log
 Initial command:
 /apps/applications/gaussian/G09.D01/2/default/g09/l1.exe "/nobackup/pmmass/Temp/Gau-210052.inp" -scrdir="/nobackup/pmmass/Temp/"
 Entering Link 1 = /apps/applications/gaussian/G09.D01/2/default/g09/l1.exe PID=    210053.
  
 Copyright (c) 1988,1990,1992,1993,1995,1998,2003,2009,2013,
            Gaussian, Inc.  All Rights Reserved.
  
 This is part of the Gaussian(R) 09 program.  It is based on
 the Gaussian(R) 03 system (copyright 2003, Gaussian, Inc.),
 the Gaussian(R) 98 system (copyright 1998, Gaussian, Inc.),
 the Gaussian(R) 94 system (copyright 1995, Gaussian, Inc.),
 the Gaussian 92(TM) system (copyright 1992, Gaussian, Inc.),
 the Gaussian 90(TM) system (copyright 1990, Gaussian, Inc.),
 the Gaussian 88(TM) system (copyright 1988, Gaussian, Inc.),
 the Gaussian 86(TM) system (copyright 1986, Carnegie Mellon
 University), and the Gaussian 82(TM) system (copyright 1983,
 Carnegie Mellon University). Gaussian is a federally registered
 trademark of Gaussian, Inc.
  
 This software contains proprietary and confidential information,
 including trade secrets, belonging to Gaussian, Inc.
  
 This software is provided under written license and may be
 used, copied, transmitted, or stored only in accord with that
 written license.
  
 The following legend is applicable only to US Government
 contracts under FAR:
  
                    RESTRICTED RIGHTS LEGEND
  
 Use, reproduction and disclosure by the US Government is
 subject to restrictions as set forth in subparagraphs (a)
 and (c) of the Commercial Computer Software - Restricted
 Rights clause in FAR 52.227-19.
  
 Gaussian, Inc.
 340 Quinnipiac St., Bldg. 40, Wallingford CT 06492
  
  
 ---------------------------------------------------------------
 Warning -- This program may not be used in any manner that
 competes with the business of Gaussian, Inc. or will provide
 assistance to any competitor of Gaussian, Inc.  The licensee
 of this program is prohibited from giving any competitor of
 Gaussian, Inc. access to this program.  By using this program,
 the user acknowledges that Gaussian, Inc. is engaged in the
 business of creating and licensing software in the field of
 computational chemistry and represents and warrants to the
 licensee that it is not a competitor of Gaussian, Inc. and that
 it will not use this program in any manner prohibited above.
 ---------------------------------------------------------------
  

 Cite this work as:
 Gaussian 09, Revision D.01,
 M. J. Frisch, G. W. Trucks, H. B. Schlegel, G. E. Scuseria, 
 M. A. Robb, J. R. Cheeseman, G. Scalmani, V. Barone, B. Mennucci, 
 G. A. Petersson, H. Nakatsuji, M. Caricato, X. Li, H. P. Hratchian, 
 A. F. Izmaylov, J. Bloino, G. Zheng, J. L. Sonnenberg, M. Hada, 
 M. Ehara, K. Toyota, R. Fukuda, J. Hasegawa, M. Ishida, T. Nakajima, 
 Y. Honda, O. Kitao, H. Nakai, T. Vreven, J. A. Montgomery, Jr., 
 J. E. Peralta, F. Ogliaro, M. Bearpark, J. J. Heyd, E. Brothers, 
 K. N. Kudin, V. N. Staroverov, T. Keith, R. Kobayashi, J. Normand, 
 K. Raghavachari, A. Rendell, J. C. Burant, S. S. Iyengar, J. Tomasi, 
 M. Cossi, N. Rega, J. M. Millam, M. Klene, J. E. Knox, J. B. Cross, 
 V. Bakken, C. Adamo, J. Jaramillo, R. Gomperts, R. E. Stratmann, 
 O. Yazyev, A. J. Austin, R. Cammi, C. Pomelli, J. W. Ochterski, 
 R. L. Martin, K. Morokuma, V. G. Zakrzewski, G. A. Voth, 
 P. Salvador, J. J. Dannenberg, S. Dapprich, A. D. Daniels, 
 O. Farkas, J. B. Foresman, J. V. Ortiz, J. Cioslowski, 
 and D. J. Fox, Gaussian, Inc., Wallingford CT, 2013.
 
 ******************************************
 Gaussian 09:  ES64L-G09RevD.01 24-Apr-2013
                 9-Feb-2022 
 ******************************************
 %nprocshared=8
 Will use up to    8 processors via shared memory.
 %mem=4GB
 %NoSave
 %chk="diene_ma_freq.chk"
 --------------------------------------------
 #n wB97XD/Gen scrf(smd,solvent=toluene) freq
 --------------------------------------------
 1/10=4,30=1,38=1/1,3;
 2/12=2,17=6,18=5,40=1/2;
 3/5=7,11=2,16=1,25=1,30=1,70=32201,71=2,72=13,74=-58,140=1/1,2,3;
 4//1;
 5/5=2,38=5,53=13,98=1/2;
 8/6=4,10=90,11=11/1;
 11/6=1,8=1,9=11,15=111,16=1/1,2,10;
 10/6=1/2;
 6/7=2,8=2,9=2,10=2,18=1,28=1/1;
 7/8=1,10=1,25=1/1,2,3,16;
 1/10=4,30=1/3;
 99//99;
 --------------------------------
 diene diels-alder toluene - freq
 --------------------------------
 Symbolic Z-matrix:
 Charge =  0 Multiplicity = 1
 C                    -2.60148   0.61788  -0.29358 
 H                    -2.94362   1.49326  -0.8409 
 C                    -1.14876   0.43525  -0.22562 
 H                    -0.54966   1.33953  -0.19478 
 C                    -3.50715  -0.16875   0.28221 
 H                    -3.16536  -1.01002   0.88098 
 C                    -4.98423   0.02085   0.19132 
 H                    -5.42635   0.14244   1.18429 
 H                    -5.24237   0.8951   -0.40837 
 H                    -5.46163  -0.85458  -0.25857 
 C                    -0.52906  -0.73978  -0.22076 
 H                    -1.09956  -1.66048  -0.30608 
 C                     0.94383  -0.95216  -0.11928 
 H                     1.29882  -1.49008  -1.00452 
 H                     1.16037  -1.575     0.75551 
 C                     2.9477    0.38222   0.08913 
 C                     3.74105  -0.89448   0.06146 
 H                     3.59302  -1.41966  -0.88399 
 H                     4.79389  -0.65317   0.17534 
 H                     3.4361   -1.56602   0.86558 
 O                     1.61026   0.29864  -0.00632 
 O                     3.44411   1.47042   0.1871 
 

 GradGradGradGradGradGradGradGradGradGradGradGradGradGradGradGradGradGrad
 Berny optimization.
 Initialization pass.
 Trust Radius=3.00D-01 FncErr=1.00D-07 GrdErr=1.00D-07
 Number of steps in this run=      2 maximum allowed number of steps=      2.
 GradGradGradGradGradGradGradGradGradGradGradGradGradGradGradGradGradGrad

                          Input orientation:                          
 ---------------------------------------------------------------------
 Center     Atomic      Atomic             Coordinates (Angstroms)
 Number     Number       Type             X           Y           Z
 ---------------------------------------------------------------------
      1          6           0       -2.601480    0.617880   -0.293580
      2          1           0       -2.943620    1.493260   -0.840900
      3          6           0       -1.148760    0.435250   -0.225620
      4          1           0       -0.549660    1.339530   -0.194780
      5          6           0       -3.507150   -0.168750    0.282210
      6          1           0       -3.165360   -1.010020    0.880980
      7          6           0       -4.984230    0.020850    0.191320
      8          1           0       -5.426350    0.142440    1.184290
      9          1           0       -5.242370    0.895100   -0.408370
     10          1           0       -5.461630   -0.854580   -0.258570
     11          6           0       -0.529060   -0.739780   -0.220760
     12          1           0       -1.099560   -1.660480   -0.306080
     13          6           0        0.943830   -0.952160   -0.119280
     14          1           0        1.298820   -1.490080   -1.004520
     15          1           0        1.160370   -1.575000    0.755510
     16          6           0        2.947700    0.382220    0.089130
     17          6           0        3.741050   -0.894480    0.061460
     18          1           0        3.593020   -1.419660   -0.883990
     19          1           0        4.793890   -0.653170    0.175340
     20          1           0        3.436100   -1.566020    0.865580
     21          8           0        1.610260    0.298640   -0.006320
     22          8           0        3.444110    1.470420    0.187100
 ---------------------------------------------------------------------
                    Distance matrix (angstroms):
                    1          2          3          4          5
     1  C    0.000000
     2  H    1.087616   0.000000
     3  C    1.465731   2.172436   0.000000
     4  H    2.177270   2.484381   1.085170   0.000000
     5  C    1.330624   2.083559   2.486908   3.353979   0.000000
     6  H    2.085092   3.046383   2.716624   3.676892   1.087695
     7  C    2.503811   2.719845   3.880257   4.642564   1.491970
     8  H    3.223357   3.477076   4.513464   5.207395   2.143342
     9  H    2.657880   2.414359   4.123409   4.718545   2.149341
    10  H    3.217114   3.491681   4.501732   5.380115   2.140747
    11  C    2.478602   3.346811   1.328438   2.079574   3.073772
    12  H    2.728891   3.692244   2.097851   3.052022   2.892721
    13  C    3.881318   4.648987   2.512996   2.736431   4.537196
    14  H    4.490130   5.188968   3.210020   3.475522   5.147712
    15  H    4.478932   5.367074   3.214934   3.510233   4.897683
    16  C    5.567351   6.066879   4.108876   3.637111   6.481199
    17  C    6.530006   7.155443   5.075514   4.844239   7.287786
    18  H    6.547670   7.156439   5.134065   5.024932   7.303233
    19  H    7.518441   8.093761   6.054793   5.715013   8.315849
    20  H    6.524220   7.278193   5.120229   5.045083   7.106434
    21  O    4.233578   4.781366   2.771091   2.405041   5.146804
    22  O    6.124299   6.469961   4.726137   4.014120   7.142544
                    6          7          8          9         10
     6  H    0.000000
     7  C    2.201502   0.000000
     8  H    2.555824   1.093729   0.000000
     9  H    3.099335   1.091136   1.771133   0.000000
    10  H    2.568188   1.093933   1.754177   1.769716   0.000000
    11  C    2.870007   4.538382   5.170680   4.992326   4.934051
    12  H    2.469765   4.262035   4.918621   4.868709   4.436145
    13  C    4.229576   6.015407   6.593682   6.462586   6.407717
    14  H    4.869751   6.571884   7.258369   6.987964   6.831104
    15  H    4.364274   6.373473   6.820435   6.960682   6.737822
    16  C    6.319404   7.940815   8.448762   8.221180   8.506903
    17  C    6.955822   8.774121   9.293932   9.171978   9.208329
    18  H    6.997044   8.763594   9.384401   9.145952   9.093797
    19  H    7.998433   9.801336  10.300693  10.171744  10.266671
    20  H    6.624851   8.595042   9.031248   9.110209   8.996636
    21  O    5.030551   6.603297   7.138335   6.890279   7.169740
    22  O    7.093599   8.552087   9.024576   8.725853   9.215012
                   11         12         13         14         15
    11  C    0.000000
    12  H    1.086480   0.000000
    13  C    1.491579   2.170727   0.000000
    14  H    2.125647   2.503813   1.095000   0.000000
    15  H    2.122468   2.498312   1.095480   1.767508   0.000000
    16  C    3.666439   4.550728   2.416506   2.724038   2.733006
    17  C    4.282221   4.914605   2.803646   2.730483   2.757666
    18  H    4.230089   4.734161   2.796703   2.298443   2.937665
    19  H    5.338370   5.998266   3.872875   3.782592   3.793262
    20  H    4.193483   4.685501   2.749215   2.840952   2.278408
    21  O    2.387675   3.357251   1.421756   2.071936   2.072031
    22  O    4.564802   5.539919   3.494877   3.845359   3.848784
                   16         17         18         19         20
    16  C    0.000000
    17  C    1.503374   0.000000
    18  H    2.147131   1.091606   0.000000
    19  H    2.118462   1.086127   1.775324   0.000000
    20  H    2.153381   1.091132   1.762680   1.775759   0.000000
    21  O    1.343444   2.443030   2.766622   3.327829   2.751519
    22  O    1.200083   2.386778   3.085769   2.516283   3.111329
                   21         22
    21  O    0.000000
    22  O    2.184831   0.000000
 Stoichiometry    C8H12O2
 Framework group  C1[X(C8H12O2)]
 Deg. of freedom    60
 Full point group                 C1      NOp   1
 Largest Abelian subgroup         C1      NOp   1
 Largest concise Abelian subgroup C1      NOp   1
                         Standard orientation:                         
 ---------------------------------------------------------------------
 Center     Atomic      Atomic             Coordinates (Angstroms)
 Number     Number       Type             X           Y           Z
 ---------------------------------------------------------------------
      1          6           0       -2.601480    0.617880   -0.293580
      2          1           0       -2.943620    1.493260   -0.840900
      3          6           0       -1.148760    0.435250   -0.225620
      4          1           0       -0.549660    1.339530   -0.194780
      5          6           0       -3.507150   -0.168750    0.282210
      6          1           0       -3.165360   -1.010020    0.880980
      7          6           0       -4.984230    0.020850    0.191320
      8          1           0       -5.426350    0.142440    1.184290
      9          1           0       -5.242370    0.895100   -0.408370
     10          1           0       -5.461630   -0.854580   -0.258570
     11          6           0       -0.529060   -0.739780   -0.220760
     12          1           0       -1.099560   -1.660480   -0.306080
     13          6           0        0.943830   -0.952160   -0.119280
     14          1           0        1.298820   -1.490080   -1.004520
     15          1           0        1.160370   -1.575000    0.755510
     16          6           0        2.947700    0.382220    0.089130
     17          6           0        3.741050   -0.894480    0.061460
     18          1           0        3.593020   -1.419660   -0.883990
     19          1           0        4.793890   -0.653170    0.175340
     20          1           0        3.436100   -1.566020    0.865580
     21          8           0        1.610260    0.298640   -0.006320
     22          8           0        3.444110    1.470420    0.187100
 ---------------------------------------------------------------------
 Rotational constants (GHZ):      4.9799691      0.4109852      0.3859722
 General basis read from cards:  (5D, 7F)
 There are   472 symmetry adapted cartesian basis functions of A   symmetry.
 There are   422 symmetry adapted basis functions of A   symmetry.
   422 basis functions,   646 primitive gaussians,   472 cartesian basis functions
    38 alpha electrons       38 beta electrons
       nuclear repulsion energy       487.3613615545 Hartrees.
 NAtoms=   22 NActive=   22 NUniq=   22 SFac= 1.00D+00 NAtFMM=   60 NAOKFM=F Big=F
 Integral buffers will be    131072 words long.
 Raffenetti 2 integral format.
 Two-electron integral symmetry is turned on.
 Nuclear repulsion after empirical dispersion term =      487.3507131615 Hartrees.
 Force inversion solution in PCM.
 ------------------------------------------------------------------------------
 Polarizable Continuum Model (PCM)
 =================================
 Model                : PCM (using non-symmetric T matrix).
 Atomic radii         : SMD-Coulomb.
 Polarization charges : Total charges.
 Charge compensation  : None.
 Solution method      : Matrix inversion.
 Cavity type          : VdW (van der Waals Surface) (Alpha=1.000).
 Cavity algorithm     : GePol (No added spheres)
                        Default sphere list used, NSphG=   22.
                        Lebedev-Laikov grids with approx.  5.0 points / Ang**2.
                        Smoothing algorithm: Karplus/York (Gamma=1.0000).
                        Polarization charges: spherical gaussians, with
                                              point-specific exponents (IZeta= 3).
                        Self-potential: point-specific (ISelfS= 7).
                        Self-field    : sphere-specific E.n sum rule (ISelfD= 2).
 1st derivatives      : Analytical E(r).r(x)/FMM algorithm (CHGder, D1EAlg=3).
                        Cavity 1st derivative terms included.
 2nd derivatives      : Analytical E(r).r(xy)/FMM algorithm (CHGder, D2EAlg=3).
                        Cavity 2nd derivative terms included.
 Solvent              : Toluene, Eps=   2.374100 Eps(inf)=   2.238315
 ------------------------------------------------------------------------------
 ------------------------------------------------------------------------------
 Atomic radii for non-electrostatic terms: SMD-CDS.
 ------------------------------------------------------------------------------
 Nuclear repulsion after PCM non-electrostatic terms =      487.3442875557 Hartrees.
 One-electron integrals computed using PRISM.
 NBasis=   422 RedAO= T EigKep=  2.11D-06  NBF=   422
 NBsUse=   422 1.00D-06 EigRej= -1.00D+00 NBFU=   422
 ExpMin= 3.17D-02 ExpMax= 2.70D+04 ExpMxC= 9.22D+02 IAcc=3 IRadAn=         5 AccDes= 0.00D+00
 Harris functional with IExCor= 4639 and IRadAn=       5 diagonalized for initial guess.
 HarFok:  IExCor= 4639 AccDes= 0.00D+00 IRadAn=         5 IDoV= 1 UseB2=F ITyADJ=14
 ICtDFT=  3500011 ScaDFX=  1.000000  1.000000  1.000000  1.000000
 FoFCou: FMM=F IPFlag=           0 FMFlag=      100000 FMFlg1=           0
         NFxFlg=           0 DoJE=T BraDBF=F KetDBF=T FulRan=T
         wScrn=  0.000000 ICntrl=     500 IOpCl=  0 I1Cent=   200000004 NGrid=           0
         NMat0=    1 NMatS0=      1 NMatT0=    0 NMatD0=    1 NMtDS0=    0 NMtDT0=    0
 Petite list used in FoFCou.
 Requested convergence on RMS density matrix=1.00D-08 within 128 cycles.
 Requested convergence on MAX density matrix=1.00D-06.
 Requested convergence on             energy=1.00D-06.
 No special actions if energy rises.
 Inv3:  Mode=1 IEnd=     9980928.
 Iteration    1 A*A^-1 deviation from unit magnitude is 4.22D-15 for   1813.
 Iteration    1 A*A^-1 deviation from orthogonality  is 3.25D-15 for    968    813.
 Iteration    1 A^-1*A deviation from unit magnitude is 4.00D-15 for   1824.
 Iteration    1 A^-1*A deviation from orthogonality  is 3.93D-15 for    973    969.
 Error on total polarization charges =  0.02423
 SCF Done:  E(RwB97XD) =  -462.531095371     A.U. after   14 cycles
            NFock= 14  Conv=0.38D-08     -V/T= 2.0048
 SMD-CDS (non-electrostatic) energy       (kcal/mol) =      -4.03
 (included in total energy above)
 DoSCS=F DFT=T ScalE2(SS,OS)=  1.000000  1.000000
 Range of M.O.s used for correlation:     1   422
 NBasis=   422 NAE=    38 NBE=    38 NFC=     0 NFV=     0
 NROrb=    422 NOA=    38 NOB=    38 NVA=   384 NVB=   384

 **** Warning!!: The largest alpha MO coefficient is  0.17115260D+03

 Symmetrizing basis deriv contribution to polar:
 IMax=3 JMax=2 DiffMx= 0.00D+00
 G2DrvN: will do    23 centers at a time, making    1 passes.
 Calling FoFCou, ICntrl=  3107 FMM=F I1Cent=   0 AccDes= 0.00D+00.
 NEqPCM:  Using equilibrium solvation (IEInf=0, Eps=   2.3741, EpsInf=   2.2383)
 G2PCM: DoFxE=T DoFxN=T DoGrad=T DoDP/DQ/DG/TGxP=FFFF NFrqRd=   0 IEInf=0 SqF1=F DoCFld=F IF1Alg=4.
 End of G2Drv F.D. properties file   721 does not exist.
 End of G2Drv F.D. properties file   722 does not exist.
 End of G2Drv F.D. properties file   788 does not exist.
          IDoAtm=1111111111111111111111
 NEqPCM:  Using equilibrium solvation (IEInf=0, Eps=   2.3741, EpsInf=   2.2383)
          Differentiating once with respect to electric field.
                with respect to dipole field.
          Differentiating once with respect to nuclear coordinates.
          There are    69 degrees of freedom in the 1st order CPHF.  IDoFFX=6 NUNeed=     3.
     66 vectors produced by pass  0 Test12= 2.11D-14 1.45D-09 XBig12= 5.45D+01 4.35D+00.
 AX will form    66 AO Fock derivatives at one time.
     66 vectors produced by pass  1 Test12= 2.11D-14 1.45D-09 XBig12= 4.44D+00 2.44D-01.
     66 vectors produced by pass  2 Test12= 2.11D-14 1.45D-09 XBig12= 1.54D-01 6.76D-02.
     66 vectors produced by pass  3 Test12= 2.11D-14 1.45D-09 XBig12= 1.87D-03 6.88D-03.
     66 vectors produced by pass  4 Test12= 2.11D-14 1.45D-09 XBig12= 1.74D-05 3.98D-04.
     66 vectors produced by pass  5 Test12= 2.11D-14 1.45D-09 XBig12= 1.16D-07 3.40D-05.
     65 vectors produced by pass  6 Test12= 2.11D-14 1.45D-09 XBig12= 7.78D-10 3.11D-06.
     20 vectors produced by pass  7 Test12= 2.11D-14 1.45D-09 XBig12= 5.25D-12 2.04D-07.
      7 vectors produced by pass  8 Test12= 2.11D-14 1.45D-09 XBig12= 1.77D-13 6.93D-08.
      7 vectors produced by pass  9 Test12= 2.11D-14 1.45D-09 XBig12= 1.26D-14 2.03D-08.
      6 vectors produced by pass 10 Test12= 2.11D-14 1.45D-09 XBig12= 7.08D-16 3.62D-09.
      5 vectors produced by pass 11 Test12= 2.11D-14 1.45D-09 XBig12= 6.95D-16 4.46D-09.
      5 vectors produced by pass 12 Test12= 2.11D-14 1.45D-09 XBig12= 1.81D-15 6.78D-09.
      5 vectors produced by pass 13 Test12= 2.11D-14 1.45D-09 XBig12= 9.54D-15 1.42D-08.
      5 vectors produced by pass 14 Test12= 2.11D-14 1.45D-09 XBig12= 1.50D-15 6.39D-09.
      5 vectors produced by pass 15 Test12= 2.11D-14 1.45D-09 XBig12= 3.25D-15 8.27D-09.
      5 vectors produced by pass 16 Test12= 2.11D-14 1.45D-09 XBig12= 6.25D-15 1.32D-08.
      5 vectors produced by pass 17 Test12= 2.11D-14 1.45D-09 XBig12= 3.95D-15 8.85D-09.
      5 vectors produced by pass 18 Test12= 2.11D-14 1.45D-09 XBig12= 4.37D-15 1.15D-08.
      5 vectors produced by pass 19 Test12= 2.11D-14 1.45D-09 XBig12= 3.98D-15 8.42D-09.
      5 vectors produced by pass 20 Test12= 2.11D-14 1.45D-09 XBig12= 2.08D-15 5.08D-09.
      5 vectors produced by pass 21 Test12= 2.11D-14 1.45D-09 XBig12= 2.43D-15 7.62D-09.
      5 vectors produced by pass 22 Test12= 2.11D-14 1.45D-09 XBig12= 3.01D-15 5.93D-09.
      5 vectors produced by pass 23 Test12= 2.11D-14 1.45D-09 XBig12= 1.11D-15 4.69D-09.
      5 vectors produced by pass 24 Test12= 2.11D-14 1.45D-09 XBig12= 1.30D-15 4.60D-09.
      5 vectors produced by pass 25 Test12= 2.11D-14 1.45D-09 XBig12= 2.23D-15 6.36D-09.
      5 vectors produced by pass 26 Test12= 2.11D-14 1.45D-09 XBig12= 1.40D-15 5.19D-09.
      5 vectors produced by pass 27 Test12= 2.11D-14 1.45D-09 XBig12= 1.03D-15 3.92D-09.
      5 vectors produced by pass 28 Test12= 2.11D-14 1.45D-09 XBig12= 2.21D-15 5.59D-09.
      5 vectors produced by pass 29 Test12= 2.11D-14 1.45D-09 XBig12= 1.78D-15 4.24D-09.
      5 vectors produced by pass 30 Test12= 2.11D-14 1.45D-09 XBig12= 2.38D-15 5.34D-09.
      5 vectors produced by pass 31 Test12= 2.11D-14 1.45D-09 XBig12= 9.13D-16 3.75D-09.
      4 vectors produced by pass 32 Test12= 2.11D-14 1.45D-09 XBig12= 1.68D-15 4.59D-09.
      4 vectors produced by pass 33 Test12= 2.11D-14 1.45D-09 XBig12= 1.28D-15 3.72D-09.
      4 vectors produced by pass 34 Test12= 2.11D-14 1.45D-09 XBig12= 7.34D-16 3.95D-09.
      4 vectors produced by pass 35 Test12= 2.11D-14 1.45D-09 XBig12= 1.14D-15 3.40D-09.
      4 vectors produced by pass 36 Test12= 2.11D-14 1.45D-09 XBig12= 9.21D-16 3.98D-09.
      4 vectors produced by pass 37 Test12= 2.11D-14 1.45D-09 XBig12= 1.69D-15 4.92D-09.
      3 vectors produced by pass 38 Test12= 2.11D-14 1.45D-09 XBig12= 4.47D-16 1.76D-09.
      1 vectors produced by pass 39 Test12= 2.11D-14 1.45D-09 XBig12= 1.40D-16 1.45D-09.
 InvSVY:  IOpt=1 It=  1 EMax= 7.11D-15
 Solved reduced A of dimension   634 with    69 vectors.
 Isotropic polarizability for W=    0.000000      123.83 Bohr**3.
 End of Minotr F.D. properties file   721 does not exist.
 End of Minotr F.D. properties file   722 does not exist.
 End of Minotr F.D. properties file   788 does not exist.

 **********************************************************************

            Population analysis using the SCF density.

 **********************************************************************

 Orbital symmetries:
       Occupied  (A) (A) (A) (A) (A) (A) (A) (A) (A) (A) (A) (A)
                 (A) (A) (A) (A) (A) (A) (A) (A) (A) (A) (A) (A)
                 (A) (A) (A) (A) (A) (A) (A) (A) (A) (A) (A) (A)
                 (A) (A)
       Virtual   (A) (A) (A) (A) (A) (A) (A) (A) (A) (A) (A) (A)
                 (A) (A) (A) (A) (A) (A) (A) (A) (A) (A) (A) (A)
                 (A) (A) (A) (A) (A) (A) (A) (A) (A) (A) (A) (A)
                 (A) (A) (A) (A) (A) (A) (A) (A) (A) (A) (A) (A)
                 (A) (A) (A) (A) (A) (A) (A) (A) (A) (A) (A) (A)
                 (A) (A) (A) (A) (A) (A) (A) (A) (A) (A) (A) (A)
                 (A) (A) (A) (A) (A) (A) (A) (A) (A) (A) (A) (A)
                 (A) (A) (A) (A) (A) (A) (A) (A) (A) (A) (A) (A)
                 (A) (A) (A) (A) (A) (A) (A) (A) (A) (A) (A) (A)
                 (A) (A) (A) (A) (A) (A) (A) (A) (A) (A) (A) (A)
                 (A) (A) (A) (A) (A) (A) (A) (A) (A) (A) (A) (A)
                 (A) (A) (A) (A) (A) (A) (A) (A) (A) (A) (A) (A)
                 (A) (A) (A) (A) (A) (A) (A) (A) (A) (A) (A) (A)
                 (A) (A) (A) (A) (A) (A) (A) (A) (A) (A) (A) (A)
                 (A) (A) (A) (A) (A) (A) (A) (A) (A) (A) (A) (A)
                 (A) (A) (A) (A) (A) (A) (A) (A) (A) (A) (A) (A)
                 (A) (A) (A) (A) (A) (A) (A) (A) (A) (A) (A) (A)
                 (A) (A) (A) (A) (A) (A) (A) (A) (A) (A) (A) (A)
                 (A) (A) (A) (A) (A) (A) (A) (A) (A) (A) (A) (A)
                 (A) (A) (A) (A) (A) (A) (A) (A) (A) (A) (A) (A)
                 (A) (A) (A) (A) (A) (A) (A) (A) (A) (A) (A) (A)
                 (A) (A) (A) (A) (A) (A) (A) (A) (A) (A) (A) (A)
                 (A) (A) (A) (A) (A) (A) (A) (A) (A) (A) (A) (A)
                 (A) (A) (A) (A) (A) (A) (A) (A) (A) (A) (A) (A)
                 (A) (A) (A) (A) (A) (A) (A) (A) (A) (A) (A) (A)
                 (A) (A) (A) (A) (A) (A) (A) (A) (A) (A) (A) (A)
                 (A) (A) (A) (A) (A) (A) (A) (A) (A) (A) (A) (A)
                 (A) (A) (A) (A) (A) (A) (A) (A) (A) (A) (A) (A)
                 (A) (A) (A) (A) (A) (A) (A) (A) (A) (A) (A) (A)
                 (A) (A) (A) (A) (A) (A) (A) (A) (A) (A) (A) (A)
                 (A) (A) (A) (A) (A) (A) (A) (A) (A) (A) (A) (A)
                 (A) (A) (A) (A) (A) (A) (A) (A) (A) (A) (A) (A)
 The electronic state is 1-A.
 Alpha  occ. eigenvalues --  -19.29530 -19.22833 -10.41622 -10.35171 -10.29348
 Alpha  occ. eigenvalues --  -10.28885 -10.28466 -10.28417 -10.27979 -10.27406
 Alpha  occ. eigenvalues --   -1.21027  -1.12370  -0.92074  -0.88202  -0.85016
 Alpha  occ. eigenvalues --   -0.82300  -0.75947  -0.69831  -0.66447  -0.61396
 Alpha  occ. eigenvalues --   -0.59447  -0.59229  -0.57672  -0.54902  -0.52507
 Alpha  occ. eigenvalues --   -0.52312  -0.49943  -0.49555  -0.49044  -0.47353
 Alpha  occ. eigenvalues --   -0.47250  -0.43881  -0.43423  -0.42380  -0.39202
 Alpha  occ. eigenvalues --   -0.37708  -0.35969  -0.30360
 Alpha virt. eigenvalues --    0.04359   0.04692   0.05066   0.06237   0.07110
 Alpha virt. eigenvalues --    0.07172   0.07689   0.08026   0.08539   0.08973
 Alpha virt. eigenvalues --    0.09515   0.09886   0.10010   0.10736   0.11114
 Alpha virt. eigenvalues --    0.11388   0.11704   0.12429   0.13166   0.13566
 Alpha virt. eigenvalues --    0.14172   0.14662   0.14793   0.15504   0.15901
 Alpha virt. eigenvalues --    0.16668   0.17067   0.17135   0.17739   0.18167
 Alpha virt. eigenvalues --    0.18983   0.19690   0.20134   0.21576   0.22087
 Alpha virt. eigenvalues --    0.22269   0.23211   0.24045   0.24372   0.24750
 Alpha virt. eigenvalues --    0.25367   0.25685   0.25882   0.26271   0.26578
 Alpha virt. eigenvalues --    0.27161   0.27563   0.28562   0.28852   0.29696
 Alpha virt. eigenvalues --    0.30350   0.31149   0.31634   0.32324   0.32890
 Alpha virt. eigenvalues --    0.33269   0.35129   0.36045   0.37884   0.38511
 Alpha virt. eigenvalues --    0.38751   0.39171   0.39925   0.40310   0.41266
 Alpha virt. eigenvalues --    0.41955   0.42523   0.43680   0.44806   0.45262
 Alpha virt. eigenvalues --    0.46321   0.47400   0.48076   0.48292   0.49191
 Alpha virt. eigenvalues --    0.49588   0.50082   0.50570   0.51975   0.52237
 Alpha virt. eigenvalues --    0.53563   0.54453   0.55716   0.56456   0.56810
 Alpha virt. eigenvalues --    0.57645   0.58879   0.59009   0.59524   0.59812
 Alpha virt. eigenvalues --    0.60509   0.60826   0.62009   0.63114   0.64589
 Alpha virt. eigenvalues --    0.65169   0.65622   0.66056   0.67591   0.68497
 Alpha virt. eigenvalues --    0.69343   0.70612   0.71534   0.73460   0.75814
 Alpha virt. eigenvalues --    0.77066   0.77668   0.78533   0.79236   0.80366
 Alpha virt. eigenvalues --    0.81655   0.82033   0.83525   0.84381   0.85794
 Alpha virt. eigenvalues --    0.86777   0.87734   0.88875   0.90512   0.91465
 Alpha virt. eigenvalues --    0.92351   0.96353   0.99078   0.99498   1.01187
 Alpha virt. eigenvalues --    1.03264   1.07080   1.09511   1.11352   1.12092
 Alpha virt. eigenvalues --    1.13137   1.14514   1.14865   1.16307   1.17055
 Alpha virt. eigenvalues --    1.18377   1.20342   1.22240   1.23293   1.25958
 Alpha virt. eigenvalues --    1.26691   1.27396   1.29126   1.29225   1.31171
 Alpha virt. eigenvalues --    1.32917   1.34418   1.38003   1.38635   1.39811
 Alpha virt. eigenvalues --    1.44474   1.46402   1.48044   1.51845   1.55770
 Alpha virt. eigenvalues --    1.56778   1.59209   1.60648   1.61273   1.61918
 Alpha virt. eigenvalues --    1.62818   1.63888   1.64303   1.65312   1.66158
 Alpha virt. eigenvalues --    1.66572   1.66903   1.67713   1.68695   1.69593
 Alpha virt. eigenvalues --    1.71488   1.72923   1.74199   1.74821   1.75427
 Alpha virt. eigenvalues --    1.77139   1.79034   1.81815   1.83781   1.85216
 Alpha virt. eigenvalues --    1.86417   1.88411   1.91746   1.93820   1.95269
 Alpha virt. eigenvalues --    1.96598   1.98633   2.00155   2.01195   2.02271
 Alpha virt. eigenvalues --    2.03886   2.06218   2.07659   2.08928   2.11816
 Alpha virt. eigenvalues --    2.14144   2.16703   2.18479   2.19366   2.22510
 Alpha virt. eigenvalues --    2.24628   2.27920   2.29107   2.31877   2.32217
 Alpha virt. eigenvalues --    2.34735   2.36026   2.38836   2.39202   2.40253
 Alpha virt. eigenvalues --    2.43103   2.43526   2.44411   2.45776   2.46235
 Alpha virt. eigenvalues --    2.47167   2.47997   2.50025   2.51425   2.53471
 Alpha virt. eigenvalues --    2.54080   2.56118   2.58040   2.61071   2.62915
 Alpha virt. eigenvalues --    2.63400   2.65547   2.66629   2.67543   2.68462
 Alpha virt. eigenvalues --    2.69880   2.70656   2.71561   2.72246   2.75833
 Alpha virt. eigenvalues --    2.77676   2.78994   2.82107   2.82718   2.83862
 Alpha virt. eigenvalues --    2.84709   2.85540   2.89956   2.91408   2.93115
 Alpha virt. eigenvalues --    2.93851   2.96147   2.97796   2.99315   3.00357
 Alpha virt. eigenvalues --    3.02178   3.02576   3.03919   3.04658   3.05572
 Alpha virt. eigenvalues --    3.09048   3.09315   3.12479   3.13924   3.14715
 Alpha virt. eigenvalues --    3.17008   3.17731   3.18950   3.19797   3.20845
 Alpha virt. eigenvalues --    3.20999   3.22227   3.22539   3.23310   3.24938
 Alpha virt. eigenvalues --    3.26059   3.27393   3.28941   3.29415   3.29716
 Alpha virt. eigenvalues --    3.30705   3.33502   3.34040   3.35316   3.36266
 Alpha virt. eigenvalues --    3.36712   3.37869   3.39205   3.40079   3.42880
 Alpha virt. eigenvalues --    3.43806   3.44822   3.48176   3.50061   3.51103
 Alpha virt. eigenvalues --    3.52839   3.55051   3.55283   3.57051   3.58322
 Alpha virt. eigenvalues --    3.63367   3.65521   3.66181   3.67485   3.69536
 Alpha virt. eigenvalues --    3.70624   3.72514   3.75024   3.77471   3.79702
 Alpha virt. eigenvalues --    3.80552   3.83791   3.84674   3.88142   3.89137
 Alpha virt. eigenvalues --    3.91181   3.94910   3.98785   3.99082   3.99970
 Alpha virt. eigenvalues --    4.07134   4.09032   4.11161   4.14969   4.16677
 Alpha virt. eigenvalues --    4.21743   4.25229   4.28874   4.34095   4.38105
 Alpha virt. eigenvalues --    4.44186   4.45102   4.46336   4.47843   4.48753
 Alpha virt. eigenvalues --    4.50253   4.54276   4.57427   4.58572   4.60879
 Alpha virt. eigenvalues --    4.66159   4.67392   4.73480   4.76096   4.78205
 Alpha virt. eigenvalues --    4.81874   4.83492   4.88427   4.92472   4.97706
 Alpha virt. eigenvalues --    5.07629   5.12714   5.21257   5.27336   5.27643
 Alpha virt. eigenvalues --    5.31126   5.33779   5.36422   5.52723   5.57002
 Alpha virt. eigenvalues --    5.72919   5.94416   6.00074   6.00721   6.16299
 Alpha virt. eigenvalues --    6.30354   6.38793   6.47122   6.55565   6.60652
 Alpha virt. eigenvalues --    6.74850   6.93050   6.93272   6.97914   6.98611
 Alpha virt. eigenvalues --    7.19042   7.23262   7.35569   7.54267  22.46345
 Alpha virt. eigenvalues --   22.48982  22.49872  22.53653  22.65957  22.95584
 Alpha virt. eigenvalues --   23.03948  23.49401  44.12547  44.43559
          Condensed to atoms (all electrons):
               1          2          3          4          5          6
     1  C    5.732484   0.424117  -0.340539   0.000074   0.182488   0.008498
     2  H    0.424117   0.500737  -0.072844  -0.002264   0.003188   0.003454
     3  C   -0.340539  -0.072844   5.750530   0.352202   0.119029  -0.037198
     4  H    0.000074  -0.002264   0.352202   0.467734   0.005651  -0.000035
     5  C    0.182488   0.003188   0.119029   0.005651   5.613386   0.384216
     6  H    0.008498   0.003454  -0.037198  -0.000035   0.384216   0.506072
     7  C    0.017845  -0.005156   0.020892  -0.001087   0.055916  -0.018504
     8  H   -0.026586   0.000227   0.006602   0.000000  -0.053676  -0.002244
     9  H    0.094066   0.002428  -0.017328  -0.000036  -0.140221   0.002893
    10  H   -0.059031  -0.000272   0.018478   0.000016   0.022145  -0.001849
    11  C    0.228156   0.000906   0.107653   0.022278  -0.057483   0.025061
    12  H    0.011644   0.000118  -0.011729   0.003110   0.006922  -0.000319
    13  C   -0.183984  -0.005157   0.343871  -0.018539   0.019808  -0.018729
    14  H    0.003581   0.000018  -0.007602   0.000166   0.001902   0.000010
    15  H    0.003272   0.000003  -0.004207  -0.000444  -0.002939  -0.000013
    16  C    0.014711  -0.000114  -0.043937  -0.000659  -0.001634   0.000030
    17  C    0.002315  -0.000033  -0.007170   0.000204   0.002671  -0.000090
    18  H    0.000371   0.000000  -0.000132  -0.000007  -0.000217   0.000000
    19  H   -0.000115   0.000000  -0.000100   0.000003  -0.000027   0.000000
    20  H   -0.000112   0.000000   0.001140  -0.000004   0.000400   0.000000
    21  O    0.012384  -0.000234   0.011661  -0.013578  -0.001924  -0.000218
    22  O    0.002585  -0.000003  -0.016895  -0.000057  -0.000155  -0.000001
               7          8          9         10         11         12
     1  C    0.017845  -0.026586   0.094066  -0.059031   0.228156   0.011644
     2  H   -0.005156   0.000227   0.002428  -0.000272   0.000906   0.000118
     3  C    0.020892   0.006602  -0.017328   0.018478   0.107653  -0.011729
     4  H   -0.001087   0.000000  -0.000036   0.000016   0.022278   0.003110
     5  C    0.055916  -0.053676  -0.140221   0.022145  -0.057483   0.006922
     6  H   -0.018504  -0.002244   0.002893  -0.001849   0.025061  -0.000319
     7  C    5.015201   0.447738   0.438700   0.395007   0.013026  -0.003573
     8  H    0.447738   0.542423  -0.022319  -0.034347   0.001332   0.000027
     9  H    0.438700  -0.022319   0.528411  -0.021877   0.000237  -0.000001
    10  H    0.395007  -0.034347  -0.021877   0.542693  -0.003699  -0.000058
    11  C    0.013026   0.001332   0.000237  -0.003699   5.941377   0.428153
    12  H   -0.003573   0.000027  -0.000001  -0.000058   0.428153   0.485177
    13  C   -0.007568  -0.001819   0.000068   0.001842  -0.342535  -0.079422
    14  H   -0.000319   0.000000   0.000000  -0.000001  -0.028779  -0.002070
    15  H    0.000413  -0.000001   0.000000   0.000001  -0.034098  -0.002655
    16  C   -0.000404  -0.000011  -0.000001   0.000002   0.053004  -0.000100
    17  C   -0.000237   0.000003  -0.000005  -0.000001   0.009863  -0.001416
    18  H   -0.000015   0.000000   0.000000   0.000000  -0.002929  -0.000022
    19  H    0.000001   0.000000   0.000000   0.000000   0.001496   0.000000
    20  H    0.000007   0.000000   0.000000   0.000000  -0.002944  -0.000026
    21  O   -0.000427   0.000002   0.000003  -0.000002  -0.124761   0.001263
    22  O    0.000042   0.000000   0.000000   0.000000   0.034303   0.000070
              13         14         15         16         17         18
     1  C   -0.183984   0.003581   0.003272   0.014711   0.002315   0.000371
     2  H   -0.005157   0.000018   0.000003  -0.000114  -0.000033   0.000000
     3  C    0.343871  -0.007602  -0.004207  -0.043937  -0.007170  -0.000132
     4  H   -0.018539   0.000166  -0.000444  -0.000659   0.000204  -0.000007
     5  C    0.019808   0.001902  -0.002939  -0.001634   0.002671  -0.000217
     6  H   -0.018729   0.000010  -0.000013   0.000030  -0.000090   0.000000
     7  C   -0.007568  -0.000319   0.000413  -0.000404  -0.000237  -0.000015
     8  H   -0.001819   0.000000  -0.000001  -0.000011   0.000003   0.000000
     9  H    0.000068   0.000000   0.000000  -0.000001  -0.000005   0.000000
    10  H    0.001842  -0.000001   0.000001   0.000002  -0.000001   0.000000
    11  C   -0.342535  -0.028779  -0.034098   0.053004   0.009863  -0.002929
    12  H   -0.079422  -0.002070  -0.002655  -0.000100  -0.001416  -0.000022
    13  C    5.328057   0.418137   0.428238  -0.070597  -0.033485  -0.012718
    14  H    0.418137   0.569414  -0.052899  -0.008805   0.006317   0.000346
    15  H    0.428238  -0.052899   0.569165  -0.006045  -0.001740  -0.001256
    16  C   -0.070597  -0.008805  -0.006045   5.073364   0.091391  -0.051620
    17  C   -0.033485   0.006317  -0.001740   0.091391   5.210763   0.438890
    18  H   -0.012718   0.000346  -0.001256  -0.051620   0.438890   0.496573
    19  H    0.009782   0.000162   0.000043  -0.040486   0.408691  -0.011871
    20  H   -0.009896  -0.002727   0.000862  -0.051418   0.433432  -0.033153
    21  O    0.267831  -0.042527  -0.042122   0.143978  -0.032992   0.009949
    22  O   -0.015036   0.000762   0.000906   0.430499  -0.046807  -0.002509
              19         20         21         22
     1  C   -0.000115  -0.000112   0.012384   0.002585
     2  H    0.000000   0.000000  -0.000234  -0.000003
     3  C   -0.000100   0.001140   0.011661  -0.016895
     4  H    0.000003  -0.000004  -0.013578  -0.000057
     5  C   -0.000027   0.000400  -0.001924  -0.000155
     6  H    0.000000   0.000000  -0.000218  -0.000001
     7  C    0.000001   0.000007  -0.000427   0.000042
     8  H    0.000000   0.000000   0.000002   0.000000
     9  H    0.000000   0.000000   0.000003   0.000000
    10  H    0.000000   0.000000  -0.000002   0.000000
    11  C    0.001496  -0.002944  -0.124761   0.034303
    12  H    0.000000  -0.000026   0.001263   0.000070
    13  C    0.009782  -0.009896   0.267831  -0.015036
    14  H    0.000162  -0.002727  -0.042527   0.000762
    15  H    0.000043   0.000862  -0.042122   0.000906
    16  C   -0.040486  -0.051418   0.143978   0.430499
    17  C    0.408691   0.433432  -0.032992  -0.046807
    18  H   -0.011871  -0.033153   0.009949  -0.002509
    19  H    0.463639  -0.013399   0.002261  -0.000452
    20  H   -0.013399   0.506815   0.007988  -0.001130
    21  O    0.002261   0.007988   8.192868  -0.092681
    22  O   -0.000452  -0.001130  -0.092681   8.154693
 Mulliken charges:
               1
     1  C   -0.128224
     2  H    0.150881
     3  C   -0.172380
     4  H    0.185273
     5  C   -0.159447
     6  H    0.148966
     7  C   -0.367498
     8  H    0.142649
     9  H    0.134980
    10  H    0.140952
    11  C   -0.269617
    12  H    0.164905
    13  C   -0.018149
    14  H    0.144911
    15  H    0.145515
    16  C    0.468851
    17  C   -0.480564
    18  H    0.170317
    19  H    0.180371
    20  H    0.164166
    21  O   -0.298723
    22  O   -0.448135
 Sum of Mulliken charges =   0.00000
 Mulliken charges with hydrogens summed into heavy atoms:
               1
     1  C    0.022657
     3  C    0.012892
     5  C   -0.010481
     7  C    0.051084
    11  C   -0.104713
    13  C    0.272278
    16  C    0.468851
    17  C    0.034290
    21  O   -0.298723
    22  O   -0.448135
 APT charges:
               1
     1  C   -0.047295
     2  H    0.014593
     3  C    0.015394
     4  H    0.061913
     5  C    0.038422
     6  H    0.017383
     7  C    0.035077
     8  H   -0.021424
     9  H   -0.013375
    10  H   -0.027118
    11  C   -0.050170
    12  H    0.029275
    13  C    0.559467
    14  H   -0.050191
    15  H   -0.058820
    16  C    1.504926
    17  C   -0.137561
    18  H    0.044527
    19  H    0.041679
    20  H    0.047582
    21  O   -1.065474
    22  O   -0.938808
 Sum of APT charges =   0.00000
 APT charges with hydrogens summed into heavy atoms:
               1
     1  C   -0.032702
     3  C    0.077306
     5  C    0.055805
     7  C   -0.026841
    11  C   -0.020895
    13  C    0.450456
    16  C    1.504926
    17  C   -0.003774
    21  O   -1.065474
    22  O   -0.938808
 Electronic spatial extent (au):  <R**2>=           2818.4753
 Charge=              0.0000 electrons
 Dipole moment (field-independent basis, Debye):
    X=             -1.5935    Y=             -4.9949    Z=             -0.2645  Tot=              5.2496
 Quadrupole moment (field-independent basis, Debye-Ang):
   XX=            -59.0700   YY=            -61.5414   ZZ=            -61.0401
   XY=            -13.7856   XZ=             -1.4818   YZ=             -1.8590
 Traceless Quadrupole moment (field-independent basis, Debye-Ang):
   XX=              1.4805   YY=             -0.9909   ZZ=             -0.4896
   XY=            -13.7856   XZ=             -1.4818   YZ=             -1.8590
 Octapole moment (field-independent basis, Debye-Ang**2):
  XXX=            -19.1276  YYY=             -7.6072  ZZZ=              2.3343  XYY=            -10.7727
  XXY=            -46.1543  XXZ=             -1.1533  XZZ=             12.2391  YZZ=             -0.9227
  YYZ=             -2.5012  XYZ=              1.8737
 Hexadecapole moment (field-independent basis, Debye-Ang**3):
 XXXX=          -3256.9984 YYYY=           -319.3951 ZZZZ=           -103.7107 XXXY=           -142.2373
 XXXZ=            -21.6570 YYYX=            -18.3331 YYYZ=             -4.3917 ZZZX=             -5.1994
 ZZZY=             -0.3829 XXYY=           -654.4233 XXZZ=           -569.7885 YYZZ=            -65.6799
 XXYZ=            -18.7529 YYXZ=              3.0857 ZZXY=             -1.7802
 N-N= 4.873442875557D+02 E-N=-2.053266327685D+03  KE= 4.603096472875D+02
  Exact polarizability: 168.078  -1.077 117.401  -5.015  -3.336  86.015
 Approx polarizability: 125.841   2.550 117.413  -4.283  -3.450  88.272
 D2PCM: PCM CHGder 2nd derivatives, FixD1E=F FixD2E=F DoIter=F DoCFld=F I1PDM=0
 Calling FoFJK, ICntrl=    100127 FMM=F ISym2X=0 I1Cent= 0 IOpClX= 0 NMat=1 NMatS=1 NMatT=0.
 Full mass-weighted force constant matrix:
 Low frequencies ---  -23.0769   -5.9617    0.0007    0.0009    0.0010   14.8618
 Low frequencies ---   47.6188   55.5431   86.9313
 Diagonal vibrational polarizability:
       30.6172240       8.1908559      39.6411337
 Harmonic frequencies (cm**-1), IR intensities (KM/Mole), Raman scattering
 activities (A**4/AMU), depolarization ratios for plane and unpolarized
 incident light, reduced masses (AMU), force constants (mDyne/A),
 and normal coordinates:
                      1                      2                      3
                      A                      A                      A
 Frequencies --     39.1009                55.4874                86.9011
 Red. masses --      3.2237                 2.9140                 3.6212
 Frc consts  --      0.0029                 0.0053                 0.0161
 IR Inten    --      0.9897                 1.2567                 2.0725
  Atom  AN      X      Y      Z        X      Y      Z        X      Y      Z
     1   6    -0.01   0.01   0.03     0.00   0.06   0.18     0.08  -0.03   0.06
     2   1    -0.04   0.03   0.09     0.04   0.21   0.39     0.17   0.08   0.18
     3   6    -0.01   0.02  -0.04     0.00   0.04   0.20     0.06  -0.15   0.04
     4   1    -0.01   0.02  -0.02     0.00   0.03   0.32     0.10  -0.19   0.07
     5   6     0.02  -0.02   0.04    -0.04  -0.09  -0.10    -0.02   0.00  -0.04
     6   1     0.06  -0.04  -0.01    -0.10  -0.26  -0.31    -0.13  -0.13  -0.16
     7   6     0.02  -0.03   0.12    -0.04  -0.04  -0.15     0.01   0.24   0.01
     8   1     0.07  -0.06   0.15    -0.10  -0.28  -0.15     0.04   0.14   0.03
     9   1    -0.01   0.00   0.17     0.03   0.12   0.06     0.14   0.39   0.16
    10   1     0.00  -0.01   0.11    -0.02   0.09  -0.41    -0.13   0.39  -0.14
    11   6     0.00   0.02  -0.14     0.00   0.04   0.05     0.03  -0.17  -0.02
    12   1     0.00   0.02  -0.17     0.00   0.05  -0.07     0.03  -0.17  -0.04
    13   6     0.01   0.03  -0.21     0.00   0.02   0.02     0.05  -0.13  -0.05
    14   1    -0.02   0.12  -0.29    -0.04   0.02   0.01     0.06  -0.07  -0.08
    15   1     0.06  -0.06  -0.29     0.02   0.01   0.01     0.10  -0.15  -0.08
    16   6    -0.01   0.00   0.03     0.02  -0.01  -0.05    -0.05   0.05   0.00
    17   6    -0.04  -0.03   0.29    -0.01  -0.03   0.06     0.06   0.12   0.02
    18   1    -0.04  -0.23   0.40    -0.04  -0.12   0.12     0.06   0.05   0.06
    19   1    -0.04  -0.05   0.27     0.00  -0.04   0.00     0.05   0.21  -0.03
    20   1    -0.09   0.15   0.43     0.00   0.07   0.14     0.15   0.14   0.08
    21   8     0.00   0.02  -0.13     0.02   0.01   0.00    -0.04  -0.09  -0.02
    22   8     0.01  -0.01  -0.01     0.05  -0.01  -0.17    -0.17   0.10   0.00
                      4                      5                      6
                      A                      A                      A
 Frequencies --    128.7489               138.4427               162.3455
 Red. masses --      5.2370                 1.6740                 4.3413
 Frc consts  --      0.0511                 0.0189                 0.0674
 IR Inten    --      0.0840                 4.9641                 1.0329
  Atom  AN      X      Y      Z        X      Y      Z        X      Y      Z
     1   6    -0.02  -0.03   0.07     0.00  -0.04   0.02     0.13   0.17   0.05
     2   1     0.00  -0.06   0.00     0.03  -0.15  -0.18     0.10   0.12   0.00
     3   6    -0.02  -0.02   0.07     0.00  -0.02   0.10     0.11   0.11   0.06
     4   1    -0.02  -0.01  -0.12    -0.01  -0.01   0.15     0.19   0.05   0.12
     5   6    -0.06   0.01   0.05    -0.03   0.06   0.11     0.19   0.10   0.06
     6   1    -0.12   0.03   0.11    -0.07   0.20   0.31     0.27   0.18   0.11
     7   6    -0.06   0.01  -0.09    -0.03   0.00  -0.11     0.17  -0.15  -0.07
     8   1    -0.15   0.06  -0.14    -0.14   0.32  -0.20     0.06  -0.16  -0.12
     9   1     0.01  -0.01  -0.16     0.01  -0.21  -0.44     0.06  -0.25  -0.16
    10   1    -0.02   0.00  -0.10     0.05  -0.16   0.14     0.38  -0.28  -0.05
    11   6     0.00  -0.01   0.19     0.01  -0.01   0.01    -0.05   0.03  -0.02
    12   1     0.01  -0.03   0.39     0.01  -0.01  -0.06    -0.16   0.11  -0.11
    13   6     0.02   0.01   0.02     0.02   0.00  -0.11    -0.08  -0.11   0.04
    14   1    -0.14  -0.23   0.10    -0.04   0.18  -0.24    -0.07  -0.23   0.11
    15   1     0.15   0.25   0.15     0.11  -0.17  -0.25    -0.14  -0.01   0.13
    16   6     0.03   0.00  -0.04     0.01   0.00   0.00    -0.11  -0.02  -0.02
    17   6     0.03   0.00  -0.04     0.01   0.01  -0.01    -0.04   0.02   0.01
    18   1    -0.17  -0.17   0.09    -0.10  -0.09   0.07     0.01   0.02   0.00
    19   1     0.05   0.02  -0.28     0.02   0.02  -0.15    -0.05   0.07   0.04
    20   1     0.21   0.15   0.16     0.10   0.09   0.10    -0.03   0.01   0.00
    21   8     0.05   0.03  -0.41     0.00  -0.01   0.06    -0.08  -0.10  -0.08
    22   8     0.02  -0.02   0.24     0.00   0.01  -0.02    -0.20   0.02   0.00
                      7                      8                      9
                      A                      A                      A
 Frequencies --    173.1270               208.3529               227.7493
 Red. masses --      1.2584                 1.3313                 1.4382
 Frc consts  --      0.0222                 0.0341                 0.0440
 IR Inten    --      0.9690                 4.8459                 0.3407
  Atom  AN      X      Y      Z        X      Y      Z        X      Y      Z
     1   6    -0.01  -0.03   0.02    -0.01   0.00  -0.01    -0.02  -0.04  -0.04
     2   1     0.01  -0.04  -0.01     0.00   0.05   0.06    -0.02  -0.13  -0.20
     3   6    -0.01  -0.02   0.06    -0.01   0.01   0.05    -0.02  -0.01   0.02
     4   1    -0.02  -0.01   0.19    -0.02   0.01   0.27    -0.04   0.00   0.21
     5   6    -0.03   0.00   0.03    -0.01  -0.04  -0.07    -0.02   0.06   0.10
     6   1    -0.05   0.03   0.08     0.00  -0.08  -0.13    -0.01   0.17   0.24
     7   6    -0.03   0.02  -0.02    -0.01   0.01   0.04    -0.03  -0.01  -0.01
     8   1    -0.04   0.17  -0.04     0.14   0.36   0.07    -0.17  -0.41  -0.03
     9   1     0.00  -0.06  -0.15    -0.04  -0.16  -0.20    -0.01   0.20   0.28
    10   1    -0.04  -0.03   0.10    -0.12  -0.10   0.40     0.09   0.13  -0.41
    11   6     0.01  -0.01  -0.07     0.01   0.01  -0.11     0.01   0.00  -0.12
    12   1     0.03  -0.01  -0.20     0.02   0.03  -0.33     0.02   0.01  -0.32
    13   6     0.01   0.00   0.02    -0.01   0.00   0.07     0.00  -0.01   0.05
    14   1     0.07  -0.10   0.11     0.07  -0.13   0.18     0.08  -0.11   0.15
    15   1    -0.06   0.10   0.11    -0.11   0.11   0.18    -0.10   0.09   0.14
    16   6     0.01   0.00   0.01     0.01   0.00  -0.01     0.02   0.00   0.00
    17   6     0.01   0.00   0.03     0.01   0.00  -0.01     0.04   0.01   0.00
    18   1     0.38   0.29  -0.19    -0.18  -0.17   0.12    -0.07  -0.09   0.07
    19   1    -0.03  -0.03   0.51     0.04   0.03  -0.28     0.04   0.04  -0.15
    20   1    -0.30  -0.25  -0.30     0.20   0.14   0.18     0.14   0.09   0.11
    21   8     0.01   0.00  -0.07     0.01   0.00  -0.01     0.02  -0.01   0.00
    22   8     0.01   0.00  -0.01     0.00   0.00   0.02     0.01   0.00   0.00
                     10                     11                     12
                      A                      A                      A
 Frequencies --    254.9253               342.1113               373.4006
 Red. masses --      3.8569                 2.6263                 3.0802
 Frc consts  --      0.1477                 0.1811                 0.2530
 IR Inten    --      0.7932                 1.0507                 4.1363
  Atom  AN      X      Y      Z        X      Y      Z        X      Y      Z
     1   6     0.10  -0.10   0.00    -0.03  -0.01   0.20     0.02   0.18   0.08
     2   1     0.11  -0.12  -0.04    -0.16   0.04   0.37     0.18   0.33   0.21
     3   6     0.07  -0.09   0.04    -0.02   0.02  -0.20     0.01  -0.16  -0.07
     4   1     0.07  -0.10   0.13    -0.02   0.03  -0.44     0.14  -0.24  -0.14
     5   6     0.09  -0.05   0.04     0.01  -0.08   0.16    -0.06   0.20  -0.01
     6   1     0.04  -0.03   0.09    -0.07  -0.20   0.05    -0.02   0.09  -0.19
     7   6     0.12   0.06  -0.04     0.03   0.04  -0.09    -0.11  -0.10   0.01
     8   1     0.06   0.05  -0.07    -0.19   0.22  -0.22    -0.13  -0.17   0.01
     9   1     0.24   0.11  -0.02     0.27  -0.02  -0.28    -0.39  -0.23  -0.06
    10   1     0.07   0.12  -0.12     0.05   0.04  -0.10     0.15  -0.29   0.10
    11   6     0.06  -0.08  -0.03    -0.01   0.02  -0.13     0.00  -0.17  -0.06
    12   1     0.11  -0.10  -0.12    -0.03   0.01   0.13     0.08  -0.23   0.04
    13   6     0.04   0.08   0.04    -0.02   0.01   0.03     0.05  -0.01   0.02
    14   1     0.14   0.07   0.09     0.11  -0.10   0.15     0.17  -0.03   0.07
    15   1     0.08   0.17   0.09    -0.19   0.10   0.14     0.05   0.06   0.07
    16   6    -0.10   0.06  -0.01     0.01  -0.01   0.01     0.01   0.04   0.00
    17   6    -0.31  -0.07  -0.04     0.03   0.01   0.00    -0.03   0.01   0.00
    18   1    -0.43  -0.07  -0.02    -0.01  -0.03   0.03    -0.06   0.00   0.01
    19   1    -0.26  -0.25  -0.10     0.03   0.03  -0.07    -0.02  -0.02  -0.03
    20   1    -0.37  -0.01  -0.01     0.08   0.03   0.04    -0.03   0.03   0.01
    21   8    -0.10   0.17  -0.01     0.00   0.00   0.03     0.00   0.05   0.01
    22   8     0.05  -0.02   0.01     0.01   0.00   0.00     0.08   0.01   0.00
                     13                     14                     15
                      A                      A                      A
 Frequencies --    469.6074               537.1386               597.7991
 Red. masses --      3.7387                 4.1917                 2.5771
 Frc consts  --      0.4858                 0.7125                 0.5426
 IR Inten    --      3.9913                 7.9247                 7.0042
  Atom  AN      X      Y      Z        X      Y      Z        X      Y      Z
     1   6    -0.01   0.03  -0.03     0.07  -0.06   0.04     0.01  -0.01   0.00
     2   1    -0.01   0.04  -0.02     0.12  -0.06   0.00     0.01  -0.03  -0.02
     3   6    -0.09  -0.09   0.04     0.14   0.06  -0.02     0.03   0.02   0.00
     4   1     0.01  -0.16   0.12     0.03   0.13  -0.13     0.02   0.03  -0.03
     5   6     0.08  -0.01   0.00    -0.07   0.03  -0.02    -0.01   0.00   0.00
     6   1     0.14   0.01  -0.01    -0.16   0.00   0.01    -0.03   0.00   0.02
     7   6     0.13   0.02  -0.01    -0.13  -0.01   0.01    -0.02   0.00   0.00
     8   1     0.10   0.05  -0.03    -0.08  -0.07   0.05     0.00   0.00   0.01
     9   1     0.20   0.03  -0.03    -0.25  -0.03   0.04    -0.03   0.00   0.01
    10   1     0.10   0.04  -0.03    -0.08  -0.06   0.05    -0.02   0.00   0.01
    11   6    -0.17  -0.11   0.02     0.20   0.09  -0.02     0.01   0.01   0.00
    12   1    -0.10  -0.14  -0.08     0.18   0.09   0.11    -0.04   0.04   0.01
    13   6    -0.14   0.09  -0.01     0.14   0.10   0.01     0.00  -0.04  -0.02
    14   1    -0.10   0.17  -0.04     0.24   0.11   0.05    -0.03  -0.06  -0.02
    15   1    -0.01   0.09  -0.04     0.15   0.16   0.05     0.01  -0.01  -0.01
    16   6    -0.08  -0.05   0.00    -0.16  -0.14  -0.01    -0.04   0.00   0.32
    17   6     0.17   0.09   0.02     0.09  -0.04   0.00    -0.03   0.05   0.02
    18   1     0.39   0.03   0.02     0.32  -0.11   0.01    -0.37   0.48  -0.17
    19   1     0.08   0.49   0.04    -0.01   0.37   0.01     0.01   0.09  -0.39
    20   1     0.40  -0.01   0.03     0.35  -0.14   0.02     0.36  -0.36  -0.18
    21   8    -0.13   0.13  -0.01    -0.12   0.12   0.01    -0.01  -0.01  -0.08
    22   8     0.12  -0.14   0.00    -0.15  -0.16  -0.02     0.06  -0.01  -0.11
                     16                     17                     18
                      A                      A                      A
 Frequencies --    603.4580               711.0289               789.8948
 Red. masses --      4.6242                 2.7929                 1.7503
 Frc consts  --      0.9921                 0.8319                 0.6434
 IR Inten    --     11.0007                 8.8287                 2.4754
  Atom  AN      X      Y      Z        X      Y      Z        X      Y      Z
     1   6     0.07  -0.07   0.03     0.16  -0.08   0.08    -0.07   0.10   0.06
     2   1     0.05  -0.14  -0.08     0.21  -0.25  -0.23    -0.03  -0.14  -0.35
     3   6     0.14   0.12   0.00     0.13   0.03   0.04    -0.08  -0.03   0.11
     4   1     0.09   0.15  -0.12     0.26  -0.05  -0.26    -0.04  -0.04  -0.33
     5   6    -0.04  -0.02  -0.02    -0.01  -0.02  -0.07     0.00  -0.03  -0.07
     6   1    -0.14   0.02   0.10    -0.17   0.12   0.23     0.09   0.25   0.26
     7   6    -0.10  -0.01   0.01    -0.08  -0.01  -0.01     0.06  -0.02  -0.02
     8   1    -0.01  -0.03   0.05     0.14  -0.06   0.10     0.25   0.03   0.06
     9   1    -0.17   0.01   0.06    -0.22   0.03   0.11     0.11   0.07   0.09
    10   1    -0.14   0.00   0.04    -0.17   0.00   0.08    -0.17   0.08   0.03
    11   6     0.02   0.05  -0.02    -0.13  -0.06  -0.07     0.03   0.00  -0.08
    12   1    -0.22   0.18   0.10    -0.26   0.00   0.26     0.06  -0.07   0.50
    13   6    -0.03  -0.21  -0.01    -0.17   0.07  -0.04     0.07   0.00  -0.05
    14   1     0.02  -0.21   0.01    -0.05   0.00   0.06     0.26  -0.14   0.11
    15   1    -0.09  -0.18   0.02    -0.29   0.14   0.04    -0.14   0.13   0.10
    16   6    -0.09   0.08  -0.11     0.08   0.02   0.01    -0.02  -0.01   0.00
    17   6    -0.10   0.24   0.00     0.07  -0.09   0.00    -0.03   0.03   0.00
    18   1     0.10   0.06   0.07    -0.02  -0.07   0.00    -0.01   0.02   0.00
    19   1    -0.16   0.39   0.15     0.11  -0.23  -0.02    -0.04   0.07  -0.02
    20   1    -0.15   0.35   0.08     0.00  -0.06   0.00     0.00   0.03   0.01
    21   8    -0.10  -0.08   0.02     0.00   0.05   0.01     0.02  -0.02   0.02
    22   8     0.26  -0.09   0.05    -0.02   0.07   0.00    -0.01  -0.02   0.00
                     19                     20                     21
                      A                      A                      A
 Frequencies --    848.6962               866.7612               931.4049
 Red. masses --      2.3494                 2.5129                 1.7366
 Frc consts  --      0.9971                 1.1123                 0.8876
 IR Inten    --      3.4486                 0.4522                 9.1222
  Atom  AN      X      Y      Z        X      Y      Z        X      Y      Z
     1   6    -0.06   0.12   0.06     0.04   0.06   0.11     0.02  -0.05   0.10
     2   1    -0.20  -0.11  -0.23     0.00  -0.14  -0.19     0.03  -0.10   0.03
     3   6     0.04   0.05  -0.08     0.02  -0.03  -0.11    -0.09  -0.02  -0.05
     4   1     0.12   0.00   0.14     0.14  -0.11   0.13    -0.24   0.07  -0.04
     5   6     0.01  -0.08  -0.02     0.01  -0.05  -0.04    -0.06   0.04  -0.06
     6   1     0.13   0.22   0.33     0.01   0.23   0.35    -0.36   0.10   0.20
     7   6    -0.05  -0.03  -0.01    -0.04  -0.02  -0.03     0.13   0.05  -0.06
     8   1     0.06   0.11   0.02     0.15   0.03   0.06     0.46  -0.24   0.13
     9   1     0.16   0.08   0.06    -0.02   0.06   0.08    -0.38  -0.02   0.08
    10   1    -0.36   0.14  -0.02    -0.26   0.07   0.03     0.30  -0.17   0.18
    11   6    -0.02  -0.05   0.05    -0.02  -0.03   0.05     0.03   0.05   0.02
    12   1    -0.12   0.05  -0.37     0.17  -0.09  -0.47     0.06   0.05  -0.23
    13   6     0.08  -0.13   0.04    -0.03   0.14   0.06     0.00  -0.03   0.02
    14   1     0.06   0.04  -0.07    -0.23   0.20  -0.07    -0.08   0.01  -0.04
    15   1     0.31  -0.16  -0.04     0.08  -0.02  -0.08     0.05  -0.09  -0.03
    16   6    -0.01   0.06   0.00     0.02  -0.08  -0.01    -0.01   0.03   0.00
    17   6     0.06  -0.12   0.00    -0.08   0.14   0.00     0.02  -0.03   0.00
    18   1     0.11  -0.13  -0.01    -0.12   0.16   0.00     0.04  -0.04   0.00
    19   1     0.06  -0.11   0.01    -0.09   0.15   0.02     0.01  -0.02   0.01
    20   1     0.11  -0.14   0.00    -0.13   0.16   0.00     0.04  -0.04   0.00
    21   8    -0.09   0.07  -0.01     0.12  -0.06  -0.01    -0.04   0.00  -0.01
    22   8     0.02   0.06   0.01    -0.05  -0.08  -0.01     0.02   0.02   0.00
                     22                     23                     24
                      A                      A                      A
 Frequencies --    997.5906              1004.9220              1017.3746
 Red. masses --      1.4290                 1.6065                 1.1241
 Frc consts  --      0.8379                 0.9559                 0.6855
 IR Inten    --     25.1678                27.1514                82.4229
  Atom  AN      X      Y      Z        X      Y      Z        X      Y      Z
     1   6     0.05  -0.02  -0.04    -0.01  -0.05  -0.07     0.00   0.00  -0.01
     2   1     0.21   0.33   0.41    -0.11   0.32   0.58    -0.03   0.12   0.20
     3   6    -0.05  -0.05   0.03     0.01   0.06   0.03     0.01  -0.02  -0.08
     4   1    -0.11   0.01  -0.33     0.05   0.04  -0.13    -0.04  -0.01   0.72
     5   6     0.03  -0.01  -0.03    -0.01  -0.02  -0.01     0.00  -0.01  -0.01
     6   1     0.19   0.33   0.35    -0.10   0.24   0.41    -0.01   0.16   0.23
     7   6    -0.04  -0.04   0.01     0.01   0.01  -0.02     0.00  -0.01  -0.01
     8   1    -0.04   0.08  -0.01     0.10  -0.07   0.03     0.07   0.00   0.02
     9   1     0.14   0.02   0.00    -0.10  -0.01   0.00    -0.01   0.01   0.02
    10   1    -0.21   0.09  -0.05     0.03  -0.02   0.03    -0.06   0.01   0.01
    11   6     0.09   0.05   0.02    -0.11  -0.05  -0.01     0.03   0.01  -0.03
    12   1     0.25  -0.03  -0.22    -0.32   0.08  -0.03     0.03  -0.04   0.56
    13   6    -0.06   0.02  -0.01     0.08  -0.04   0.00    -0.02   0.01   0.00
    14   1    -0.14  -0.06   0.00     0.23   0.01   0.03    -0.05   0.02  -0.01
    15   1    -0.17   0.00   0.00     0.18   0.05   0.03    -0.06  -0.03  -0.02
    16   6    -0.01   0.03   0.00     0.02  -0.04   0.00     0.00   0.01   0.00
    17   6     0.03  -0.02   0.00    -0.04   0.02   0.00     0.01   0.00   0.00
    18   1     0.00  -0.03   0.01     0.01   0.03  -0.01    -0.02   0.01   0.00
    19   1     0.04  -0.07   0.00    -0.06   0.11   0.00     0.02  -0.04  -0.01
    20   1     0.00  -0.02  -0.01     0.01   0.02   0.01    -0.01   0.00  -0.01
    21   8    -0.05  -0.04   0.00     0.07   0.05   0.01    -0.02  -0.01  -0.01
    22   8     0.03   0.02   0.00    -0.04  -0.02   0.00     0.01   0.00   0.00
                     25                     26                     27
                      A                      A                      A
 Frequencies --   1037.6984              1044.1911              1074.3022
 Red. masses --      1.6241                 1.7983                 1.8249
 Frc consts  --      1.0304                 1.1552                 1.2409
 IR Inten    --     46.3105                 4.0414                10.9897
  Atom  AN      X      Y      Z        X      Y      Z        X      Y      Z
     1   6    -0.02   0.00  -0.01     0.01  -0.01  -0.01     0.00   0.00   0.00
     2   1    -0.05   0.01   0.02     0.06   0.02   0.01     0.00   0.00   0.00
     3   6     0.01   0.01   0.02    -0.01   0.00   0.06     0.00   0.00   0.00
     4   1    -0.01   0.03  -0.10    -0.01   0.01  -0.25     0.00   0.00   0.00
     5   6    -0.01   0.00   0.00     0.00   0.01   0.00     0.00   0.00   0.00
     6   1    -0.02   0.00   0.01     0.03   0.01  -0.02     0.00   0.00   0.00
     7   6     0.02   0.00   0.00     0.00  -0.01   0.01     0.00   0.00   0.00
     8   1     0.03  -0.01   0.00    -0.02   0.02  -0.01     0.00   0.00   0.00
     9   1     0.00   0.00   0.00     0.04   0.00   0.00     0.00   0.00   0.00
    10   1     0.02  -0.01   0.01    -0.02   0.01  -0.02     0.00   0.00   0.00
    11   6     0.02  -0.01  -0.02     0.01   0.01  -0.15     0.00   0.00   0.01
    12   1    -0.04   0.03  -0.01    -0.03  -0.01   0.27     0.00   0.00  -0.03
    13   6     0.02  -0.02   0.03    -0.02  -0.01   0.20     0.00   0.00  -0.01
    14   1     0.01   0.05  -0.02    -0.30   0.48  -0.22     0.01  -0.04   0.01
    15   1     0.08  -0.07  -0.02     0.33  -0.48  -0.23    -0.02   0.03   0.02
    16   6     0.05  -0.05   0.01     0.00   0.01  -0.02     0.02   0.01  -0.20
    17   6     0.12   0.11   0.01    -0.02  -0.02   0.01     0.00   0.00   0.17
    18   1    -0.41   0.16   0.06     0.03   0.02  -0.02    -0.29   0.55  -0.12
    19   1     0.28  -0.62  -0.01    -0.04   0.09   0.00     0.06  -0.03  -0.40
    20   1    -0.44   0.24  -0.09     0.08  -0.07  -0.01     0.24  -0.52  -0.19
    21   8    -0.09   0.04  -0.01     0.02   0.00  -0.05    -0.01   0.00   0.03
    22   8    -0.03  -0.07  -0.01     0.00   0.01   0.01     0.00  -0.01   0.04
                     28                     29                     30
                      A                      A                      A
 Frequencies --   1082.8772              1097.4524              1137.3905
 Red. masses --      1.5646                 1.8640                 2.7755
 Frc consts  --      1.0809                 1.3227                 2.1155
 IR Inten    --      1.1290                 4.8156                12.6033
  Atom  AN      X      Y      Z        X      Y      Z        X      Y      Z
     1   6    -0.01  -0.02  -0.04     0.12  -0.05   0.07     0.08   0.02  -0.01
     2   1    -0.02   0.06   0.10     0.54  -0.01  -0.14    -0.09  -0.07  -0.03
     3   6     0.01   0.00   0.01    -0.13  -0.03  -0.05    -0.12   0.00   0.01
     4   1     0.02  -0.01  -0.02    -0.48   0.19   0.15    -0.16   0.02   0.01
     5   6     0.00   0.09   0.13     0.02   0.05  -0.03     0.25  -0.09   0.06
     6   1    -0.02  -0.20  -0.26     0.20   0.05  -0.13     0.27  -0.12   0.01
     7   6     0.00  -0.09  -0.13    -0.03  -0.05   0.02    -0.15   0.11  -0.08
     8   1     0.59   0.10   0.12    -0.09   0.12  -0.03    -0.03  -0.16   0.02
     9   1     0.00   0.19   0.27     0.22   0.02   0.01    -0.77   0.01   0.04
    10   1    -0.56   0.08   0.17    -0.16   0.08  -0.07    -0.04  -0.07   0.15
    11   6     0.00   0.00   0.00    -0.05   0.04   0.01    -0.06   0.01  -0.01
    12   1     0.00   0.00  -0.02    -0.30   0.20   0.03     0.00  -0.03   0.08
    13   6     0.00   0.00   0.00     0.03  -0.09   0.00     0.09   0.04   0.01
    14   1     0.00   0.00   0.00     0.10  -0.04   0.00     0.13   0.05   0.02
    15   1     0.00   0.00   0.00     0.07  -0.04   0.01     0.13   0.05   0.01
    16   6     0.00   0.00   0.00     0.02  -0.03   0.00    -0.03   0.02   0.00
    17   6     0.00   0.00   0.00    -0.01   0.02   0.00     0.02   0.00   0.00
    18   1     0.00   0.00   0.00    -0.03   0.03   0.00    -0.02  -0.02   0.01
    19   1     0.00   0.01   0.00    -0.01   0.01   0.00     0.04  -0.10  -0.01
    20   1     0.00   0.00   0.00    -0.03   0.04   0.00    -0.02  -0.01  -0.02
    21   8     0.00   0.00   0.00     0.04   0.08   0.01    -0.04  -0.07  -0.01
    22   8     0.00   0.00   0.00    -0.03  -0.02   0.00     0.02   0.00   0.00
                     31                     32                     33
                      A                      A                      A
 Frequencies --   1154.2036              1285.1828              1291.0769
 Red. masses --      3.9214                 1.1041                 2.7287
 Frc consts  --      3.0779                 1.0744                 2.6799
 IR Inten    --     76.6574                31.4093               516.5206
  Atom  AN      X      Y      Z        X      Y      Z        X      Y      Z
     1   6     0.05  -0.06   0.02     0.00   0.00   0.00    -0.04   0.01   0.01
     2   1     0.23   0.01   0.00     0.02   0.01   0.00    -0.05   0.01   0.00
     3   6     0.00   0.06  -0.02     0.00   0.01  -0.01     0.04  -0.04   0.00
     4   1    -0.07   0.10   0.05     0.05  -0.03   0.02    -0.20   0.12  -0.02
     5   6    -0.10   0.06  -0.04     0.00   0.00   0.00     0.00  -0.01   0.00
     6   1    -0.12   0.04  -0.06    -0.01  -0.01   0.00     0.17   0.04  -0.02
     7   6     0.05  -0.07   0.05     0.00   0.00   0.00     0.00   0.02  -0.01
     8   1    -0.03   0.12  -0.02     0.00   0.00   0.00     0.02  -0.03   0.00
     9   1     0.40   0.00  -0.02     0.00   0.00   0.00    -0.07   0.00   0.00
    10   1    -0.03   0.06  -0.10     0.00   0.00   0.00     0.01  -0.01   0.03
    11   6    -0.15  -0.04  -0.01    -0.01   0.00   0.04     0.06  -0.03   0.02
    12   1    -0.29   0.06  -0.02     0.08  -0.04  -0.05    -0.38   0.25  -0.05
    13   6     0.19   0.23   0.02    -0.01  -0.01   0.02     0.02   0.07   0.01
    14   1     0.33   0.24   0.07     0.61   0.41   0.04     0.17   0.09   0.05
    15   1     0.33   0.25   0.01    -0.53  -0.37  -0.08    -0.28  -0.20  -0.08
    16   6    -0.08   0.07   0.00    -0.04   0.01   0.00     0.29  -0.09   0.01
    17   6     0.04  -0.02   0.00     0.01   0.00   0.01    -0.07  -0.03   0.00
    18   1    -0.02  -0.07   0.03     0.02  -0.04   0.03     0.07   0.23  -0.15
    19   1     0.08  -0.18  -0.01     0.03  -0.07  -0.07    -0.18   0.46  -0.01
    20   1    -0.01  -0.06  -0.04    -0.02  -0.03  -0.04     0.02   0.18   0.18
    21   8    -0.11  -0.24  -0.02     0.03   0.00  -0.04    -0.17  -0.03  -0.03
    22   8     0.06   0.03   0.01     0.00   0.00   0.00    -0.01   0.03   0.00
                     34                     35                     36
                      A                      A                      A
 Frequencies --   1313.7197              1323.5740              1342.6963
 Red. masses --      1.6794                 1.2834                 1.3248
 Frc consts  --      1.7077                 1.3247                 1.4072
 IR Inten    --    111.5366                 9.7499                 8.3126
  Atom  AN      X      Y      Z        X      Y      Z        X      Y      Z
     1   6     0.10  -0.02   0.00    -0.01  -0.05   0.05    -0.06  -0.06   0.02
     2   1    -0.23  -0.11   0.06    -0.41  -0.17   0.11     0.54   0.13  -0.06
     3   6    -0.08   0.09   0.00     0.06   0.05   0.01     0.00   0.07  -0.02
     4   1     0.13  -0.05   0.03    -0.44   0.38  -0.03     0.33  -0.15   0.04
     5   6     0.03   0.05  -0.03    -0.02   0.06  -0.04    -0.07  -0.04   0.03
     6   1    -0.37  -0.07   0.03     0.51   0.19  -0.15     0.55   0.12  -0.10
     7   6    -0.01  -0.04   0.03     0.00   0.01  -0.01     0.01   0.05  -0.03
     8   1    -0.08   0.11  -0.02     0.03   0.01   0.01     0.11  -0.13   0.04
     9   1     0.12  -0.02   0.00    -0.02   0.01   0.00    -0.04   0.03  -0.02
    10   1    -0.07   0.06  -0.09     0.03   0.00  -0.02     0.13  -0.09   0.11
    11   6    -0.09   0.02  -0.01    -0.01  -0.08   0.00    -0.06   0.03   0.00
    12   1     0.63  -0.44   0.05     0.21  -0.22   0.00     0.29  -0.19   0.01
    13   6     0.06  -0.04   0.00    -0.03   0.00   0.00     0.03  -0.02   0.00
    14   1    -0.01  -0.10   0.00     0.04   0.01   0.02     0.00  -0.03   0.00
    15   1    -0.03  -0.12  -0.02     0.04   0.02  -0.01     0.05  -0.01   0.00
    16   6     0.10  -0.03   0.00    -0.02   0.00   0.00     0.03  -0.01   0.00
    17   6    -0.02  -0.01   0.00     0.00   0.00   0.00     0.00  -0.01   0.00
    18   1     0.00   0.10  -0.06     0.00  -0.02   0.01    -0.01   0.04  -0.02
    19   1    -0.05   0.14   0.00     0.01  -0.03   0.00    -0.02   0.04   0.00
    20   1    -0.01   0.08   0.07     0.00  -0.01  -0.01    -0.01   0.03   0.03
    21   8    -0.06   0.02   0.00     0.02   0.00   0.00    -0.02   0.00   0.00
    22   8    -0.01   0.00   0.00     0.00   0.00   0.00     0.00   0.00   0.00
                     37                     38                     39
                      A                      A                      A
 Frequencies --   1354.5887              1418.3761              1423.1064
 Red. masses --      1.3442                 1.4034                 1.3519
 Frc consts  --      1.4533                 1.6634                 1.6131
 IR Inten    --      5.7839               115.6366                 6.7075
  Atom  AN      X      Y      Z        X      Y      Z        X      Y      Z
     1   6    -0.04   0.07  -0.04     0.00   0.00   0.00     0.01   0.01   0.00
     2   1     0.47   0.21  -0.16     0.01   0.00   0.00    -0.06  -0.02   0.01
     3   6     0.06   0.05   0.00     0.00   0.00   0.00    -0.03  -0.01   0.00
     4   1    -0.46   0.40  -0.02     0.02  -0.01   0.00     0.06  -0.07   0.00
     5   6     0.01  -0.07   0.05     0.00   0.00   0.00     0.02   0.00   0.00
     6   1    -0.36  -0.16   0.14     0.00   0.00   0.00    -0.04  -0.02   0.02
     7   6     0.01   0.01  -0.01     0.01   0.00   0.00    -0.10   0.00   0.00
     8   1    -0.03  -0.06  -0.01    -0.02   0.00  -0.01     0.31   0.05   0.16
     9   1    -0.03   0.00   0.01    -0.02  -0.01   0.00     0.31   0.09  -0.04
    10   1    -0.03  -0.01   0.06    -0.02   0.01   0.01     0.32  -0.17  -0.09
    11   6    -0.01  -0.08   0.00     0.00   0.00   0.00     0.04   0.03   0.00
    12   1     0.22  -0.23   0.01     0.03  -0.01   0.00     0.06   0.02   0.01
    13   6    -0.04   0.00   0.00     0.00   0.00   0.00    -0.13  -0.02  -0.01
    14   1     0.07   0.01   0.03     0.00  -0.01   0.00     0.45   0.13   0.13
    15   1     0.09   0.03  -0.02     0.01   0.00   0.00     0.51   0.17  -0.04
    16   6     0.01  -0.01   0.00     0.09  -0.03   0.01     0.03  -0.02   0.00
    17   6     0.00   0.00   0.00    -0.09   0.13   0.00    -0.02   0.00   0.00
    18   1     0.00   0.01  -0.01     0.29  -0.50   0.28     0.08   0.10  -0.07
    19   1    -0.01   0.01   0.00     0.03  -0.38   0.00     0.00  -0.09   0.00
    20   1     0.00   0.01   0.01     0.36  -0.43  -0.30     0.08   0.08   0.09
    21   8     0.00   0.00   0.00    -0.03   0.00   0.00    -0.01  -0.02   0.00
    22   8     0.00   0.00   0.00    -0.01   0.00   0.00     0.00   0.01   0.00
                     40                     41                     42
                      A                      A                      A
 Frequencies --   1425.9380              1470.6256              1471.5663
 Red. masses --      1.2989                 1.0789                 1.0424
 Frc consts  --      1.5561                 1.3747                 1.3300
 IR Inten    --      8.1008                32.5855                11.4295
  Atom  AN      X      Y      Z        X      Y      Z        X      Y      Z
     1   6     0.00  -0.02   0.01     0.00   0.00   0.00     0.01   0.00   0.00
     2   1    -0.01  -0.02   0.01    -0.01   0.00   0.00    -0.02   0.00   0.01
     3   6    -0.01   0.00   0.00    -0.01   0.00   0.00     0.00   0.00   0.00
     4   1     0.11  -0.08   0.01     0.02  -0.02   0.00     0.00   0.00   0.00
     5   6    -0.02   0.02  -0.01     0.00   0.00   0.00     0.00  -0.01  -0.02
     6   1     0.04   0.03  -0.03     0.00   0.00   0.00     0.00   0.03   0.03
     7   6     0.12  -0.01   0.01     0.00   0.00   0.00     0.00  -0.02  -0.05
     8   1    -0.41  -0.03  -0.21    -0.01   0.02  -0.01    -0.33   0.26  -0.21
     9   1    -0.39  -0.12   0.06    -0.01   0.01   0.02     0.08   0.41   0.55
    10   1    -0.42   0.23   0.09     0.00   0.00   0.00     0.20  -0.33   0.38
    11   6     0.02   0.03   0.00     0.01   0.01   0.00     0.00   0.00   0.00
    12   1     0.06   0.01   0.00     0.03   0.00   0.00     0.00   0.00   0.00
    13   6    -0.09  -0.02  -0.01    -0.03  -0.02   0.00     0.00   0.00   0.00
    14   1     0.33   0.09   0.09     0.10   0.14  -0.05     0.00   0.00   0.00
    15   1     0.39   0.13  -0.03     0.12   0.15   0.08     0.00   0.00   0.00
    16   6     0.01  -0.01   0.00     0.02  -0.02   0.00     0.00   0.00   0.00
    17   6    -0.01   0.00   0.00     0.05   0.00   0.01     0.00   0.00   0.00
    18   1     0.05   0.10  -0.06    -0.34  -0.33   0.25     0.01   0.01  -0.01
    19   1     0.00  -0.06   0.00    -0.07   0.50  -0.05     0.00  -0.01   0.00
    20   1     0.05   0.08   0.09    -0.41  -0.25  -0.37     0.01   0.01   0.01
    21   8     0.00  -0.01   0.00    -0.01  -0.01   0.00     0.00   0.00   0.00
    22   8     0.00   0.00   0.00     0.01   0.02   0.00     0.00   0.00   0.00
                     43                     44                     45
                      A                      A                      A
 Frequencies --   1486.7505              1491.0370              1491.6062
 Red. masses --      1.0578                 1.0654                 1.0552
 Frc consts  --      1.3776                 1.3955                 1.3833
 IR Inten    --     11.6465                10.9308                14.8834
  Atom  AN      X      Y      Z        X      Y      Z        X      Y      Z
     1   6     0.00   0.00   0.00    -0.01   0.00   0.00    -0.03  -0.01   0.01
     2   1     0.00   0.00   0.00     0.02   0.01   0.00     0.10   0.03  -0.01
     3   6     0.00   0.00   0.00     0.00   0.00   0.00     0.01   0.01   0.00
     4   1     0.01  -0.01   0.00    -0.01   0.01   0.00     0.02   0.00   0.00
     5   6     0.00   0.00   0.00     0.00   0.00   0.00     0.01  -0.01   0.00
     6   1     0.00   0.00   0.00     0.00   0.00   0.00     0.02   0.00   0.01
     7   6     0.00   0.00   0.00     0.00  -0.01   0.00     0.01  -0.05   0.02
     8   1    -0.01  -0.03   0.00     0.04   0.15   0.00     0.15   0.63  -0.01
     9   1     0.02   0.00  -0.01    -0.10  -0.01   0.04    -0.41  -0.03   0.19
    10   1    -0.01   0.00   0.02     0.05   0.03  -0.12     0.23   0.11  -0.49
    11   6     0.00   0.00   0.00     0.00   0.00   0.00     0.00   0.00   0.00
    12   1    -0.02   0.01   0.00     0.03  -0.02   0.00     0.00   0.00   0.00
    13   6    -0.01   0.05   0.00     0.02  -0.05   0.00     0.00   0.02   0.00
    14   1     0.03  -0.36   0.25    -0.12   0.40  -0.31     0.02  -0.11   0.08
    15   1     0.14  -0.30  -0.26    -0.11   0.38   0.32     0.03  -0.11  -0.09
    16   6    -0.01   0.01   0.02     0.01  -0.01   0.02     0.00   0.00   0.00
    17   6     0.00   0.00   0.04    -0.02   0.00   0.03     0.00   0.00  -0.01
    18   1     0.39  -0.08   0.01     0.40   0.05  -0.07    -0.07  -0.01   0.01
    19   1     0.05   0.04  -0.55     0.05  -0.07  -0.42    -0.01   0.01   0.08
    20   1    -0.38   0.03  -0.09    -0.21   0.11   0.04     0.04  -0.02  -0.01
    21   8     0.01   0.01   0.00    -0.01  -0.01   0.00     0.00   0.00   0.00
    22   8     0.00   0.00   0.00     0.00   0.00   0.00     0.00   0.00   0.00
                     46                     47                     48
                      A                      A                      A
 Frequencies --   1745.0469              1755.1417              1837.4513
 Red. masses --      6.3761                 5.7905                11.4397
 Frc consts  --     11.4398                10.5097                22.7560
 IR Inten    --     11.0893                 0.6928               521.6033
  Atom  AN      X      Y      Z        X      Y      Z        X      Y      Z
     1   6     0.39   0.21  -0.15    -0.05  -0.10   0.05     0.00   0.00   0.00
     2   1    -0.40   0.01  -0.06     0.26  -0.03   0.00     0.00   0.00   0.00
     3   6    -0.15   0.08   0.01    -0.26   0.35  -0.02     0.00   0.00   0.00
     4   1    -0.03   0.01   0.03     0.47  -0.08   0.07    -0.03   0.01   0.00
     5   6    -0.38  -0.22   0.17     0.10   0.07  -0.05     0.00   0.00   0.00
     6   1     0.47  -0.07  -0.02    -0.12   0.00  -0.04     0.00   0.00   0.00
     7   6     0.06   0.01  -0.01    -0.02   0.00   0.01     0.00   0.00   0.00
     8   1     0.14   0.08   0.02    -0.05  -0.02  -0.01     0.00   0.00   0.00
     9   1    -0.18  -0.04   0.04     0.05   0.01  -0.01     0.00   0.00   0.00
    10   1     0.14   0.01  -0.08    -0.04   0.00   0.02     0.00   0.00   0.00
    11   6     0.09  -0.09   0.00     0.29  -0.35   0.01     0.00   0.00   0.00
    12   1    -0.14   0.03   0.04    -0.44   0.04  -0.02     0.02  -0.01   0.00
    13   6    -0.01   0.01   0.00    -0.05   0.04   0.00    -0.05  -0.02   0.00
    14   1    -0.03   0.01  -0.01    -0.15   0.03  -0.04     0.07   0.08  -0.02
    15   1    -0.05   0.01   0.01    -0.15   0.03   0.02     0.07   0.07   0.04
    16   6     0.00   0.00   0.00    -0.01   0.01   0.00     0.26   0.73   0.06
    17   6     0.00   0.00   0.00     0.00   0.00   0.00     0.01  -0.07   0.00
    18   1     0.00   0.00   0.00     0.01   0.00   0.00    -0.02  -0.14   0.05
    19   1     0.00   0.00   0.00     0.00  -0.01   0.00    -0.05   0.26   0.02
    20   1     0.00   0.00   0.00     0.01   0.00   0.00     0.00  -0.13  -0.07
    21   8     0.00   0.00   0.00     0.01   0.00   0.00     0.02  -0.03   0.00
    22   8     0.00   0.00   0.00     0.00   0.00   0.00    -0.19  -0.46  -0.04
                     49                     50                     51
                      A                      A                      A
 Frequencies --   3035.4559              3042.1547              3075.0982
 Red. masses --      1.0566                 1.0368                 1.1056
 Frc consts  --      5.7360                 5.6536                 6.1598
[...]
 6,0.00004917,-0.00002572,0.00000090,-0.12262193,-0.25266461,-0.0199174
 9,0.13308303,0.27064917,0.00345020,0.00101018,-0.00807792,-0.00052010,
 0.00037337,0.00031414,-0.00367835,0.00127860,0.00720798,-0.00028607,0.
 00032286,0.01058362,0.00039376,-0.00207302,0.00040374,0.00054047,0.000
 15836,0.00001037,0.00000279,0.00054370,0.00008619,-0.00001288,-0.00004
 079,0.00000145,-0.00009789,-0.00001862,-0.00003609,0.00014119,0.000003
 17,0.00000904,-0.01403245,-0.02145554,-0.04018859,0.01532612,0.0219275
 1,0.02644775,0.00256630,0.00022769,-0.00153476,0.00011309,0.00013741,0
 .00051053,-0.01814928,0.00975554,-0.00193479,-0.00038263,-0.00211052,0
 .00033457,-0.00012835,-0.00058807,-0.00014785,-0.00003931,-0.00024097,
 0.00003209,0.00007776,0.00018042,0.00012383,0.00007853,-0.00004715,-0.
 00002471,0.00008587,-0.00005725,0.00005274,0.00014699,-0.00002941,0.00
 006122,-0.22352691,0.03462714,-0.00896659,-0.00941412,0.00310990,-0.00
 041506,0.51604703,-0.00127129,-0.00410895,-0.00086912,0.00139624,-0.00
 016994,0.00019211,0.03141756,0.00010958,0.00168796,0.00019608,-0.00082
 318,0.00043492,0.00018156,-0.00027912,0.00026552,0.00005731,0.00006113
 ,-0.00038454,0.00026548,0.00077206,0.00015709,0.00013277,-0.00007463,-
 0.00003447,-0.00001796,-0.00004495,0.00002431,0.00038173,-0.00006791,0
 .00006994,0.01866040,-0.09358548,0.00075796,-0.02557701,0.00424482,-0.
 00193573,-0.04418480,0.50937630,-0.00181942,-0.00230020,0.01356057,0.0
 0172050,-0.00019046,-0.00025592,0.00062019,0.00123265,0.00530835,0.000
 28219,-0.00041300,-0.00696443,-0.00098334,0.00118796,-0.00055710,-0.00
 014955,0.00013545,0.00026536,-0.00010879,-0.00087496,-0.00059920,0.000
 06240,0.00011150,-0.00003686,-0.00001523,0.00009283,0.00001533,-0.0003
 4384,0.00000504,0.00000675,-0.01032063,0.00223997,-0.07446811,-0.00156
 551,0.00046124,0.00150724,-0.00858698,-0.00700752,0.57586540,-0.000011
 24,0.00083684,-0.00233608,-0.00069888,0.00003601,-0.00006827,-0.002643
 27,-0.00197711,-0.00000328,0.00002800,0.00002304,0.00111457,0.00021013
 ,0.00018279,-0.00000137,0.00004157,-0.00005031,-0.00000373,-0.00008978
 ,-0.00007425,0.00013280,-0.00009314,0.00001587,0.00001588,-0.00001188,
 0.00000866,-0.00001581,-0.00009452,0.00002278,-0.00004302,-0.01379464,
 0.01853387,0.02605512,0.00050528,-0.00063715,-0.00082497,-0.07647975,0
 .04229937,0.07612500,0.08802118,0.00016855,-0.00013641,0.00044159,0.00
 002811,-0.00000521,-0.00001451,0.00007863,0.00115202,-0.00010156,-0.00
 027303,0.00003276,-0.00055054,-0.00008633,0.00003635,0.00001530,-0.000
 02815,-0.00002646,-0.00001376,-0.00000393,-0.00006075,-0.00000316,-0.0
 0001743,0.00000884,0.00000574,0.00000006,0.00000777,-0.00000468,-0.000
 03637,0.00000748,-0.00001147,0.00627758,-0.00181142,-0.00453402,0.0003
 1714,0.00022241,0.00026838,0.03653665,-0.09968687,-0.09150598,-0.03943
 539,0.12033650,0.00016100,0.00011178,-0.00046271,-0.00007717,0.0000437
 5,0.00001997,-0.00073380,0.00071651,-0.00003642,-0.00006536,0.00004432
 ,0.00011880,-0.00004197,-0.00006583,0.00001272,-0.00000595,-0.00000733
 ,0.00000137,0.00001183,0.00002157,0.00000438,0.00000438,-0.00000741,0.
 00000195,0.00000455,-0.00000480,0.00000130,0.00001646,0.00000162,0.000
 00453,-0.00068789,0.00253872,0.00563488,0.00086544,-0.00018077,0.00012
 674,0.07020645,-0.09636302,-0.22389378,-0.07601502,0.10934036,0.235767
 58,-0.00049902,-0.00017392,0.00305543,0.00000932,-0.00000108,-0.000150
 35,-0.00246759,-0.00140011,-0.00060639,0.00015243,-0.00006928,-0.00107
 015,-0.00022010,0.00064360,-0.00026762,-0.00003422,0.00005450,0.000159
 78,-0.00016812,-0.00050317,-0.00014725,-0.00007892,0.00007202,0.000007
 91,-0.00001430,0.00002911,-0.00001103,-0.00024419,0.00004477,-0.000053
 15,-0.00978522,0.02153770,-0.02663882,0.00055606,-0.00073630,0.0007923
 8,-0.05915303,0.03034668,-0.04746250,0.00359178,-0.00496126,0.00981122
 ,0.06957673,0.00058602,-0.00005546,-0.00033308,-0.00002756,0.00003064,
 0.00002899,-0.00023734,0.00143439,0.00007937,-0.00032504,0.00007855,0.
 00039445,-0.00007430,-0.00021059,0.00004965,0.00000614,0.00003073,0.00
 000969,0.00000494,-0.00000699,-0.00000995,-0.00000371,0.00000015,0.000
 00488,-0.00000821,0.00000442,-0.00000602,-0.00001713,0.00000372,-0.000
 00670,0.00559459,-0.00239193,0.00500194,0.00027230,0.00020255,-0.00024
 368,0.02484471,-0.11880081,0.10781370,-0.00218090,0.00963330,-0.011210
 82,-0.02597077,0.14155083,-0.00023188,-0.00007277,0.00002429,-0.000060
 57,0.00001645,-0.00000740,0.00037352,-0.00105490,-0.00013032,0.0000366
 8,-0.00002590,0.00005143,0.00003145,0.00016064,-0.00007616,0.00000961,
 0.00004251,0.00003626,-0.00003013,-0.00005874,-0.00001608,-0.00001551,
 0.00001019,0.00000670,-0.00000645,0.00000083,-0.00000543,-0.00003545,0
 .00000970,-0.00001408,-0.00104567,0.00015291,0.00151638,-0.00078045,0.
 00008087,0.00013595,-0.04205344,0.11332248,-0.22120469,-0.00620916,0.0
 1371266,-0.02166739,0.04865513,-0.12439488,0.23135806,-0.00062677,0.00
 110030,-0.00071047,0.00065619,-0.00020134,0.00022729,0.00061058,-0.001
 21796,0.00024180,-0.00151047,0.00128778,-0.00006372,0.00039445,-0.0005
 8871,0.00009054,-0.00008914,-0.00008584,0.00010163,0.00025300,0.000505
 23,-0.00014301,0.00032454,-0.00011485,-0.00008081,0.00009787,-0.000108
 96,0.00008372,0.00038125,-0.00002846,0.00013809,-0.00063445,0.00465875
 ,0.00016038,0.00272066,0.00002958,0.00023329,-0.03264031,-0.03612776,-
 0.00331112,0.00408368,0.00794857,0.00321113,0.00421645,0.00805300,-0.0
 0200828,0.60492865,-0.00020482,0.00052266,-0.00029304,0.00027386,-0.00
 006563,0.00011039,0.00158465,-0.00010070,0.00026268,-0.00048283,0.0011
 0120,-0.00000532,0.00026698,-0.00022965,0.00001206,-0.00002054,-0.0000
 1435,0.00004411,0.00008023,0.00017139,-0.00005760,0.00010451,-0.000018
 56,-0.00002296,0.00003434,-0.00003753,0.00003944,0.00010459,-0.0000230
 5,0.00003094,-0.00123256,-0.00520928,-0.00031126,-0.00068546,0.0004971
 4,-0.00003052,-0.03746397,-0.00709691,-0.00228024,-0.00014527,0.000234
 01,-0.00104200,-0.00058662,0.00004772,0.00064459,0.14527698,0.96392341
 ,-0.00005177,0.00006822,0.00002085,0.00005643,-0.00000215,0.00003757,0
 .00010601,-0.00009830,-0.00015938,-0.00009201,0.00014047,-0.00008539,0
 .00002294,-0.00008336,-0.00000076,-0.00000458,0.00002095,0.00001406,0.
 00002799,0.00004976,-0.00002375,0.00003910,-0.00000961,-0.00000994,0.0
 0000320,-0.00000217,0.00000880,0.00002892,-0.00000815,0.00001502,-0.00
 010129,0.00005170,-0.00038002,0.00008092,-0.00000161,0.00072160,-0.003
 48289,-0.00208551,-0.01201500,-0.00141413,-0.00093439,0.00076835,0.001
 96656,0.00191930,0.00106805,0.03312633,0.05308757,0.24212312,0.0000407
 9,-0.00015722,0.00006399,-0.00008283,0.00002535,-0.00002238,-0.0005068
 4,0.00012528,-0.00006642,0.00010470,-0.00029025,0.00000795,-0.00006503
 ,0.00008543,-0.00002551,0.00001155,0.00000381,-0.00000690,-0.00003228,
 -0.00005996,0.00002769,-0.00004003,0.00001362,0.00000749,-0.00000849,0
 .00001009,-0.00000740,-0.00004437,0.00000316,-0.00001545,0.00013376,0.
 00065299,0.00007935,-0.00016941,-0.00004135,-0.00002878,-0.00307814,0.
 00482967,0.00004585,-0.00041238,-0.00007925,0.00068003,-0.00084839,-0.
 00014371,-0.00069634,-0.12466971,0.05599416,0.00191223,0.58828413,-0.0
 0001809,0.00000400,-0.00001477,-0.00000522,-0.00000196,-0.00000443,-0.
 00014397,0.00009628,0.00000207,-0.00004562,-0.00003957,-0.00000092,-0.
 00001117,-0.00000091,0.00000955,-0.00000172,-0.00000608,-0.00000745,0.
 00000461,0.00000701,-0.00000106,0.00000369,-0.00000525,-0.00000119,0.0
 0000047,-0.00000099,-0.00000122,0.00000932,0.00000171,0.00000469,0.000
 27532,0.00007383,0.00009854,0.00004327,0.00000610,0.00000226,0.0001725
 6,-0.00121389,-0.00013383,-0.00068765,0.00051074,0.00040024,-0.0008001
 1,0.00048608,-0.00042971,0.05307604,-0.15538340,0.00037966,0.05488246,
 0.51862262,-0.00000392,-0.00001338,0.00006763,0.00000087,0.00000406,-0
 .00000055,-0.00005837,0.00002714,-0.00005224,-0.00001247,-0.00001616,0
 .00004254,-0.00000563,0.00000011,-0.00000751,0.00000062,0.00000369,0.0
 0000097,-0.00000165,-0.00000479,0.00000183,-0.00000118,0.00000122,-0.0
 0000099,-0.00000135,0.00000234,-0.00000072,-0.00000368,-0.00000053,0.0
 0000001,0.00010447,0.00011586,-0.00069777,0.00000129,-0.00000207,-0.00
 002970,-0.00034405,0.00014297,0.00033255,-0.00051076,-0.00027684,-0.00
 003172,0.00037216,0.00032398,-0.00014640,0.00154942,0.00065593,-0.0967
 0441,0.00748115,-0.00028412,0.54214263,-0.00000205,-0.00000422,-0.0000
 1176,0.00002315,-0.00000313,0.00000858,0.00007735,-0.00002440,0.000012
 20,0.00001963,-0.00000025,-0.00001040,-0.00000008,-0.00002121,0.000000
 24,-0.00000063,0.00000057,0.00000402,0.00000713,0.00001624,-0.00000175
 ,0.00000760,-0.00000261,-0.00000237,0.00000241,-0.00000311,0.00000262,
 0.00000988,-0.00000190,0.00000375,-0.00020391,-0.00021901,-0.00005450,
 -0.00002054,0.00000454,0.00001098,-0.00122997,0.00161803,0.00118026,-0
 .00209239,-0.00045882,-0.00095365,0.00022928,-0.00017501,-0.00000689,0
 .00421807,0.00342182,0.02011600,-0.05403853,-0.01398859,-0.03263797,0.
 05500904,0.00000316,0.00000295,-0.00003165,-0.00000414,-0.00000231,-0.
 00000199,-0.00004494,-0.00001648,0.00000264,-0.00002704,-0.00000812,0.
 00001575,0.00000437,0.00000430,-0.00000006,-0.00000013,-0.00000170,0.0
 0000135,-0.00000180,-0.00000137,0.00000264,-0.00000188,0.00000055,0.00
 000047,0.00000030,-0.00000140,-0.00000007,-0.00000191,0.00000117,-0.00
 000159,0.00002027,0.00009764,0.00017751,0.00000736,0.00000175,-0.00001
 689,0.00005764,0.00044725,-0.00024671,-0.00024832,0.00047918,-0.000246
 34,0.00016676,0.00001942,0.00022333,-0.00818009,-0.01264775,-0.0278884
 5,-0.01477383,-0.10693876,-0.11766030,0.01743927,0.11642182,0.00001317
 ,0.00003361,-0.00002073,-0.00002894,0.00000474,-0.00000574,-0.00014690
 ,-0.00003758,-0.00000924,-0.00000183,0.00001471,0.00000938,-0.00000138
 ,0.00001415,0.00000190,0.00000209,-0.00000148,-0.00000387,-0.00000509,
 -0.00001168,0.00000024,-0.00000617,0.00000135,0.00000159,-0.00000187,0
 .00000186,-0.00000172,-0.00000692,0.00000172,-0.00000208,0.00003839,0.
 00036890,0.00028267,0.00001659,-0.00001475,-0.00001125,-0.00099623,-0.
 00006243,-0.00009593,-0.00051229,-0.00011412,0.00050409,-0.00005877,-0
 .00013381,-0.00043143,-0.00034039,0.00000856,0.00134330,-0.03267656,-0
 .11508009,-0.24970372,0.03683823,0.12604326,0.26977310,0.00002207,-0.0
 0004475,0.00002577,-0.00002124,0.00000661,-0.00000706,-0.00011056,0.00
 006128,-0.00001453,0.00002400,-0.00007000,-0.00000135,-0.00001821,0.00
 002161,-0.00000507,0.00000264,0.00000137,-0.00000247,-0.00000826,-0.00
 001720,0.00000599,-0.00001095,0.00000363,0.00000262,-0.00000266,0.0000
 0339,-0.00000262,-0.00001243,0.00000083,-0.00000435,0.00013931,0.00000
 740,-0.00001378,-0.00005176,-0.00000421,-0.00000702,0.00096767,0.00119
 148,0.00015932,0.00008243,-0.00004423,0.00004366,0.00011828,-0.0000142
 9,-0.00004677,-0.01867479,-0.00788080,-0.00200874,-0.31565853,-0.06025
 986,-0.02914583,-0.00111281,0.00004050,0.00004671,0.33834814,-0.000000
 90,0.00007042,0.00001141,-0.00000963,-0.00000020,-0.00000185,-0.000073
 93,-0.00009096,-0.00000428,-0.00003687,0.00007925,-0.00000909,0.000013
 24,0.00000218,0.00000275,0.00000060,0.00000060,0.00000148,-0.00000073,
 -0.00000537,-0.00000843,0.00000153,0.00000013,0.00000061,-0.00000052,0
 .00000043,-0.00000034,-0.00000213,0.00000069,-0.00000047,0.00009904,0.
 00044503,0.00001988,0.00006244,-0.00001225,0.00000751,-0.00183420,-0.0
 0187404,-0.00020748,-0.00005302,0.00014760,0.00043581,0.00006018,0.000
 18756,-0.00038960,0.03013620,0.00739227,0.00356234,-0.06805965,-0.0627
 5886,-0.00727220,-0.01390257,-0.00344866,0.00034294,0.06634452,0.06723
 165,0.00000611,0.00000812,-0.00007080,-0.00001021,0.00000064,0.0000010
 3,-0.00000507,-0.00001486,0.00001016,-0.00000373,0.00000290,0.00004626
 ,0.00000713,-0.00000029,0.00000192,-0.00000008,-0.00000159,-0.00000212
 ,0.00000017,0.00000372,0.00000538,-0.00000114,-0.00000003,-0.00000013,
 -0.00000005,0.00000026,-0.00000003,0.00000102,-0.00000033,-0.00000043,
 -0.00002912,-0.00000267,0.00031934,0.00000217,0.00000146,-0.00001780,0
 .00004161,-0.00000973,-0.00067396,0.00011644,0.00021727,0.00028499,-0.
 00014909,-0.00019006,0.00017550,0.00109008,-0.00010323,-0.00240588,-0.
 02975636,-0.00656680,-0.05035387,-0.02704785,-0.00501624,-0.00130370,0
 .03178783,0.00770904,0.04870254,0.00000327,0.00000760,-0.00004592,0.00
 002190,-0.00000502,0.00000996,0.00006943,-0.00002155,0.00001306,0.0000
 1243,0.00000607,0.00001397,0.00000265,-0.00002277,0.00000194,-0.000003
 41,-0.00000281,0.00000088,0.00000951,0.00002030,0.00000351,0.00000827,
 -0.00000314,-0.00000306,0.00000375,-0.00000381,0.00000323,0.00001323,-
 0.00000203,0.00000434,-0.00021770,-0.00020934,0.00002783,-0.00000660,0
 .00000724,-0.00001184,-0.00098452,0.00187391,-0.00128039,0.00014861,-0
 .00020158,0.00009003,-0.00189775,-0.00019676,-0.00076963,0.00782187,0.
 00656621,-0.01854960,-0.06959798,-0.04401181,0.05711290,0.00030253,0.0
 0285699,-0.00353486,-0.00551754,-0.01766042,0.02354178,0.07174070,0.00
 000135,-0.00000639,0.00005923,-0.00000456,0.00000315,-0.00000170,-0.00
 009715,-0.00000665,-0.00002298,-0.00002144,-0.00001007,-0.00002807,-0.
 00000676,0.00000580,-0.00000568,0.00000109,0.00000643,0.00000548,-0.00
 000340,-0.00001069,-0.00000416,-0.00000045,0.00000140,0.00000012,-0.00
 000142,0.00000137,-0.00000062,-0.00000712,0.00000062,-0.00000139,0.000
 10413,0.00023399,-0.00024630,0.00000432,-0.00000551,0.00002210,-0.0002
 6179,0.00039344,0.00037630,0.00018290,0.00001144,-0.00012464,0.0002568
 8,0.00078793,-0.00008469,-0.01308734,-0.01621651,0.02295787,-0.0448352
 7,-0.14770684,0.12888662,0.00465315,0.01081395,-0.01216429,-0.00072991
 ,-0.00383852,0.00408618,0.04962292,0.15991446,-0.00001164,-0.00002107,
 -0.00007308,0.00003055,-0.00000792,0.00001033,0.00019630,0.00002376,0.
 00002897,-0.00000155,-0.00001288,0.00001435,0.00001018,-0.00002686,0.0
 0000157,-0.00000284,-0.00000236,0.00000235,0.00001004,0.00002641,0.000
 00459,0.00000968,-0.00000369,-0.00000261,0.00000358,-0.00000463,0.0000
 0324,0.00001511,-0.00000227,0.00000399,-0.00015661,-0.00050486,0.00023
 816,-0.00001063,0.00002161,-0.00001016,0.00105404,0.00046525,-0.000024
 59,0.00014051,0.00016331,-0.00049782,-0.00111973,-0.00017724,0.0005487
 6,-0.00039721,-0.00191560,0.00212344,0.05665519,0.12685499,-0.19131840
 ,0.00781347,0.01797320,-0.01940611,-0.00094260,-0.00406036,0.00366356,
 -0.06245419,-0.13743264,0.20626896,0.00049727,-0.00191438,0.00068678,-
 0.00049504,0.00018953,-0.00020978,0.00073876,0.00109920,-0.00017984,-0
 .00282386,-0.00099439,-0.00033014,-0.00048916,0.00064221,-0.00002956,0
 .00010116,0.00009221,-0.00030187,-0.00018600,-0.00032919,0.00021397,-0
 .00033422,0.00010379,0.00007194,-0.00011727,0.00011273,-0.00008567,-0.
 00030839,0.00001718,-0.00012341,-0.02541271,-0.05063829,-0.00445130,-0
 .00873469,0.00255624,-0.00085205,-0.09518678,-0.03950446,-0.00434931,0
 .00109512,-0.00333197,-0.00559117,-0.00162008,-0.00765250,0.00432310,-
 0.26488313,0.06144816,-0.01093464,-0.03294912,0.00126032,-0.00324105,-
 0.00141669,-0.00011008,0.00071246,-0.00217791,0.00594949,0.00017061,-0
 .00174997,0.00056679,-0.00084183,0.51072186,0.00026143,0.00078550,0.00
 018607,-0.00023527,0.00001194,-0.00007786,0.00258177,-0.00159804,0.000
 27050,0.00206617,0.00106489,0.00013969,0.00008610,0.00003592,0.0001033
 8,0.00001148,0.00003140,-0.00007180,-0.00001122,-0.00007428,-0.0000840
 2,-0.00002564,0.00000863,0.00001485,-0.00003519,0.00002660,-0.00002184
 ,-0.00005243,0.00001617,-0.00001467,-0.00886943,-0.00164170,-0.0007948
 5,0.00107468,0.00083596,0.00000076,-0.02631356,-0.19919624,-0.00896037
 ,-0.01561565,-0.02974374,-0.00427486,-0.01702630,-0.03174614,-0.001855
 28,0.01209064,-0.11247466,-0.00251259,0.02612768,0.00784908,0.00124807
 ,-0.00115012,-0.00022864,-0.00075248,0.00290056,-0.00499611,-0.0003348
 7,-0.00160359,0.00028809,0.00046000,0.10679078,0.38743314,-0.00014432,
 -0.00006896,0.00021803,-0.00006318,-0.00002119,-0.00006118,0.00028644,
 0.00002181,0.00026286,-0.00016060,-0.00014245,-0.00096704,-0.00007856,
 0.00016026,0.00001022,-0.00000871,-0.00003904,-0.00005661,-0.00001667,
 -0.00004280,0.00000210,-0.00002888,0.00000134,0.00001369,0.00000224,-0
 .00000214,-0.00000610,-0.00002045,0.00000685,-0.00001099,-0.00256957,-
 0.00383548,0.00219235,-0.00059931,0.00018747,0.00102912,-0.00366298,-0
 .00979716,-0.06336027,-0.01622002,-0.02679472,0.00361037,0.01368500,0.
 02222161,0.00914813,-0.01376862,0.00107158,-0.05326586,-0.00159830,-0.
 00058082,0.01787331,-0.00280912,0.00238101,-0.00018330,-0.00010808,-0.
 00015272,0.00191792,0.00280503,-0.00228858,-0.00047591,0.03587984,0.02
 508728,0.06850203,0.00019888,-0.00031067,0.00025754,-0.00024035,0.0000
 7480,-0.00007944,-0.00000411,0.00035501,-0.00007074,0.00049065,-0.0002
 7950,0.00003516,-0.00011571,0.00021692,-0.00002894,0.00003301,0.000031
 54,-0.00004804,-0.00008882,-0.00018101,0.00004532,-0.00011691,0.000042
 15,0.00002981,-0.00003651,0.00004107,-0.00003025,-0.00013841,0.0000095
 4,-0.00005034,0.00026917,-0.00387890,-0.00016643,-0.00144056,0.0002738
 2,-0.00012374,0.00030985,0.01183499,0.00010089,-0.00138594,-0.00239754
 ,-0.00093419,-0.00141940,-0.00233447,0.00056712,-0.18697849,-0.2264536
 3,-0.02084699,0.01362715,0.01024576,-0.00065496,0.00021155,0.00279755,
 0.00065057,0.00367310,-0.00103266,0.00023776,-0.00018268,0.00366307,0.
 00000020,-0.07426915,-0.08305291,-0.01080117,0.24760366,0.00019906,-0.
 00022566,0.00032664,-0.00030416,0.00007350,-0.00011459,-0.00047213,0.0
 0006916,-0.00012357,0.00037079,-0.00046543,-0.00000986,-0.00016348,0.0
 0023884,0.00000868,0.00003189,0.00002941,-0.00006824,-0.00008220,-0.00
 018940,0.00002265,-0.00010849,0.00002637,0.00002904,-0.00004288,0.0000
 4288,-0.00004124,-0.00012610,0.00002208,-0.00004008,0.00074266,-0.0023
 1027,-0.00006233,-0.00102014,0.00014404,-0.00010398,0.00348204,0.01161
 830,0.00046410,-0.00103709,-0.00134953,-0.00012686,-0.00098328,-0.0012
 8605,-0.00001070,-0.20442177,-0.66437183,-0.04861155,-0.01431322,-0.05
 360091,-0.00588161,0.00280133,-0.00499478,0.00153690,-0.00151794,0.001
 46715,0.00021113,0.00298342,-0.00466091,-0.00181615,-0.07635338,-0.016
 68777,-0.00737315,0.29033505,0.73641081,0.00002619,-0.00002078,0.00004
 646,-0.00001959,-0.00000158,-0.00002665,-0.00003497,0.00004328,0.00011
 523,0.00006702,-0.00004805,-0.00010169,-0.00002150,0.00004286,0.000010
 78,0.00000308,-0.00001181,-0.00001121,-0.00001555,-0.00002913,0.000002
 47,-0.00002174,0.00000395,0.00000705,-0.00000237,0.00000003,-0.0000058
 2,-0.00001654,0.00000600,-0.00000779,0.00004653,-0.00039288,0.00020893
 ,-0.00013922,0.00003362,-0.00021341,-0.00026675,0.00102872,0.00728827,
 0.00047761,0.00069514,-0.00027219,-0.00077073,-0.00114132,-0.00037013,
 -0.01943007,-0.04990609,-0.08319375,-0.00206052,-0.00464559,0.02858654
 ,-0.00245410,0.00428913,-0.00073745,0.00023839,0.00001303,-0.00029989,
 0.00302103,-0.00398818,-0.00110356,-0.01053708,-0.00775513,0.01360714,
 0.03191087,0.06178476,0.03647067\\0.00000185,0.00000297,0.00000043,0.0
 0000307,-0.00001113,-0.00000377,-0.00000575,-0.00000887,-0.00001165,-0
 .00000225,-0.00000200,-0.00001831,0.00000805,0.00000676,0.00000737,-0.
 00000192,0.00001840,0.00001461,-0.00000073,-0.00000122,0.00001123,0.00
 000404,0.00001961,0.00001118,0.00000037,0.00000398,0.00000539,0.000001
 79,0.00001050,0.00002581,0.00000179,0.00000134,0.00001261,0.00000086,0
 .00000234,0.00001912,-0.00001571,-0.00003721,0.00000572,-0.00000365,-0
 .00000302,0.00000843,-0.00000226,0.00001314,0.00000007,0.00001913,0.00
 000406,-0.00001820,-0.00000277,-0.00000369,0.00000263,-0.00000484,-0.0
 0001190,0.00000045,-0.00000208,-0.00000666,-0.00001511,0.00000655,0.00
 000306,-0.00000640,0.00000295,0.00002082,-0.00001643,-0.00000850,-0.00
 002126,-0.00003519\\\@


 A HARD FALL SHOULD MEAN A HIGH BOUNCE 
 IF ONE IS MADE OF THE RIGHT MATERIAL.

                -- THE CHEMIST ANALYST, MARCH 1950
 Job cpu time:       0 days  5 hours 30 minutes 21.6 seconds.
 File lengths (MBytes):  RWF=    355 Int=      0 D2E=      0 Chk=     16 Scr=      1
 Normal termination of Gaussian 09 at Wed Feb  9 15:46:21 2022.
