 Entering Gaussian System, Link 0=g09
 Input=diene_ma.com
 Output=diene_ma.log
 Initial command:
 /apps/applications/gaussian/G09.D01/2/default/g09/l1.exe "/nobackup/pmmass/Temp/Gau-63535.inp" -scrdir="/nobackup/pmmass/Temp/"
 Entering Link 1 = /apps/applications/gaussian/G09.D01/2/default/g09/l1.exe PID=     63536.
  
 Copyright (c) 1988,1990,1992,1993,1995,1998,2003,2009,2013,
            Gaussian, Inc.  All Rights Reserved.
  
 This is part of the Gaussian(R) 09 program.  It is based on
 the Gaussian(R) 03 system (copyright 2003, Gaussian, Inc.),
 the Gaussian(R) 98 system (copyright 1998, Gaussian, Inc.),
 the Gaussian(R) 94 system (copyright 1995, Gaussian, Inc.),
 the Gaussian 92(TM) system (copyright 1992, Gaussian, Inc.),
 the Gaussian 90(TM) system (copyright 1990, Gaussian, Inc.),
 the Gaussian 88(TM) system (copyright 1988, Gaussian, Inc.),
 the Gaussian 86(TM) system (copyright 1986, Carnegie Mellon
 University), and the Gaussian 82(TM) system (copyright 1983,
 Carnegie Mellon University). Gaussian is a federally registered
 trademark of Gaussian, Inc.
  
 This software contains proprietary and confidential information,
 including trade secrets, belonging to Gaussian, Inc.
  
 This software is provided under written license and may be
 used, copied, transmitted, or stored only in accord with that
 written license.
  
 The following legend is applicable only to US Government
 contracts under FAR:
  
                    RESTRICTED RIGHTS LEGEND
  
 Use, reproduction and disclosure by the US Government is
 subject to restrictions as set forth in subparagraphs (a)
 and (c) of the Commercial Computer Software - Restricted
 Rights clause in FAR 52.227-19.
  
 Gaussian, Inc.
 340 Quinnipiac St., Bldg. 40, Wallingford CT 06492
  
  
 ---------------------------------------------------------------
 Warning -- This program may not be used in any manner that
 competes with the business of Gaussian, Inc. or will provide
 assistance to any competitor of Gaussian, Inc.  The licensee
 of this program is prohibited from giving any competitor of
 Gaussian, Inc. access to this program.  By using this program,
 the user acknowledges that Gaussian, Inc. is engaged in the
 business of creating and licensing software in the field of
 computational chemistry and represents and warrants to the
 licensee that it is not a competitor of Gaussian, Inc. and that
 it will not use this program in any manner prohibited above.
 ---------------------------------------------------------------
  

 Cite this work as:
 Gaussian 09, Revision D.01,
 M. J. Frisch, G. W. Trucks, H. B. Schlegel, G. E. Scuseria, 
 M. A. Robb, J. R. Cheeseman, G. Scalmani, V. Barone, B. Mennucci, 
 G. A. Petersson, H. Nakatsuji, M. Caricato, X. Li, H. P. Hratchian, 
 A. F. Izmaylov, J. Bloino, G. Zheng, J. L. Sonnenberg, M. Hada, 
 M. Ehara, K. Toyota, R. Fukuda, J. Hasegawa, M. Ishida, T. Nakajima, 
 Y. Honda, O. Kitao, H. Nakai, T. Vreven, J. A. Montgomery, Jr., 
 J. E. Peralta, F. Ogliaro, M. Bearpark, J. J. Heyd, E. Brothers, 
 K. N. Kudin, V. N. Staroverov, T. Keith, R. Kobayashi, J. Normand, 
 K. Raghavachari, A. Rendell, J. C. Burant, S. S. Iyengar, J. Tomasi, 
 M. Cossi, N. Rega, J. M. Millam, M. Klene, J. E. Knox, J. B. Cross, 
 V. Bakken, C. Adamo, J. Jaramillo, R. Gomperts, R. E. Stratmann, 
 O. Yazyev, A. J. Austin, R. Cammi, C. Pomelli, J. W. Ochterski, 
 R. L. Martin, K. Morokuma, V. G. Zakrzewski, G. A. Voth, 
 P. Salvador, J. J. Dannenberg, S. Dapprich, A. D. Daniels, 
 O. Farkas, J. B. Foresman, J. V. Ortiz, J. Cioslowski, 
 and D. J. Fox, Gaussian, Inc., Wallingford CT, 2013.
 
 ******************************************
 Gaussian 09:  ES64L-G09RevD.01 24-Apr-2013
                 9-Feb-2022 
 ******************************************
 %nprocshared=8
 Will use up to    8 processors via shared memory.
 %mem=4GB
 %NoSave
 %chk="diene_ma.chk"
 -------------------------------------------
 #n wB97XD/Gen scrf(smd,solvent=toluene) opt
 -------------------------------------------
 1/14=-1,18=20,19=15,26=3,38=1/1,3;
 2/9=110,12=2,17=6,18=5,40=1/2;
 3/5=7,11=2,16=1,25=1,30=1,70=32201,71=1,72=13,74=-58/1,2,3;
 4//1;
 5/5=2,38=5,53=13/2;
 6/7=2,8=2,9=2,10=2,28=1/1;
 7//1,2,3,16;
 1/14=-1,18=20,19=15,26=3/3(2);
 2/9=110/2;
 99//99;
 2/9=110/2;
 3/5=7,6=1,11=2,16=1,25=1,30=1,70=32205,71=1,72=13,74=-58,82=7/1,2,3;
 4/5=5,16=3,69=1/1;
 5/5=2,38=5,53=13/2;
 7//1,2,3,16;
 1/14=-1,18=20,19=15,26=3/3(-5);
 2/9=110/2;
 6/7=2,8=2,9=2,10=2,19=2,28=1/1;
 99/9=1/99;
 -------------------------------
 diene diels-alder toluene - opt
 -------------------------------
 Symbolic Z-matrix:
 Charge =  0 Multiplicity = 1
 C                    -2.6049    0.63107  -0.28136 
 H                    -2.95079   1.5189   -0.81154 
 C                    -1.14442   0.44703  -0.21622 
 H                    -0.54343   1.35096  -0.1471 
 C                    -3.50849  -0.17531   0.27535 
 H                    -3.16306  -1.03296   0.85349 
 C                    -4.99114   0.01727   0.18503 
 H                    -5.43416   0.12621   1.18149 
 H                    -5.24413   0.9033   -0.40371 
 H                    -5.46957  -0.85233  -0.2802 
 C                    -0.52909  -0.73245  -0.25698 
 H                    -1.10672  -1.64819  -0.37611 
 C                     0.94884  -0.95239  -0.16673 
 H                     1.30321  -1.46212  -1.07093 
 H                     1.1727   -1.59666   0.69254 
 C                     2.95481   0.37725   0.09286 
 C                     3.74115  -0.90637   0.0636 
 H                     3.57679  -1.44173  -0.87545 
 H                     4.79781  -0.66438   0.16291 
 H                     3.43986  -1.56472   0.88311 
 O                     1.61329   0.30559  -0.02251 
 O                     3.45844   1.46451   0.21415 
 

 GradGradGradGradGradGradGradGradGradGradGradGradGradGradGradGradGradGrad
 Berny optimization.
 Initialization pass.
                           ----------------------------
                           !    Initial Parameters    !
                           ! (Angstroms and Degrees)  !
 --------------------------                            --------------------------
 ! Name  Definition              Value          Derivative Info.                !
 --------------------------------------------------------------------------------
 ! R1    R(1,2)                  1.0904         estimate D2E/DX2                !
 ! R2    R(1,3)                  1.4735         estimate D2E/DX2                !
 ! R3    R(1,5)                  1.3329         estimate D2E/DX2                !
 ! R4    R(3,4)                  1.0877         estimate D2E/DX2                !
 ! R5    R(3,11)                 1.331          estimate D2E/DX2                !
 ! R6    R(5,6)                  1.0905         estimate D2E/DX2                !
 ! R7    R(5,7)                  1.4978         estimate D2E/DX2                !
 ! R8    R(7,8)                  1.0959         estimate D2E/DX2                !
 ! R9    R(7,9)                  1.0935         estimate D2E/DX2                !
 ! R10   R(7,10)                 1.0961         estimate D2E/DX2                !
 ! R11   R(11,12)                1.0892         estimate D2E/DX2                !
 ! R12   R(11,13)                1.4969         estimate D2E/DX2                !
 ! R13   R(13,14)                1.0968         estimate D2E/DX2                !
 ! R14   R(13,15)                1.0971         estimate D2E/DX2                !
 ! R15   R(13,21)                1.43           estimate D2E/DX2                !
 ! R16   R(16,17)                1.5056         estimate D2E/DX2                !
 ! R17   R(16,21)                1.3484         estimate D2E/DX2                !
 ! R18   R(16,22)                1.2044         estimate D2E/DX2                !
 ! R19   R(17,18)                1.0934         estimate D2E/DX2                !
 ! R20   R(17,19)                1.0886         estimate D2E/DX2                !
 ! R21   R(17,20)                1.0935         estimate D2E/DX2                !
 ! A1    A(2,1,3)              115.9515         estimate D2E/DX2                !
 ! A2    A(2,1,5)              118.7262         estimate D2E/DX2                !
 ! A3    A(3,1,5)              125.3032         estimate D2E/DX2                !
 ! A4    A(1,3,4)              116.5307         estimate D2E/DX2                !
 ! A5    A(1,3,11)             124.5813         estimate D2E/DX2                !
 ! A6    A(4,3,11)             118.8794         estimate D2E/DX2                !
 ! A7    A(1,5,6)              118.8491         estimate D2E/DX2                !
 ! A8    A(1,5,7)              124.6156         estimate D2E/DX2                !
 ! A9    A(6,5,7)              116.5291         estimate D2E/DX2                !
 ! A10   A(5,7,8)              110.9834         estimate D2E/DX2                !
 ! A11   A(5,7,9)              111.4488         estimate D2E/DX2                !
 ! A12   A(5,7,10)             110.8324         estimate D2E/DX2                !
 ! A13   A(8,7,9)              108.3894         estimate D2E/DX2                !
 ! A14   A(8,7,10)             106.7576         estimate D2E/DX2                !
 ! A15   A(9,7,10)             108.2599         estimate D2E/DX2                !
 ! A16   A(3,11,12)            120.2127         estimate D2E/DX2                !
 ! A17   A(3,11,13)            125.7896         estimate D2E/DX2                !
 ! A18   A(12,11,13)           113.9944         estimate D2E/DX2                !
 ! A19   A(11,13,14)           109.7291         estimate D2E/DX2                !
 ! A20   A(11,13,15)           109.5709         estimate D2E/DX2                !
 ! A21   A(11,13,21)           109.6083         estimate D2E/DX2                !
 ! A22   A(14,13,15)           107.8694         estimate D2E/DX2                !
 ! A23   A(14,13,21)           109.9903         estimate D2E/DX2                !
 ! A24   A(15,13,21)           110.0491         estimate D2E/DX2                !
 ! A25   A(17,16,21)           118.2061         estimate D2E/DX2                !
 ! A26   A(17,16,22)           123.5881         estimate D2E/DX2                !
 ! A27   A(21,16,22)           118.2058         estimate D2E/DX2                !
 ! A28   A(16,17,18)           110.8321         estimate D2E/DX2                !
 ! A29   A(16,17,19)           108.4013         estimate D2E/DX2                !
 ! A30   A(16,17,20)           110.7821         estimate D2E/DX2                !
 ! A31   A(18,17,19)           109.4586         estimate D2E/DX2                !
 ! A32   A(18,17,20)           107.9053         estimate D2E/DX2                !
 ! A33   A(19,17,20)           109.4458         estimate D2E/DX2                !
 ! A34   A(13,21,16)           121.1768         estimate D2E/DX2                !
 ! D1    D(2,1,3,4)             34.124          estimate D2E/DX2                !
 ! D2    D(2,1,3,11)          -144.8008         estimate D2E/DX2                !
 ! D3    D(5,1,3,4)           -144.2611         estimate D2E/DX2                !
 ! D4    D(5,1,3,11)            36.8142         estimate D2E/DX2                !
 ! D5    D(2,1,5,6)           -176.605          estimate D2E/DX2                !
 ! D6    D(2,1,5,7)              2.4535         estimate D2E/DX2                !
 ! D7    D(3,1,5,6)              1.7391         estimate D2E/DX2                !
 ! D8    D(3,1,5,7)           -179.2024         estimate D2E/DX2                !
 ! D9    D(1,3,11,12)            1.9529         estimate D2E/DX2                !
 ! D10   D(1,3,11,13)         -178.7575         estimate D2E/DX2                !
 ! D11   D(4,3,11,12)         -176.9485         estimate D2E/DX2                !
 ! D12   D(4,3,11,13)            2.3412         estimate D2E/DX2                !
 ! D13   D(1,5,7,8)           -120.5206         estimate D2E/DX2                !
 ! D14   D(1,5,7,9)              0.3901         estimate D2E/DX2                !
 ! D15   D(1,5,7,10)           121.0329         estimate D2E/DX2                !
 ! D16   D(6,5,7,8)             58.5577         estimate D2E/DX2                !
 ! D17   D(6,5,7,9)            179.4684         estimate D2E/DX2                !
 ! D18   D(6,5,7,10)           -59.8889         estimate D2E/DX2                !
 ! D19   D(3,11,13,14)        -120.6321         estimate D2E/DX2                !
 ! D20   D(3,11,13,15)         121.1083         estimate D2E/DX2                !
 ! D21   D(3,11,13,21)           0.2515         estimate D2E/DX2                !
 ! D22   D(12,11,13,14)         58.696          estimate D2E/DX2                !
 ! D23   D(12,11,13,15)        -59.5636         estimate D2E/DX2                !
 ! D24   D(12,11,13,21)        179.5796         estimate D2E/DX2                !
 ! D25   D(11,13,21,16)        179.3714         estimate D2E/DX2                !
 ! D26   D(14,13,21,16)        -59.9032         estimate D2E/DX2                !
 ! D27   D(15,13,21,16)         58.8046         estimate D2E/DX2                !
 ! D28   D(21,16,17,18)         59.5705         estimate D2E/DX2                !
 ! D29   D(21,16,17,19)        179.7175         estimate D2E/DX2                !
 ! D30   D(21,16,17,20)        -60.1815         estimate D2E/DX2                !
 ! D31   D(22,16,17,18)       -120.4568         estimate D2E/DX2                !
 ! D32   D(22,16,17,19)         -0.3098         estimate D2E/DX2                !
 ! D33   D(22,16,17,20)        119.7912         estimate D2E/DX2                !
 ! D34   D(17,16,21,13)          0.1056         estimate D2E/DX2                !
 ! D35   D(22,16,21,13)       -179.8686         estimate D2E/DX2                !
 --------------------------------------------------------------------------------
 Trust Radius=3.00D-01 FncErr=1.00D-07 GrdErr=1.00D-06
 Number of steps in this run=    100 maximum allowed number of steps=    132.
 GradGradGradGradGradGradGradGradGradGradGradGradGradGradGradGradGradGrad

                          Input orientation:                          
 ---------------------------------------------------------------------
 Center     Atomic      Atomic             Coordinates (Angstroms)
 Number     Number       Type             X           Y           Z
 ---------------------------------------------------------------------
      1          6           0       -2.604900    0.631070   -0.281360
      2          1           0       -2.950790    1.518900   -0.811540
      3          6           0       -1.144420    0.447030   -0.216220
      4          1           0       -0.543430    1.350960   -0.147100
      5          6           0       -3.508490   -0.175310    0.275350
      6          1           0       -3.163060   -1.032960    0.853490
      7          6           0       -4.991140    0.017270    0.185030
      8          1           0       -5.434160    0.126210    1.181490
      9          1           0       -5.244130    0.903300   -0.403710
     10          1           0       -5.469570   -0.852330   -0.280200
     11          6           0       -0.529090   -0.732450   -0.256980
     12          1           0       -1.106720   -1.648190   -0.376110
     13          6           0        0.948840   -0.952390   -0.166730
     14          1           0        1.303210   -1.462120   -1.070930
     15          1           0        1.172700   -1.596660    0.692540
     16          6           0        2.954810    0.377250    0.092860
     17          6           0        3.741150   -0.906370    0.063600
     18          1           0        3.576790   -1.441730   -0.875450
     19          1           0        4.797810   -0.664380    0.162910
     20          1           0        3.439860   -1.564720    0.883110
     21          8           0        1.613290    0.305590   -0.022510
     22          8           0        3.458440    1.464510    0.214150
 ---------------------------------------------------------------------
                    Distance matrix (angstroms):
                    1          2          3          4          5
     1  C    0.000000
     2  H    1.090400   0.000000
     3  C    1.473471   2.183182   0.000000
     4  H    2.187676   2.503011   1.087684   0.000000
     5  C    1.332910   2.088709   2.493547   3.361480   0.000000
     6  H    2.090077   3.054402   2.722050   3.680586   1.090473
     7  C    2.507671   2.722329   3.891394   4.655230   1.497830
     8  H    3.224830   3.475468   4.523095   5.213867   2.149467
     9  H    2.656052   2.409294   4.129280   4.728935   2.153362
    10  H    3.225959   3.499901   4.516564   5.398061   2.147749
    11  C    2.483701   3.352722   1.330964   2.086355   3.077435
    12  H    2.729203   3.690617   2.101650   3.060170   2.891760
    13  C    3.892243   4.661563   2.518445   2.744572   4.546106
    14  H    4.503131   5.200988   3.219670   3.489550   5.159536
    15  H    4.492385   5.382577   3.220490   3.512629   4.909972
    16  C    5.578068   6.082550   4.111458   3.639145   6.489443
    17  C    6.538736   7.171462   5.077281   4.847428   7.289483
    18  H    6.546964   7.167895   5.127555   5.030489   7.288988
    19  H    7.528325   8.109073   6.057150   5.717215   8.321445
    20  H    6.535794   7.295270   5.125552   5.042730   7.111920
    21  O    4.238640   4.788060   2.768121   2.399950   5.152923
    22  O    6.140378   6.491011   4.733583   4.019746   7.157574
                    6          7          8          9         10
     6  H    0.000000
     7  C    2.211718   0.000000
     8  H    2.570828   1.095932   0.000000
     9  H    3.108136   1.093466   1.775624   0.000000
    10  H    2.576406   1.096147   1.759356   1.774349   0.000000
    11  C    2.874239   4.546135   5.183262   4.992876   4.941989
    12  H    2.473653   4.263491   4.929640   4.860970   4.435882
    13  C    4.237341   6.028875   6.612395   6.469360   6.420193
    14  H    4.882124   6.586719   7.279309   6.993429   6.845995
    15  H    4.375212   6.391812   6.845287   6.973326   6.754258
    16  C    6.324206   7.954634   8.463035   8.230791   8.521808
    17  C    6.950400   8.781842   9.300657   9.177611   9.217293
    18  H    6.970072   8.755725   9.374788   9.139493   9.085062
    19  H    7.999263   9.812679  10.312892  10.179354  10.278656
    20  H    6.624364   8.606496   9.038612   9.119140   9.013253
    21  O    5.037123   6.613977   7.151807   6.893967   7.181510
    22  O    7.105658   8.572675   9.044619   8.742507   9.236963
                   11         12         13         14         15
    11  C    0.000000
    12  H    1.089233   0.000000
    13  C    1.496929   2.180207   0.000000
    14  H    2.133602   2.514987   1.096805   0.000000
    15  H    2.131792   2.518020   1.097061   1.773404   0.000000
    16  C    3.673062   4.562715   2.420588   2.732302   2.726142
    17  C    4.285787   4.923970   2.802171   2.745827   2.732947
    18  H    4.212343   4.714577   2.765476   2.282059   2.874412
    19  H    5.343857   6.010150   3.873781   3.790907   3.780354
    20  H    4.212487   4.718473   2.771695   2.897253   2.275379
    21  O    2.392132   3.367602   1.429967   2.078493   2.079416
    22  O    4.577007   5.556797   3.504935   3.855076   3.850224
                   16         17         18         19         20
    16  C    0.000000
    17  C    1.505612   0.000000
    18  H    2.152480   1.093362   0.000000
    19  H    2.118148   1.088555   1.781391   0.000000
    20  H    2.151980   1.093525   1.768166   1.781384   0.000000
    21  O    1.348377   2.450316   2.763325   3.334125   2.766688
    22  O    1.204362   2.392418   3.106037   2.515693   3.102271
                   21         22
    21  O    0.000000
    22  O    2.191730   0.000000
 Stoichiometry    C8H12O2
 Framework group  C1[X(C8H12O2)]
 Deg. of freedom    60
 Full point group                 C1      NOp   1
 Largest Abelian subgroup         C1      NOp   1
 Largest concise Abelian subgroup C1      NOp   1
                         Standard orientation:                         
 ---------------------------------------------------------------------
 Center     Atomic      Atomic             Coordinates (Angstroms)
 Number     Number       Type             X           Y           Z
 ---------------------------------------------------------------------
      1          6           0       -2.607607    0.622520   -0.286612
      2          1           0       -2.954614    1.497942   -0.836335
      3          6           0       -1.146939    0.440974   -0.218746
      4          1           0       -0.546510    1.346636   -0.170596
      5          6           0       -3.510111   -0.171713    0.289002
      6          1           0       -3.163540   -1.015882    0.885993
      7          6           0       -4.992979    0.017788    0.195791
      8          1           0       -5.435130    0.148863    1.189969
      9          1           0       -5.247140    0.890152   -0.412526
     10          1           0       -5.471247   -0.862399   -0.249259
     11          6           0       -0.530832   -0.738712   -0.233503
     12          1           0       -1.107940   -1.657291   -0.331407
     13          6           0        0.947335   -0.955570   -0.139742
     14          1           0        1.301201   -1.485313   -1.032564
     15          1           0        1.172455   -1.580158    0.733616
     16          6           0        2.952629    0.380929    0.087882
     17          6           0        3.739830   -0.902497    0.086804
     18          1           0        3.574951   -1.458997   -0.839782
     19          1           0        4.796415   -0.657621    0.179618
     20          1           0        3.439772   -1.542410    0.921235
     21          8           0        1.611050    0.305787   -0.024552
     22          8           0        3.455621    1.470984    0.184150
 ---------------------------------------------------------------------
 Rotational constants (GHZ):      4.9427879      0.4097275      0.3847691
 General basis read from cards:  (5D, 7F)
 There are   472 symmetry adapted cartesian basis functions of A   symmetry.
 There are   422 symmetry adapted basis functions of A   symmetry.
   422 basis functions,   646 primitive gaussians,   472 cartesian basis functions
    38 alpha electrons       38 beta electrons
       nuclear repulsion energy       486.2535807762 Hartrees.
 NAtoms=   22 NActive=   22 NUniq=   22 SFac= 1.00D+00 NAtFMM=   60 NAOKFM=F Big=F
 Integral buffers will be    131072 words long.
 Raffenetti 2 integral format.
 Two-electron integral symmetry is turned on.
 Nuclear repulsion after empirical dispersion term =      486.2429428191 Hartrees.
 ------------------------------------------------------------------------------
 Polarizable Continuum Model (PCM)
 =================================
 Model                : PCM (using non-symmetric T matrix).
 Atomic radii         : SMD-Coulomb.
 Polarization charges : Total charges.
 Charge compensation  : None.
 Solution method      : On-the-fly selection.
 Cavity type          : VdW (van der Waals Surface) (Alpha=1.000).
 Cavity algorithm     : GePol (No added spheres)
                        Default sphere list used, NSphG=   22.
                        Lebedev-Laikov grids with approx.  5.0 points / Ang**2.
                        Smoothing algorithm: Karplus/York (Gamma=1.0000).
                        Polarization charges: spherical gaussians, with
                                              point-specific exponents (IZeta= 3).
                        Self-potential: point-specific (ISelfS= 7).
                        Self-field    : sphere-specific E.n sum rule (ISelfD= 2).
 1st derivatives      : Analytical E(r).r(x)/FMM algorithm (CHGder, D1EAlg=3).
                        Cavity 1st derivative terms included.
 Solvent              : Toluene, Eps=   2.374100 Eps(inf)=   2.238315
 ------------------------------------------------------------------------------
 ------------------------------------------------------------------------------
 Atomic radii for non-electrostatic terms: SMD-CDS.
 ------------------------------------------------------------------------------
 Nuclear repulsion after PCM non-electrostatic terms =      486.2365717771 Hartrees.
 One-electron integrals computed using PRISM.
 NBasis=   422 RedAO= T EigKep=  2.18D-06  NBF=   422
 NBsUse=   422 1.00D-06 EigRej= -1.00D+00 NBFU=   422
 ExpMin= 3.17D-02 ExpMax= 2.70D+04 ExpMxC= 9.22D+02 IAcc=3 IRadAn=         5 AccDes= 0.00D+00
 Harris functional with IExCor= 4639 and IRadAn=       5 diagonalized for initial guess.
 HarFok:  IExCor= 4639 AccDes= 0.00D+00 IRadAn=         5 IDoV= 1 UseB2=F ITyADJ=14
 ICtDFT=  3500011 ScaDFX=  1.000000  1.000000  1.000000  1.000000
 FoFCou: FMM=F IPFlag=           0 FMFlag=      100000 FMFlg1=           0
         NFxFlg=           0 DoJE=T BraDBF=F KetDBF=T FulRan=T
         wScrn=  0.000000 ICntrl=     500 IOpCl=  0 I1Cent=   200000004 NGrid=           0
         NMat0=    1 NMatS0=      1 NMatT0=    0 NMatD0=    1 NMtDS0=    0 NMtDT0=    0
 Petite list used in FoFCou.
 Requested convergence on RMS density matrix=1.00D-08 within 128 cycles.
 Requested convergence on MAX density matrix=1.00D-06.
 Requested convergence on             energy=1.00D-06.
 No special actions if energy rises.
 Inv3:  Mode=1 IEnd=    10101675.
 Iteration    1 A*A^-1 deviation from unit magnitude is 8.66D-15 for    899.
 Iteration    1 A*A^-1 deviation from orthogonality  is 2.09D-15 for   1832   1617.
 Iteration    1 A^-1*A deviation from unit magnitude is 9.99D-15 for    899.
 Iteration    1 A^-1*A deviation from orthogonality  is 1.68D-14 for   1168   1104.
 Error on total polarization charges =  0.02429
 SCF Done:  E(RwB97XD) =  -462.530837938     A.U. after   14 cycles
            NFock= 14  Conv=0.37D-08     -V/T= 2.0051
 SMD-CDS (non-electrostatic) energy       (kcal/mol) =      -4.00
 (included in total energy above)

 **********************************************************************

            Population analysis using the SCF density.

 **********************************************************************

 Orbital symmetries:
       Occupied  (A) (A) (A) (A) (A) (A) (A) (A) (A) (A) (A) (A)
                 (A) (A) (A) (A) (A) (A) (A) (A) (A) (A) (A) (A)
                 (A) (A) (A) (A) (A) (A) (A) (A) (A) (A) (A) (A)
                 (A) (A)
       Virtual   (A) (A) (A) (A) (A) (A) (A) (A) (A) (A) (A) (A)
                 (A) (A) (A) (A) (A) (A) (A) (A) (A) (A) (A) (A)
                 (A) (A) (A) (A) (A) (A) (A) (A) (A) (A) (A) (A)
                 (A) (A) (A) (A) (A) (A) (A) (A) (A) (A) (A) (A)
                 (A) (A) (A) (A) (A) (A) (A) (A) (A) (A) (A) (A)
                 (A) (A) (A) (A) (A) (A) (A) (A) (A) (A) (A) (A)
                 (A) (A) (A) (A) (A) (A) (A) (A) (A) (A) (A) (A)
                 (A) (A) (A) (A) (A) (A) (A) (A) (A) (A) (A) (A)
                 (A) (A) (A) (A) (A) (A) (A) (A) (A) (A) (A) (A)
                 (A) (A) (A) (A) (A) (A) (A) (A) (A) (A) (A) (A)
                 (A) (A) (A) (A) (A) (A) (A) (A) (A) (A) (A) (A)
                 (A) (A) (A) (A) (A) (A) (A) (A) (A) (A) (A) (A)
                 (A) (A) (A) (A) (A) (A) (A) (A) (A) (A) (A) (A)
                 (A) (A) (A) (A) (A) (A) (A) (A) (A) (A) (A) (A)
                 (A) (A) (A) (A) (A) (A) (A) (A) (A) (A) (A) (A)
                 (A) (A) (A) (A) (A) (A) (A) (A) (A) (A) (A) (A)
                 (A) (A) (A) (A) (A) (A) (A) (A) (A) (A) (A) (A)
                 (A) (A) (A) (A) (A) (A) (A) (A) (A) (A) (A) (A)
                 (A) (A) (A) (A) (A) (A) (A) (A) (A) (A) (A) (A)
                 (A) (A) (A) (A) (A) (A) (A) (A) (A) (A) (A) (A)
                 (A) (A) (A) (A) (A) (A) (A) (A) (A) (A) (A) (A)
                 (A) (A) (A) (A) (A) (A) (A) (A) (A) (A) (A) (A)
                 (A) (A) (A) (A) (A) (A) (A) (A) (A) (A) (A) (A)
                 (A) (A) (A) (A) (A) (A) (A) (A) (A) (A) (A) (A)
                 (A) (A) (A) (A) (A) (A) (A) (A) (A) (A) (A) (A)
                 (A) (A) (A) (A) (A) (A) (A) (A) (A) (A) (A) (A)
                 (A) (A) (A) (A) (A) (A) (A) (A) (A) (A) (A) (A)
                 (A) (A) (A) (A) (A) (A) (A) (A) (A) (A) (A) (A)
                 (A) (A) (A) (A) (A) (A) (A) (A) (A) (A) (A) (A)
                 (A) (A) (A) (A) (A) (A) (A) (A) (A) (A) (A) (A)
                 (A) (A) (A) (A) (A) (A) (A) (A) (A) (A) (A) (A)
                 (A) (A) (A) (A) (A) (A) (A) (A) (A) (A) (A) (A)
 The electronic state is 1-A.
 Alpha  occ. eigenvalues --  -19.29556 -19.22894 -10.41716 -10.35292 -10.29476
 Alpha  occ. eigenvalues --  -10.29021 -10.28587 -10.28580 -10.28134 -10.27530
 Alpha  occ. eigenvalues --   -1.20705  -1.12124  -0.91918  -0.88041  -0.84965
 Alpha  occ. eigenvalues --   -0.82121  -0.75844  -0.69615  -0.66337  -0.61337
 Alpha  occ. eigenvalues --   -0.59362  -0.59068  -0.57541  -0.54794  -0.52433
 Alpha  occ. eigenvalues --   -0.52218  -0.49877  -0.49502  -0.48967  -0.47336
 Alpha  occ. eigenvalues --   -0.47220  -0.43933  -0.43420  -0.42323  -0.39126
 Alpha  occ. eigenvalues --   -0.37641  -0.35951  -0.30444
 Alpha virt. eigenvalues --    0.04372   0.04685   0.05072   0.06245   0.07099
 Alpha virt. eigenvalues --    0.07186   0.07674   0.07947   0.08501   0.08997
 Alpha virt. eigenvalues --    0.09498   0.09879   0.10003   0.10712   0.11062
 Alpha virt. eigenvalues --    0.11385   0.11699   0.12429   0.13141   0.13524
 Alpha virt. eigenvalues --    0.14113   0.14636   0.14778   0.15517   0.15843
 Alpha virt. eigenvalues --    0.16653   0.17045   0.17123   0.17734   0.18072
 Alpha virt. eigenvalues --    0.18900   0.19627   0.20134   0.21527   0.22050
 Alpha virt. eigenvalues --    0.22223   0.23202   0.23991   0.24294   0.24670
 Alpha virt. eigenvalues --    0.25348   0.25685   0.25831   0.26193   0.26531
 Alpha virt. eigenvalues --    0.27109   0.27520   0.28458   0.28774   0.29565
 Alpha virt. eigenvalues --    0.30277   0.31099   0.31584   0.32293   0.32749
 Alpha virt. eigenvalues --    0.33212   0.34985   0.36008   0.37822   0.38420
 Alpha virt. eigenvalues --    0.38678   0.39037   0.39880   0.40207   0.41218
 Alpha virt. eigenvalues --    0.41856   0.42476   0.43650   0.44782   0.45136
 Alpha virt. eigenvalues --    0.46359   0.47230   0.48005   0.48260   0.49063
 Alpha virt. eigenvalues --    0.49459   0.49980   0.50414   0.51870   0.52156
 Alpha virt. eigenvalues --    0.53537   0.54332   0.55579   0.56384   0.56663
 Alpha virt. eigenvalues --    0.57722   0.58819   0.59054   0.59452   0.59730
 Alpha virt. eigenvalues --    0.60420   0.60594   0.61956   0.62991   0.64364
 Alpha virt. eigenvalues --    0.65017   0.65385   0.65953   0.67297   0.68317
 Alpha virt. eigenvalues --    0.69239   0.70422   0.71376   0.73274   0.75731
 Alpha virt. eigenvalues --    0.76896   0.77471   0.78282   0.79135   0.80336
 Alpha virt. eigenvalues --    0.81551   0.81983   0.83444   0.84232   0.85700
 Alpha virt. eigenvalues --    0.86534   0.87683   0.88856   0.90470   0.91685
 Alpha virt. eigenvalues --    0.92040   0.96306   0.98891   0.99355   1.01018
 Alpha virt. eigenvalues --    1.03196   1.07012   1.09252   1.11301   1.12149
 Alpha virt. eigenvalues --    1.13019   1.14353   1.14722   1.16255   1.16826
 Alpha virt. eigenvalues --    1.18498   1.20425   1.21958   1.23046   1.25715
 Alpha virt. eigenvalues --    1.26548   1.27232   1.28920   1.29028   1.30800
 Alpha virt. eigenvalues --    1.32946   1.34368   1.37647   1.38320   1.39657
 Alpha virt. eigenvalues --    1.44298   1.46206   1.47701   1.51579   1.55493
 Alpha virt. eigenvalues --    1.56431   1.59068   1.60568   1.61067   1.61662
 Alpha virt. eigenvalues --    1.62589   1.63869   1.64243   1.65086   1.66021
 Alpha virt. eigenvalues --    1.66518   1.66907   1.67693   1.68550   1.69380
 Alpha virt. eigenvalues --    1.71183   1.72793   1.74105   1.74763   1.75423
 Alpha virt. eigenvalues --    1.77129   1.78906   1.81715   1.83554   1.84970
 Alpha virt. eigenvalues --    1.86340   1.87992   1.91691   1.93600   1.95075
 Alpha virt. eigenvalues --    1.96350   1.98503   1.99947   2.00894   2.01895
 Alpha virt. eigenvalues --    2.03679   2.05813   2.07377   2.08738   2.11429
 Alpha virt. eigenvalues --    2.13860   2.16525   2.18385   2.18796   2.22016
 Alpha virt. eigenvalues --    2.24474   2.27821   2.28869   2.31492   2.31951
 Alpha virt. eigenvalues --    2.34762   2.35711   2.38477   2.39150   2.39751
 Alpha virt. eigenvalues --    2.42758   2.43180   2.44118   2.45369   2.45783
 Alpha virt. eigenvalues --    2.46696   2.47488   2.49403   2.50848   2.53005
 Alpha virt. eigenvalues --    2.53761   2.55622   2.57416   2.60827   2.62752
 Alpha virt. eigenvalues --    2.62906   2.65448   2.66550   2.66899   2.68136
 Alpha virt. eigenvalues --    2.69275   2.70442   2.71284   2.71760   2.75340
 Alpha virt. eigenvalues --    2.77398   2.78475   2.81427   2.82381   2.83533
 Alpha virt. eigenvalues --    2.84578   2.85088   2.89751   2.91233   2.92766
 Alpha virt. eigenvalues --    2.93702   2.95670   2.97718   2.99180   2.99897
 Alpha virt. eigenvalues --    3.02009   3.02264   3.03736   3.04716   3.05303
 Alpha virt. eigenvalues --    3.08418   3.09178   3.12123   3.13536   3.14478
 Alpha virt. eigenvalues --    3.16689   3.17910   3.18733   3.19532   3.20728
 Alpha virt. eigenvalues --    3.20831   3.21972   3.22443   3.23247   3.24803
 Alpha virt. eigenvalues --    3.25798   3.27125   3.28597   3.29342   3.29702
 Alpha virt. eigenvalues --    3.30504   3.33298   3.33751   3.35060   3.36131
 Alpha virt. eigenvalues --    3.36502   3.37599   3.39062   3.39926   3.42561
 Alpha virt. eigenvalues --    3.43318   3.44397   3.48122   3.49197   3.51117
 Alpha virt. eigenvalues --    3.52409   3.54358   3.54846   3.56538   3.57546
 Alpha virt. eigenvalues --    3.62453   3.64816   3.65654   3.66878   3.68920
 Alpha virt. eigenvalues --    3.70395   3.71953   3.74353   3.76905   3.79079
 Alpha virt. eigenvalues --    3.80011   3.83073   3.83893   3.87495   3.88545
 Alpha virt. eigenvalues --    3.90488   3.94179   3.98149   3.98664   3.99493
 Alpha virt. eigenvalues --    4.06830   4.07852   4.10537   4.14278   4.16198
 Alpha virt. eigenvalues --    4.21092   4.24892   4.28091   4.33342   4.37368
 Alpha virt. eigenvalues --    4.43385   4.44491   4.45160   4.47291   4.47908
 Alpha virt. eigenvalues --    4.49407   4.53300   4.56682   4.58010   4.59771
 Alpha virt. eigenvalues --    4.65082   4.66900   4.72668   4.75170   4.77345
 Alpha virt. eigenvalues --    4.81773   4.82998   4.87850   4.91960   4.96630
 Alpha virt. eigenvalues --    5.07124   5.11093   5.20917   5.26487   5.27426
 Alpha virt. eigenvalues --    5.30810   5.33352   5.34811   5.52231   5.56342
 Alpha virt. eigenvalues --    5.71820   5.92796   5.98736   5.99962   6.14636
 Alpha virt. eigenvalues --    6.28923   6.37686   6.46870   6.53873   6.60276
 Alpha virt. eigenvalues --    6.74599   6.92987   6.93002   6.96408   6.97930
 Alpha virt. eigenvalues --    7.17954   7.22826   7.34901   7.53974  22.44499
 Alpha virt. eigenvalues --   22.47496  22.48582  22.51735  22.63240  22.93616
 Alpha virt. eigenvalues --   23.01282  23.46255  44.12062  44.41974
          Condensed to atoms (all electrons):
               1          2          3          4          5          6
     1  C    5.734175   0.423800  -0.345325  -0.000261   0.191274   0.007992
     2  H    0.423800   0.500136  -0.071674  -0.002113   0.000834   0.003401
     3  C   -0.345325  -0.071674   5.748140   0.352042   0.120285  -0.036368
     4  H   -0.000261  -0.002113   0.352042   0.466526   0.005785  -0.000035
     5  C    0.191274   0.000834   0.120285   0.005785   5.589806   0.382740
     6  H    0.007992   0.003401  -0.036368  -0.000035   0.382740   0.504682
     7  C    0.013198  -0.004312   0.020366  -0.001130   0.067862  -0.017437
     8  H   -0.026089   0.000233   0.005866   0.000000  -0.052020  -0.002025
     9  H    0.092912   0.002352  -0.017087  -0.000036  -0.139262   0.002825
    10  H   -0.057364  -0.000245   0.018176   0.000015   0.020818  -0.001815
    11  C    0.224806   0.000969   0.118555   0.022392  -0.047908   0.024787
    12  H    0.011655   0.000125  -0.012487   0.003065   0.006892  -0.000347
    13  C   -0.179950  -0.005167   0.339329  -0.018423   0.014328  -0.018518
    14  H    0.003802   0.000018  -0.009045   0.000095   0.001858   0.000010
    15  H    0.003022   0.000001  -0.002463  -0.000372  -0.002850  -0.000012
    16  C    0.013553  -0.000110  -0.042020  -0.000473  -0.000805   0.000046
    17  C    0.003031  -0.000037  -0.007997   0.000107   0.002119  -0.000100
    18  H    0.000609   0.000000  -0.000225  -0.000006  -0.000245   0.000000
    19  H   -0.000143   0.000000  -0.000025   0.000003  -0.000017   0.000000
    20  H   -0.000242   0.000000   0.001012  -0.000005   0.000390   0.000000
    21  O    0.011491  -0.000192   0.012236  -0.013841  -0.001177  -0.000184
    22  O    0.002530  -0.000002  -0.016635  -0.000086  -0.000141  -0.000001
               7          8          9         10         11         12
     1  C    0.013198  -0.026089   0.092912  -0.057364   0.224806   0.011655
     2  H   -0.004312   0.000233   0.002352  -0.000245   0.000969   0.000125
     3  C    0.020366   0.005866  -0.017087   0.018176   0.118555  -0.012487
     4  H   -0.001130   0.000000  -0.000036   0.000015   0.022392   0.003065
     5  C    0.067862  -0.052020  -0.139262   0.020818  -0.047908   0.006892
     6  H   -0.017437  -0.002025   0.002825  -0.001815   0.024787  -0.000347
     7  C    5.010739   0.445930   0.438308   0.394808   0.011576  -0.003563
     8  H    0.445930   0.541896  -0.022148  -0.033988   0.001251   0.000026
     9  H    0.438308  -0.022148   0.528539  -0.021865   0.000260  -0.000001
    10  H    0.394808  -0.033988  -0.021865   0.542462  -0.003510  -0.000054
    11  C    0.011576   0.001251   0.000260  -0.003510   5.918219   0.427991
    12  H   -0.003563   0.000026  -0.000001  -0.000054   0.427991   0.484679
    13  C   -0.007274  -0.001804   0.000087   0.001786  -0.338280  -0.079121
    14  H   -0.000294   0.000000   0.000000   0.000000  -0.025520  -0.001985
    15  H    0.000383  -0.000001   0.000000   0.000001  -0.037477  -0.002510
    16  C   -0.000383  -0.000010  -0.000002   0.000002   0.054716  -0.000059
    17  C   -0.000219   0.000002  -0.000004   0.000000   0.008554  -0.001425
    18  H   -0.000018   0.000000   0.000000   0.000000  -0.005869  -0.000023
    19  H    0.000001   0.000000   0.000000   0.000000   0.001524   0.000000
    20  H    0.000009   0.000000   0.000000   0.000000  -0.000184  -0.000024
    21  O   -0.000389   0.000003   0.000004  -0.000003  -0.125181   0.001179
    22  O    0.000035   0.000000   0.000000   0.000000   0.033944   0.000066
              13         14         15         16         17         18
     1  C   -0.179950   0.003802   0.003022   0.013553   0.003031   0.000609
     2  H   -0.005167   0.000018   0.000001  -0.000110  -0.000037   0.000000
     3  C    0.339329  -0.009045  -0.002463  -0.042020  -0.007997  -0.000225
     4  H   -0.018423   0.000095  -0.000372  -0.000473   0.000107  -0.000006
     5  C    0.014328   0.001858  -0.002850  -0.000805   0.002119  -0.000245
     6  H   -0.018518   0.000010  -0.000012   0.000046  -0.000100   0.000000
     7  C   -0.007274  -0.000294   0.000383  -0.000383  -0.000219  -0.000018
     8  H   -0.001804   0.000000  -0.000001  -0.000010   0.000002   0.000000
     9  H    0.000087   0.000000   0.000000  -0.000002  -0.000004   0.000000
    10  H    0.001786   0.000000   0.000001   0.000002   0.000000   0.000000
    11  C   -0.338280  -0.025520  -0.037477   0.054716   0.008554  -0.005869
    12  H   -0.079121  -0.001985  -0.002510  -0.000059  -0.001425  -0.000023
    13  C    5.334246   0.420894   0.425048  -0.072031  -0.032429  -0.006478
    14  H    0.420894   0.565599  -0.052248  -0.006330   0.001285   0.000605
    15  H    0.425048  -0.052248   0.569692  -0.008677   0.002968  -0.002003
    16  C   -0.072031  -0.006330  -0.008677   5.071224   0.092350  -0.051409
    17  C   -0.032429   0.001285   0.002968   0.092350   5.208995   0.433965
    18  H   -0.006478   0.000605  -0.002003  -0.051409   0.433965   0.502291
    19  H    0.009668   0.000110   0.000095  -0.041017   0.408488  -0.012753
    20  H   -0.016452  -0.001925   0.000596  -0.051251   0.437571  -0.032990
    21  O    0.268043  -0.043980  -0.039305   0.143383  -0.031881   0.009356
    22  O   -0.015043   0.000730   0.000869   0.431335  -0.046342  -0.001831
              19         20         21         22
     1  C   -0.000143  -0.000242   0.011491   0.002530
     2  H    0.000000   0.000000  -0.000192  -0.000002
     3  C   -0.000025   0.001012   0.012236  -0.016635
     4  H    0.000003  -0.000005  -0.013841  -0.000086
     5  C   -0.000017   0.000390  -0.001177  -0.000141
     6  H    0.000000   0.000000  -0.000184  -0.000001
     7  C    0.000001   0.000009  -0.000389   0.000035
     8  H    0.000000   0.000000   0.000003   0.000000
     9  H    0.000000   0.000000   0.000004   0.000000
    10  H    0.000000   0.000000  -0.000003   0.000000
    11  C    0.001524  -0.000184  -0.125181   0.033944
    12  H    0.000000  -0.000024   0.001179   0.000066
    13  C    0.009668  -0.016452   0.268043  -0.015043
    14  H    0.000110  -0.001925  -0.043980   0.000730
    15  H    0.000095   0.000596  -0.039305   0.000869
    16  C   -0.041017  -0.051251   0.143383   0.431335
    17  C    0.408488   0.437571  -0.031881  -0.046342
    18  H   -0.012753  -0.032990   0.009356  -0.001831
    19  H    0.463777  -0.012207   0.002248  -0.000303
    20  H   -0.012207   0.501033   0.008920  -0.001904
    21  O    0.002248   0.008920   8.190281  -0.092301
    22  O   -0.000303  -0.001904  -0.092301   8.155960
 Mulliken charges:
               1
     1  C   -0.128476
     2  H    0.151983
     3  C   -0.174657
     4  H    0.186752
     5  C   -0.160565
     6  H    0.150360
     7  C   -0.368196
     8  H    0.142878
     9  H    0.135119
    10  H    0.140777
    11  C   -0.265613
    12  H    0.165923
    13  C   -0.022458
    14  H    0.146322
    15  H    0.145242
    16  C    0.467969
    17  C   -0.479001
    18  H    0.167024
    19  H    0.180553
    20  H    0.167653
    21  O   -0.298709
    22  O   -0.450881
 Sum of Mulliken charges =   0.00000
 Mulliken charges with hydrogens summed into heavy atoms:
               1
     1  C    0.023507
     3  C    0.012095
     5  C   -0.010204
     7  C    0.050579
    11  C   -0.099690
    13  C    0.269106
    16  C    0.467969
    17  C    0.036229
    21  O   -0.298709
    22  O   -0.450881
 Electronic spatial extent (au):  <R**2>=           2827.1339
 Charge=              0.0000 electrons
 Dipole moment (field-independent basis, Debye):
    X=             -1.6033    Y=             -5.0279    Z=             -0.2378  Tot=              5.2827
 Quadrupole moment (field-independent basis, Debye-Ang):
   XX=            -59.2638   YY=            -61.5381   ZZ=            -61.0853
   XY=            -13.9072   XZ=             -1.3426   YZ=             -1.7895
 Traceless Quadrupole moment (field-independent basis, Debye-Ang):
   XX=              1.3652   YY=             -0.9090   ZZ=             -0.4562
   XY=            -13.9072   XZ=             -1.3426   YZ=             -1.7895
 Octapole moment (field-independent basis, Debye-Ang**2):
  XXX=            -19.4970  YYY=             -7.6206  ZZZ=              2.3279  XYY=            -10.8112
  XXY=            -46.5221  XXZ=             -0.9502  XZZ=             12.3077  YZZ=             -1.0256
  YYZ=             -2.5542  XYZ=              1.8804
 Hexadecapole moment (field-independent basis, Debye-Ang**3):
 XXXX=          -3273.1224 YYYY=           -321.0623 ZZZZ=           -104.5212 XXXY=           -143.8021
 XXXZ=            -20.7530 YYYX=            -18.3452 YYYZ=             -4.0966 ZZZX=             -4.8492
 ZZZY=             -0.5077 XXYY=           -656.7634 XXZZ=           -571.9281 YYZZ=            -65.9577
 XXYZ=            -19.1077 YYXZ=              3.1820 ZZXY=             -1.9857
 N-N= 4.862365717771D+02 E-N=-2.050961833155D+03  KE= 4.601794967497D+02
 D1PCM: PCM CHGder 1st derivatives, ID1Alg=3 FixD1E=F DoIter=F DoCFld=F I1PDM=0.
 Calling FoFJK, ICntrl=      2127 FMM=F ISym2X=0 I1Cent= 0 IOpClX= 0 NMat=1 NMatS=1 NMatT=0.
 ***** Axes restored to original set *****
 -------------------------------------------------------------------
 Center     Atomic                   Forces (Hartrees/Bohr)
 Number     Number              X              Y              Z
 -------------------------------------------------------------------
      1        6           0.002034123   -0.001275853    0.000696338
      2        1           0.000835188   -0.001441759    0.001138757
      3        6          -0.002414021   -0.001100369   -0.000245785
      4        1          -0.001079988   -0.001577317   -0.000406945
      5        6          -0.000621249    0.001192090   -0.000823208
      6        1          -0.000822515    0.001584289   -0.000944626
      7        6           0.001857731   -0.000346879    0.000147576
      8        1           0.000523915   -0.000246194   -0.001406682
      9        1           0.000175170   -0.001320397    0.000908980
     10        1           0.000675156    0.001236599    0.000669649
     11        6           0.000663823    0.000823133    0.000146007
     12        1           0.001237766    0.001565062    0.000060557
     13        6          -0.001094878    0.003829743    0.000236930
     14        1          -0.000602703    0.000648317    0.001220428
     15        1          -0.000377041    0.000719270   -0.001135771
     16        6          -0.000496083    0.005753327    0.000446517
     17        6          -0.000066635    0.000998989    0.000070423
     18        1           0.000373204    0.000599880    0.001262936
     19        1          -0.001506278   -0.000857923   -0.000089921
     20        1           0.000673698    0.000667029   -0.001172248
     21        8           0.003286040   -0.004531654    0.000045935
     22        8          -0.003254426   -0.006919382   -0.000825846
 -------------------------------------------------------------------
 Cartesian Forces:  Max     0.006919382 RMS     0.001725198

 GradGradGradGradGradGradGradGradGradGradGradGradGradGradGradGradGradGrad
 Berny optimization.
 FormGI is forming the generalized inverse of G from B-inverse, IUseBI=4.
 Internal  Forces:  Max     0.007696673 RMS     0.001506852
 Search for a local minimum.
 Step number   1 out of a maximum of  100
 All quantities printed in internal units (Hartrees-Bohrs-Radians)
 Mixed Optimization -- RFO/linear search
 Second derivative matrix not updated -- first step.
 ITU=  0
     Eigenvalues ---    0.00692   0.00795   0.00807   0.01078   0.01117
     Eigenvalues ---    0.01295   0.01690   0.01744   0.02071   0.02080
     Eigenvalues ---    0.02375   0.02976   0.03002   0.06406   0.07158
     Eigenvalues ---    0.07285   0.07311   0.07492   0.07508   0.11394
     Eigenvalues ---    0.13937   0.15997   0.15999   0.15999   0.15999
     Eigenvalues ---    0.16000   0.16000   0.16000   0.16000   0.16000
     Eigenvalues ---    0.16000   0.22000   0.22000   0.22000   0.22001
     Eigenvalues ---    0.22051   0.25000   0.25000   0.25000   0.31796
     Eigenvalues ---    0.32606   0.32702   0.34009   0.34038   0.34112
     Eigenvalues ---    0.34136   0.34408   0.34415   0.34427   0.34758
     Eigenvalues ---    0.34766   0.34901   0.34980   0.35082   0.35328
     Eigenvalues ---    0.40994   0.55368   0.58824   0.59279   1.02661
 RFO step:  Lambda=-4.50737677D-04 EMin= 6.91713400D-03
 Linear search not attempted -- first point.
 Iteration  1 RMS(Cart)=  0.00950866 RMS(Int)=  0.00002539
 Iteration  2 RMS(Cart)=  0.00005528 RMS(Int)=  0.00000191
 Iteration  3 RMS(Cart)=  0.00000000 RMS(Int)=  0.00000191
 Variable       Old X    -DE/DX   Delta X   Delta X   Delta X     New X
                                 (Linear)    (Quad)   (Total)
    R1        2.06056  -0.00199   0.00000  -0.00572  -0.00572   2.05484
    R2        2.78446  -0.00471   0.00000  -0.01332  -0.01332   2.77113
    R3        2.51884  -0.00311   0.00000  -0.00528  -0.00528   2.51356
    R4        2.05542  -0.00193   0.00000  -0.00551  -0.00551   2.04992
    R5        2.51516  -0.00341   0.00000  -0.00575  -0.00575   2.50940
    R6        2.06070  -0.00201   0.00000  -0.00578  -0.00578   2.05492
    R7        2.83049  -0.00331   0.00000  -0.01013  -0.01013   2.82036
    R8        2.07101  -0.00151   0.00000  -0.00440  -0.00440   2.06661
    R9        2.06635  -0.00160   0.00000  -0.00463  -0.00463   2.06172
   R10        2.07142  -0.00157   0.00000  -0.00461  -0.00461   2.06681
   R11        2.05835  -0.00198   0.00000  -0.00566  -0.00566   2.05270
   R12        2.82879  -0.00316   0.00000  -0.00964  -0.00964   2.81914
   R13        2.07266  -0.00150   0.00000  -0.00441  -0.00441   2.06825
   R14        2.07314  -0.00138   0.00000  -0.00406  -0.00406   2.06908
   R15        2.70225  -0.00431   0.00000  -0.01050  -0.01050   2.69175
   R16        2.84519  -0.00145   0.00000  -0.00456  -0.00456   2.84063
   R17        2.54806  -0.00428   0.00000  -0.00772  -0.00772   2.54035
   R18        2.27592  -0.00770   0.00000  -0.00749  -0.00749   2.26842
   R19        2.06615  -0.00143   0.00000  -0.00414  -0.00414   2.06202
   R20        2.05707  -0.00166   0.00000  -0.00475  -0.00475   2.05232
   R21        2.06646  -0.00146   0.00000  -0.00425  -0.00425   2.06221
    A1        2.02374  -0.00040   0.00000  -0.00223  -0.00223   2.02151
    A2        2.07216   0.00002   0.00000   0.00042   0.00041   2.07258
    A3        2.18695   0.00038   0.00000   0.00168   0.00168   2.18863
    A4        2.03384  -0.00031   0.00000  -0.00145  -0.00145   2.03240
    A5        2.17435   0.00056   0.00000   0.00254   0.00254   2.17689
    A6        2.07484  -0.00026   0.00000  -0.00113  -0.00113   2.07370
    A7        2.07431  -0.00011   0.00000  -0.00015  -0.00015   2.07416
    A8        2.17495   0.00062   0.00000   0.00281   0.00281   2.17776
    A9        2.03382  -0.00051   0.00000  -0.00267  -0.00267   2.03114
   A10        1.93702   0.00005   0.00000   0.00022   0.00022   1.93725
   A11        1.94515   0.00030   0.00000   0.00214   0.00213   1.94728
   A12        1.93439  -0.00007   0.00000  -0.00062  -0.00062   1.93377
   A13        1.89175  -0.00012   0.00000  -0.00040  -0.00040   1.89136
   A14        1.86327  -0.00009   0.00000  -0.00109  -0.00109   1.86219
   A15        1.88949  -0.00009   0.00000  -0.00041  -0.00041   1.88909
   A16        2.09811   0.00002   0.00000   0.00046   0.00046   2.09857
   A17        2.19544   0.00038   0.00000   0.00170   0.00170   2.19714
   A18        1.98958  -0.00040   0.00000  -0.00217  -0.00217   1.98740
   A19        1.91513  -0.00047   0.00000  -0.00257  -0.00258   1.91256
   A20        1.91237  -0.00036   0.00000  -0.00181  -0.00182   1.91055
   A21        1.91303   0.00124   0.00000   0.00610   0.00609   1.91912
   A22        1.88268   0.00008   0.00000  -0.00128  -0.00129   1.88139
   A23        1.91969  -0.00023   0.00000  -0.00003  -0.00003   1.91967
   A24        1.92072  -0.00030   0.00000  -0.00056  -0.00056   1.92016
   A25        2.06309   0.00026   0.00000   0.00105   0.00104   2.06413
   A26        2.15702  -0.00008   0.00000  -0.00033  -0.00034   2.15668
   A27        2.06308  -0.00018   0.00000  -0.00072  -0.00072   2.06236
   A28        1.93439   0.00009   0.00000   0.00053   0.00053   1.93491
   A29        1.89196   0.00061   0.00000   0.00391   0.00390   1.89586
   A30        1.93351   0.00035   0.00000   0.00213   0.00213   1.93564
   A31        1.91041  -0.00035   0.00000  -0.00208  -0.00209   1.90833
   A32        1.88330  -0.00025   0.00000  -0.00173  -0.00173   1.88158
   A33        1.91019  -0.00048   0.00000  -0.00290  -0.00291   1.90728
   A34        2.11493   0.00153   0.00000   0.00611   0.00611   2.12104
    D1        0.59558  -0.00013   0.00000  -0.00841  -0.00841   0.58717
    D2       -2.52725  -0.00008   0.00000  -0.00599  -0.00598  -2.53323
    D3       -2.51783  -0.00002   0.00000  -0.00291  -0.00291  -2.52074
    D4        0.64253   0.00003   0.00000  -0.00049  -0.00049   0.64204
    D5       -3.08234   0.00012   0.00000   0.00484   0.00485  -3.07749
    D6        0.04282   0.00009   0.00000   0.00372   0.00372   0.04654
    D7        0.03035  -0.00001   0.00000  -0.00083  -0.00083   0.02952
    D8       -3.12767  -0.00003   0.00000  -0.00196  -0.00196  -3.12963
    D9        0.03408   0.00015   0.00000   0.00494   0.00494   0.03902
   D10       -3.11991   0.00013   0.00000   0.00359   0.00359  -3.11632
   D11       -3.08833   0.00021   0.00000   0.00742   0.00742  -3.08092
   D12        0.04086   0.00018   0.00000   0.00607   0.00607   0.04693
   D13       -2.10348  -0.00008   0.00000  -0.00360  -0.00360  -2.10708
   D14        0.00681   0.00000   0.00000  -0.00249  -0.00249   0.00432
   D15        2.11242   0.00003   0.00000  -0.00199  -0.00199   2.11044
   D16        1.02202  -0.00010   0.00000  -0.00468  -0.00468   1.01734
   D17        3.13231  -0.00002   0.00000  -0.00357  -0.00357   3.12874
   D18       -1.04526   0.00002   0.00000  -0.00307  -0.00307  -1.04833
   D19       -2.10543  -0.00014   0.00000   0.00413   0.00414  -2.10129
   D20        2.11374   0.00025   0.00000   0.00831   0.00831   2.12205
   D21        0.00439   0.00007   0.00000   0.00632   0.00632   0.01071
   D22        1.02444  -0.00017   0.00000   0.00287   0.00288   1.02731
   D23       -1.03958   0.00023   0.00000   0.00705   0.00705  -1.03253
   D24        3.13426   0.00005   0.00000   0.00506   0.00506   3.13932
   D25        3.13062   0.00008   0.00000   0.00449   0.00449   3.13511
   D26       -1.04551   0.00016   0.00000   0.00516   0.00516  -1.04034
   D27        1.02633  -0.00007   0.00000   0.00322   0.00322   1.02955
   D28        1.03970  -0.00003   0.00000  -0.00023  -0.00023   1.03947
   D29        3.13666  -0.00001   0.00000   0.00000   0.00000   3.13666
   D30       -1.05037   0.00000   0.00000   0.00019   0.00019  -1.05017
   D31       -2.10237   0.00004   0.00000   0.00567   0.00567  -2.09670
   D32       -0.00541   0.00006   0.00000   0.00590   0.00590   0.00050
   D33        2.09075   0.00007   0.00000   0.00609   0.00609   2.09685
   D34        0.00184   0.00008   0.00000   0.00471   0.00471   0.00655
   D35       -3.13930   0.00002   0.00000  -0.00087  -0.00087  -3.14017
         Item               Value     Threshold  Converged?
 Maximum Force            0.007697     0.000450     NO 
 RMS     Force            0.001507     0.000300     NO 
 Maximum Displacement     0.027198     0.001800     NO 
 RMS     Displacement     0.009523     0.001200     NO 
 Predicted change in Energy=-2.257917D-04
 GradGradGradGradGradGradGradGradGradGradGradGradGradGradGradGradGradGrad

                          Input orientation:                          
 ---------------------------------------------------------------------
 Center     Atomic      Atomic             Coordinates (Angstroms)
 Number     Number       Type             X           Y           Z
 ---------------------------------------------------------------------
      1          6           0       -2.600564    0.627016   -0.286743
      2          1           0       -2.943644    1.512821   -0.815922
      3          6           0       -1.146986    0.444479   -0.222104
      4          1           0       -0.548883    1.347433   -0.161493
      5          6           0       -3.503290   -0.173467    0.273189
      6          1           0       -3.159779   -1.026316    0.853814
      7          6           0       -4.980926    0.017620    0.186301
      8          1           0       -5.421106    0.126743    1.181438
      9          1           0       -5.237370    0.900122   -0.401695
     10          1           0       -5.458435   -0.851564   -0.274897
     11          6           0       -0.529924   -0.730874   -0.256008
     12          1           0       -1.102779   -1.646287   -0.373370
     13          6           0        0.942952   -0.948335   -0.161692
     14          1           0        1.297170   -1.456838   -1.063811
     15          1           0        1.162308   -1.594440    0.694613
     16          6           0        2.947791    0.374603    0.101095
     17          6           0        3.736942   -0.904136    0.060249
     18          1           0        3.573950   -1.431460   -0.881038
     19          1           0        4.791441   -0.664298    0.160213
     20          1           0        3.440525   -1.570709    0.871852
     21          8           0        1.610379    0.301248   -0.013251
     22          8           0        3.447227    1.459119    0.224949
 ---------------------------------------------------------------------
                    Distance matrix (angstroms):
                    1          2          3          4          5
     1  C    0.000000
     2  H    1.087375   0.000000
     3  C    1.466420   2.173006   0.000000
     4  H    2.178091   2.488074   1.084770   0.000000
     5  C    1.330118   2.083971   2.485828   3.351210   0.000000
     6  H    2.084969   3.046629   2.715174   3.671826   1.087417
     7  C    2.502250   2.718565   3.879188   4.640298   1.492471
     8  H    3.218895   3.471091   4.509876   5.199240   2.143142
     9  H    2.653403   2.410013   4.119600   4.715898   2.148277
    10  H    3.217727   3.493880   4.502345   5.380720   2.140749
    11  C    2.476360   3.342710   1.327919   2.080541   3.071100
    12  H    2.723742   3.683015   2.096697   3.051893   2.889583
    13  C    3.879931   4.646604   2.512254   2.737905   4.534160
    14  H    4.487606   5.183129   3.208953   3.476497   5.145778
    15  H    4.478519   5.366156   3.214094   3.509374   4.895362
    16  C    5.567618   6.070047   4.108107   3.638968   6.476608
    17  C    6.529074   7.158183   5.074568   4.846342   7.280122
    18  H    6.535681   7.152067   5.122556   5.023718   7.280255
    19  H    7.517247   8.094704   6.053137   5.715735   8.310009
    20  H    6.532005   7.287959   5.128643   5.049627   7.108252
    21  O    4.232371   4.780305   2.768971   2.403933   5.143639
    22  O    6.126174   6.475302   4.726113   4.016306   7.139843
                    6          7          8          9         10
     6  H    0.000000
     7  C    2.202714   0.000000
     8  H    2.559391   1.093601   0.000000
     9  H    3.099007   1.091014   1.771492   0.000000
    10  H    2.566778   1.093709   1.754819   1.770127   0.000000
    11  C    2.869691   4.535118   5.169663   4.984116   4.930025
    12  H    2.474185   4.256975   4.920265   4.855908   4.428659
    13  C    4.227260   6.012195   6.592497   6.455290   6.403119
    14  H    4.871040   6.568964   7.258381   6.978099   6.828392
    15  H    4.362172   6.371533   6.822082   6.955617   6.732463
    16  C    6.311225   7.937207   8.441979   8.217410   8.503499
    17  C    6.943301   8.767368   9.283836   9.165534   9.201633
    18  H    6.965411   8.742136   9.359104   9.127179   9.071255
    19  H    7.989621   9.796165  10.293919  10.165638  10.260817
    20  H    6.622741   8.597302   9.028050   9.112233   9.001316
    21  O    5.026792   6.600422   7.134390   6.884854   7.166978
    22  O    7.086987   8.550624   9.018726   8.725101   9.214116
                   11         12         13         14         15
    11  C    0.000000
    12  H    1.086240   0.000000
    13  C    1.491827   2.171856   0.000000
    14  H    2.125522   2.504467   1.094470   0.000000
    15  H    2.124400   2.504774   1.094910   1.768948   0.000000
    16  C    3.666621   4.551509   2.416320   2.726855   2.723480
    17  C    4.282077   4.915456   2.803140   2.742531   2.740014
    18  H    4.209901   4.709105   2.770022   2.284246   2.885352
    19  H    5.338034   5.999237   3.872360   3.786329   3.784356
    20  H    4.212109   4.711465   2.773704   2.890282   2.285224
    21  O    2.388537   3.359138   1.424413   2.071871   2.072552
    22  O    4.565646   5.541127   3.495243   3.845317   3.842611
                   16         17         18         19         20
    16  C    0.000000
    17  C    1.503197   0.000000
    18  H    2.149075   1.091172   0.000000
    19  H    2.117039   1.086041   1.776239   0.000000
    20  H    2.149672   1.091275   1.763467   1.775665   0.000000
    21  O    1.344294   2.445531   2.758793   3.328892   2.763524
    22  O    1.200397   2.386638   3.097533   2.513962   3.098126
                   21         22
    21  O    0.000000
    22  O    2.184357   0.000000
 Stoichiometry    C8H12O2
 Framework group  C1[X(C8H12O2)]
 Deg. of freedom    60
 Full point group                 C1      NOp   1
 Largest Abelian subgroup         C1      NOp   1
 Largest concise Abelian subgroup C1      NOp   1
                         Standard orientation:                         
 ---------------------------------------------------------------------
 Center     Atomic      Atomic             Coordinates (Angstroms)
 Number     Number       Type             X           Y           Z
 ---------------------------------------------------------------------
      1          6           0       -2.602341    0.617807   -0.292833
      2          1           0       -2.947238    1.489939   -0.843121
      3          6           0       -1.148471    0.438289   -0.226335
      4          1           0       -0.551150    1.343027   -0.189143
      5          6           0       -3.503277   -0.169440    0.288347
      6          1           0       -3.157889   -1.007353    0.889249
      7          6           0       -4.981253    0.018053    0.199440
      8          1           0       -5.419760    0.151326    1.192371
      9          1           0       -5.239616    0.885510   -0.409722
     10          1           0       -5.458730   -0.862713   -0.239270
     11          6           0       -0.530315   -0.736962   -0.232298
     12          1           0       -1.102477   -1.655534   -0.325961
     13          6           0        0.942941   -0.950641   -0.135304
     14          1           0        1.296046   -1.480955   -1.025220
     15          1           0        1.164464   -1.575177    0.736309
     16          6           0        2.946944    0.380270    0.091074
     17          6           0        3.737279   -0.898346    0.080415
     18          1           0        3.573123   -1.448927   -0.847254
     19          1           0        4.791719   -0.655119    0.172511
     20          1           0        3.442969   -1.544932    0.908780
     21          8           0        1.609403    0.302856   -0.019001
     22          8           0        3.445533    1.467986    0.187181
 ---------------------------------------------------------------------
 Rotational constants (GHZ):      4.9697362      0.4112821      0.3863486
 Basis read from rwf:  (5D, 7F)
 There are   472 symmetry adapted cartesian basis functions of A   symmetry.
 There are   422 symmetry adapted basis functions of A   symmetry.
   422 basis functions,   646 primitive gaussians,   472 cartesian basis functions
    38 alpha electrons       38 beta electrons
       nuclear repulsion energy       487.3966622769 Hartrees.
 NAtoms=   22 NActive=   22 NUniq=   22 SFac= 1.00D+00 NAtFMM=   60 NAOKFM=F Big=F
 Integral buffers will be    131072 words long.
 Raffenetti 2 integral format.
 Two-electron integral symmetry is turned on.
 Nuclear repulsion after empirical dispersion term =      487.3860135303 Hartrees.
 ------------------------------------------------------------------------------
 Polarizable Continuum Model (PCM)
 =================================
 Model                : PCM (using non-symmetric T matrix).
 Atomic radii         : SMD-Coulomb.
 Polarization charges : Total charges.
 Charge compensation  : None.
 Solution method      : On-the-fly selection.
 Cavity type          : VdW (van der Waals Surface) (Alpha=1.000).
 Cavity algorithm     : GePol (No added spheres)
                        Default sphere list used, NSphG=   22.
                        Lebedev-Laikov grids with approx.  5.0 points / Ang**2.
                        Smoothing algorithm: Karplus/York (Gamma=1.0000).
                        Polarization charges: spherical gaussians, with
                                              point-specific exponents (IZeta= 3).
                        Self-potential: point-specific (ISelfS= 7).
                        Self-field    : sphere-specific E.n sum rule (ISelfD= 2).
 1st derivatives      : Analytical E(r).r(x)/FMM algorithm (CHGder, D1EAlg=3).
                        Cavity 1st derivative terms included.
 Solvent              : Toluene, Eps=   2.374100 Eps(inf)=   2.238315
 ------------------------------------------------------------------------------
 ------------------------------------------------------------------------------
 Atomic radii for non-electrostatic terms: SMD-CDS.
 ------------------------------------------------------------------------------
 Nuclear repulsion after PCM non-electrostatic terms =      487.3796036974 Hartrees.
 One-electron integrals computed using PRISM.
 NBasis=   422 RedAO= T EigKep=  2.14D-06  NBF=   422
 NBsUse=   422 1.00D-06 EigRej= -1.00D+00 NBFU=   422
 Initial guess from the checkpoint file:  ""diene_ma.chk""
 B after Tr=     0.000000    0.000000    0.000000
         Rot=    1.000000    0.000241   -0.000022   -0.000107 Ang=   0.03 deg.
 ExpMin= 3.17D-02 ExpMax= 2.70D+04 ExpMxC= 9.22D+02 IAcc=3 IRadAn=         5 AccDes= 0.00D+00
 Harris functional with IExCor= 4639 and IRadAn=       5 diagonalized for initial guess.
 HarFok:  IExCor= 4639 AccDes= 0.00D+00 IRadAn=         5 IDoV= 1 UseB2=F ITyADJ=14
 ICtDFT=  3500011 ScaDFX=  1.000000  1.000000  1.000000  1.000000
 FoFCou: FMM=F IPFlag=           0 FMFlag=      100000 FMFlg1=           0
         NFxFlg=           0 DoJE=T BraDBF=F KetDBF=T FulRan=T
         wScrn=  0.000000 ICntrl=     500 IOpCl=  0 I1Cent=   200000004 NGrid=           0
         NMat0=    1 NMatS0=      1 NMatT0=    0 NMatD0=    1 NMtDS0=    0 NMtDT0=    0
 Petite list used in FoFCou.
 Requested convergence on RMS density matrix=1.00D-08 within 128 cycles.
 Requested convergence on MAX density matrix=1.00D-06.
 Requested convergence on             energy=1.00D-06.
 No special actions if energy rises.
 Inv3:  Mode=1 IEnd=    10112688.
 Iteration    1 A*A^-1 deviation from unit magnitude is 6.22D-15 for    195.
 Iteration    1 A*A^-1 deviation from orthogonality  is 3.69D-15 for    615    197.
 Iteration    1 A^-1*A deviation from unit magnitude is 5.33D-15 for    217.
 Iteration    1 A^-1*A deviation from orthogonality  is 3.30D-15 for    803    779.
 Error on total polarization charges =  0.02421
 SCF Done:  E(RwB97XD) =  -462.531072676     A.U. after   11 cycles
            NFock= 11  Conv=0.51D-08     -V/T= 2.0048
 SMD-CDS (non-electrostatic) energy       (kcal/mol) =      -4.02
 (included in total energy above)
 D1PCM: PCM CHGder 1st derivatives, ID1Alg=3 FixD1E=F DoIter=F DoCFld=F I1PDM=0.
 Calling FoFJK, ICntrl=      2127 FMM=F ISym2X=0 I1Cent= 0 IOpClX= 0 NMat=1 NMatS=1 NMatT=0.
 ***** Axes restored to original set *****
 -------------------------------------------------------------------
 Center     Atomic                   Forces (Hartrees/Bohr)
 Number     Number              X              Y              Z
 -------------------------------------------------------------------
      1        6           0.000992591    0.000075535    0.000099736
      2        1          -0.000132746    0.000140791   -0.000005681
      3        6          -0.001015151    0.000105558   -0.000243615
      4        1           0.000205572    0.000125610    0.000029449
      5        6          -0.000785870    0.000159278   -0.000144268
      6        1           0.000034029   -0.000105638    0.000100294
      7        6           0.000509889   -0.000097452    0.000070927
      8        1          -0.000154691   -0.000071895    0.000009342
      9        1          -0.000182599    0.000010244    0.000000820
     10        1          -0.000144125   -0.000039057   -0.000045770
     11        6           0.000750791   -0.000243937    0.000122313
     12        1           0.000008950   -0.000153397    0.000013729
     13        6           0.000136805    0.001848396    0.000131788
     14        1           0.000080071   -0.000314278   -0.000105659
     15        1          -0.000027658   -0.000358644    0.000037182
     16        6          -0.000574960    0.001376448   -0.000597449
     17        6          -0.000310608    0.000195212    0.000273055
     18        1           0.000031705   -0.000067582   -0.000068802
     19        1           0.000066446   -0.000102347    0.000043888
     20        1           0.000046808   -0.000210088   -0.000039615
     21        8           0.000351284   -0.001872972    0.000109571
     22        8           0.000113467   -0.000399786    0.000208765
 -------------------------------------------------------------------
 Cartesian Forces:  Max     0.001872972 RMS     0.000466023

 GradGradGradGradGradGradGradGradGradGradGradGradGradGradGradGradGradGrad
 Berny optimization.
 Using GEDIIS/GDIIS optimizer.
 FormGI is forming the generalized inverse of G from B-inverse, IUseBI=4.
 Internal  Forces:  Max     0.001125341 RMS     0.000246443
 Search for a local minimum.
 Step number   2 out of a maximum of  100
 All quantities printed in internal units (Hartrees-Bohrs-Radians)
 Mixed Optimization -- En-DIIS/RFO-DIIS
 Update second derivatives using D2CorX and points    1    2
 DE= -2.35D-04 DEPred=-2.26D-04 R= 1.04D+00
 TightC=F SS=  1.41D+00  RLast= 4.34D-02 DXNew= 5.0454D-01 1.3019D-01
 Trust test= 1.04D+00 RLast= 4.34D-02 DXMaxT set to 3.00D-01
 ITU=  1  0
 Use linear search instead of GDIIS.
     Eigenvalues ---    0.00689   0.00793   0.00805   0.01089   0.01114
     Eigenvalues ---    0.01294   0.01692   0.01745   0.02075   0.02082
     Eigenvalues ---    0.02372   0.02974   0.03010   0.06364   0.07141
     Eigenvalues ---    0.07266   0.07305   0.07445   0.07462   0.11418
     Eigenvalues ---    0.13965   0.15702   0.15997   0.15999   0.15999
     Eigenvalues ---    0.15999   0.16000   0.16000   0.16000   0.16000
     Eigenvalues ---    0.16043   0.21041   0.22000   0.22001   0.22001
     Eigenvalues ---    0.22115   0.24397   0.25000   0.25155   0.31838
     Eigenvalues ---    0.32562   0.32659   0.34016   0.34044   0.34124
     Eigenvalues ---    0.34221   0.34410   0.34421   0.34521   0.34762
     Eigenvalues ---    0.34837   0.34937   0.35012   0.35058   0.36607
     Eigenvalues ---    0.39854   0.54615   0.59008   0.61590   1.02469
 RFO step:  Lambda=-3.26297528D-05 EMin= 6.89479559D-03
 Quartic linear search produced a step of  0.04754.
 Iteration  1 RMS(Cart)=  0.00485201 RMS(Int)=  0.00002590
 Iteration  2 RMS(Cart)=  0.00003624 RMS(Int)=  0.00001095
 Iteration  3 RMS(Cart)=  0.00000000 RMS(Int)=  0.00001095
 Variable       Old X    -DE/DX   Delta X   Delta X   Delta X     New X
                                 (Linear)    (Quad)   (Total)
    R1        2.05484   0.00016  -0.00027   0.00034   0.00007   2.05491
    R2        2.77113  -0.00013  -0.00063  -0.00073  -0.00136   2.76977
    R3        2.51356   0.00056  -0.00025   0.00086   0.00061   2.51417
    R4        2.04992   0.00022  -0.00026   0.00051   0.00025   2.05017
    R5        2.50940   0.00062  -0.00027   0.00096   0.00069   2.51009
    R6        2.05492   0.00015  -0.00027   0.00029   0.00002   2.05494
    R7        2.82036  -0.00006  -0.00048  -0.00044  -0.00092   2.81944
    R8        2.06661   0.00007  -0.00021   0.00011  -0.00009   2.06651
    R9        2.06172   0.00005  -0.00022   0.00005  -0.00017   2.06154
   R10        2.06681   0.00010  -0.00022   0.00019  -0.00002   2.06679
   R11        2.05270   0.00013  -0.00027   0.00024  -0.00003   2.05266
   R12        2.81914  -0.00010  -0.00046  -0.00057  -0.00102   2.81812
   R13        2.06825   0.00026  -0.00021   0.00068   0.00047   2.06872
   R14        2.06908   0.00024  -0.00019   0.00064   0.00044   2.06952
   R15        2.69175  -0.00113  -0.00050  -0.00314  -0.00364   2.68811
   R16        2.84063   0.00008  -0.00022   0.00016  -0.00005   2.84058
   R17        2.54035  -0.00060  -0.00037  -0.00133  -0.00170   2.53865
   R18        2.26842  -0.00030  -0.00036  -0.00049  -0.00085   2.26758
   R19        2.06202   0.00009  -0.00020   0.00018  -0.00001   2.06200
   R20        2.05232   0.00004  -0.00023   0.00001  -0.00022   2.05210
   R21        2.06221   0.00009  -0.00020   0.00016  -0.00005   2.06217
    A1        2.02151  -0.00006  -0.00011  -0.00018  -0.00029   2.02122
    A2        2.07258  -0.00024   0.00002  -0.00129  -0.00127   2.07131
    A3        2.18863   0.00030   0.00008   0.00150   0.00158   2.19021
    A4        2.03240  -0.00015  -0.00007  -0.00053  -0.00060   2.03180
    A5        2.17689   0.00051   0.00012   0.00247   0.00259   2.17949
    A6        2.07370  -0.00036  -0.00005  -0.00192  -0.00198   2.07173
    A7        2.07416  -0.00019  -0.00001  -0.00090  -0.00091   2.07325
    A8        2.17776   0.00041   0.00013   0.00204   0.00217   2.17993
    A9        2.03114  -0.00022  -0.00013  -0.00113  -0.00125   2.02989
   A10        1.93725   0.00011   0.00001   0.00068   0.00069   1.93793
   A11        1.94728   0.00021   0.00010   0.00160   0.00170   1.94899
   A12        1.93377   0.00008  -0.00003   0.00038   0.00035   1.93412
   A13        1.89136  -0.00013  -0.00002  -0.00063  -0.00065   1.89070
   A14        1.86219  -0.00015  -0.00005  -0.00132  -0.00137   1.86081
   A15        1.88909  -0.00014  -0.00002  -0.00089  -0.00091   1.88818
   A16        2.09857  -0.00001   0.00002   0.00014   0.00016   2.09872
   A17        2.19714   0.00020   0.00008   0.00099   0.00107   2.19821
   A18        1.98740  -0.00019  -0.00010  -0.00113  -0.00123   1.98618
   A19        1.91256  -0.00005  -0.00012  -0.00044  -0.00056   1.91200
   A20        1.91055  -0.00014  -0.00009  -0.00118  -0.00126   1.90929
   A21        1.91912   0.00018   0.00029   0.00151   0.00180   1.92092
   A22        1.88139  -0.00014  -0.00006  -0.00241  -0.00248   1.87891
   A23        1.91967   0.00005   0.00000   0.00115   0.00115   1.92081
   A24        1.92016   0.00009  -0.00003   0.00128   0.00125   1.92141
   A25        2.06413  -0.00068   0.00005  -0.00279  -0.00280   2.06133
   A26        2.15668   0.00002  -0.00002   0.00010   0.00003   2.15671
   A27        2.06236   0.00066  -0.00003   0.00279   0.00269   2.06505
   A28        1.93491   0.00000   0.00003  -0.00012  -0.00010   1.93482
   A29        1.89586   0.00013   0.00019   0.00104   0.00123   1.89709
   A30        1.93564   0.00023   0.00010   0.00161   0.00171   1.93735
   A31        1.90833  -0.00008  -0.00010  -0.00069  -0.00079   1.90754
   A32        1.88158  -0.00015  -0.00008  -0.00119  -0.00127   1.88031
   A33        1.90728  -0.00014  -0.00014  -0.00071  -0.00085   1.90643
   A34        2.12104   0.00062   0.00029   0.00277   0.00306   2.12410
    D1        0.58717  -0.00002  -0.00040  -0.00330  -0.00370   0.58348
    D2       -2.53323  -0.00004  -0.00028  -0.00427  -0.00455  -2.53779
    D3       -2.52074  -0.00004  -0.00014  -0.00417  -0.00431  -2.52506
    D4        0.64204  -0.00006  -0.00002  -0.00515  -0.00517   0.63687
    D5       -3.07749   0.00000   0.00023   0.00000   0.00023  -3.07726
    D6        0.04654   0.00002   0.00018   0.00071   0.00089   0.04743
    D7        0.02952   0.00003  -0.00004   0.00093   0.00089   0.03041
    D8       -3.12963   0.00004  -0.00009   0.00164   0.00154  -3.12809
    D9        0.03902  -0.00001   0.00023   0.00004   0.00027   0.03929
   D10       -3.11632  -0.00001   0.00017  -0.00022  -0.00005  -3.11637
   D11       -3.08092  -0.00003   0.00035  -0.00098  -0.00062  -3.08154
   D12        0.04693  -0.00004   0.00029  -0.00123  -0.00094   0.04598
   D13       -2.10708  -0.00007  -0.00017  -0.00390  -0.00407  -2.11115
   D14        0.00432  -0.00002  -0.00012  -0.00314  -0.00326   0.00106
   D15        2.11044   0.00000  -0.00009  -0.00293  -0.00302   2.10741
   D16        1.01734  -0.00005  -0.00022  -0.00320  -0.00343   1.01392
   D17        3.12874   0.00000  -0.00017  -0.00244  -0.00261   3.12613
   D18       -1.04833   0.00001  -0.00015  -0.00223  -0.00238  -1.05071
   D19       -2.10129  -0.00013   0.00020   0.00022   0.00042  -2.10088
   D20        2.12205   0.00016   0.00040   0.00410   0.00449   2.12654
   D21        0.01071   0.00002   0.00030   0.00232   0.00262   0.01333
   D22        1.02731  -0.00013   0.00014  -0.00002   0.00012   1.02744
   D23       -1.03253   0.00016   0.00034   0.00387   0.00420  -1.02833
   D24        3.13932   0.00002   0.00024   0.00208   0.00232  -3.14154
   D25        3.13511   0.00000   0.00021   0.00214   0.00235   3.13746
   D26       -1.04034   0.00008   0.00025   0.00329   0.00354  -1.03680
   D27        1.02955   0.00000   0.00015   0.00182   0.00197   1.03152
   D28        1.03947   0.00014  -0.00001   0.01615   0.01613   1.05560
   D29        3.13666   0.00012   0.00000   0.01589   0.01589  -3.13063
   D30       -1.05017   0.00018   0.00001   0.01666   0.01667  -1.03350
   D31       -2.09670  -0.00008   0.00027  -0.00472  -0.00444  -2.10114
   D32        0.00050  -0.00010   0.00028  -0.00497  -0.00469  -0.00419
   D33        2.09685  -0.00004   0.00029  -0.00420  -0.00391   2.09294
   D34        0.00655  -0.00003   0.00022  -0.00678  -0.00657  -0.00002
   D35       -3.14017   0.00017  -0.00004   0.01293   0.01290  -3.12727
         Item               Value     Threshold  Converged?
 Maximum Force            0.001125     0.000450     NO 
 RMS     Force            0.000246     0.000300     YES
 Maximum Displacement     0.019058     0.001800     NO 
 RMS     Displacement     0.004853     0.001200     NO 
 Predicted change in Energy=-1.678314D-05
 GradGradGradGradGradGradGradGradGradGradGradGradGradGradGradGradGradGrad

                          Input orientation:                          
 ---------------------------------------------------------------------
 Center     Atomic      Atomic             Coordinates (Angstroms)
 Number     Number       Type             X           Y           Z
 ---------------------------------------------------------------------
      1          6           0       -2.600286    0.627142   -0.286616
      2          1           0       -2.943095    1.513539   -0.815056
      3          6           0       -1.147475    0.443615   -0.223891
      4          1           0       -0.548945    1.346703   -0.167214
      5          6           0       -3.504678   -0.172278    0.272920
      6          1           0       -3.161765   -1.025679    0.853103
      7          6           0       -4.981965    0.018103    0.186912
      8          1           0       -5.422822    0.122983    1.182150
      9          1           0       -5.240840    0.901922   -0.397861
     10          1           0       -5.459364   -0.849811   -0.276756
     11          6           0       -0.528341   -0.731164   -0.253896
     12          1           0       -1.099686   -1.648071   -0.366696
     13          6           0        0.944298   -0.947269   -0.161340
     14          1           0        1.296791   -1.459045   -1.062587
     15          1           0        1.163889   -1.593641    0.695005
     16          6           0        2.949048    0.376550    0.093808
     17          6           0        3.736695   -0.903267    0.059226
     18          1           0        3.582765   -1.428791   -0.884582
     19          1           0        4.790649   -0.666451    0.170298
     20          1           0        3.431668   -1.572143    0.865695
[...]

            Population analysis using the SCF density.

 **********************************************************************

 Orbital symmetries:
       Occupied  (A) (A) (A) (A) (A) (A) (A) (A) (A) (A) (A) (A)
                 (A) (A) (A) (A) (A) (A) (A) (A) (A) (A) (A) (A)
                 (A) (A) (A) (A) (A) (A) (A) (A) (A) (A) (A) (A)
                 (A) (A)
       Virtual   (A) (A) (A) (A) (A) (A) (A) (A) (A) (A) (A) (A)
                 (A) (A) (A) (A) (A) (A) (A) (A) (A) (A) (A) (A)
                 (A) (A) (A) (A) (A) (A) (A) (A) (A) (A) (A) (A)
                 (A) (A) (A) (A) (A) (A) (A) (A) (A) (A) (A) (A)
                 (A) (A) (A) (A) (A) (A) (A) (A) (A) (A) (A) (A)
                 (A) (A) (A) (A) (A) (A) (A) (A) (A) (A) (A) (A)
                 (A) (A) (A) (A) (A) (A) (A) (A) (A) (A) (A) (A)
                 (A) (A) (A) (A) (A) (A) (A) (A) (A) (A) (A) (A)
                 (A) (A) (A) (A) (A) (A) (A) (A) (A) (A) (A) (A)
                 (A) (A) (A) (A) (A) (A) (A) (A) (A) (A) (A) (A)
                 (A) (A) (A) (A) (A) (A) (A) (A) (A) (A) (A) (A)
                 (A) (A) (A) (A) (A) (A) (A) (A) (A) (A) (A) (A)
                 (A) (A) (A) (A) (A) (A) (A) (A) (A) (A) (A) (A)
                 (A) (A) (A) (A) (A) (A) (A) (A) (A) (A) (A) (A)
                 (A) (A) (A) (A) (A) (A) (A) (A) (A) (A) (A) (A)
                 (A) (A) (A) (A) (A) (A) (A) (A) (A) (A) (A) (A)
                 (A) (A) (A) (A) (A) (A) (A) (A) (A) (A) (A) (A)
                 (A) (A) (A) (A) (A) (A) (A) (A) (A) (A) (A) (A)
                 (A) (A) (A) (A) (A) (A) (A) (A) (A) (A) (A) (A)
                 (A) (A) (A) (A) (A) (A) (A) (A) (A) (A) (A) (A)
                 (A) (A) (A) (A) (A) (A) (A) (A) (A) (A) (A) (A)
                 (A) (A) (A) (A) (A) (A) (A) (A) (A) (A) (A) (A)
                 (A) (A) (A) (A) (A) (A) (A) (A) (A) (A) (A) (A)
                 (A) (A) (A) (A) (A) (A) (A) (A) (A) (A) (A) (A)
                 (A) (A) (A) (A) (A) (A) (A) (A) (A) (A) (A) (A)
                 (A) (A) (A) (A) (A) (A) (A) (A) (A) (A) (A) (A)
                 (A) (A) (A) (A) (A) (A) (A) (A) (A) (A) (A) (A)
                 (A) (A) (A) (A) (A) (A) (A) (A) (A) (A) (A) (A)
                 (A) (A) (A) (A) (A) (A) (A) (A) (A) (A) (A) (A)
                 (A) (A) (A) (A) (A) (A) (A) (A) (A) (A) (A) (A)
                 (A) (A) (A) (A) (A) (A) (A) (A) (A) (A) (A) (A)
                 (A) (A) (A) (A) (A) (A) (A) (A) (A) (A) (A) (A)
 The electronic state is 1-A.
 Alpha  occ. eigenvalues --  -19.29530 -19.22833 -10.41622 -10.35171 -10.29348
 Alpha  occ. eigenvalues --  -10.28885 -10.28466 -10.28417 -10.27979 -10.27406
 Alpha  occ. eigenvalues --   -1.21027  -1.12371  -0.92074  -0.88202  -0.85016
 Alpha  occ. eigenvalues --   -0.82300  -0.75947  -0.69831  -0.66447  -0.61396
 Alpha  occ. eigenvalues --   -0.59447  -0.59229  -0.57672  -0.54902  -0.52507
 Alpha  occ. eigenvalues --   -0.52312  -0.49943  -0.49555  -0.49044  -0.47353
 Alpha  occ. eigenvalues --   -0.47250  -0.43881  -0.43423  -0.42380  -0.39202
 Alpha  occ. eigenvalues --   -0.37708  -0.35969  -0.30360
 Alpha virt. eigenvalues --    0.04359   0.04692   0.05066   0.06237   0.07110
 Alpha virt. eigenvalues --    0.07172   0.07689   0.08027   0.08539   0.08973
 Alpha virt. eigenvalues --    0.09515   0.09886   0.10010   0.10736   0.11114
 Alpha virt. eigenvalues --    0.11388   0.11704   0.12429   0.13166   0.13566
 Alpha virt. eigenvalues --    0.14172   0.14662   0.14793   0.15504   0.15901
 Alpha virt. eigenvalues --    0.16668   0.17067   0.17135   0.17739   0.18167
 Alpha virt. eigenvalues --    0.18983   0.19690   0.20134   0.21576   0.22087
 Alpha virt. eigenvalues --    0.22269   0.23211   0.24045   0.24372   0.24750
 Alpha virt. eigenvalues --    0.25367   0.25685   0.25882   0.26271   0.26578
 Alpha virt. eigenvalues --    0.27161   0.27563   0.28562   0.28852   0.29696
 Alpha virt. eigenvalues --    0.30350   0.31149   0.31634   0.32324   0.32890
 Alpha virt. eigenvalues --    0.33269   0.35129   0.36045   0.37884   0.38511
 Alpha virt. eigenvalues --    0.38751   0.39171   0.39925   0.40310   0.41266
 Alpha virt. eigenvalues --    0.41955   0.42523   0.43680   0.44806   0.45262
 Alpha virt. eigenvalues --    0.46321   0.47400   0.48076   0.48292   0.49191
 Alpha virt. eigenvalues --    0.49588   0.50082   0.50570   0.51975   0.52237
 Alpha virt. eigenvalues --    0.53563   0.54453   0.55716   0.56456   0.56810
 Alpha virt. eigenvalues --    0.57645   0.58879   0.59009   0.59524   0.59812
 Alpha virt. eigenvalues --    0.60509   0.60826   0.62009   0.63114   0.64589
 Alpha virt. eigenvalues --    0.65169   0.65622   0.66056   0.67591   0.68497
 Alpha virt. eigenvalues --    0.69343   0.70612   0.71534   0.73460   0.75814
 Alpha virt. eigenvalues --    0.77066   0.77668   0.78533   0.79236   0.80366
 Alpha virt. eigenvalues --    0.81655   0.82033   0.83525   0.84381   0.85794
 Alpha virt. eigenvalues --    0.86777   0.87734   0.88875   0.90512   0.91465
 Alpha virt. eigenvalues --    0.92351   0.96353   0.99078   0.99498   1.01187
 Alpha virt. eigenvalues --    1.03264   1.07080   1.09511   1.11352   1.12092
 Alpha virt. eigenvalues --    1.13137   1.14514   1.14865   1.16307   1.17055
 Alpha virt. eigenvalues --    1.18376   1.20342   1.22240   1.23293   1.25958
 Alpha virt. eigenvalues --    1.26691   1.27396   1.29126   1.29225   1.31171
 Alpha virt. eigenvalues --    1.32917   1.34418   1.38003   1.38635   1.39811
 Alpha virt. eigenvalues --    1.44474   1.46402   1.48043   1.51845   1.55770
 Alpha virt. eigenvalues --    1.56778   1.59209   1.60648   1.61273   1.61918
 Alpha virt. eigenvalues --    1.62818   1.63888   1.64303   1.65312   1.66158
 Alpha virt. eigenvalues --    1.66572   1.66903   1.67713   1.68695   1.69593
 Alpha virt. eigenvalues --    1.71488   1.72923   1.74199   1.74821   1.75427
 Alpha virt. eigenvalues --    1.77139   1.79034   1.81814   1.83781   1.85216
 Alpha virt. eigenvalues --    1.86416   1.88411   1.91746   1.93820   1.95269
 Alpha virt. eigenvalues --    1.96598   1.98633   2.00155   2.01195   2.02271
 Alpha virt. eigenvalues --    2.03886   2.06218   2.07658   2.08928   2.11816
 Alpha virt. eigenvalues --    2.14144   2.16703   2.18479   2.19366   2.22510
 Alpha virt. eigenvalues --    2.24628   2.27920   2.29107   2.31876   2.32217
 Alpha virt. eigenvalues --    2.34735   2.36026   2.38836   2.39201   2.40253
 Alpha virt. eigenvalues --    2.43103   2.43526   2.44410   2.45776   2.46235
 Alpha virt. eigenvalues --    2.47167   2.47997   2.50026   2.51425   2.53471
 Alpha virt. eigenvalues --    2.54080   2.56118   2.58040   2.61071   2.62915
 Alpha virt. eigenvalues --    2.63400   2.65547   2.66629   2.67543   2.68462
 Alpha virt. eigenvalues --    2.69880   2.70656   2.71561   2.72246   2.75833
 Alpha virt. eigenvalues --    2.77676   2.78994   2.82107   2.82718   2.83862
 Alpha virt. eigenvalues --    2.84709   2.85540   2.89955   2.91408   2.93115
 Alpha virt. eigenvalues --    2.93851   2.96147   2.97796   2.99315   3.00357
 Alpha virt. eigenvalues --    3.02178   3.02576   3.03920   3.04658   3.05572
 Alpha virt. eigenvalues --    3.09048   3.09315   3.12479   3.13924   3.14715
 Alpha virt. eigenvalues --    3.17008   3.17731   3.18950   3.19797   3.20845
 Alpha virt. eigenvalues --    3.20999   3.22227   3.22539   3.23310   3.24938
 Alpha virt. eigenvalues --    3.26059   3.27393   3.28942   3.29415   3.29716
 Alpha virt. eigenvalues --    3.30705   3.33502   3.34040   3.35316   3.36266
 Alpha virt. eigenvalues --    3.36712   3.37869   3.39205   3.40079   3.42880
 Alpha virt. eigenvalues --    3.43806   3.44822   3.48176   3.50061   3.51103
 Alpha virt. eigenvalues --    3.52839   3.55050   3.55283   3.57051   3.58322
 Alpha virt. eigenvalues --    3.63367   3.65521   3.66181   3.67484   3.69536
 Alpha virt. eigenvalues --    3.70624   3.72513   3.75024   3.77471   3.79702
 Alpha virt. eigenvalues --    3.80551   3.83791   3.84674   3.88142   3.89137
 Alpha virt. eigenvalues --    3.91181   3.94910   3.98785   3.99082   3.99970
 Alpha virt. eigenvalues --    4.07134   4.09032   4.11161   4.14968   4.16676
 Alpha virt. eigenvalues --    4.21742   4.25229   4.28874   4.34094   4.38105
 Alpha virt. eigenvalues --    4.44186   4.45102   4.46337   4.47843   4.48753
 Alpha virt. eigenvalues --    4.50253   4.54276   4.57427   4.58572   4.60879
 Alpha virt. eigenvalues --    4.66159   4.67391   4.73480   4.76096   4.78204
 Alpha virt. eigenvalues --    4.81873   4.83492   4.88427   4.92472   4.97706
 Alpha virt. eigenvalues --    5.07629   5.12713   5.21258   5.27336   5.27643
 Alpha virt. eigenvalues --    5.31126   5.33779   5.36421   5.52723   5.57002
 Alpha virt. eigenvalues --    5.72920   5.94416   6.00075   6.00721   6.16300
 Alpha virt. eigenvalues --    6.30354   6.38793   6.47122   6.55566   6.60652
 Alpha virt. eigenvalues --    6.74850   6.93050   6.93273   6.97915   6.98611
 Alpha virt. eigenvalues --    7.19043   7.23262   7.35569   7.54267  22.46345
 Alpha virt. eigenvalues --   22.48982  22.49872  22.53653  22.65958  22.95582
 Alpha virt. eigenvalues --   23.03947  23.49403  44.12547  44.43560
          Condensed to atoms (all electrons):
               1          2          3          4          5          6
     1  C    5.732485   0.424117  -0.340523   0.000076   0.182501   0.008497
     2  H    0.424117   0.500738  -0.072845  -0.002264   0.003188   0.003454
     3  C   -0.340523  -0.072845   5.750486   0.352203   0.119020  -0.037197
     4  H    0.000076  -0.002264   0.352203   0.467732   0.005651  -0.000035
     5  C    0.182501   0.003188   0.119020   0.005651   5.613367   0.384217
     6  H    0.008497   0.003454  -0.037197  -0.000035   0.384217   0.506071
     7  C    0.017843  -0.005156   0.020894  -0.001087   0.055920  -0.018504
     8  H   -0.026586   0.000227   0.006603   0.000000  -0.053678  -0.002244
     9  H    0.094064   0.002428  -0.017328  -0.000036  -0.140217   0.002893
    10  H   -0.059030  -0.000272   0.018477   0.000016   0.022145  -0.001849
    11  C    0.228128   0.000906   0.107704   0.022277  -0.057468   0.025060
    12  H    0.011645   0.000118  -0.011728   0.003110   0.006922  -0.000319
    13  C   -0.183978  -0.005157   0.343851  -0.018539   0.019805  -0.018728
    14  H    0.003581   0.000018  -0.007603   0.000166   0.001902   0.000010
    15  H    0.003272   0.000003  -0.004206  -0.000444  -0.002939  -0.000013
    16  C    0.014710  -0.000114  -0.043935  -0.000659  -0.001634   0.000030
    17  C    0.002316  -0.000033  -0.007170   0.000204   0.002671  -0.000090
    18  H    0.000371   0.000000  -0.000132  -0.000007  -0.000217   0.000000
    19  H   -0.000115   0.000000  -0.000100   0.000003  -0.000027   0.000000
    20  H   -0.000112   0.000000   0.001140  -0.000004   0.000400   0.000000
    21  O    0.012383  -0.000234   0.011662  -0.013578  -0.001924  -0.000218
    22  O    0.002585  -0.000003  -0.016894  -0.000057  -0.000155  -0.000001
               7          8          9         10         11         12
     1  C    0.017843  -0.026586   0.094064  -0.059030   0.228128   0.011645
     2  H   -0.005156   0.000227   0.002428  -0.000272   0.000906   0.000118
     3  C    0.020894   0.006603  -0.017328   0.018477   0.107704  -0.011728
     4  H   -0.001087   0.000000  -0.000036   0.000016   0.022277   0.003110
     5  C    0.055920  -0.053678  -0.140217   0.022145  -0.057468   0.006922
     6  H   -0.018504  -0.002244   0.002893  -0.001849   0.025060  -0.000319
     7  C    5.015196   0.447739   0.438699   0.395007   0.013023  -0.003573
     8  H    0.447739   0.542422  -0.022319  -0.034347   0.001332   0.000027
     9  H    0.438699  -0.022319   0.528409  -0.021877   0.000237  -0.000001
    10  H    0.395007  -0.034347  -0.021877   0.542694  -0.003699  -0.000058
    11  C    0.013023   0.001332   0.000237  -0.003699   5.941325   0.428151
    12  H   -0.003573   0.000027  -0.000001  -0.000058   0.428151   0.485176
    13  C   -0.007568  -0.001819   0.000068   0.001842  -0.342512  -0.079421
    14  H   -0.000319   0.000000   0.000000  -0.000001  -0.028777  -0.002070
    15  H    0.000413  -0.000001   0.000000   0.000001  -0.034101  -0.002655
    16  C   -0.000404  -0.000011  -0.000001   0.000002   0.053001  -0.000100
    17  C   -0.000237   0.000003  -0.000005  -0.000001   0.009863  -0.001416
    18  H   -0.000015   0.000000   0.000000   0.000000  -0.002929  -0.000022
    19  H    0.000001   0.000000   0.000000   0.000000   0.001496   0.000000
    20  H    0.000007   0.000000   0.000000   0.000000  -0.002943  -0.000026
    21  O   -0.000427   0.000002   0.000003  -0.000002  -0.124762   0.001263
    22  O    0.000042   0.000000   0.000000   0.000000   0.034302   0.000070
              13         14         15         16         17         18
     1  C   -0.183978   0.003581   0.003272   0.014710   0.002316   0.000371
     2  H   -0.005157   0.000018   0.000003  -0.000114  -0.000033   0.000000
     3  C    0.343851  -0.007603  -0.004206  -0.043935  -0.007170  -0.000132
     4  H   -0.018539   0.000166  -0.000444  -0.000659   0.000204  -0.000007
     5  C    0.019805   0.001902  -0.002939  -0.001634   0.002671  -0.000217
     6  H   -0.018728   0.000010  -0.000013   0.000030  -0.000090   0.000000
     7  C   -0.007568  -0.000319   0.000413  -0.000404  -0.000237  -0.000015
     8  H   -0.001819   0.000000  -0.000001  -0.000011   0.000003   0.000000
     9  H    0.000068   0.000000   0.000000  -0.000001  -0.000005   0.000000
    10  H    0.001842  -0.000001   0.000001   0.000002  -0.000001   0.000000
    11  C   -0.342512  -0.028777  -0.034101   0.053001   0.009863  -0.002929
    12  H   -0.079421  -0.002070  -0.002655  -0.000100  -0.001416  -0.000022
    13  C    5.328048   0.418136   0.428240  -0.070595  -0.033485  -0.012719
    14  H    0.418136   0.569416  -0.052899  -0.008804   0.006317   0.000346
    15  H    0.428240  -0.052899   0.569164  -0.006045  -0.001739  -0.001256
    16  C   -0.070595  -0.008804  -0.006045   5.073363   0.091393  -0.051619
    17  C   -0.033485   0.006317  -0.001739   0.091393   5.210761   0.438889
    18  H   -0.012719   0.000346  -0.001256  -0.051619   0.438889   0.496573
    19  H    0.009782   0.000162   0.000043  -0.040486   0.408691  -0.011870
    20  H   -0.009895  -0.002727   0.000862  -0.051420   0.433433  -0.033154
    21  O    0.267832  -0.042528  -0.042122   0.143978  -0.032991   0.009950
    22  O   -0.015035   0.000762   0.000906   0.430498  -0.046809  -0.002509
              19         20         21         22
     1  C   -0.000115  -0.000112   0.012383   0.002585
     2  H    0.000000   0.000000  -0.000234  -0.000003
     3  C   -0.000100   0.001140   0.011662  -0.016894
     4  H    0.000003  -0.000004  -0.013578  -0.000057
     5  C   -0.000027   0.000400  -0.001924  -0.000155
     6  H    0.000000   0.000000  -0.000218  -0.000001
     7  C    0.000001   0.000007  -0.000427   0.000042
     8  H    0.000000   0.000000   0.000002   0.000000
     9  H    0.000000   0.000000   0.000003   0.000000
    10  H    0.000000   0.000000  -0.000002   0.000000
    11  C    0.001496  -0.002943  -0.124762   0.034302
    12  H    0.000000  -0.000026   0.001263   0.000070
    13  C    0.009782  -0.009895   0.267832  -0.015035
    14  H    0.000162  -0.002727  -0.042528   0.000762
    15  H    0.000043   0.000862  -0.042122   0.000906
    16  C   -0.040486  -0.051420   0.143978   0.430498
    17  C    0.408691   0.433433  -0.032991  -0.046809
    18  H   -0.011870  -0.033154   0.009950  -0.002509
    19  H    0.463638  -0.013400   0.002261  -0.000452
    20  H   -0.013400   0.506818   0.007987  -0.001130
    21  O    0.002261   0.007987   8.192867  -0.092679
    22  O   -0.000452  -0.001130  -0.092679   8.154691
 Mulliken charges:
               1
     1  C   -0.128228
     2  H    0.150880
     3  C   -0.172378
     4  H    0.185274
     5  C   -0.159450
     6  H    0.148967
     7  C   -0.367495
     8  H    0.142649
     9  H    0.134981
    10  H    0.140952
    11  C   -0.269617
    12  H    0.164906
    13  C   -0.018151
    14  H    0.144910
    15  H    0.145516
    16  C    0.468851
    17  C   -0.480564
    18  H    0.170317
    19  H    0.180371
    20  H    0.164164
    21  O   -0.298724
    22  O   -0.448133
 Sum of Mulliken charges =   0.00000
 Mulliken charges with hydrogens summed into heavy atoms:
               1
     1  C    0.022652
     3  C    0.012896
     5  C   -0.010483
     7  C    0.051087
    11  C   -0.104711
    13  C    0.272275
    16  C    0.468851
    17  C    0.034288
    21  O   -0.298724
    22  O   -0.448133
 Electronic spatial extent (au):  <R**2>=           2818.4781
 Charge=              0.0000 electrons
 Dipole moment (field-independent basis, Debye):
    X=             -1.5936    Y=             -4.9948    Z=             -0.2645  Tot=              5.2496
 Quadrupole moment (field-independent basis, Debye-Ang):
   XX=            -59.0702   YY=            -61.5414   ZZ=            -61.0401
   XY=            -13.7855   XZ=             -1.4817   YZ=             -1.8590
 Traceless Quadrupole moment (field-independent basis, Debye-Ang):
   XX=              1.4804   YY=             -0.9909   ZZ=             -0.4895
   XY=            -13.7855   XZ=             -1.4817   YZ=             -1.8590
 Octapole moment (field-independent basis, Debye-Ang**2):
  XXX=            -19.1286  YYY=             -7.6070  ZZZ=              2.3343  XYY=            -10.7728
  XXY=            -46.1537  XXZ=             -1.1531  XZZ=             12.2391  YZZ=             -0.9226
  YYZ=             -2.5012  XYZ=              1.8739
 Hexadecapole moment (field-independent basis, Debye-Ang**3):
 XXXX=          -3257.0043 YYYY=           -319.3949 ZZZZ=           -103.7107 XXXY=           -142.2363
 XXXZ=            -21.6556 YYYX=            -18.3327 YYYZ=             -4.3914 ZZZX=             -5.1995
 ZZZY=             -0.3827 XXYY=           -654.4241 XXZZ=           -569.7890 YYZZ=            -65.6799
 XXYZ=            -18.7529 YYXZ=              3.0857 ZZXY=             -1.7800
 N-N= 4.873441681914D+02 E-N=-2.053266063700D+03  KE= 4.603096367303D+02
 1\1\GINC-D10S10B3\FOpt\RwB97XD\Gen\C8H12O2\PMMASS\09-Feb-2022\0\\#n wB
 97XD/Gen scrf(smd,solvent=toluene) opt\\diene diels-alder toluene - op
 t\\0,1\C,-2.5997960717,0.6262495379,-0.2874689965\H,-2.9401506132,1.51
 38004833,-0.8159916116\C,-1.1473750423,0.44071536,-0.2210636563\H,-0.5
 474531052,1.3434903568,-0.1693310789\C,-3.5072207411,-0.1719343816,0.2
 693542939\H,-3.1672747185,-1.0265089697,0.8500642726\C,-4.9839606659,0
 .0211110958,0.1801402124\H,-5.4276655988,0.1212810282,1.1747880379\H,-
 5.2402147364,0.9085835482,-0.4006228038\H,-5.4614317017,-0.8437402838,
 -0.2897011444\C,-0.5288234847,-0.7347660139,-0.2409817875\H,-1.1000688
 397,-1.6527944015,-0.3474982656\C,0.9436834408,-0.950804514,-0.1416895
 653\H,1.2996772027,-1.4694887885,-1.0379380363\H,1.1581136534,-1.59294
 64788,0.7195615595\C,2.948483286,0.3766551787,0.0994124093\C,3.7406486
 275,-0.8999267974,0.0450236042\H,3.5937311043,-1.4040515285,-0.9119937
 58\H,4.7935202799,-0.6622375936,0.1659768826\H,3.4336608516,-1.5886735
 097,0.8336656391\O,1.6111332718,0.2965328553,-0.0001345202\O,3.4457836
 014,1.4619338168,0.2221183128\\Version=ES64L-G09RevD.01\State=1-A\HF=-
 462.5310954\RMSD=8.484e-09\RMSF=1.162e-05\Dipole=-0.6286816,-1.96173,-
 0.1483069\Quadrupole=1.0845598,-0.655164,-0.4293958,-10.2218589,-1.325
 4859,-1.4050383\PG=C01 [X(C8H12O2)]\\@


 YE HAVE SOWN MUCH, AND BRING IN LITTLE.
 YE EAT, BUT YE HAVE NOT ENOUGH.
 YE DRINK, BUT YE ARE NOT FILLED WITH DRINK.
 YE CLOTHE YOU, BUT THERE IS NONE WARM.
 AND HE THAT EARNETH WAGES EARNETH WAGES TO PUT
 IT INTO A BAG WITH HOLES.
                                     HAGGAI I,6
 Job cpu time:       0 days  4 hours 37 minutes 54.6 seconds.
 File lengths (MBytes):  RWF=    163 Int=      0 D2E=      0 Chk=     15 Scr=      1
 Normal termination of Gaussian 09 at Wed Feb  9 13:29:39 2022.
