 Entering Gaussian System, Link 0=g09
 Input=dieneophile_ma_freq.com
 Output=dieneophile_ma_freq.log
 Initial command:
 /apps/applications/gaussian/G09.D01/2/default/g09/l1.exe "/nobackup/pmmass/Temp/Gau-135092.inp" -scrdir="/nobackup/pmmass/Temp/"
 Entering Link 1 = /apps/applications/gaussian/G09.D01/2/default/g09/l1.exe PID=    135093.
  
 Copyright (c) 1988,1990,1992,1993,1995,1998,2003,2009,2013,
            Gaussian, Inc.  All Rights Reserved.
  
 This is part of the Gaussian(R) 09 program.  It is based on
 the Gaussian(R) 03 system (copyright 2003, Gaussian, Inc.),
 the Gaussian(R) 98 system (copyright 1998, Gaussian, Inc.),
 the Gaussian(R) 94 system (copyright 1995, Gaussian, Inc.),
 the Gaussian 92(TM) system (copyright 1992, Gaussian, Inc.),
 the Gaussian 90(TM) system (copyright 1990, Gaussian, Inc.),
 the Gaussian 88(TM) system (copyright 1988, Gaussian, Inc.),
 the Gaussian 86(TM) system (copyright 1986, Carnegie Mellon
 University), and the Gaussian 82(TM) system (copyright 1983,
 Carnegie Mellon University). Gaussian is a federally registered
 trademark of Gaussian, Inc.
  
 This software contains proprietary and confidential information,
 including trade secrets, belonging to Gaussian, Inc.
  
 This software is provided under written license and may be
 used, copied, transmitted, or stored only in accord with that
 written license.
  
 The following legend is applicable only to US Government
 contracts under FAR:
  
                    RESTRICTED RIGHTS LEGEND
  
 Use, reproduction and disclosure by the US Government is
 subject to restrictions as set forth in subparagraphs (a)
 and (c) of the Commercial Computer Software - Restricted
 Rights clause in FAR 52.227-19.
  
 Gaussian, Inc.
 340 Quinnipiac St., Bldg. 40, Wallingford CT 06492
  
  
 ---------------------------------------------------------------
 Warning -- This program may not be used in any manner that
 competes with the business of Gaussian, Inc. or will provide
 assistance to any competitor of Gaussian, Inc.  The licensee
 of this program is prohibited from giving any competitor of
 Gaussian, Inc. access to this program.  By using this program,
 the user acknowledges that Gaussian, Inc. is engaged in the
 business of creating and licensing software in the field of
 computational chemistry and represents and warrants to the
 licensee that it is not a competitor of Gaussian, Inc. and that
 it will not use this program in any manner prohibited above.
 ---------------------------------------------------------------
  

 Cite this work as:
 Gaussian 09, Revision D.01,
 M. J. Frisch, G. W. Trucks, H. B. Schlegel, G. E. Scuseria, 
 M. A. Robb, J. R. Cheeseman, G. Scalmani, V. Barone, B. Mennucci, 
 G. A. Petersson, H. Nakatsuji, M. Caricato, X. Li, H. P. Hratchian, 
 A. F. Izmaylov, J. Bloino, G. Zheng, J. L. Sonnenberg, M. Hada, 
 M. Ehara, K. Toyota, R. Fukuda, J. Hasegawa, M. Ishida, T. Nakajima, 
 Y. Honda, O. Kitao, H. Nakai, T. Vreven, J. A. Montgomery, Jr., 
 J. E. Peralta, F. Ogliaro, M. Bearpark, J. J. Heyd, E. Brothers, 
 K. N. Kudin, V. N. Staroverov, T. Keith, R. Kobayashi, J. Normand, 
 K. Raghavachari, A. Rendell, J. C. Burant, S. S. Iyengar, J. Tomasi, 
 M. Cossi, N. Rega, J. M. Millam, M. Klene, J. E. Knox, J. B. Cross, 
 V. Bakken, C. Adamo, J. Jaramillo, R. Gomperts, R. E. Stratmann, 
 O. Yazyev, A. J. Austin, R. Cammi, C. Pomelli, J. W. Ochterski, 
 R. L. Martin, K. Morokuma, V. G. Zakrzewski, G. A. Voth, 
 P. Salvador, J. J. Dannenberg, S. Dapprich, A. D. Daniels, 
 O. Farkas, J. B. Foresman, J. V. Ortiz, J. Cioslowski, 
 and D. J. Fox, Gaussian, Inc., Wallingford CT, 2013.
 
 ******************************************
 Gaussian 09:  ES64L-G09RevD.01 24-Apr-2013
                 9-Feb-2022 
 ******************************************
 %nprocshared=8
 Will use up to    8 processors via shared memory.
 %mem=4GB
 %NoSave
 %chk="dieneophile_diels_ma_freq.chk"
 --------------------------------------------
 #n wB97XD/Gen scrf(smd,solvent=toluene) freq
 --------------------------------------------
 1/10=4,30=1,38=1/1,3;
 2/12=2,17=6,18=5,40=1/2;
 3/5=7,11=2,16=1,25=1,30=1,70=32201,71=2,72=13,74=-58,140=1/1,2,3;
 4//1;
 5/5=2,38=5,53=13,98=1/2;
 8/6=4,10=90,11=11/1;
 11/6=1,8=1,9=11,15=111,16=1/1,2,10;
 10/6=1/2;
 6/7=2,8=2,9=2,10=2,18=1,28=1/1;
 7/8=1,10=1,25=1/1,2,3,16;
 1/10=4,30=1/3;
 99//99;
 --------------------------------------
 dieneophile diels-alder toluene - freq
 --------------------------------------
 Symbolic Z-matrix:
 Charge =  0 Multiplicity = 1
 C                    -1.13173  -0.22162  -0.00024 
 C                    -0.63019  -1.63364  -0.00017 
 C                     0.69375  -1.6079    0.00018 
 C                     1.14312  -0.17822  -0.00016 
 H                    -1.2998   -2.48009  -0.00032 
 H                     1.39568  -2.42771   0.00044 
 C                    -0.05033   2.03249   0.00036 
 H                     0.9695    2.39904  -0.09564 
 H                    -0.64571   2.39521  -0.83709 
 H                    -0.481     2.40544   0.93013 
 N                    -0.01047   0.59028  -0.00291 
 O                     2.27019   0.24135   0.00134 
 O                    -2.27183   0.16234   0.00153 
 

 GradGradGradGradGradGradGradGradGradGradGradGradGradGradGradGradGradGrad
 Berny optimization.
 Initialization pass.
 Trust Radius=3.00D-01 FncErr=1.00D-07 GrdErr=1.00D-07
 Number of steps in this run=      2 maximum allowed number of steps=      2.
 GradGradGradGradGradGradGradGradGradGradGradGradGradGradGradGradGradGrad

                          Input orientation:                          
 ---------------------------------------------------------------------
 Center     Atomic      Atomic             Coordinates (Angstroms)
 Number     Number       Type             X           Y           Z
 ---------------------------------------------------------------------
      1          6           0       -1.131730   -0.221620   -0.000240
      2          6           0       -0.630190   -1.633640   -0.000170
      3          6           0        0.693750   -1.607900    0.000180
      4          6           0        1.143120   -0.178220   -0.000160
      5          1           0       -1.299800   -2.480090   -0.000320
      6          1           0        1.395680   -2.427710    0.000440
      7          6           0       -0.050330    2.032490    0.000360
      8          1           0        0.969500    2.399040   -0.095640
      9          1           0       -0.645710    2.395210   -0.837090
     10          1           0       -0.481000    2.405440    0.930130
     11          7           0       -0.010470    0.590280   -0.002910
     12          8           0        2.270190    0.241350    0.001340
     13          8           0       -2.271830    0.162340    0.001530
 ---------------------------------------------------------------------
                    Distance matrix (angstroms):
                    1          2          3          4          5
     1  C    0.000000
     2  C    1.498447   0.000000
     3  C    2.292193   1.324190   0.000000
     4  C    2.275264   2.294096   1.498639   0.000000
     5  H    2.264715   1.079285   2.175996   3.356555   0.000000
     6  H    3.354793   2.175936   1.079256   2.263624   2.695989
     7  C    2.500088   3.711704   3.715655   2.512282   4.682366
     8  H    3.360376   4.339427   4.017560   2.584865   5.381888
     9  H    2.790042   4.114889   4.303494   3.243903   4.989646
    10  H    2.861902   4.147515   4.283893   3.190377   5.040295
    11  N    1.384346   2.308653   2.308231   1.386135   3.330098
    12  O    3.433279   3.453664   2.429998   1.202634   4.488994
    13  O    1.203020   2.433214   3.453754   3.431890   2.815543
                    6          7          8          9         10
     6  H    0.000000
     7  C    4.688745   0.000000
     8  H    4.846481   1.087947   0.000000
     9  H    5.303705   1.089663   1.777264   0.000000
    10  H    5.267408   1.090431   1.776568   1.774909   0.000000
    11  N    3.329494   1.442764   2.059260   2.087381   2.094461
    12  O    2.808674   2.931381   2.521275   3.720827   3.621461
    13  O    4.489876   2.903881   3.939351   2.886738   3.016764
                   11         12         13
    11  N    0.000000
    12  O    2.307202   0.000000
    13  O    2.301500   4.542707   0.000000
 Stoichiometry    C5H5NO2
 Framework group  C1[X(C5H5NO2)]
 Deg. of freedom    33
 Full point group                 C1      NOp   1
 Largest Abelian subgroup         C1      NOp   1
 Largest concise Abelian subgroup C1      NOp   1
                         Standard orientation:                         
 ---------------------------------------------------------------------
 Center     Atomic      Atomic             Coordinates (Angstroms)
 Number     Number       Type             X           Y           Z
 ---------------------------------------------------------------------
      1          6           0       -1.131730   -0.221621   -0.000239
      2          6           0       -0.630189   -1.633641   -0.000169
      3          6           0        0.693751   -1.607900    0.000181
      4          6           0        1.143120   -0.178220   -0.000159
      5          1           0       -1.299799   -2.480091   -0.000319
      6          1           0        1.395681   -2.427710    0.000441
      7          6           0       -0.050330    2.032489    0.000361
      8          1           0        0.969500    2.399040   -0.095639
      9          1           0       -0.645710    2.395209   -0.837089
     10          1           0       -0.481000    2.405439    0.930131
     11          7           0       -0.010470    0.590279   -0.002909
     12          8           0        2.270190    0.241350    0.001341
     13          8           0       -2.271830    0.162339    0.001531
 ---------------------------------------------------------------------
 Rotational constants (GHZ):      3.3487999      2.3674553      1.3991368
 General basis read from cards:  (5D, 7F)
 There are   350 symmetry adapted cartesian basis functions of A   symmetry.
 There are   310 symmetry adapted basis functions of A   symmetry.
   310 basis functions,   480 primitive gaussians,   350 cartesian basis functions
    29 alpha electrons       29 beta electrons
       nuclear repulsion energy       356.8679322827 Hartrees.
 NAtoms=   13 NActive=   13 NUniq=   13 SFac= 1.00D+00 NAtFMM=   60 NAOKFM=F Big=F
 Integral buffers will be    131072 words long.
 Raffenetti 2 integral format.
 Two-electron integral symmetry is turned on.
 Nuclear repulsion after empirical dispersion term =      356.8626949258 Hartrees.
 Force inversion solution in PCM.
 ------------------------------------------------------------------------------
 Polarizable Continuum Model (PCM)
 =================================
 Model                : PCM (using non-symmetric T matrix).
 Atomic radii         : SMD-Coulomb.
 Polarization charges : Total charges.
 Charge compensation  : None.
 Solution method      : Matrix inversion.
 Cavity type          : VdW (van der Waals Surface) (Alpha=1.000).
 Cavity algorithm     : GePol (No added spheres)
                        Default sphere list used, NSphG=   13.
                        Lebedev-Laikov grids with approx.  5.0 points / Ang**2.
                        Smoothing algorithm: Karplus/York (Gamma=1.0000).
                        Polarization charges: spherical gaussians, with
                                              point-specific exponents (IZeta= 3).
                        Self-potential: point-specific (ISelfS= 7).
                        Self-field    : sphere-specific E.n sum rule (ISelfD= 2).
 1st derivatives      : Analytical E(r).r(x)/FMM algorithm (CHGder, D1EAlg=3).
                        Cavity 1st derivative terms included.
 2nd derivatives      : Analytical E(r).r(xy)/FMM algorithm (CHGder, D2EAlg=3).
                        Cavity 2nd derivative terms included.
 Solvent              : Toluene, Eps=   2.374100 Eps(inf)=   2.238315
 ------------------------------------------------------------------------------
 Spheres list:
 ISph  on   Nord     Re0    Alpha      Xe            Ye            Ze
    1   C      1    1.8500  1.000     -1.131730     -0.221621     -0.000239
    2   C      2    1.8500  1.000     -0.630189     -1.633641     -0.000169
    3   C      3    1.8500  1.000      0.693751     -1.607900      0.000181
    4   C      4    1.8500  1.000      1.143120     -0.178220     -0.000159
    5   H      5    1.2000  1.000     -1.299799     -2.480091     -0.000319
    6   H      6    1.2000  1.000      1.395681     -2.427710      0.000441
    7   C      7    1.8500  1.000     -0.050330      2.032489      0.000361
    8   H      8    1.2000  1.000      0.969500      2.399040     -0.095639
    9   H      9    1.2000  1.000     -0.645710      2.395209     -0.837089
   10   H     10    1.2000  1.000     -0.481000      2.405439      0.930131
   11   N     11    1.8900  1.000     -0.010470      0.590279     -0.002909
   12   O     12    2.2940  1.000      2.270190      0.241350      0.001341
   13   O     13    2.2940  1.000     -2.271830      0.162339      0.001531
 ------------------------------------------------------------------------------
 ------------------------------------------------------------------------------
 Atomic radii for non-electrostatic terms: SMD-CDS.
 ------------------------------------------------------------------------------
 Nuclear repulsion after PCM non-electrostatic terms =      356.8568685572 Hartrees.
 One-electron integrals computed using PRISM.
 NBasis=   310 RedAO= T EigKep=  1.17D-06  NBF=   310
 NBsUse=   310 1.00D-06 EigRej= -1.00D+00 NBFU=   310
 ExpMin= 3.17D-02 ExpMax= 2.70D+04 ExpMxC= 9.22D+02 IAcc=3 IRadAn=         5 AccDes= 0.00D+00
 Harris functional with IExCor= 4639 and IRadAn=       5 diagonalized for initial guess.
 HarFok:  IExCor= 4639 AccDes= 0.00D+00 IRadAn=         5 IDoV= 1 UseB2=F ITyADJ=14
 ICtDFT=  3500011 ScaDFX=  1.000000  1.000000  1.000000  1.000000
 FoFCou: FMM=F IPFlag=           0 FMFlag=      100000 FMFlg1=           0
         NFxFlg=           0 DoJE=T BraDBF=F KetDBF=T FulRan=T
         wScrn=  0.000000 ICntrl=     500 IOpCl=  0 I1Cent=   200000004 NGrid=           0
         NMat0=    1 NMatS0=      1 NMatT0=    0 NMatD0=    1 NMtDS0=    0 NMtDT0=    0
 Petite list used in FoFCou.
 Requested convergence on RMS density matrix=1.00D-08 within 128 cycles.
 Requested convergence on MAX density matrix=1.00D-06.
 Requested convergence on             energy=1.00D-06.
 No special actions if energy rises.
 Inv3:  Mode=1 IEnd=     5023308.
 Iteration    1 A*A^-1 deviation from unit magnitude is 3.33D-15 for   1285.
 Iteration    1 A*A^-1 deviation from orthogonality  is 1.42D-15 for   1063    634.
 Iteration    1 A^-1*A deviation from unit magnitude is 3.77D-15 for    470.
 Iteration    1 A^-1*A deviation from orthogonality  is 9.57D-14 for    257    217.
 Error on total polarization charges =  0.01110
 SCF Done:  E(RwB97XD) =  -398.782086520     A.U. after   14 cycles
            NFock= 14  Conv=0.23D-08     -V/T= 2.0044
 SMD-CDS (non-electrostatic) energy       (kcal/mol) =      -3.66
 (included in total energy above)
 DoSCS=F DFT=T ScalE2(SS,OS)=  1.000000  1.000000
 Range of M.O.s used for correlation:     1   310
 NBasis=   310 NAE=    29 NBE=    29 NFC=     0 NFV=     0
 NROrb=    310 NOA=    29 NOB=    29 NVA=   281 NVB=   281

 **** Warning!!: The largest alpha MO coefficient is  0.28512393D+03

 Symmetrizing basis deriv contribution to polar:
 IMax=3 JMax=2 DiffMx= 0.00D+00
 G2DrvN: will do    14 centers at a time, making    1 passes.
 Calling FoFCou, ICntrl=  3107 FMM=F I1Cent=   0 AccDes= 0.00D+00.
 NEqPCM:  Using equilibrium solvation (IEInf=0, Eps=   2.3741, EpsInf=   2.2383)
 G2PCM: DoFxE=T DoFxN=T DoGrad=T DoDP/DQ/DG/TGxP=FFFF NFrqRd=   0 IEInf=0 SqF1=F DoCFld=F IF1Alg=4.
 End of G2Drv F.D. properties file   721 does not exist.
 End of G2Drv F.D. properties file   722 does not exist.
 End of G2Drv F.D. properties file   788 does not exist.
          IDoAtm=1111111111111
 NEqPCM:  Using equilibrium solvation (IEInf=0, Eps=   2.3741, EpsInf=   2.2383)
          Differentiating once with respect to electric field.
                with respect to dipole field.
          Differentiating once with respect to nuclear coordinates.
          There are    42 degrees of freedom in the 1st order CPHF.  IDoFFX=6 NUNeed=     3.
     41 vectors produced by pass  0 Test12= 1.94D-14 2.38D-09 XBig12= 5.46D+01 5.26D+00.
 AX will form    41 AO Fock derivatives at one time.
     39 vectors produced by pass  1 Test12= 1.94D-14 2.38D-09 XBig12= 1.06D+01 6.82D-01.
     39 vectors produced by pass  2 Test12= 1.94D-14 2.38D-09 XBig12= 5.18D-01 2.46D-01.
     39 vectors produced by pass  3 Test12= 1.94D-14 2.38D-09 XBig12= 9.33D-03 2.30D-02.
     39 vectors produced by pass  4 Test12= 1.94D-14 2.38D-09 XBig12= 7.14D-05 1.22D-03.
     39 vectors produced by pass  5 Test12= 1.94D-14 2.38D-09 XBig12= 5.75D-07 9.84D-05.
     39 vectors produced by pass  6 Test12= 1.94D-14 2.38D-09 XBig12= 2.99D-09 1.02D-05.
     19 vectors produced by pass  7 Test12= 1.94D-14 2.38D-09 XBig12= 1.70D-11 5.61D-07.
      4 vectors produced by pass  8 Test12= 1.94D-14 2.38D-09 XBig12= 1.71D-13 5.13D-08.
      4 vectors produced by pass  9 Test12= 1.94D-14 2.38D-09 XBig12= 2.03D-14 3.41D-08.
      3 vectors produced by pass 10 Test12= 1.94D-14 2.38D-09 XBig12= 1.82D-15 1.05D-08.
      3 vectors produced by pass 11 Test12= 1.94D-14 2.38D-09 XBig12= 1.05D-15 9.65D-09.
      3 vectors produced by pass 12 Test12= 1.94D-14 2.38D-09 XBig12= 7.13D-16 5.97D-09.
      3 vectors produced by pass 13 Test12= 1.94D-14 2.38D-09 XBig12= 1.07D-15 6.91D-09.
      2 vectors produced by pass 14 Test12= 1.94D-14 2.38D-09 XBig12= 5.89D-16 6.37D-09.
 InvSVY:  IOpt=1 It=  1 EMax= 2.23D-15
 Solved reduced A of dimension   316 with    42 vectors.
 Isotropic polarizability for W=    0.000000       78.70 Bohr**3.
 End of Minotr F.D. properties file   721 does not exist.
 End of Minotr F.D. properties file   722 does not exist.
 End of Minotr F.D. properties file   788 does not exist.

 **********************************************************************

            Population analysis using the SCF density.

 **********************************************************************

 Orbital symmetries:
       Occupied  (A) (A) (A) (A) (A) (A) (A) (A) (A) (A) (A) (A)
                 (A) (A) (A) (A) (A) (A) (A) (A) (A) (A) (A) (A)
                 (A) (A) (A) (A) (A)
       Virtual   (A) (A) (A) (A) (A) (A) (A) (A) (A) (A) (A) (A)
                 (A) (A) (A) (A) (A) (A) (A) (A) (A) (A) (A) (A)
                 (A) (A) (A) (A) (A) (A) (A) (A) (A) (A) (A) (A)
                 (A) (A) (A) (A) (A) (A) (A) (A) (A) (A) (A) (A)
                 (A) (A) (A) (A) (A) (A) (A) (A) (A) (A) (A) (A)
                 (A) (A) (A) (A) (A) (A) (A) (A) (A) (A) (A) (A)
                 (A) (A) (A) (A) (A) (A) (A) (A) (A) (A) (A) (A)
                 (A) (A) (A) (A) (A) (A) (A) (A) (A) (A) (A) (A)
                 (A) (A) (A) (A) (A) (A) (A) (A) (A) (A) (A) (A)
                 (A) (A) (A) (A) (A) (A) (A) (A) (A) (A) (A) (A)
                 (A) (A) (A) (A) (A) (A) (A) (A) (A) (A) (A) (A)
                 (A) (A) (A) (A) (A) (A) (A) (A) (A) (A) (A) (A)
                 (A) (A) (A) (A) (A) (A) (A) (A) (A) (A) (A) (A)
                 (A) (A) (A) (A) (A) (A) (A) (A) (A) (A) (A) (A)
                 (A) (A) (A) (A) (A) (A) (A) (A) (A) (A) (A) (A)
                 (A) (A) (A) (A) (A) (A) (A) (A) (A) (A) (A) (A)
                 (A) (A) (A) (A) (A) (A) (A) (A) (A) (A) (A) (A)
                 (A) (A) (A) (A) (A) (A) (A) (A) (A) (A) (A) (A)
                 (A) (A) (A) (A) (A) (A) (A) (A) (A) (A) (A) (A)
                 (A) (A) (A) (A) (A) (A) (A) (A) (A) (A) (A) (A)
                 (A) (A) (A) (A) (A) (A) (A) (A) (A) (A) (A) (A)
                 (A) (A) (A) (A) (A) (A) (A) (A) (A) (A) (A) (A)
                 (A) (A) (A) (A) (A) (A) (A) (A) (A) (A) (A) (A)
                 (A) (A) (A) (A) (A)
 The electronic state is 1-A.
 Alpha  occ. eigenvalues --  -19.25338 -19.25299 -14.48711 -10.41566 -10.41441
 Alpha  occ. eigenvalues --  -10.32411 -10.32312 -10.32055  -1.18836  -1.16832
 Alpha  occ. eigenvalues --   -1.07455  -0.93918  -0.81612  -0.77662  -0.70890
 Alpha  occ. eigenvalues --   -0.65873  -0.59575  -0.58896  -0.56218  -0.54380
 Alpha  occ. eigenvalues --   -0.53868  -0.51591  -0.50633  -0.49657  -0.48728
 Alpha  occ. eigenvalues --   -0.39148  -0.39079  -0.36087  -0.36004
 Alpha virt. eigenvalues --   -0.02776   0.04754   0.05833   0.06284   0.07057
 Alpha virt. eigenvalues --    0.08045   0.08863   0.09388   0.09718   0.10152
 Alpha virt. eigenvalues --    0.11769   0.11821   0.12257   0.12425   0.12941
 Alpha virt. eigenvalues --    0.13401   0.14232   0.15401   0.15755   0.15993
 Alpha virt. eigenvalues --    0.16619   0.17635   0.18364   0.18537   0.21256
 Alpha virt. eigenvalues --    0.21305   0.22003   0.22641   0.23059   0.24066
 Alpha virt. eigenvalues --    0.24168   0.24749   0.26114   0.26503   0.27147
 Alpha virt. eigenvalues --    0.27909   0.28258   0.29679   0.31332   0.32478
 Alpha virt. eigenvalues --    0.33777   0.34866   0.36535   0.38352   0.38869
 Alpha virt. eigenvalues --    0.40529   0.41006   0.42073   0.44505   0.44937
 Alpha virt. eigenvalues --    0.45060   0.46083   0.46864   0.47111   0.49121
 Alpha virt. eigenvalues --    0.50781   0.51316   0.51629   0.54055   0.55121
 Alpha virt. eigenvalues --    0.56484   0.57103   0.57589   0.58024   0.62476
 Alpha virt. eigenvalues --    0.63050   0.63910   0.64591   0.65570   0.66501
 Alpha virt. eigenvalues --    0.67537   0.69410   0.74081   0.74419   0.75888
 Alpha virt. eigenvalues --    0.76327   0.77053   0.78494   0.79746   0.80589
 Alpha virt. eigenvalues --    0.81424   0.83312   0.88173   0.88406   0.92391
 Alpha virt. eigenvalues --    0.93831   0.94783   0.97259   1.01628   1.05057
 Alpha virt. eigenvalues --    1.08332   1.09519   1.11683   1.13630   1.14927
 Alpha virt. eigenvalues --    1.15228   1.16225   1.17759   1.19980   1.23279
 Alpha virt. eigenvalues --    1.25302   1.27821   1.28646   1.31958   1.36939
 Alpha virt. eigenvalues --    1.39469   1.41415   1.46604   1.47764   1.53702
 Alpha virt. eigenvalues --    1.53824   1.56656   1.57929   1.60523   1.62410
 Alpha virt. eigenvalues --    1.63526   1.64387   1.64948   1.65461   1.66583
 Alpha virt. eigenvalues --    1.70288   1.73959   1.75857   1.76531   1.77010
 Alpha virt. eigenvalues --    1.79668   1.83989   1.84541   1.86920   1.87217
 Alpha virt. eigenvalues --    1.91417   1.99270   2.01796   2.02736   2.04760
 Alpha virt. eigenvalues --    2.07510   2.12232   2.12966   2.17699   2.18372
 Alpha virt. eigenvalues --    2.21477   2.24726   2.28460   2.30626   2.31980
 Alpha virt. eigenvalues --    2.36498   2.37538   2.41322   2.43112   2.45764
 Alpha virt. eigenvalues --    2.48665   2.51179   2.51901   2.55207   2.56056
 Alpha virt. eigenvalues --    2.58102   2.58863   2.60908   2.64087   2.66619
 Alpha virt. eigenvalues --    2.67770   2.68618   2.71280   2.74584   2.76198
 Alpha virt. eigenvalues --    2.77747   2.82702   2.85368   2.87411   2.91837
 Alpha virt. eigenvalues --    2.92472   2.95479   3.00023   3.00447   3.00914
 Alpha virt. eigenvalues --    3.03419   3.08031   3.09031   3.10616   3.12963
 Alpha virt. eigenvalues --    3.14223   3.15065   3.16708   3.19197   3.21481
 Alpha virt. eigenvalues --    3.22937   3.24740   3.25532   3.28198   3.28750
 Alpha virt. eigenvalues --    3.33745   3.37815   3.39492   3.40619   3.41420
 Alpha virt. eigenvalues --    3.44247   3.44983   3.45230   3.46157   3.49112
 Alpha virt. eigenvalues --    3.54907   3.56927   3.58994   3.60214   3.61945
 Alpha virt. eigenvalues --    3.66504   3.67973   3.68939   3.70482   3.75773
 Alpha virt. eigenvalues --    3.79667   3.84653   3.85848   3.95896   3.96916
 Alpha virt. eigenvalues --    4.00326   4.09352   4.12585   4.15797   4.16741
 Alpha virt. eigenvalues --    4.21193   4.27108   4.29724   4.33532   4.37841
 Alpha virt. eigenvalues --    4.44009   4.45061   4.46459   4.53590   4.56013
 Alpha virt. eigenvalues --    4.64746   4.73092   4.79298   4.84122   4.85754
 Alpha virt. eigenvalues --    4.88104   4.96776   5.02951   5.09073   5.16585
 Alpha virt. eigenvalues --    5.18981   5.19844   5.24816   5.25926   5.32113
 Alpha virt. eigenvalues --    5.32586   5.34701   5.42434   5.51067   5.66168
 Alpha virt. eigenvalues --    5.73232   5.73485   5.80959   5.83406   5.86178
 Alpha virt. eigenvalues --    5.99602   6.14267   6.27383   6.27574   6.44220
 Alpha virt. eigenvalues --    6.46388   6.46834   6.59494   6.63769   6.64737
 Alpha virt. eigenvalues --    6.86492   6.90263   6.93669   7.02169   7.17241
 Alpha virt. eigenvalues --    7.24094   7.26768   7.28011  22.40642  22.62680
 Alpha virt. eigenvalues --   22.91592  23.33621  23.70965  33.00033  44.15472
 Alpha virt. eigenvalues --   44.29025
          Condensed to atoms (all electrons):
               1          2          3          4          5          6
     1  C    5.711238  -1.145517   1.311443  -0.804216  -0.020163   0.001484
     2  C   -1.145517   7.723457  -1.948679   1.256764   0.370134   0.015584
     3  C    1.311443  -1.948679   7.724443  -1.093779   0.016559   0.372542
     4  C   -0.804216   1.256764  -1.093779   5.627641   0.001231  -0.020618
     5  H   -0.020163   0.370134   0.016559   0.001231   0.426167  -0.001535
     6  H    0.001484   0.015584   0.372542  -0.020618  -0.001535   0.427246
     7  C   -0.052774   0.029855  -0.028889  -0.020813  -0.000193  -0.000572
     8  H   -0.005178   0.003500   0.005187   0.008865   0.000002   0.000007
     9  H    0.011253  -0.007271   0.009748  -0.015051  -0.000005   0.000005
    10  H    0.003327  -0.005818   0.006346  -0.013667  -0.000004   0.000005
    11  N    0.332914  -0.101272  -0.174145   0.390896   0.002761   0.001705
    12  O    0.008441   0.038890  -0.160658   0.395587   0.000263  -0.006729
    13  O    0.408219  -0.172062   0.054590   0.000428  -0.005731   0.000300
               7          8          9         10         11         12
     1  C   -0.052774  -0.005178   0.011253   0.003327   0.332914   0.008441
     2  C    0.029855   0.003500  -0.007271  -0.005818  -0.101272   0.038890
     3  C   -0.028889   0.005187   0.009748   0.006346  -0.174145  -0.160658
     4  C   -0.020813   0.008865  -0.015051  -0.013667   0.390896   0.395587
     5  H   -0.000193   0.000002  -0.000005  -0.000004   0.002761   0.000263
     6  H   -0.000572   0.000007   0.000005   0.000005   0.001705  -0.006729
     7  C    4.970629   0.414492   0.415728   0.419520   0.218220  -0.011571
     8  H    0.414492   0.486701  -0.018476  -0.019040  -0.058481   0.006669
     9  H    0.415728  -0.018476   0.512677  -0.030773  -0.041002   0.000257
    10  H    0.419520  -0.019040  -0.030773   0.509599  -0.030544   0.000340
    11  N    0.218220  -0.058481  -0.041002  -0.030544   6.663327  -0.085429
    12  O   -0.011571   0.006669   0.000257   0.000340  -0.085429   8.269791
    13  O    0.001386   0.001457  -0.000821  -0.003404  -0.087346  -0.000547
              13
     1  C    0.408219
     2  C   -0.172062
     3  C    0.054590
     4  C    0.000428
     5  H   -0.005731
     6  H    0.000300
     7  C    0.001386
     8  H    0.001457
     9  H   -0.000821
    10  H   -0.003404
    11  N   -0.087346
    12  O   -0.000547
    13  O    8.258829
 Mulliken charges:
               1
     1  C    0.239530
     2  C   -0.057565
     3  C   -0.094707
     4  C    0.286732
     5  H    0.210514
     6  H    0.210577
     7  C   -0.355017
     8  H    0.174295
     9  H    0.163733
    10  H    0.164115
    11  N   -0.031604
    12  O   -0.455305
    13  O   -0.455298
 Sum of Mulliken charges =   0.00000
 Mulliken charges with hydrogens summed into heavy atoms:
               1
     1  C    0.239530
     2  C    0.152949
     3  C    0.115870
     4  C    0.286732
     7  C    0.147127
    11  N   -0.031604
    12  O   -0.455305
    13  O   -0.455298
 APT charges:
               1
     1  C    1.240354
     2  C   -0.145259
     3  C   -0.140502
     4  C    1.247034
     5  H    0.102265
     6  H    0.101703
     7  C    0.339006
     8  H    0.051853
     9  H    0.002328
    10  H   -0.009008
    11  N   -1.019942
    12  O   -0.889218
    13  O   -0.880615
 Sum of APT charges =   0.00000
 APT charges with hydrogens summed into heavy atoms:
               1
     1  C    1.240354
     2  C   -0.042993
     3  C   -0.038800
     4  C    1.247034
     7  C    0.384180
    11  N   -1.019942
    12  O   -0.889218
    13  O   -0.880615
 Electronic spatial extent (au):  <R**2>=            817.0889
 Charge=              0.0000 electrons
 Dipole moment (field-independent basis, Debye):
    X=              0.0628    Y=             -1.3859    Z=             -0.0112  Tot=              1.3873
 Quadrupole moment (field-independent basis, Debye-Ang):
   XX=            -61.0338   YY=            -35.3393   ZZ=            -45.0370
   XY=             -0.3382   XZ=              0.0048   YZ=             -0.0268
 Traceless Quadrupole moment (field-independent basis, Debye-Ang):
   XX=            -13.8971   YY=             11.7974   ZZ=              2.0997
   XY=             -0.3382   XZ=              0.0048   YZ=             -0.0268
 Octapole moment (field-independent basis, Debye-Ang**2):
  XXX=              1.2163  YYY=             -1.9279  ZZZ=              0.1962  XYY=             -0.0004
  XXY=             -8.9239  XXZ=             -0.2584  XZZ=             -0.7804  YZZ=              4.2123
  YYZ=             -0.0655  XYZ=             -0.0026
 Hexadecapole moment (field-independent basis, Debye-Ang**3):
 XXXX=           -640.6619 YYYY=           -406.4128 ZZZZ=            -50.6027 XXXY=             -0.5298
 XXXZ=              0.0391 YYYX=              0.9095 YYYZ=             -0.1526 ZZZX=              0.0024
 ZZZY=              0.4668 XXYY=           -147.7662 XXZZ=            -93.9691 YYZZ=            -88.0845
 XXYZ=             -0.5819 YYXZ=             -0.0067 ZZXY=             -1.6206
 N-N= 3.568568685572D+02 E-N=-1.645949480487D+03  KE= 3.970371628184D+02
  Exact polarizability: 107.171  -0.252  80.569   0.016   0.163  48.368
 Approx polarizability: 111.585   0.210  70.226   0.010   0.111  51.337
 D2PCM: PCM CHGder 2nd derivatives, FixD1E=F FixD2E=F DoIter=F DoCFld=F I1PDM=0
 Calling FoFJK, ICntrl=    100127 FMM=F ISym2X=0 I1Cent= 0 IOpClX= 0 NMat=1 NMatS=1 NMatT=0.
 Full mass-weighted force constant matrix:
 Low frequencies ---  -31.0673  -27.4732  -10.4177    0.0008    0.0010    0.0012
 Low frequencies ---   32.5650  139.7433  175.4512
 Diagonal vibrational polarizability:
       18.9733319      10.1828297      35.8630844
 Harmonic frequencies (cm**-1), IR intensities (KM/Mole), Raman scattering
 activities (A**4/AMU), depolarization ratios for plane and unpolarized
 incident light, reduced masses (AMU), force constants (mDyne/A),
 and normal coordinates:
                      1                      2                      3
                      A                      A                      A
 Frequencies --     29.7651               139.7335               174.9348
 Red. masses --      1.0437                 6.4588                 4.1515
 Frc consts  --      0.0005                 0.0743                 0.0749
 IR Inten    --      0.1885                19.4680                 0.5150
  Atom  AN      X      Y      Z        X      Y      Z        X      Y      Z
     1   6     0.00   0.00   0.01     0.00   0.00  -0.02     0.00   0.00  -0.10
     2   6     0.00   0.00   0.00     0.00   0.00   0.19     0.00   0.00   0.08
     3   6     0.00   0.00  -0.01     0.00   0.00   0.20     0.00   0.00   0.09
     4   6     0.00   0.00  -0.01     0.00   0.00  -0.02     0.00   0.00  -0.10
     5   1     0.00   0.00   0.01     0.00   0.00   0.26     0.00   0.00   0.23
     6   1     0.00   0.00  -0.02     0.00   0.00   0.27     0.00   0.00   0.23
     7   6     0.00   0.00  -0.01     0.00   0.00   0.30    -0.01   0.00   0.16
     8   1     0.05  -0.01   0.56    -0.01   0.02   0.27     0.01   0.04   0.46
     9   1     0.47   0.02  -0.34    -0.08   0.13   0.41     0.12   0.35   0.23
    10   1    -0.52  -0.01  -0.25     0.07  -0.15   0.40    -0.15  -0.40   0.26
    11   7     0.00   0.00   0.03     0.00   0.00   0.10     0.00   0.00  -0.41
    12   8     0.00   0.00  -0.03     0.00   0.00  -0.34     0.00   0.00   0.08
    13   8     0.00   0.00   0.01     0.00   0.00  -0.34     0.00   0.00   0.10
                      4                      5                      6
                      A                      A                      A
 Frequencies --    269.7353               300.7609               388.3877
 Red. masses --      3.1826                 4.0696                 9.4403
 Frc consts  --      0.1364                 0.2169                 0.8390
 IR Inten    --      4.5893                 0.0008                28.5978
  Atom  AN      X      Y      Z        X      Y      Z        X      Y      Z
     1   6    -0.06  -0.02   0.00     0.00   0.00   0.12     0.01   0.07   0.00
     2   6     0.01  -0.01   0.00     0.00   0.00   0.32     0.01   0.14   0.00
     3   6     0.01   0.01   0.01     0.00   0.00  -0.31    -0.02   0.14   0.00
     4   6    -0.06   0.02   0.00     0.00   0.00  -0.12     0.00   0.06   0.00
     5   1     0.02  -0.02   0.00     0.00   0.00   0.61    -0.05   0.20   0.01
     6   1     0.03   0.03   0.02     0.00   0.00  -0.60     0.03   0.19   0.00
     7   6     0.33   0.02   0.00     0.01   0.00   0.00    -0.04   0.31   0.00
     8   1     0.46  -0.33   0.02     0.01  -0.01   0.01    -0.05   0.36   0.00
     9   1     0.47   0.22  -0.01     0.01   0.01   0.01    -0.04   0.30   0.00
    10   1     0.46   0.16   0.01     0.01   0.00   0.01    -0.04   0.30   0.00
    11   7    -0.06   0.01  -0.01     0.00   0.00   0.00     0.00   0.24   0.00
    12   8    -0.10   0.12   0.00     0.00   0.00   0.14     0.18  -0.43   0.00
    13   8    -0.10  -0.15   0.00     0.00   0.00  -0.14    -0.15  -0.41   0.00
                      7                      8                      9
                      A                      A                      A
 Frequencies --    579.2668               619.5875               652.3585
 Red. masses --      3.9511                 9.0945                 2.0205
 Frc consts  --      0.7811                 2.0570                 0.5066
 IR Inten    --      0.1471                 3.2555                 1.5160
  Atom  AN      X      Y      Z        X      Y      Z        X      Y      Z
     1   6    -0.12  -0.07   0.00    -0.28   0.05   0.01     0.00   0.00   0.18
     2   6     0.19  -0.14   0.00    -0.02   0.20   0.00     0.00   0.00   0.03
     3   6     0.18   0.15   0.00     0.01   0.20   0.00     0.00   0.00   0.02
     4   6    -0.12   0.07   0.00     0.28   0.07   0.01     0.00   0.00   0.18
     5   1     0.46  -0.36   0.00     0.21   0.02  -0.02     0.00   0.00  -0.67
     6   1     0.44   0.37   0.00    -0.21   0.01  -0.02     0.00   0.00  -0.67
     7   6     0.01   0.00   0.00     0.01  -0.33   0.00     0.00   0.00  -0.01
     8   1     0.09  -0.20   0.00     0.00  -0.30   0.00     0.00   0.01   0.02
     9   1     0.09   0.11   0.00     0.02  -0.30   0.00     0.01   0.08   0.02
    10   1     0.10   0.08   0.01     0.01  -0.30  -0.01    -0.01  -0.08   0.02
    11   7    -0.13   0.00   0.00     0.01  -0.16   0.00     0.00   0.00  -0.13
    12   8    -0.03  -0.19   0.00     0.36   0.04   0.00     0.00   0.00  -0.05
    13   8    -0.04   0.19   0.00    -0.36   0.02   0.00     0.00   0.00  -0.05
                     10                     11                     12
                      A                      A                      A
 Frequencies --    713.3159               751.8530               801.6529
 Red. masses --      7.6657                 5.4836                 7.1328
 Frc consts  --      2.2981                 1.8263                 2.7007
 IR Inten    --     57.9387                 0.2667                 0.0349
  Atom  AN      X      Y      Z        X      Y      Z        X      Y      Z
     1   6    -0.01   0.31   0.00     0.16   0.05   0.00     0.00   0.00   0.48
     2   6     0.29   0.27   0.00     0.01   0.28   0.00     0.00   0.00  -0.18
     3   6     0.30  -0.26   0.00    -0.02   0.27   0.00     0.00   0.00   0.18
     4   6     0.00  -0.31   0.00    -0.16   0.04   0.00     0.00   0.00  -0.47
     5   1     0.12   0.41   0.00    -0.10   0.39   0.00     0.00   0.00  -0.48
     6   1     0.15  -0.40   0.00     0.08   0.38   0.00     0.00   0.00   0.46
     7   6    -0.04   0.00   0.00     0.01  -0.32   0.00     0.00   0.00  -0.01
     8   1    -0.09   0.13   0.00     0.01  -0.33   0.00     0.00  -0.01   0.03
     9   1    -0.10  -0.08   0.01     0.01  -0.32   0.00    -0.01   0.05   0.01
    10   1    -0.11  -0.06  -0.01     0.01  -0.31   0.00     0.02  -0.04   0.02
    11   7    -0.04   0.00   0.00     0.00  -0.04   0.00     0.00   0.00   0.00
    12   8    -0.18  -0.02   0.00    -0.16  -0.10   0.00     0.00   0.00   0.12
    13   8    -0.18   0.02   0.00     0.16  -0.09   0.00     0.00   0.00  -0.12
                     13                     14                     15
                      A                      A                      A
 Frequencies --    870.9650               964.7259              1012.9572
 Red. masses --      2.1800                 2.0804                 1.3272
 Frc consts  --      0.9743                 1.1408                 0.8024
 IR Inten    --     88.2429                48.1735                 0.0036
  Atom  AN      X      Y      Z        X      Y      Z        X      Y      Z
     1   6     0.00   0.00  -0.18    -0.04   0.05   0.00     0.00   0.00   0.01
     2   6     0.00   0.00   0.13    -0.02  -0.09   0.00     0.00   0.00  -0.12
     3   6     0.00   0.00   0.13    -0.02   0.08   0.00     0.00   0.00   0.12
     4   6     0.00   0.00  -0.18    -0.04  -0.05   0.00     0.00   0.00  -0.01
     5   1     0.00   0.00  -0.67     0.18  -0.25   0.00     0.00   0.00   0.70
     6   1     0.00   0.00  -0.66     0.17   0.26   0.00     0.00   0.00  -0.70
     7   6     0.00   0.00   0.01     0.10   0.00   0.00     0.00   0.00   0.00
     8   1     0.00  -0.01  -0.03    -0.13   0.64   0.00     0.00   0.00   0.00
     9   1     0.00  -0.07  -0.02    -0.19  -0.36   0.05     0.00   0.00   0.00
    10   1     0.00   0.08  -0.02    -0.23  -0.27  -0.05     0.00   0.00   0.00
    11   7     0.00   0.00   0.08     0.20   0.00   0.00     0.00   0.00   0.00
    12   8     0.00   0.00   0.04    -0.08   0.01   0.00     0.00   0.00   0.00
    13   8     0.00   0.00   0.04    -0.08  -0.01   0.00     0.00   0.00   0.00
                     16                     17                     18
                      A                      A                      A
 Frequencies --   1061.7581              1127.1945              1159.9694
 Red. masses --      1.4510                 2.4597                 2.4586
 Frc consts  --      0.9637                 1.8413                 1.9491
 IR Inten    --     18.3280                45.1457                 4.9440
  Atom  AN      X      Y      Z        X      Y      Z        X      Y      Z
     1   6    -0.01  -0.07   0.00     0.08   0.21   0.00     0.03   0.14   0.01
     2   6     0.03   0.09   0.00    -0.06  -0.11   0.00     0.04  -0.08   0.00
     3   6    -0.04   0.09   0.00    -0.07   0.08   0.00    -0.02  -0.11   0.00
     4   6     0.02  -0.08   0.00     0.08  -0.18   0.00    -0.06   0.18   0.00
     5   1     0.61  -0.36   0.00     0.29  -0.40   0.00     0.36  -0.34   0.00
     6   1    -0.57  -0.35   0.00     0.27   0.38   0.00    -0.39  -0.43   0.01
     7   6     0.00   0.06   0.00    -0.11  -0.02   0.01     0.01  -0.14   0.07
     8   1     0.00   0.06   0.00     0.07  -0.49   0.00    -0.01  -0.15  -0.15
     9   1     0.00   0.07   0.00     0.16   0.22  -0.08     0.06  -0.44  -0.10
    10   1     0.00   0.07   0.00     0.19   0.21   0.05    -0.07   0.14  -0.08
    11   7     0.00  -0.04   0.00     0.00   0.03   0.00     0.01   0.16  -0.03
    12   8    -0.04   0.00   0.00     0.00   0.03   0.00     0.01  -0.03   0.00
    13   8     0.04   0.00   0.00     0.00  -0.04   0.00    -0.01  -0.02   0.00
                     19                     20                     21
                      A                      A                      A
 Frequencies --   1162.4353              1298.8969              1338.7181
 Red. masses --      1.3912                 3.2315                 1.8315
 Frc consts  --      1.1076                 3.2122                 1.9339
 IR Inten    --      2.4062                81.6239                 1.2885
  Atom  AN      X      Y      Z        X      Y      Z        X      Y      Z
     1   6    -0.01  -0.04   0.01    -0.07  -0.10   0.00    -0.02  -0.05   0.00
     2   6    -0.01   0.02   0.00     0.02   0.04   0.00    -0.07   0.17   0.00
     3   6     0.01   0.03   0.00     0.03  -0.04   0.00    -0.06  -0.17   0.00
     4   6     0.01  -0.05   0.00    -0.06   0.07   0.00    -0.03   0.05   0.00
     5   1    -0.11   0.10   0.01    -0.03   0.09   0.00     0.58  -0.33   0.00
     6   1     0.10   0.11   0.02    -0.01  -0.07   0.00     0.59   0.37   0.00
     7   6     0.00   0.04   0.14    -0.17  -0.01   0.00     0.01   0.00   0.00
     8   1    -0.02  -0.01  -0.32     0.03  -0.51   0.04     0.00   0.03   0.00
     9   1     0.14  -0.52  -0.21     0.34   0.33  -0.21    -0.02  -0.02   0.01
    10   1    -0.11   0.67  -0.17     0.43   0.23   0.18    -0.03  -0.01  -0.01
    11   7     0.00  -0.04  -0.07     0.33   0.02   0.00    -0.01   0.00   0.00
    12   8     0.00   0.01   0.00    -0.07  -0.01   0.00     0.03   0.01   0.00
    13   8     0.00   0.01   0.00    -0.07   0.02   0.00     0.03  -0.01   0.00
                     22                     23                     24
                      A                      A                      A
 Frequencies --   1440.7737              1480.9460              1489.7450
 Red. masses --      1.5795                 1.6351                 1.2911
 Frc consts  --      1.9319                 2.1128                 1.6882
 IR Inten    --     64.4258               164.8727                83.2631
  Atom  AN      X      Y      Z        X      Y      Z        X      Y      Z
     1   6     0.03   0.06   0.00     0.03   0.10   0.00     0.02   0.07   0.00
     2   6     0.00   0.00   0.00     0.00  -0.01   0.00     0.00  -0.01   0.00
     3   6     0.00   0.00   0.00     0.00  -0.01   0.00     0.00  -0.01   0.00
     4   6    -0.04   0.06   0.00    -0.03   0.09   0.00    -0.02   0.06   0.00
     5   1     0.01  -0.01   0.00     0.03  -0.03   0.00     0.02  -0.02   0.00
     6   1    -0.02  -0.02   0.00    -0.02  -0.03   0.00    -0.01  -0.02   0.00
     7   6     0.00   0.17   0.00    -0.03   0.03   0.04    -0.02   0.00  -0.04
     8   1     0.28  -0.62   0.02    -0.20   0.37  -0.49    -0.04   0.25   0.65
     9   1    -0.25  -0.46  -0.08     0.56   0.27  -0.27    -0.18  -0.19   0.01
    10   1    -0.18  -0.40   0.13     0.08  -0.20   0.15     0.48   0.43   0.04
    11   7     0.02  -0.11   0.00    -0.02  -0.16   0.01    -0.01  -0.11  -0.02
    12   8     0.01  -0.01   0.00     0.01  -0.01   0.00     0.00  -0.01   0.00
    13   8    -0.02  -0.01   0.00     0.00  -0.02   0.00     0.00  -0.01   0.00
                     25                     26                     27
                      A                      A                      A
 Frequencies --   1511.5230              1685.6277              1805.2887
 Red. masses --      1.2237                 6.8778                12.3612
 Frc consts  --      1.6473                11.5138                23.7358
 IR Inten    --     46.1335                 2.6598              1176.7083
  Atom  AN      X      Y      Z        X      Y      Z        X      Y      Z
     1   6     0.01   0.05   0.00     0.03  -0.03   0.00     0.53  -0.22   0.00
     2   6     0.00  -0.01   0.00     0.51  -0.04   0.00    -0.06   0.02   0.00
     3   6     0.00  -0.01   0.00    -0.51  -0.06   0.00    -0.05  -0.02   0.00
     4   6    -0.02   0.06   0.00    -0.02  -0.03   0.00     0.52   0.24   0.00
     5   1     0.01  -0.01   0.00     0.02   0.48   0.00     0.12  -0.10   0.00
     6   1    -0.02  -0.02   0.00    -0.02   0.49   0.00     0.12   0.11   0.00
     7   6     0.03  -0.02   0.00     0.00   0.00   0.00     0.02   0.00   0.00
     8   1     0.05  -0.15  -0.11     0.00   0.01   0.00     0.01   0.08   0.00
     9   1    -0.27   0.47   0.42     0.01   0.02   0.00     0.01  -0.07  -0.01
    10   1    -0.45   0.37  -0.36     0.01   0.02   0.00     0.02  -0.05   0.01
    11   7     0.04  -0.09   0.00     0.00  -0.02   0.00    -0.07   0.00   0.00
    12   8    -0.01  -0.01   0.00     0.05   0.03   0.00    -0.34  -0.13   0.00
    13   8    -0.01  -0.01   0.00    -0.05   0.03   0.00    -0.34   0.12   0.00
                     28                     29                     30
                      A                      A                      A
 Frequencies --   1878.4401              3074.8836              3146.6427
 Red. masses --     11.7871                 1.0345                 1.1054
 Frc consts  --     24.5048                 5.7630                 6.4488
 IR Inten    --     16.3772                31.6958                13.2450
  Atom  AN      X      Y      Z        X      Y      Z        X      Y      Z
     1   6     0.54  -0.17   0.00     0.00   0.00   0.00     0.00   0.00   0.00
     2   6    -0.08   0.03   0.00     0.00   0.00   0.00     0.00   0.00   0.00
     3   6     0.08   0.03   0.00     0.00   0.00   0.00     0.00   0.00   0.00
     4   6    -0.54  -0.19   0.00     0.00   0.00   0.00     0.00   0.00   0.00
     5   1     0.12  -0.11   0.00     0.00   0.00   0.00     0.00   0.00   0.00
     6   1    -0.12  -0.12   0.00     0.00   0.00   0.00     0.00   0.00   0.00
     7   6     0.00  -0.03   0.00    -0.01   0.05   0.01     0.00   0.00   0.09
     8   1    -0.07   0.11   0.00    -0.42  -0.15   0.04     0.12   0.04   0.01
     9   1     0.06   0.11   0.04     0.31  -0.18   0.45    -0.40   0.23  -0.55
    10   1     0.04   0.11  -0.05     0.27  -0.22  -0.59     0.28  -0.23  -0.58
    11   7     0.00   0.01   0.00     0.00   0.00   0.00     0.00   0.00   0.00
    12   8     0.32   0.12   0.00     0.00   0.00   0.00     0.00   0.00   0.00
    13   8    -0.32   0.11   0.00     0.00   0.00   0.00     0.00   0.00   0.00
                     31                     32                     33
                      A                      A                      A
 Frequencies --   3180.5426              3260.1830              3281.6222
 Red. masses --      1.1036                 1.0904                 1.1103
 Frc consts  --      6.5777                 6.8283                 7.0451
 IR Inten    --      0.9539                 0.1967                 0.9944
  Atom  AN      X      Y      Z        X      Y      Z        X      Y      Z
     1   6     0.00   0.00   0.00     0.00   0.00   0.00     0.00   0.00   0.00
     2   6     0.00   0.00   0.00    -0.04  -0.05   0.00    -0.04  -0.04   0.00
     3   6     0.00   0.00   0.00    -0.03   0.04   0.00     0.05  -0.05   0.00
     4   6     0.00   0.00   0.00     0.00   0.00   0.00     0.00   0.00   0.00
     5   1     0.00   0.00   0.00     0.49   0.62   0.00     0.38   0.48   0.00
     6   1     0.00   0.00   0.00     0.39  -0.47   0.00    -0.51   0.60   0.00
     7   6    -0.09  -0.01   0.00     0.00   0.00   0.00     0.00   0.00   0.00
     8   1     0.83   0.30  -0.08     0.00   0.00   0.00     0.00   0.00   0.00
     9   1     0.20  -0.12   0.30     0.00   0.00   0.00     0.00   0.00   0.00
    10   1     0.08  -0.08  -0.21     0.00   0.00   0.00     0.00   0.00   0.00
    11   7     0.00   0.00   0.00     0.00   0.00   0.00     0.00   0.00   0.00
    12   8     0.00   0.00   0.00     0.00   0.00   0.00     0.00   0.00   0.00
    13   8     0.00   0.00   0.00     0.00   0.00   0.00     0.00   0.00   0.00

 -------------------
 - Thermochemistry -
 -------------------
 Temperature   298.150 Kelvin.  Pressure   1.00000 Atm.
 Atom     1 has atomic number  6 and mass  12.00000
 Atom     2 has atomic number  6 and mass  12.00000
 Atom     3 has atomic number  6 and mass  12.00000
 Atom     4 has atomic number  6 and mass  12.00000
 Atom     5 has atomic number  1 and mass   1.00783
 Atom     6 has atomic number  1 and mass   1.00783
 Atom     7 has atomic number  6 and mass  12.00000
 Atom     8 has atomic number  1 and mass   1.00783
 Atom     9 has atomic number  1 and mass   1.00783
 Atom    10 has atomic number  1 and mass   1.00783
 Atom    11 has atomic number  7 and mass  14.00307
 Atom    12 has atomic number  8 and mass  15.99491
 Atom    13 has atomic number  8 and mass  15.99491
 Molecular mass:   111.03203 amu.
 Principal axes and moments of inertia in atomic units:
                           1         2         3
     Eigenvalues --   538.92178 762.312681289.89618
           X            0.99996  -0.00861   0.00001
           Y            0.00861   0.99996   0.00002
           Z           -0.00001  -0.00002   1.00000
 This molecule is an asymmetric top.
 Rotational symmetry number  1.
 Warning -- assumption of classical behavior for rotation
           may cause significant error
 Rotational temperatures (Kelvin)      0.16072     0.11362     0.06715
 Rotational constants (GHZ):           3.34880     2.36746     1.39914
 Zero-point vibrational energy     255134.7 (Joules/Mol)
                                   60.97866 (Kcal/Mol)
 Warning -- explicit consideration of   8 degrees of freedom as
           vibrations may cause significant error
 Vibrational temperatures:     42.83   201.05   251.69   388.09   432.73
          (Kelvin)            558.80   833.43   891.45   938.60  1026.30
                             1081.75  1153.40  1253.12  1388.02  1457.42
                             1527.63  1621.78  1668.94  1672.48  1868.82
                             1926.11  2072.95  2130.75  2143.41  2174.74
                             2425.24  2597.40  2702.65  4424.07  4527.31
                             4576.09  4690.67  4721.52
 
 Zero-point correction=                           0.097176 (Hartree/Particle)
 Thermal correction to Energy=                    0.104356
 Thermal correction to Enthalpy=                  0.105300
 Thermal correction to Gibbs Free Energy=         0.064651
 Sum of electronic and zero-point Energies=           -398.684911
 Sum of electronic and thermal Energies=              -398.677730
 Sum of electronic and thermal Enthalpies=            -398.676786
 Sum of electronic and thermal Free Energies=         -398.717436
 
                     E (Thermal)             CV                S
                      KCal/Mol        Cal/Mol-Kelvin    Cal/Mol-Kelvin
 Total                   65.485             24.843             85.554
 Electronic               0.000              0.000              0.000
 Translational            0.889              2.981             40.030
 Rotational               0.889              2.981             27.763
 Vibrational             63.707             18.882             17.762
 Vibration     1          0.594              1.984              5.845
 Vibration     2          0.615              1.914              2.808
 Vibration     3          0.627              1.873              2.382
 Vibration     4          0.674              1.729              1.598
 Vibration     5          0.693              1.672              1.413
 Vibration     6          0.757              1.495              1.006
 Vibration     7          0.936              1.076              0.487
 Vibration     8          0.980              0.991              0.417
                       Q            Log10(Q)             Ln(Q)
 Total Bot       0.183132D-29        -29.737237        -68.472518
 Total V=0       0.912798D+15         14.960375         34.447536
 Vib (Bot)       0.152821D-42        -42.815818        -98.587064
 Vib (Bot)    1  0.695604D+01          0.842362          1.939610
 Vib (Bot)    2  0.145527D+01          0.162944          0.375193
 Vib (Bot)    3  0.115013D+01          0.060746          0.139872
 Vib (Bot)    4  0.716583D+00         -0.144734         -0.333262
 Vib (Bot)    5  0.632048D+00         -0.199250         -0.458790
 Vib (Bot)    6  0.462780D+00         -0.334626         -0.770504
 Vib (Bot)    7  0.263254D+00         -0.579626         -1.334638
 Vib (Bot)    8  0.236132D+00         -0.626845         -1.443364
 Vib (V=0)       0.761718D+02          1.881794          4.332991
 Vib (V=0)    1  0.747398D+01          0.873552          2.011428
 Vib (V=0)    2  0.203877D+01          0.309369          0.712347
 Vib (V=0)    3  0.175411D+01          0.244057          0.561962
 Vib (V=0)    4  0.137378D+01          0.137917          0.317566
 Vib (V=0)    5  0.130591D+01          0.115912          0.266897
 Vib (V=0)    6  0.118130D+01          0.072359          0.166613
 Vib (V=0)    7  0.106507D+01          0.027378          0.063039
 Vib (V=0)    8  0.105295D+01          0.022409          0.051600
 Electronic      0.100000D+01          0.000000          0.000000
 Translational   0.459862D+08          7.662628         17.643852
 Rotational      0.260587D+06          5.415953         12.470693
 ***** Axes restored to original set *****
 -------------------------------------------------------------------
 Center     Atomic                   Forces (Hartrees/Bohr)
 Number     Number              X              Y              Z
 -------------------------------------------------------------------
      1        6           0.000054386   -0.000041123    0.000024477
      2        6           0.000038455    0.000007573    0.000000888
      3        6          -0.000017867    0.000015899   -0.000020159
      4        6          -0.000044481   -0.000022946    0.000035675
      5        1           0.000021939   -0.000006076    0.000008891
      6        1           0.000016004    0.000011919   -0.000000798
      7        6          -0.000026945    0.000056473   -0.000007075
      8        1          -0.000013733   -0.000001867   -0.000002842
      9        1          -0.000009754   -0.000011470   -0.000006134
     10        1          -0.000014977   -0.000016578   -0.000005933
     11        7          -0.000004274   -0.000033719   -0.000005956
     12        8           0.000018360    0.000036400   -0.000023110
     13        8          -0.000017112    0.000005517    0.000002077
 -------------------------------------------------------------------
 Cartesian Forces:  Max     0.000056473 RMS     0.000023324

 GradGradGradGradGradGradGradGradGradGradGradGradGradGradGradGradGradGrad
 Berny optimization.
 Search for a local minimum.
 Step number   1 out of a maximum of    2
 All quantities printed in internal units (Hartrees-Bohrs-Radians)
 Second derivative matrix not updated -- analytic derivatives used.
 ITU=  0
     Eigenvalues ---    0.00005   0.00399   0.01077   0.01148   0.01295
     Eigenvalues ---    0.04344   0.04410   0.04584   0.04736   0.07500
     Eigenvalues ---    0.09441   0.10403   0.11757   0.12751   0.13973
     Eigenvalues ---    0.14410   0.19721   0.24051   0.29516   0.30136
     Eigenvalues ---    0.31447   0.37006   0.47158   0.61392   0.72014
     Eigenvalues ---    0.74818   0.79249   0.89010   1.01311   1.09031
     Eigenvalues ---    1.54295   1.65034   1.77224
 Angle between quadratic step and forces=  86.74 degrees.
 Linear search not attempted -- first point.
 TrRot= -0.000004  0.000043  0.000338  0.013730  0.004375 -0.013734
 Variable       Old X    -DE/DX   Delta X   Delta X   Delta X     New X
                                 (Linear)    (Quad)   (Total)
    X1       -2.13866   0.00005   0.00000   0.00019   0.00025  -2.13841
    Y1       -0.41880  -0.00004   0.00000  -0.00003   0.00002  -0.41878
    Z1       -0.00045   0.00002   0.00000   0.00937   0.01909   0.01863
    X2       -1.19089   0.00004   0.00000   0.00005   0.00006  -1.19083
    Y2       -3.08713   0.00001   0.00000  -0.00003   0.00002  -3.08712
    Z2       -0.00032   0.00000   0.00000   0.00438   0.01011   0.00979
    X3        1.31100  -0.00002   0.00000   0.00000  -0.00005   1.31095
    Y3       -3.03849   0.00002   0.00000   0.00003   0.00007  -3.03842
    Z3        0.00034  -0.00002   0.00000  -0.00521  -0.01043  -0.01009
    X4        2.16018  -0.00004   0.00000   0.00003  -0.00003   2.16015
    Y4       -0.33679  -0.00002   0.00000  -0.00005  -0.00002  -0.33680
    Z4       -0.00030   0.00004   0.00000  -0.00675  -0.01584  -0.01614
    X5       -2.45627   0.00002   0.00000   0.00024   0.00028  -2.45599
    Y5       -4.68669  -0.00001   0.00000  -0.00016  -0.00011  -4.68680
    Z5       -0.00060   0.00001   0.00000   0.00804   0.01941   0.01880
    X6        2.63745   0.00002   0.00000   0.00016   0.00006   2.63752
    Y6       -4.58771   0.00001   0.00000   0.00016   0.00019  -4.58751
    Z6        0.00083   0.00000   0.00000  -0.01137  -0.02229  -0.02146
    X7       -0.09511  -0.00003   0.00000  -0.00090  -0.00089  -0.09600
    Y7        3.84085   0.00006   0.00000   0.00011   0.00015   3.84100
    Z7        0.00068  -0.00001   0.00000  -0.00099  -0.00046   0.00022
    X8        1.83209  -0.00001   0.00000   0.00860   0.00821   1.84030
    Y8        4.53353   0.00000   0.00000  -0.00166  -0.00163   4.53190
    Z8       -0.18073   0.00000   0.00000   0.09334   0.08535  -0.09538
    X9       -1.22022  -0.00001   0.00000   0.07845   0.07130  -1.14891
    Y9        4.52629  -0.00001   0.00000   0.00231   0.00226   4.52855
    Z9       -1.58187  -0.00001   0.00000  -0.05701  -0.05193  -1.63380
   X10       -0.90896  -0.00001   0.00000  -0.08718  -0.07965  -0.98860
   Y10        4.54562  -0.00002   0.00000  -0.00152  -0.00137   4.54426
   Z10        1.75769  -0.00001   0.00000  -0.04095  -0.03655   1.72114
   X11       -0.01979   0.00000   0.00000  -0.00001  -0.00001  -0.01980
   Y11        1.11547  -0.00003   0.00000  -0.00004   0.00000   1.11547
   Z11       -0.00550  -0.00001   0.00000   0.00660   0.00695   0.00145
   X12        4.29004   0.00002   0.00000   0.00013   0.00001   4.29005
   Y12        0.45609   0.00004   0.00000  -0.00021  -0.00019   0.45590
   Z12        0.00253  -0.00002   0.00000  -0.01819  -0.03665  -0.03412
   X13       -4.29314  -0.00002   0.00000   0.00034   0.00045  -4.29268
   Y13        0.30678   0.00001   0.00000   0.00054   0.00060   0.30738
   Z13        0.00289   0.00000   0.00000   0.01414   0.03324   0.03613
         Item               Value     Threshold  Converged?
 Maximum Force            0.000056     0.000450     YES
 RMS     Force            0.000023     0.000300     YES
 Maximum Displacement     0.085350     0.001800     NO 
 RMS     Displacement     0.026322     0.001200     NO 
 Predicted change in Energy=-9.756199D-07
 GradGradGradGradGradGradGradGradGradGradGradGradGradGradGradGradGradGrad

 1\1\GINC-D10S2B2\Freq\RwB97XD\Gen\C5H5N1O2\PMMASS\09-Feb-2022\0\\#n wB
 97XD/Gen scrf(smd,solvent=toluene) freq\\dieneophile diels-alder tolue
 ne - freq\\0,1\C,-1.13173,-0.22162,-0.00024\C,-0.63019,-1.63364,-0.000
 17\C,0.69375,-1.6079,0.00018\C,1.14312,-0.17822,-0.00016\H,-1.2998,-2.
 48009,-0.00032\H,1.39568,-2.42771,0.00044\C,-0.05033,2.03249,0.00036\H
 ,0.9695,2.39904,-0.09564\H,-0.64571,2.39521,-0.83709\H,-0.481,2.40544,
 0.93013\N,-0.01047,0.59028,-0.00291\O,2.27019,0.24135,0.00134\O,-2.271
 83,0.16234,0.00153\\Version=ES64L-G09RevD.01\State=1-A\HF=-398.7820865
 \RMSD=2.307e-09\RMSF=2.332e-05\ZeroPoint=0.0971757\Thermal=0.1043563\D
 ipole=0.0247171,-0.5452444,-0.0044201\DipoleDeriv=2.2727933,0.1792105,
 -0.0015293,-0.145222,1.088876,0.0010459,0.0002309,-0.0013211,0.3593938
 ,-0.0598142,0.1572549,0.0017062,0.3408626,-0.2314297,-0.0007087,-0.001
 8475,0.0003188,-0.1445317,-0.0284778,-0.1476138,-0.0016141,-0.3220159,
 -0.2521017,-0.0009642,0.0020272,-0.0000182,-0.140927,2.3035904,-0.1686
 004,0.0016208,0.1570449,1.0979489,0.001259,-0.0004131,-0.0008489,0.339
 5623,0.0897746,-0.0258675,-0.0001094,-0.028971,0.0410765,0.0002071,-0.
 0001485,-0.0001966,0.1759449,0.0826687,0.0293586,0.0000938,0.0284313,0
 .0435419,0.0002441,0.0001817,-0.0001772,0.1788973,0.1009591,-0.0154361
 ,0.0004264,-0.0734156,0.6646599,0.0181206,0.0002691,0.0074169,0.251399
 6,-0.0087439,-0.088972,0.0157278,0.0204517,0.0570913,-0.0038102,0.0127
 361,0.0019533,0.1072121,0.0557597,0.0690018,-0.0826753,0.0058261,-0.02
 43836,-0.009436,-0.0703742,0.0579019,-0.0243915,0.0743885,0.0556087,0.
 0663748,0.0105189,-0.0427832,0.0011275,0.0572709,-0.0788401,-0.0586291
 ,-1.6477162,-0.0177615,0.0001039,0.0311279,-1.1896389,-0.0066769,0.000
 1697,0.0113601,-0.2224724,-1.6198296,-0.0608325,0.000374,-0.4588604,-0
 .6389542,-0.0007332,-0.0013676,0.0015298,-0.4088694,-1.6153527,0.03464
 94,-0.0004997,0.4342216,-0.6139032,0.0003249,0.0012652,0.0009213,-0.41
 25891\Polar=107.1713687,-0.2516268,80.5690654,0.0158335,0.1629999,48.3
 682623\PG=C01 [X(C5H5N1O2)]\NImag=0\\0.99698582,-0.17071020,0.57580679
 ,-0.00090374,0.00027249,0.20949024,-0.09140593,0.00936063,-0.00003298,
 0.88247153,-0.00531973,-0.19159507,0.00001655,0.15350604,0.61787956,0.
 00004477,0.00001372,-0.08068590,0.00015751,-0.00002874,0.12056937,-0.0
 3509998,0.02042391,0.00000090,-0.56288756,-0.00302527,-0.00013604,0.89
 417679,0.03243472,-0.00622176,0.00002250,-0.01360811,-0.11536209,-0.00
 004756,-0.14467858,0.60850838,-0.00007088,0.00000391,0.00508709,-0.000
 12777,-0.00004204,-0.05551333,0.00019405,-0.00016482,0.12146587,-0.098
 57953,-0.03353893,-0.00005184,-0.03349207,-0.03261807,0.00005675,-0.09
 059362,0.00896143,-0.00006195,0.98397800,0.02842369,0.06773476,-0.0001
 9747,-0.02133791,-0.00817602,0.00001200,-0.00465767,-0.19221060,0.0000
 4625,0.18784889,0.58474371,0.00005882,-0.00017980,-0.01851599,-0.00002
 586,-0.00000907,0.00517383,0.00003065,0.00005474,-0.08145058,0.0008088
 7,-0.00000264,0.20895451,0.01127492,0.00946866,0.00001052,-0.17194813,
 -0.14803773,-0.00003614,-0.00716840,-0.02514644,0.00000243,-0.00493053
 ,0.00395765,-0.00000450,0.17221744,-0.02051282,-0.00887544,-0.00000203
 ,-0.14763445,-0.24563263,-0.00002538,0.00493174,0.00921780,0.,0.002931
 41,-0.00210913,-0.00000034,0.15918099,0.24888467,-0.00001940,-0.000000
 84,0.00140355,-0.00002590,-0.00002975,-0.03908599,-0.00000061,0.000005
 11,0.00901900,-0.00000437,-0.00001653,0.01271426,0.00003625,0.00002769
 ,0.02511079,-0.00466040,-0.00413561,-0.00000768,-0.00796470,0.02451620
 ,-0.00000736,-0.18486616,0.15064248,-0.00004720,0.01073705,-0.00879463
 ,-0.00000511,0.00108634,-0.00066568,0.00000139,0.18583068,-0.00300181,
 -0.00239078,-0.00000099,-0.00554928,0.01003846,-0.00000147,0.15000055,
 -0.23518465,0.00006813,0.02123138,-0.00859043,0.00000227,0.00070410,0.
 00009326,-0.00000080,-0.16173870,0.23760525,-0.00000280,-0.00001763,0.
 01272089,0.00000182,0.00001854,0.00911916,-0.00005446,0.00005776,-0.03
 916326,0.00001946,-0.00000391,0.00144754,0.00000163,-0.00000037,-0.005
 93802,0.00005219,-0.00007088,0.02511010,0.00894495,-0.02848297,0.00051
 739,-0.00566768,-0.00342147,-0.00013187,-0.00394237,0.00411525,0.00013
 582,0.01321892,0.02603069,-0.00052274,0.00096015,-0.00134401,-0.000044
 90,0.00079548,0.00111107,0.00004596,0.61805587,-0.01583259,-0.02364039
 ,0.00009153,0.00011028,0.00242146,-0.00002392,-0.00027068,0.00252087,-
 0.00001834,0.01971622,-0.02145240,0.00007328,0.00007903,0.00049170,0.0
 0000070,-0.00007499,0.00057059,0.00000452,-0.00113176,0.50193163,0.001
 00417,0.00041607,-0.00080413,0.00025883,-0.00013077,0.00240211,-0.0002
 7709,-0.00012681,0.00329743,-0.00103683,0.00047635,-0.00574216,-0.0000
 1639,0.00003512,0.00089385,0.00001486,0.00003789,0.00123460,0.00059140
 ,-0.00002073,0.58133008,-0.00010958,0.00152436,0.00007108,-0.00005734,
 0.00004155,0.00004401,0.00001982,-0.00009082,0.00003813,-0.00181416,0.
 00091959,-0.00003916,-0.00005751,0.00001893,0.00000587,0.00000185,-0.0
 0006130,-0.00000231,-0.29799273,-0.09014914,0.02373556,0.31603364,0.00
 550287,-0.00440484,0.00047034,-0.00151088,-0.00130546,-0.00010821,-0.0
 0015256,0.00015853,0.00000259,-0.00451625,0.00008776,0.00001616,0.0003
 4749,-0.00043337,-0.00004301,0.00007395,0.00005821,-0.00000198,-0.0775
 8481,-0.07687885,0.00734905,0.09567129,0.09187948,-0.00033060,-0.00020
 190,-0.00014693,-0.00004679,0.00001159,0.00022618,-0.00000602,0.000023
 45,0.00007507,0.00045396,0.00010739,0.00135084,0.00000054,-0.00000778,
 0.00000846,0.00000186,-0.00000115,-0.00004208,0.02379415,0.00832174,-0
 .05117107,-0.02575537,-0.00834459,0.04837812,0.00028993,-0.00076615,0.
 00074585,0.00024429,-0.00006292,-0.00032480,-0.00023884,-0.00014042,-0
 .00018410,-0.00058383,-0.00007291,-0.00064687,-0.00000204,0.00003551,-
 0.00001505,0.00000770,0.00004978,0.00002335,-0.13104709,0.04738765,-0.
 11750697,-0.01278612,0.00969339,-0.02330066,0.13482934,0.00490432,0.00
 155705,0.00053571,0.00054413,-0.00060495,-0.00031914,0.00057173,-0.001
 39899,-0.00082960,-0.00647231,-0.00168705,0.00295272,-0.00003084,-0.00
 000447,-0.00007703,-0.00019485,-0.00028723,-0.00026204,0.04200199,-0.0
 7245367,0.06030893,-0.00453774,0.00429231,-0.00981728,-0.05351057,0.09
 010816,-0.00221562,0.00010993,0.00064579,0.00006681,0.00015249,-0.0002
 1418,0.00022200,0.00002842,-0.00016598,0.00107463,-0.00134118,-0.00016
 458,-0.00001478,0.00001715,-0.00000143,-0.00000270,-0.00003433,-0.0000
 0023,-0.11795950,0.06639692,-0.21596339,0.00293802,-0.00260739,0.00401
 174,0.12762623,-0.07153081,0.22516039,0.00064822,-0.00086180,-0.000883
 98,0.00017793,-0.00005474,0.00031498,-0.00021275,-0.00011130,0.0001076
 4,-0.00027003,0.00028254,0.00072838,0.00000142,0.00001787,0.00002350,0
 .00001322,0.00005345,-0.00003599,-0.09267784,0.03462186,0.09321700,-0.
 00888820,0.00996702,0.02592892,0.00797187,-0.00622018,-0.01599809,0.09
 218425,0.00525546,0.00148841,-0.00101784,0.00054215,-0.00081483,0.0004
 4271,0.00028191,-0.00138051,0.00084856,-0.00655524,-0.00079328,-0.0028
 2048,-0.00000564,-0.00003490,0.00011214,-0.00015271,-0.00023573,0.0002
 5630,0.03082965,-0.07242307,-0.06737766,-0.00271968,0.00438909,0.01023
 809,-0.00478011,0.00435777,0.00768117,-0.03977175,0.09095368,0.0019748
 6,-0.00000526,0.00039639,-0.00005936,-0.00014106,-0.00027726,-0.000171
 90,-0.00004369,-0.00027224,-0.00087688,0.00124394,-0.00010674,0.000016
 02,-0.00002298,-0.00000013,-0.00000053,0.00002109,-0.00000143,0.093351
 48,-0.07354427,-0.25239720,-0.00039904,0.00059668,-0.00056443,0.010894
 86,-0.00686245,-0.02003591,-0.10114674,0.08096712,0.26471764,-0.148559
 82,-0.04224794,-0.00020753,0.01034492,-0.00779429,-0.00001514,0.008619
 19,0.00984052,0.00001925,-0.15391576,0.04265196,0.00023119,0.00002598,
 0.00080348,0.00002859,0.00022940,-0.00052887,-0.00002946,-0.11036869,0
 .00606581,0.00001264,0.00470213,-0.03863530,-0.00066821,0.00094893,0.0
 2353131,0.00363885,0.00059124,0.01726493,-0.00287232,0.61194077,-0.064
 82105,-0.21340603,-0.00000481,-0.02063444,-0.05560871,0.00013866,0.023
 24724,-0.05453501,0.00013582,0.06182220,-0.20703744,0.00002757,0.00400
 214,-0.00467665,0.00000577,-0.00376923,-0.00484137,-0.00000101,0.00916
 274,-0.24193545,-0.00193453,-0.00149998,-0.02121943,0.00020667,0.00117
 778,-0.02597331,0.00228151,0.00103619,-0.02731609,-0.00266940,-0.00687
 006,0.79194441,-0.00024209,-0.00016793,-0.06582921,-0.00023241,0.00018
 443,0.01726035,0.00022656,0.00020548,0.01628699,0.00021888,-0.00012423
 ,-0.06015812,0.00000873,-0.00002665,-0.00051089,-0.00000624,-0.0000259
 2,-0.00085647,0.00010497,-0.00123795,-0.05877167,-0.00075737,0.0028696
 0,-0.00150348,0.00254249,0.02594180,0.00681281,-0.00175158,-0.02896977
 ,0.00857228,-0.00012201,0.00137536,0.09928439,0.02285408,0.02615192,-0
 .00012122,0.00516683,-0.00393576,-0.00002530,-0.02263019,-0.02653716,-
 0.00003195,-0.64712979,-0.23034268,-0.00074206,-0.00105447,-0.00031784
 ,0.00000978,-0.00002455,-0.00251833,-0.00000701,-0.00142074,-0.0107309
 6,0.00030868,0.00071196,0.00161994,-0.00009878,0.00022941,0.00165084,-
 0.00015128,0.00015787,0.00193890,0.00019696,-0.11188897,-0.00324470,-0
 .00033980,0.77156639,0.00102171,-0.01165442,0.00011441,-0.00155979,-0.
 00839185,-0.00003488,-0.04845513,-0.00587297,-0.00001633,-0.21869079,-
 0.19832252,-0.00023106,-0.00265850,0.00102595,0.00000822,0.00169457,0.
 00200089,0.00000980,-0.00222195,-0.00069939,0.00051435,0.00131253,0.00
 201866,-0.00036429,0.00079120,0.00117811,-0.00010374,0.00043583,0.0010
 3948,-0.00015337,0.01769229,0.03222760,-0.00001484,0.24880627,0.181726
 07,0.00001661,0.00008679,0.00896415,0.00002219,0.00002082,0.00049018,-
 0.00000875,-0.00001917,0.02075538,-0.00057177,-0.00029155,-0.07239079,
 0.00000123,0.00000179,-0.00255434,0.00000377,0.00000378,-0.00105336,-0
 .00004781,-0.00004545,-0.00143361,0.00013025,-0.00021021,-0.00076005,0
 .00032563,0.00019988,-0.00005313,-0.00040661,-0.00022444,-0.00003999,-
 0.00037281,0.00020843,0.01930435,0.00095229,0.00030456,0.03114055,-0.6
 6258268,0.21381412,0.00086324,-0.02498209,0.02620620,0.00005865,0.0048
 2407,0.00431842,0.00002653,0.02337538,-0.02490922,0.00012838,-0.000405
 18,0.00255485,0.00000485,-0.00118590,0.00024798,-0.00001238,0.00114177
 ,0.01020929,-0.00030586,0.00023625,-0.00047616,0.00002699,0.00013645,-
 0.00223783,0.00077543,0.00030281,-0.00212786,-0.00090741,-0.11266931,0
 .00039116,0.00034986,-0.01653782,0.00183174,-0.00004423,0.78834626,0.2
 0265543,-0.18439828,-0.00030038,0.04777164,-0.00284788,-0.00001779,0.0
 0178279,-0.00823901,-0.00003412,-0.00011992,-0.01218737,0.00011664,-0.
 00186091,0.00205320,0.00000834,0.00259920,0.00116352,0.00001091,0.0009
 3558,0.00154697,0.00045273,-0.00042961,0.00135790,-0.00017194,0.000197
 77,0.00091626,-0.00105015,0.00060502,0.00076998,0.00061364,-0.02177385
 ,0.03237749,-0.00000938,-0.00254045,0.00372440,-0.00003522,-0.22982270
 ,0.16376281,0.00068590,-0.00032955,-0.07272593,0.00004389,-0.00002298,
 0.02053547,-0.00001929,0.00000459,0.00057856,-0.00002892,0.00009158,0.
 00888798,-0.00000552,0.00000378,-0.00105911,0.00000275,0.00000237,-0.0
 0257746,0.00016565,0.00000197,-0.00287484,-0.00000966,0.00001097,0.000
 13761,-0.00017997,-0.00024069,-0.00003190,-0.00009742,-0.00013588,0.00
 000902,0.00035696,0.00022996,0.02010868,0.00004970,-0.00003284,-0.0023
 6933,-0.00096406,0.00041671,0.03138125\\-0.00005439,0.00004112,-0.0000
 2448,-0.00003845,-0.00000757,-0.00000089,0.00001787,-0.00001590,0.0000
 2016,0.00004448,0.00002295,-0.00003568,-0.00002194,0.00000608,-0.00000
 889,-0.00001600,-0.00001192,0.00000080,0.00002695,-0.00005647,0.000007
 08,0.00001373,0.00000187,0.00000284,0.00000975,0.00001147,0.00000613,0
 .00001498,0.00001658,0.00000593,0.00000427,0.00003372,0.00000596,-0.00
 001836,-0.00003640,0.00002311,0.00001711,-0.00000552,-0.00000208\\\@


 THE RARE EARTHS PERPLEX US IN OUR RESEARCHES,
 BAFFLE US IN OUR SPECULATIONS, AND HAUNT US IN OUR
 VERY DREAMS.  THEY STRETCH LIKE AN UNKNOWN BEFORE US,
 MOCKING, MYSTIFYING, AND MURMURING STRANGE REVELATIONS
 AND POSSIBILITIES.  -- SIR WILLIAM CROOKE, 1832-1919
 Job cpu time:       0 days  1 hours 47 minutes 34.3 seconds.
 File lengths (MBytes):  RWF=    147 Int=      0 D2E=      0 Chk=     10 Scr=      1
 Normal termination of Gaussian 09 at Wed Feb  9 15:13:24 2022.
