 Entering Gaussian System, Link 0=g09
 Input=dieneophile_ma.com
 Output=dieneophile_ma.log
 Initial command:
 /apps/applications/gaussian/G09.D01/2/default/g09/l1.exe "/nobackup/pmmass/Temp/Gau-67873.inp" -scrdir="/nobackup/pmmass/Temp/"
 Entering Link 1 = /apps/applications/gaussian/G09.D01/2/default/g09/l1.exe PID=     67881.
  
 Copyright (c) 1988,1990,1992,1993,1995,1998,2003,2009,2013,
            Gaussian, Inc.  All Rights Reserved.
  
 This is part of the Gaussian(R) 09 program.  It is based on
 the Gaussian(R) 03 system (copyright 2003, Gaussian, Inc.),
 the Gaussian(R) 98 system (copyright 1998, Gaussian, Inc.),
 the Gaussian(R) 94 system (copyright 1995, Gaussian, Inc.),
 the Gaussian 92(TM) system (copyright 1992, Gaussian, Inc.),
 the Gaussian 90(TM) system (copyright 1990, Gaussian, Inc.),
 the Gaussian 88(TM) system (copyright 1988, Gaussian, Inc.),
 the Gaussian 86(TM) system (copyright 1986, Carnegie Mellon
 University), and the Gaussian 82(TM) system (copyright 1983,
 Carnegie Mellon University). Gaussian is a federally registered
 trademark of Gaussian, Inc.
  
 This software contains proprietary and confidential information,
 including trade secrets, belonging to Gaussian, Inc.
  
 This software is provided under written license and may be
 used, copied, transmitted, or stored only in accord with that
 written license.
  
 The following legend is applicable only to US Government
 contracts under FAR:
  
                    RESTRICTED RIGHTS LEGEND
  
 Use, reproduction and disclosure by the US Government is
 subject to restrictions as set forth in subparagraphs (a)
 and (c) of the Commercial Computer Software - Restricted
 Rights clause in FAR 52.227-19.
  
 Gaussian, Inc.
 340 Quinnipiac St., Bldg. 40, Wallingford CT 06492
  
  
 ---------------------------------------------------------------
 Warning -- This program may not be used in any manner that
 competes with the business of Gaussian, Inc. or will provide
 assistance to any competitor of Gaussian, Inc.  The licensee
 of this program is prohibited from giving any competitor of
 Gaussian, Inc. access to this program.  By using this program,
 the user acknowledges that Gaussian, Inc. is engaged in the
 business of creating and licensing software in the field of
 computational chemistry and represents and warrants to the
 licensee that it is not a competitor of Gaussian, Inc. and that
 it will not use this program in any manner prohibited above.
 ---------------------------------------------------------------
  

 Cite this work as:
 Gaussian 09, Revision D.01,
 M. J. Frisch, G. W. Trucks, H. B. Schlegel, G. E. Scuseria, 
 M. A. Robb, J. R. Cheeseman, G. Scalmani, V. Barone, B. Mennucci, 
 G. A. Petersson, H. Nakatsuji, M. Caricato, X. Li, H. P. Hratchian, 
 A. F. Izmaylov, J. Bloino, G. Zheng, J. L. Sonnenberg, M. Hada, 
 M. Ehara, K. Toyota, R. Fukuda, J. Hasegawa, M. Ishida, T. Nakajima, 
 Y. Honda, O. Kitao, H. Nakai, T. Vreven, J. A. Montgomery, Jr., 
 J. E. Peralta, F. Ogliaro, M. Bearpark, J. J. Heyd, E. Brothers, 
 K. N. Kudin, V. N. Staroverov, T. Keith, R. Kobayashi, J. Normand, 
 K. Raghavachari, A. Rendell, J. C. Burant, S. S. Iyengar, J. Tomasi, 
 M. Cossi, N. Rega, J. M. Millam, M. Klene, J. E. Knox, J. B. Cross, 
 V. Bakken, C. Adamo, J. Jaramillo, R. Gomperts, R. E. Stratmann, 
 O. Yazyev, A. J. Austin, R. Cammi, C. Pomelli, J. W. Ochterski, 
 R. L. Martin, K. Morokuma, V. G. Zakrzewski, G. A. Voth, 
 P. Salvador, J. J. Dannenberg, S. Dapprich, A. D. Daniels, 
 O. Farkas, J. B. Foresman, J. V. Ortiz, J. Cioslowski, 
 and D. J. Fox, Gaussian, Inc., Wallingford CT, 2013.
 
 ******************************************
 Gaussian 09:  ES64L-G09RevD.01 24-Apr-2013
                 9-Feb-2022 
 ******************************************
 %nprocshared=8
 Will use up to    8 processors via shared memory.
 %mem=4GB
 %NoSave
 %chk="dieneophile_ma.chk"
 -------------------------------------------
 #n wB97XD/Gen scrf(smd,solvent=toluene) opt
 -------------------------------------------
 1/14=-1,18=20,19=15,26=3,38=1/1,3;
 2/9=110,12=2,17=6,18=5,40=1/2;
 3/5=7,11=2,16=1,25=1,30=1,70=32201,71=1,72=13,74=-58/1,2,3;
 4//1;
 5/5=2,38=5,53=13/2;
 6/7=2,8=2,9=2,10=2,28=1/1;
 7//1,2,3,16;
 1/14=-1,18=20,19=15,26=3/3(2);
 2/9=110/2;
 99//99;
 2/9=110/2;
 3/5=7,6=1,11=2,16=1,25=1,30=1,70=32205,71=1,72=13,74=-58,82=7/1,2,3;
 4/5=5,16=3,69=1/1;
 5/5=2,38=5,53=13/2;
 7//1,2,3,16;
 1/14=-1,18=20,19=15,26=3/3(-5);
 2/9=110/2;
 6/7=2,8=2,9=2,10=2,19=2,28=1/1;
 99/9=1/99;
 -------------------------------------
 dieneophile diels-alder toluene - opt
 -------------------------------------
 Symbolic Z-matrix:
 Charge =  0 Multiplicity = 1
 C                    -1.13278  -0.22338   0.00037 
 C                    -0.63269  -1.64013   0.00036 
 C                     0.694    -1.61575  -0.00003 
 C                     1.14522  -0.18211  -0.00064 
 H                    -1.30518  -2.48775   0.00079 
 H                     1.39738  -2.43795   0.00008 
 C                    -0.04875   2.03668  -0.0009 
 H                     0.97422   2.40004  -0.10027 
 H                    -0.64723   2.39835  -0.83955 
 H                    -0.47726   2.40863   0.93286 
 N                    -0.00941   0.58904  -0.00381 
 O                     2.27554   0.23906   0.00089 
 O                    -2.2752    0.16506   0.00362 
 

 GradGradGradGradGradGradGradGradGradGradGradGradGradGradGradGradGradGrad
 Berny optimization.
 Initialization pass.
                           ----------------------------
                           !    Initial Parameters    !
                           ! (Angstroms and Degrees)  !
 --------------------------                            --------------------------
 ! Name  Definition              Value          Derivative Info.                !
 --------------------------------------------------------------------------------
 ! R1    R(1,2)                  1.5024         estimate D2E/DX2                !
 ! R2    R(1,11)                 1.3864         estimate D2E/DX2                !
 ! R3    R(1,13)                 1.2067         estimate D2E/DX2                !
 ! R4    R(2,3)                  1.3269         estimate D2E/DX2                !
 ! R5    R(2,5)                  1.082          estimate D2E/DX2                !
 ! R6    R(3,4)                  1.503          estimate D2E/DX2                !
 ! R7    R(3,6)                  1.082          estimate D2E/DX2                !
 ! R8    R(4,11)                 1.3885         estimate D2E/DX2                !
 ! R9    R(4,12)                 1.2062         estimate D2E/DX2                !
 ! R10   R(7,8)                  1.0901         estimate D2E/DX2                !
 ! R11   R(7,9)                  1.0919         estimate D2E/DX2                !
 ! R12   R(7,10)                 1.0926         estimate D2E/DX2                !
 ! R13   R(7,11)                 1.4482         estimate D2E/DX2                !
 ! A1    A(2,1,11)             106.4321         estimate D2E/DX2                !
 ! A2    A(2,1,13)             128.2209         estimate D2E/DX2                !
 ! A3    A(11,1,13)            125.347          estimate D2E/DX2                !
 ! A4    A(1,2,3)              108.3894         estimate D2E/DX2                !
 ! A5    A(1,2,5)              122.1298         estimate D2E/DX2                !
 ! A6    A(3,2,5)              129.4808         estimate D2E/DX2                !
 ! A7    A(2,3,4)              108.5235         estimate D2E/DX2                !
 ! A8    A(2,3,6)              129.4937         estimate D2E/DX2                !
 ! A9    A(4,3,6)              121.9828         estimate D2E/DX2                !
 ! A10   A(3,4,11)             106.2673         estimate D2E/DX2                !
 ! A11   A(3,4,12)             127.9066         estimate D2E/DX2                !
 ! A12   A(11,4,12)            125.8261         estimate D2E/DX2                !
 ! A13   A(8,7,9)              109.5066         estimate D2E/DX2                !
 ! A14   A(8,7,10)             109.4176         estimate D2E/DX2                !
 ! A15   A(8,7,11)             107.9099         estimate D2E/DX2                !
 ! A16   A(9,7,10)             109.1873         estimate D2E/DX2                !
 ! A17   A(9,7,11)             110.1478         estimate D2E/DX2                !
 ! A18   A(10,7,11)            110.6499         estimate D2E/DX2                !
 ! A19   A(1,11,4)             110.387          estimate D2E/DX2                !
 ! A20   A(1,11,7)             124.3171         estimate D2E/DX2                !
 ! A21   A(4,11,7)             125.2942         estimate D2E/DX2                !
 ! D1    D(11,1,2,3)             0.1626         estimate D2E/DX2                !
 ! D2    D(11,1,2,5)          -179.8469         estimate D2E/DX2                !
 ! D3    D(13,1,2,3)          -179.8215         estimate D2E/DX2                !
 ! D4    D(13,1,2,5)             0.169          estimate D2E/DX2                !
 ! D5    D(2,1,11,4)            -0.2551         estimate D2E/DX2                !
 ! D6    D(2,1,11,7)          -179.794          estimate D2E/DX2                !
 ! D7    D(13,1,11,4)          179.7296         estimate D2E/DX2                !
 ! D8    D(13,1,11,7)            0.1906         estimate D2E/DX2                !
 ! D9    D(1,2,3,4)             -0.0137         estimate D2E/DX2                !
 ! D10   D(1,2,3,6)            179.9838         estimate D2E/DX2                !
 ! D11   D(5,2,3,4)            179.9967         estimate D2E/DX2                !
 ! D12   D(5,2,3,6)             -0.0058         estimate D2E/DX2                !
 ! D13   D(2,3,4,11)            -0.1394         estimate D2E/DX2                !
 ! D14   D(2,3,4,12)           179.8798         estimate D2E/DX2                !
 ! D15   D(6,3,4,11)           179.8629         estimate D2E/DX2                !
 ! D16   D(6,3,4,12)            -0.1179         estimate D2E/DX2                !
 ! D17   D(3,4,11,1)             0.2469         estimate D2E/DX2                !
 ! D18   D(3,4,11,7)           179.7803         estimate D2E/DX2                !
 ! D19   D(12,4,11,1)         -179.7719         estimate D2E/DX2                !
 ! D20   D(12,4,11,7)           -0.2385         estimate D2E/DX2                !
 ! D21   D(8,7,11,1)          -174.7532         estimate D2E/DX2                !
 ! D22   D(8,7,11,4)             5.7763         estimate D2E/DX2                !
 ! D23   D(9,7,11,1)           -55.2569         estimate D2E/DX2                !
 ! D24   D(9,7,11,4)           125.2727         estimate D2E/DX2                !
 ! D25   D(10,7,11,1)           65.5661         estimate D2E/DX2                !
 ! D26   D(10,7,11,4)         -113.9044         estimate D2E/DX2                !
 --------------------------------------------------------------------------------
 Trust Radius=3.00D-01 FncErr=1.00D-07 GrdErr=1.00D-06
 Number of steps in this run=     70 maximum allowed number of steps=    100.
 GradGradGradGradGradGradGradGradGradGradGradGradGradGradGradGradGradGrad

                          Input orientation:                          
 ---------------------------------------------------------------------
 Center     Atomic      Atomic             Coordinates (Angstroms)
 Number     Number       Type             X           Y           Z
 ---------------------------------------------------------------------
      1          6           0       -1.132780   -0.223380    0.000370
      2          6           0       -0.632690   -1.640130    0.000360
      3          6           0        0.694000   -1.615750   -0.000030
      4          6           0        1.145220   -0.182110   -0.000640
      5          1           0       -1.305180   -2.487750    0.000790
      6          1           0        1.397380   -2.437950    0.000080
      7          6           0       -0.048750    2.036680   -0.000900
      8          1           0        0.974220    2.400040   -0.100270
      9          1           0       -0.647230    2.398350   -0.839550
     10          1           0       -0.477260    2.408630    0.932860
     11          7           0       -0.009410    0.589040   -0.003810
     12          8           0        2.275540    0.239060    0.000890
     13          8           0       -2.275200    0.165060    0.003620
 ---------------------------------------------------------------------
                    Distance matrix (angstroms):
                    1          2          3          4          5
     1  C    0.000000
     2  C    1.502422   0.000000
     3  C    2.296915   1.326914   0.000000
     4  C    2.278374   2.299301   1.502972   0.000000
     5  H    2.270923   1.081990   2.181079   3.364586   0.000000
     6  H    3.362444   2.181215   1.082015   2.269890   2.703019
     7  C    2.506590   3.722891   3.727187   2.519642   4.695645
     8  H    3.366290   4.349168   4.026803   2.589723   5.394105
     9  H    2.795477   4.124922   4.314706   3.251987   5.001304
    10  H    2.868226   4.157664   4.293922   3.196216   5.052598
    11  N    1.386364   2.314669   2.314281   1.388471   3.338514
    12  O    3.439549   3.462536   2.437538   1.206238   4.500783
    13  O    1.206656   2.440607   3.462289   3.437996   2.824597
                    6          7          8          9         10
     6  H    0.000000
     7  C    4.702511   0.000000
     8  H    4.857497   1.090125   0.000000
     9  H    5.317444   1.091933   1.782032   0.000000
    10  H    5.279554   1.092646   1.781636   1.780571   0.000000
    11  N    3.337925   1.448177   2.063142   2.092577   2.099319
    12  O    2.817365   2.938327   2.524579   3.729807   3.626777
    13  O    4.501502   2.908618   3.945207   2.889430   3.021536
                   11         12         13
    11  N    0.000000
    12  O    2.311602   0.000000
    13  O    2.305129   4.551342   0.000000
 Stoichiometry    C5H5NO2
 Framework group  C1[X(C5H5NO2)]
 Deg. of freedom    33
 Full point group                 C1      NOp   1
 Largest Abelian subgroup         C1      NOp   1
 Largest concise Abelian subgroup C1      NOp   1
                         Standard orientation:                         
 ---------------------------------------------------------------------
 Center     Atomic      Atomic             Coordinates (Angstroms)
 Number     Number       Type             X           Y           Z
 ---------------------------------------------------------------------
      1          6           0       -1.132752   -0.224140   -0.000295
      2          6           0       -0.629329   -1.639709   -0.000561
      3          6           0        0.697300   -1.612207   -0.000225
      4          6           0        1.145145   -0.177509   -0.000059
      5          1           0       -1.299822   -2.488909   -0.000809
      6          1           0        1.402613   -2.432749   -0.000040
      7          6           0       -0.054043    2.038465   -0.000140
      8          1           0        0.968122    2.404269   -0.098822
      9          1           0       -0.652920    2.399038   -0.838979
     10          1           0       -0.483931    2.409058    0.933526
     11          7           0       -0.011295    0.590923   -0.003566
     12          8           0        2.274470    0.246319    0.002239
     13          8           0       -2.276085    0.161609    0.002482
 ---------------------------------------------------------------------
 Rotational constants (GHZ):      3.3291074      2.3586672      1.3927081
 General basis read from cards:  (5D, 7F)
 There are   350 symmetry adapted cartesian basis functions of A   symmetry.
 There are   310 symmetry adapted basis functions of A   symmetry.
   310 basis functions,   480 primitive gaussians,   350 cartesian basis functions
    29 alpha electrons       29 beta electrons
       nuclear repulsion energy       356.0140011478 Hartrees.
 NAtoms=   13 NActive=   13 NUniq=   13 SFac= 1.00D+00 NAtFMM=   60 NAOKFM=F Big=F
 Integral buffers will be    131072 words long.
 Raffenetti 2 integral format.
 Two-electron integral symmetry is turned on.
 Nuclear repulsion after empirical dispersion term =      356.0087659888 Hartrees.
 ------------------------------------------------------------------------------
 Polarizable Continuum Model (PCM)
 =================================
 Model                : PCM (using non-symmetric T matrix).
 Atomic radii         : SMD-Coulomb.
 Polarization charges : Total charges.
 Charge compensation  : None.
 Solution method      : On-the-fly selection.
 Cavity type          : VdW (van der Waals Surface) (Alpha=1.000).
 Cavity algorithm     : GePol (No added spheres)
                        Default sphere list used, NSphG=   13.
                        Lebedev-Laikov grids with approx.  5.0 points / Ang**2.
                        Smoothing algorithm: Karplus/York (Gamma=1.0000).
                        Polarization charges: spherical gaussians, with
                                              point-specific exponents (IZeta= 3).
                        Self-potential: point-specific (ISelfS= 7).
                        Self-field    : sphere-specific E.n sum rule (ISelfD= 2).
 1st derivatives      : Analytical E(r).r(x)/FMM algorithm (CHGder, D1EAlg=3).
                        Cavity 1st derivative terms included.
 Solvent              : Toluene, Eps=   2.374100 Eps(inf)=   2.238315
 ------------------------------------------------------------------------------
 Spheres list:
 ISph  on   Nord     Re0    Alpha      Xe            Ye            Ze
    1   C      1    1.8500  1.000     -1.132752     -0.224140     -0.000295
    2   C      2    1.8500  1.000     -0.629329     -1.639709     -0.000561
    3   C      3    1.8500  1.000      0.697300     -1.612207     -0.000225
    4   C      4    1.8500  1.000      1.145145     -0.177509     -0.000059
    5   H      5    1.2000  1.000     -1.299822     -2.488909     -0.000809
    6   H      6    1.2000  1.000      1.402613     -2.432749     -0.000040
    7   C      7    1.8500  1.000     -0.054043      2.038465     -0.000140
    8   H      8    1.2000  1.000      0.968122      2.404269     -0.098822
    9   H      9    1.2000  1.000     -0.652920      2.399038     -0.838979
   10   H     10    1.2000  1.000     -0.483931      2.409058      0.933526
   11   N     11    1.8900  1.000     -0.011295      0.590923     -0.003566
   12   O     12    2.2940  1.000      2.274470      0.246319      0.002239
   13   O     13    2.2940  1.000     -2.276085      0.161609      0.002482
 ------------------------------------------------------------------------------
 ------------------------------------------------------------------------------
 Atomic radii for non-electrostatic terms: SMD-CDS.
 ------------------------------------------------------------------------------
 Nuclear repulsion after PCM non-electrostatic terms =      356.0029675538 Hartrees.
 One-electron integrals computed using PRISM.
 NBasis=   310 RedAO= T EigKep=  1.18D-06  NBF=   310
 NBsUse=   310 1.00D-06 EigRej= -1.00D+00 NBFU=   310
 ExpMin= 3.17D-02 ExpMax= 2.70D+04 ExpMxC= 9.22D+02 IAcc=3 IRadAn=         5 AccDes= 0.00D+00
 Harris functional with IExCor= 4639 and IRadAn=       5 diagonalized for initial guess.
 HarFok:  IExCor= 4639 AccDes= 0.00D+00 IRadAn=         5 IDoV= 1 UseB2=F ITyADJ=14
 ICtDFT=  3500011 ScaDFX=  1.000000  1.000000  1.000000  1.000000
 FoFCou: FMM=F IPFlag=           0 FMFlag=      100000 FMFlg1=           0
         NFxFlg=           0 DoJE=T BraDBF=F KetDBF=T FulRan=T
         wScrn=  0.000000 ICntrl=     500 IOpCl=  0 I1Cent=   200000004 NGrid=           0
         NMat0=    1 NMatS0=      1 NMatT0=    0 NMatD0=    1 NMtDS0=    0 NMtDT0=    0
 Petite list used in FoFCou.
 Requested convergence on RMS density matrix=1.00D-08 within 128 cycles.
 Requested convergence on MAX density matrix=1.00D-06.
 Requested convergence on             energy=1.00D-06.
 No special actions if energy rises.
 Inv3:  Mode=1 IEnd=     5023308.
 Iteration    1 A*A^-1 deviation from unit magnitude is 3.55D-15 for    463.
 Iteration    1 A*A^-1 deviation from orthogonality  is 1.95D-15 for    217     38.
 Iteration    1 A^-1*A deviation from unit magnitude is 3.66D-15 for    425.
 Iteration    1 A^-1*A deviation from orthogonality  is 6.82D-14 for    286    217.
 Error on total polarization charges =  0.01113
 SCF Done:  E(RwB97XD) =  -398.781961885     A.U. after   14 cycles
            NFock= 14  Conv=0.24D-08     -V/T= 2.0046
 SMD-CDS (non-electrostatic) energy       (kcal/mol) =      -3.64
 (included in total energy above)

 **********************************************************************

            Population analysis using the SCF density.

 **********************************************************************

 Orbital symmetries:
       Occupied  (A) (A) (A) (A) (A) (A) (A) (A) (A) (A) (A) (A)
                 (A) (A) (A) (A) (A) (A) (A) (A) (A) (A) (A) (A)
                 (A) (A) (A) (A) (A)
       Virtual   (A) (A) (A) (A) (A) (A) (A) (A) (A) (A) (A) (A)
                 (A) (A) (A) (A) (A) (A) (A) (A) (A) (A) (A) (A)
                 (A) (A) (A) (A) (A) (A) (A) (A) (A) (A) (A) (A)
                 (A) (A) (A) (A) (A) (A) (A) (A) (A) (A) (A) (A)
                 (A) (A) (A) (A) (A) (A) (A) (A) (A) (A) (A) (A)
                 (A) (A) (A) (A) (A) (A) (A) (A) (A) (A) (A) (A)
                 (A) (A) (A) (A) (A) (A) (A) (A) (A) (A) (A) (A)
                 (A) (A) (A) (A) (A) (A) (A) (A) (A) (A) (A) (A)
                 (A) (A) (A) (A) (A) (A) (A) (A) (A) (A) (A) (A)
                 (A) (A) (A) (A) (A) (A) (A) (A) (A) (A) (A) (A)
                 (A) (A) (A) (A) (A) (A) (A) (A) (A) (A) (A) (A)
                 (A) (A) (A) (A) (A) (A) (A) (A) (A) (A) (A) (A)
                 (A) (A) (A) (A) (A) (A) (A) (A) (A) (A) (A) (A)
                 (A) (A) (A) (A) (A) (A) (A) (A) (A) (A) (A) (A)
                 (A) (A) (A) (A) (A) (A) (A) (A) (A) (A) (A) (A)
                 (A) (A) (A) (A) (A) (A) (A) (A) (A) (A) (A) (A)
                 (A) (A) (A) (A) (A) (A) (A) (A) (A) (A) (A) (A)
                 (A) (A) (A) (A) (A) (A) (A) (A) (A) (A) (A) (A)
                 (A) (A) (A) (A) (A) (A) (A) (A) (A) (A) (A) (A)
                 (A) (A) (A) (A) (A) (A) (A) (A) (A) (A) (A) (A)
                 (A) (A) (A) (A) (A) (A) (A) (A) (A) (A) (A) (A)
                 (A) (A) (A) (A) (A) (A) (A) (A) (A) (A) (A) (A)
                 (A) (A) (A) (A) (A) (A) (A) (A) (A) (A) (A) (A)
                 (A) (A) (A) (A) (A)
 The electronic state is 1-A.
 Alpha  occ. eigenvalues --  -19.25381 -19.25331 -14.48809 -10.41698 -10.41562
 Alpha  occ. eigenvalues --  -10.32560 -10.32463 -10.32199  -1.18640  -1.16636
 Alpha  occ. eigenvalues --   -1.07292  -0.93781  -0.81555  -0.77606  -0.70777
 Alpha  occ. eigenvalues --   -0.65799  -0.59517  -0.58763  -0.56182  -0.54302
 Alpha  occ. eigenvalues --   -0.53799  -0.51535  -0.50586  -0.49535  -0.48723
 Alpha  occ. eigenvalues --   -0.39110  -0.39070  -0.36089  -0.36021
 Alpha virt. eigenvalues --   -0.02841   0.04753   0.05830   0.06287   0.07064
 Alpha virt. eigenvalues --    0.08042   0.08871   0.09392   0.09703   0.10135
 Alpha virt. eigenvalues --    0.11761   0.11804   0.12199   0.12423   0.12881
 Alpha virt. eigenvalues --    0.13340   0.14237   0.15385   0.15743   0.15911
 Alpha virt. eigenvalues --    0.16622   0.17629   0.18363   0.18541   0.21168
 Alpha virt. eigenvalues --    0.21276   0.21978   0.22543   0.23040   0.23981
 Alpha virt. eigenvalues --    0.24127   0.24696   0.26023   0.26461   0.27075
 Alpha virt. eigenvalues --    0.27867   0.28230   0.29542   0.31269   0.32437
 Alpha virt. eigenvalues --    0.33684   0.34820   0.36351   0.38254   0.38869
 Alpha virt. eigenvalues --    0.40384   0.40930   0.42053   0.44381   0.44779
 Alpha virt. eigenvalues --    0.45022   0.45942   0.46805   0.46995   0.49078
 Alpha virt. eigenvalues --    0.50663   0.51259   0.51565   0.54020   0.54965
 Alpha virt. eigenvalues --    0.56376   0.57025   0.57516   0.57975   0.62455
 Alpha virt. eigenvalues --    0.62838   0.63828   0.64425   0.65350   0.66427
 Alpha virt. eigenvalues --    0.67350   0.69206   0.74028   0.74256   0.75694
 Alpha virt. eigenvalues --    0.76278   0.77009   0.78466   0.79641   0.80449
 Alpha virt. eigenvalues --    0.81441   0.83255   0.88047   0.88278   0.92300
 Alpha virt. eigenvalues --    0.93738   0.94620   0.97177   1.01438   1.04945
 Alpha virt. eigenvalues --    1.08240   1.09459   1.11563   1.13297   1.14790
 Alpha virt. eigenvalues --    1.15016   1.16091   1.17656   1.19775   1.23176
 Alpha virt. eigenvalues --    1.25087   1.27699   1.28507   1.31852   1.36696
 Alpha virt. eigenvalues --    1.39402   1.41220   1.46506   1.47498   1.53383
 Alpha virt. eigenvalues --    1.53532   1.56659   1.57820   1.60288   1.62329
 Alpha virt. eigenvalues --    1.63467   1.64313   1.64918   1.65428   1.66590
 Alpha virt. eigenvalues --    1.70234   1.73955   1.75711   1.76328   1.76820
 Alpha virt. eigenvalues --    1.79636   1.83979   1.84471   1.86696   1.86908
 Alpha virt. eigenvalues --    1.91207   1.98933   2.01521   2.02424   2.04477
 Alpha virt. eigenvalues --    2.07257   2.12069   2.12664   2.17489   2.17978
 Alpha virt. eigenvalues --    2.21272   2.24368   2.28167   2.30397   2.31715
 Alpha virt. eigenvalues --    2.36220   2.37194   2.41059   2.42735   2.45470
 Alpha virt. eigenvalues --    2.48331   2.50805   2.51687   2.54986   2.56103
 Alpha virt. eigenvalues --    2.57695   2.58520   2.60596   2.63944   2.66174
 Alpha virt. eigenvalues --    2.67314   2.68500   2.70836   2.74476   2.75964
 Alpha virt. eigenvalues --    2.77275   2.82604   2.85013   2.87162   2.91559
 Alpha virt. eigenvalues --    2.92416   2.95004   2.99570   3.00049   3.00862
 Alpha virt. eigenvalues --    3.03147   3.08038   3.08841   3.10450   3.12652
 Alpha virt. eigenvalues --    3.14145   3.14716   3.16371   3.19127   3.21285
 Alpha virt. eigenvalues --    3.22649   3.24506   3.25315   3.28129   3.28710
 Alpha virt. eigenvalues --    3.33458   3.37537   3.39238   3.40272   3.41095
 Alpha virt. eigenvalues --    3.43851   3.44506   3.44816   3.45728   3.48851
 Alpha virt. eigenvalues --    3.54423   3.56370   3.58344   3.59563   3.61274
 Alpha virt. eigenvalues --    3.66171   3.67417   3.68277   3.69995   3.75043
 Alpha virt. eigenvalues --    3.79098   3.83773   3.85164   3.95444   3.96276
 Alpha virt. eigenvalues --    3.99724   4.08745   4.11759   4.15262   4.16027
 Alpha virt. eigenvalues --    4.21156   4.26482   4.28949   4.33080   4.37544
 Alpha virt. eigenvalues --    4.43426   4.44433   4.45651   4.53280   4.55709
 Alpha virt. eigenvalues --    4.63903   4.71957   4.78722   4.83609   4.85367
 Alpha virt. eigenvalues --    4.87586   4.96064   5.02460   5.08143   5.16406
 Alpha virt. eigenvalues --    5.18288   5.19543   5.24465   5.25466   5.31890
 Alpha virt. eigenvalues --    5.32342   5.34398   5.42003   5.50948   5.65637
 Alpha virt. eigenvalues --    5.72471   5.72562   5.79962   5.82808   5.85242
 Alpha virt. eigenvalues --    5.98578   6.13198   6.26286   6.26472   6.44065
 Alpha virt. eigenvalues --    6.45156   6.46625   6.58344   6.63154   6.64216
 Alpha virt. eigenvalues --    6.85097   6.90160   6.93512   7.00621   7.16784
 Alpha virt. eigenvalues --    7.23316   7.26186   7.27426  22.39602  22.60468
 Alpha virt. eigenvalues --   22.89554  23.31374  23.68556  32.99192  44.14908
 Alpha virt. eigenvalues --   44.28615
          Condensed to atoms (all electrons):
               1          2          3          4          5          6
     1  C    5.703100  -1.135422   1.300329  -0.798239  -0.019797   0.001299
     2  C   -1.135422   7.703017  -1.927782   1.245586   0.369385   0.015755
     3  C    1.300329  -1.927782   7.700911  -1.081874   0.016611   0.371647
     4  C   -0.798239   1.245586  -1.081874   5.618463   0.001069  -0.020244
     5  H   -0.019797   0.369385   0.016611   0.001069   0.425799  -0.001507
     6  H    0.001299   0.015755   0.371647  -0.020244  -0.001507   0.426865
     7  C   -0.051898   0.029381  -0.028479  -0.020000  -0.000191  -0.000558
     8  H   -0.005443   0.003553   0.004986   0.009385   0.000002   0.000006
     9  H    0.011479  -0.007301   0.009776  -0.015050  -0.000005   0.000005
    10  H    0.003467  -0.005783   0.006314  -0.013669  -0.000003   0.000005
    11  N    0.332478  -0.100888  -0.172060   0.388981   0.002682   0.001652
    12  O    0.008996   0.037525  -0.157304   0.395463   0.000258  -0.006547
    13  O    0.407952  -0.168378   0.052784   0.001209  -0.005566   0.000293
               7          8          9         10         11         12
     1  C   -0.051898  -0.005443   0.011479   0.003467   0.332478   0.008996
     2  C    0.029381   0.003553  -0.007301  -0.005783  -0.100888   0.037525
     3  C   -0.028479   0.004986   0.009776   0.006314  -0.172060  -0.157304
     4  C   -0.020000   0.009385  -0.015050  -0.013669   0.388981   0.395463
     5  H   -0.000191   0.000002  -0.000005  -0.000003   0.002682   0.000258
     6  H   -0.000558   0.000006   0.000005   0.000005   0.001652  -0.006547
     7  C    4.970060   0.414056   0.414969   0.418692   0.219255  -0.011695
     8  H    0.414056   0.486551  -0.018411  -0.018906  -0.058404   0.006491
     9  H    0.414969  -0.018411   0.511835  -0.030333  -0.040731   0.000264
    10  H    0.418692  -0.018906  -0.030333   0.508840  -0.030258   0.000299
    11  N    0.219255  -0.058404  -0.040731  -0.030258   6.662569  -0.084438
    12  O   -0.011695   0.006491   0.000264   0.000299  -0.084438   8.267910
    13  O    0.001335   0.001462  -0.000866  -0.003374  -0.086836  -0.000468
              13
     1  C    0.407952
     2  C   -0.168378
     3  C    0.052784
     4  C    0.001209
     5  H   -0.005566
     6  H    0.000293
     7  C    0.001335
     8  H    0.001462
     9  H   -0.000866
    10  H   -0.003374
    11  N   -0.086836
    12  O   -0.000468
    13  O    8.257227
 Mulliken charges:
               1
     1  C    0.241700
     2  C   -0.058649
     3  C   -0.095860
     4  C    0.288920
     5  H    0.211263
     6  H    0.211329
     7  C   -0.354925
     8  H    0.174671
     9  H    0.164370
    10  H    0.164711
    11  N   -0.034000
    12  O   -0.456755
    13  O   -0.456775
 Sum of Mulliken charges =   0.00000
 Mulliken charges with hydrogens summed into heavy atoms:
               1
     1  C    0.241700
     2  C    0.152614
     3  C    0.115469
     4  C    0.288920
     7  C    0.148828
    11  N   -0.034000
    12  O   -0.456755
    13  O   -0.456775
 Electronic spatial extent (au):  <R**2>=            820.4315
 Charge=              0.0000 electrons
 Dipole moment (field-independent basis, Debye):
    X=              0.0648    Y=             -1.3930    Z=             -0.0153  Tot=              1.3946
 Quadrupole moment (field-independent basis, Debye-Ang):
   XX=            -61.1357   YY=            -35.2491   ZZ=            -45.0906
   XY=             -0.3795   XZ=              0.0053   YZ=             -0.0287
 Traceless Quadrupole moment (field-independent basis, Debye-Ang):
   XX=            -13.9772   YY=             11.9093   ZZ=              2.0679
   XY=             -0.3795   XZ=              0.0053   YZ=             -0.0287
 Octapole moment (field-independent basis, Debye-Ang**2):
  XXX=              1.2655  YYY=             -1.9641  ZZZ=              0.2104  XYY=             -0.0395
  XXY=             -9.0127  XXZ=             -0.2914  XZZ=             -0.7971  YZZ=              4.2783
  YYZ=             -0.0752  XYZ=             -0.0033
 Hexadecapole moment (field-independent basis, Debye-Ang**3):
 XXXX=           -643.6397 YYYY=           -408.0910 ZZZZ=            -50.7551 XXXY=             -0.7426
 XXXZ=              0.0429 YYYX=              0.8762 YYYZ=             -0.1616 ZZZX=              0.0022
 ZZZY=              0.4828 XXYY=           -148.2873 XXZZ=            -94.3947 YYZZ=            -88.5393
 XXYZ=             -0.6060 YYXZ=             -0.0077 ZZXY=             -1.6410
 N-N= 3.560029675538D+02 E-N=-1.644176733407D+03  KE= 3.969452368391D+02
 D1PCM: PCM CHGder 1st derivatives, ID1Alg=3 FixD1E=F DoIter=F DoCFld=F I1PDM=0.
 Calling FoFJK, ICntrl=      2127 FMM=F ISym2X=0 I1Cent= 0 IOpClX= 0 NMat=1 NMatS=1 NMatT=0.
 ***** Axes restored to original set *****
 -------------------------------------------------------------------
 Center     Atomic                   Forces (Hartrees/Bohr)
 Number     Number              X              Y              Z
 -------------------------------------------------------------------
      1        6          -0.003451914    0.001526287    0.000057759
      2        6           0.001483176    0.001141098   -0.000004618
      3        6          -0.001360243    0.001209387    0.000008688
      4        6           0.003180277    0.001506905   -0.000021202
      5        1           0.001199360    0.001533678    0.000007805
      6        1          -0.001266347    0.001518178    0.000000718
      7        6           0.000281856   -0.002081477   -0.000040338
      8        1          -0.001491865   -0.000336595    0.000176187
      9        1           0.000836453   -0.000528873    0.001323028
     10        1           0.000582045   -0.000458887   -0.001445507
     11        7           0.000031498   -0.000218913    0.000006628
     12        8          -0.005920765   -0.002430354   -0.000030223
     13        8           0.005896469   -0.002380434   -0.000038924
 -------------------------------------------------------------------
 Cartesian Forces:  Max     0.005920765 RMS     0.001858788

 GradGradGradGradGradGradGradGradGradGradGradGradGradGradGradGradGradGrad
 Berny optimization.
 FormGI is forming the generalized inverse of G from B-inverse, IUseBI=4.
 Internal  Forces:  Max     0.006401691 RMS     0.001578774
 Search for a local minimum.
 Step number   1 out of a maximum of   70
 All quantities printed in internal units (Hartrees-Bohrs-Radians)
 Mixed Optimization -- RFO/linear search
 Second derivative matrix not updated -- first step.
 ITU=  0
     Eigenvalues ---    0.01054   0.01152   0.01244   0.01344   0.01611
     Eigenvalues ---    0.01723   0.01930   0.02340   0.07535   0.07814
     Eigenvalues ---    0.16000   0.16000   0.16000   0.16000   0.16000
     Eigenvalues ---    0.22717   0.24800   0.24999   0.25000   0.25000
     Eigenvalues ---    0.30697   0.31888   0.34509   0.34590   0.34798
     Eigenvalues ---    0.35752   0.35755   0.38485   0.44311   0.46477
     Eigenvalues ---    0.57792   1.01548   1.01750
 RFO step:  Lambda=-2.53834562D-04 EMin= 1.05448616D-02
 Linear search not attempted -- first point.
 Iteration  1 RMS(Cart)=  0.00512162 RMS(Int)=  0.00000211
 Iteration  2 RMS(Cart)=  0.00000257 RMS(Int)=  0.00000045
 Iteration  3 RMS(Cart)=  0.00000000 RMS(Int)=  0.00000045
 Variable       Old X    -DE/DX   Delta X   Delta X   Delta X     New X
                                 (Linear)    (Quad)   (Total)
    R1        2.83917  -0.00272   0.00000  -0.00847  -0.00847   2.83070
    R2        2.61985  -0.00245   0.00000  -0.00504  -0.00504   2.61481
    R3        2.28025  -0.00634   0.00000  -0.00625  -0.00625   2.27400
    R4        2.50750  -0.00337   0.00000  -0.00565  -0.00565   2.50185
    R5        2.04467  -0.00194   0.00000  -0.00543  -0.00543   2.03924
    R6        2.84020  -0.00286   0.00000  -0.00897  -0.00896   2.83124
    R7        2.04471  -0.00198   0.00000  -0.00554  -0.00554   2.03917
    R8        2.62383  -0.00270   0.00000  -0.00562  -0.00562   2.61821
    R9        2.27946  -0.00640   0.00000  -0.00629  -0.00629   2.27317
   R10        2.06004  -0.00152   0.00000  -0.00435  -0.00435   2.05569
   R11        2.06345  -0.00166   0.00000  -0.00479  -0.00479   2.05866
   R12        2.06480  -0.00162   0.00000  -0.00470  -0.00470   2.06010
   R13        2.73666  -0.00341   0.00000  -0.00886  -0.00886   2.72780
    A1        1.85759  -0.00039   0.00000  -0.00145  -0.00145   1.85614
    A2        2.23788  -0.00019   0.00000  -0.00083  -0.00083   2.23705
    A3        2.18772   0.00058   0.00000   0.00227   0.00227   2.18999
    A4        1.89175   0.00023   0.00000   0.00079   0.00079   1.89255
    A5        2.13157  -0.00015   0.00000  -0.00061  -0.00061   2.13095
    A6        2.25987  -0.00008   0.00000  -0.00018  -0.00018   2.25969
    A7        1.89409   0.00021   0.00000   0.00066   0.00066   1.89475
    A8        2.26009  -0.00010   0.00000  -0.00030  -0.00030   2.25979
    A9        2.12900  -0.00011   0.00000  -0.00036  -0.00036   2.12864
   A10        1.85471  -0.00025   0.00000  -0.00100  -0.00100   1.85372
   A11        2.23239  -0.00013   0.00000  -0.00053  -0.00053   2.23186
   A12        2.19608   0.00038   0.00000   0.00153   0.00153   2.19761
   A13        1.91125  -0.00006   0.00000  -0.00012  -0.00012   1.91113
   A14        1.90970  -0.00013   0.00000  -0.00058  -0.00058   1.90912
   A15        1.88338   0.00026   0.00000   0.00185   0.00185   1.88523
   A16        1.90568  -0.00012   0.00000  -0.00122  -0.00122   1.90445
   A17        1.92244  -0.00003   0.00000  -0.00032  -0.00032   1.92212
   A18        1.93120   0.00009   0.00000   0.00041   0.00041   1.93162
   A19        1.92662   0.00020   0.00000   0.00099   0.00099   1.92761
   A20        2.16974  -0.00001   0.00000  -0.00013  -0.00013   2.16961
   A21        2.18680  -0.00019   0.00000  -0.00086  -0.00086   2.18594
    D1        0.00284   0.00000   0.00000  -0.00003  -0.00003   0.00281
    D2       -3.13892   0.00000   0.00000  -0.00005  -0.00005  -3.13897
    D3       -3.13848  -0.00001   0.00000  -0.00098  -0.00098  -3.13946
    D4        0.00295  -0.00001   0.00000  -0.00100  -0.00100   0.00195
    D5       -0.00445   0.00001   0.00000   0.00035   0.00035  -0.00411
    D6       -3.13800   0.00000   0.00000  -0.00008  -0.00008  -3.13807
    D7        3.13687   0.00002   0.00000   0.00126   0.00126   3.13814
    D8        0.00333   0.00001   0.00000   0.00084   0.00084   0.00417
    D9       -0.00024  -0.00001   0.00000  -0.00028  -0.00028  -0.00052
   D10        3.14131   0.00000   0.00000   0.00001   0.00001   3.14132
   D11        3.14154  -0.00001   0.00000  -0.00025  -0.00025   3.14129
   D12       -0.00010   0.00000   0.00000   0.00004   0.00004  -0.00006
   D13       -0.00243   0.00001   0.00000   0.00049   0.00049  -0.00195
   D14        3.13950   0.00001   0.00000   0.00070   0.00070   3.14020
   D15        3.13920   0.00000   0.00000   0.00022   0.00022   3.13942
   D16       -0.00206   0.00000   0.00000   0.00044   0.00044  -0.00162
   D17        0.00431  -0.00001   0.00000  -0.00050  -0.00050   0.00381
   D18        3.13776   0.00000   0.00000  -0.00007  -0.00007   3.13769
   D19       -3.13761  -0.00001   0.00000  -0.00071  -0.00071  -3.13833
   D20       -0.00416   0.00000   0.00000  -0.00028  -0.00028  -0.00445
   D21       -3.05002  -0.00001   0.00000  -0.00056  -0.00056  -3.05058
   D22        0.10082  -0.00001   0.00000  -0.00106  -0.00106   0.09976
   D23       -0.96441   0.00005   0.00000   0.00022   0.00022  -0.96419
   D24        2.18642   0.00005   0.00000  -0.00027  -0.00027   2.18615
   D25        1.14434  -0.00006   0.00000  -0.00125  -0.00125   1.14310
   D26       -1.98801  -0.00007   0.00000  -0.00174  -0.00174  -1.98975
         Item               Value     Threshold  Converged?
 Maximum Force            0.006402     0.000450     NO 
 RMS     Force            0.001579     0.000300     NO 
 Maximum Displacement     0.014648     0.001800     NO 
 RMS     Displacement     0.005122     0.001200     NO 
 Predicted change in Energy=-1.269882D-04
 GradGradGradGradGradGradGradGradGradGradGradGradGradGradGradGradGradGrad

                          Input orientation:                          
 ---------------------------------------------------------------------
 Center     Atomic      Atomic             Coordinates (Angstroms)
 Number     Number       Type             X           Y           Z
 ---------------------------------------------------------------------
      1          6           0       -1.131118   -0.222375    0.000612
      2          6           0       -0.631306   -1.634470    0.000542
      3          6           0        0.692391   -1.610058    0.000098
      4          6           0        1.143038   -0.181211   -0.000883
      5          1           0       -1.301803   -2.480003    0.000997
      6          1           0        1.393671   -2.430199    0.000145
      7          6           0       -0.047987    2.030797   -0.000691
      8          1           0        0.972377    2.394819   -0.099186
      9          1           0       -0.645133    2.391544   -0.837389
     10          1           0       -0.476488    2.402515    0.930255
     11          7           0       -0.009431    0.587824   -0.003550
     12          8           0        2.270712    0.237528   -0.000168
     13          8           0       -2.271063    0.163080    0.002988
 ---------------------------------------------------------------------
                    Distance matrix (angstroms):
                    1          2          3          4          5
     1  C    0.000000
     2  C    1.497940   0.000000
     3  C    2.291473   1.323922   0.000000
     4  C    2.274529   2.293525   1.498228   0.000000
     5  H    2.264071   1.079117   2.175688   3.355845   0.000000
     6  H    3.353959   2.175710   1.079085   2.262910   2.695934
     7  C    2.499991   3.711393   3.715371   2.512274   4.681813
     8  H    3.359220   4.337847   4.015880   2.583548   5.380132
     9  H    2.787651   4.112311   4.301531   3.242895   4.986590
    10  H    2.860564   4.145549   4.281613   3.188342   5.038219
    11  N    1.383699   2.307668   2.307217   1.385498   3.328935
    12  O    3.432777   3.453416   2.429953   1.202909   4.488635
    13  O    1.203351   2.433104   3.453416   3.431419   2.815201
                    6          7          8          9         10
     6  H    0.000000
     7  C    4.688161   0.000000
     8  H    4.844394   1.087822   0.000000
     9  H    5.301639   1.089396   1.778002   0.000000
    10  H    5.264762   1.090159   1.777363   1.775704   0.000000
    11  N    3.328237   1.443491   2.058719   2.086339   2.093619
    12  O    2.808197   2.931241   2.519798   3.720600   3.619387
    13  O    4.489473   2.903522   3.938401   2.883736   3.015856
                   11         12         13
    11  N    0.000000
    12  O    2.306895   0.000000
    13  O    2.301180   4.542385   0.000000
 Stoichiometry    C5H5NO2
 Framework group  C1[X(C5H5NO2)]
 Deg. of freedom    33
 Full point group                 C1      NOp   1
 Largest Abelian subgroup         C1      NOp   1
 Largest concise Abelian subgroup C1      NOp   1
                         Standard orientation:                         
 ---------------------------------------------------------------------
 Center     Atomic      Atomic             Coordinates (Angstroms)
 Number     Number       Type             X           Y           Z
 ---------------------------------------------------------------------
      1          6           0       -1.131301   -0.221731   -0.000044
      2          6           0       -0.630020   -1.633305   -0.000333
      3          6           0        0.693651   -1.607517    0.000091
      4          6           0        1.142812   -0.178202   -0.000049
      5          1           0       -1.299638   -2.479535   -0.000637
      6          1           0        1.395782   -2.426928    0.000277
      7          6           0       -0.050513    2.032566    0.000221
      8          1           0        0.969536    2.397687   -0.097473
      9          1           0       -0.647491    2.393014   -0.836726
     10          1           0       -0.480003    2.403480    0.931031
     11          7           0       -0.010454    0.589635   -0.003168
     12          8           0        2.270049    0.241709    0.001558
     13          8           0       -2.271647    0.162538    0.001741
 ---------------------------------------------------------------------
 Rotational constants (GHZ):      3.3501798      2.3679536      1.3995631
 Basis read from rwf:  (5D, 7F)
 There are   350 symmetry adapted cartesian basis functions of A   symmetry.
 There are   310 symmetry adapted basis functions of A   symmetry.
   310 basis functions,   480 primitive gaussians,   350 cartesian basis functions
    29 alpha electrons       29 beta electrons
       nuclear repulsion energy       356.9188520503 Hartrees.
 NAtoms=   13 NActive=   13 NUniq=   13 SFac= 1.00D+00 NAtFMM=   60 NAOKFM=F Big=F
 Integral buffers will be    131072 words long.
 Raffenetti 2 integral format.
 Two-electron integral symmetry is turned on.
 Nuclear repulsion after empirical dispersion term =      356.9136132911 Hartrees.
 ------------------------------------------------------------------------------
 Polarizable Continuum Model (PCM)
 =================================
 Model                : PCM (using non-symmetric T matrix).
 Atomic radii         : SMD-Coulomb.
 Polarization charges : Total charges.
 Charge compensation  : None.
 Solution method      : On-the-fly selection.
 Cavity type          : VdW (van der Waals Surface) (Alpha=1.000).
 Cavity algorithm     : GePol (No added spheres)
                        Default sphere list used, NSphG=   13.
                        Lebedev-Laikov grids with approx.  5.0 points / Ang**2.
                        Smoothing algorithm: Karplus/York (Gamma=1.0000).
                        Polarization charges: spherical gaussians, with
                                              point-specific exponents (IZeta= 3).
                        Self-potential: point-specific (ISelfS= 7).
                        Self-field    : sphere-specific E.n sum rule (ISelfD= 2).
 1st derivatives      : Analytical E(r).r(x)/FMM algorithm (CHGder, D1EAlg=3).
                        Cavity 1st derivative terms included.
 Solvent              : Toluene, Eps=   2.374100 Eps(inf)=   2.238315
 ------------------------------------------------------------------------------
 Spheres list:
 ISph  on   Nord     Re0    Alpha      Xe            Ye            Ze
    1   C      1    1.8500  1.000     -1.131301     -0.221731     -0.000044
    2   C      2    1.8500  1.000     -0.630020     -1.633305     -0.000333
    3   C      3    1.8500  1.000      0.693651     -1.607517      0.000091
    4   C      4    1.8500  1.000      1.142812     -0.178202     -0.000049
    5   H      5    1.2000  1.000     -1.299638     -2.479535     -0.000637
    6   H      6    1.2000  1.000      1.395782     -2.426928      0.000277
    7   C      7    1.8500  1.000     -0.050513      2.032566      0.000221
    8   H      8    1.2000  1.000      0.969536      2.397687     -0.097473
    9   H      9    1.2000  1.000     -0.647491      2.393014     -0.836726
   10   H     10    1.2000  1.000     -0.480003      2.403480      0.931031
   11   N     11    1.8900  1.000     -0.010454      0.589635     -0.003168
   12   O     12    2.2940  1.000      2.270049      0.241709      0.001558
   13   O     13    2.2940  1.000     -2.271647      0.162538      0.001741
 ------------------------------------------------------------------------------
 ------------------------------------------------------------------------------
 Atomic radii for non-electrostatic terms: SMD-CDS.
 ------------------------------------------------------------------------------
 Nuclear repulsion after PCM non-electrostatic terms =      356.9077886890 Hartrees.
 One-electron integrals computed using PRISM.
 NBasis=   310 RedAO= T EigKep=  1.17D-06  NBF=   310
 NBsUse=   310 1.00D-06 EigRej= -1.00D+00 NBFU=   310
 Initial guess from the checkpoint file:  ""dieneophile_ma.chk""
 B after Tr=     0.000000    0.000000    0.000000
         Rot=    1.000000    0.000005    0.000009    0.000647 Ang=   0.07 deg.
 Requested convergence on RMS density matrix=1.00D-08 within 128 cycles.
 Requested convergence on MAX density matrix=1.00D-06.
 Requested convergence on             energy=1.00D-06.
 No special actions if energy rises.
 Inv3:  Mode=1 IEnd=     5015547.
 Iteration    1 A*A^-1 deviation from unit magnitude is 3.33D-15 for   1293.
 Iteration    1 A*A^-1 deviation from orthogonality  is 2.18D-15 for    602    479.
 Iteration    1 A^-1*A deviation from unit magnitude is 3.55D-15 for   1293.
 Iteration    1 A^-1*A deviation from orthogonality  is 5.39D-14 for    285    216.
 Error on total polarization charges =  0.01109
 SCF Done:  E(RwB97XD) =  -398.782084145     A.U. after   10 cycles
            NFock= 10  Conv=0.43D-08     -V/T= 2.0044
 SMD-CDS (non-electrostatic) energy       (kcal/mol) =      -3.65
 (included in total energy above)
 D1PCM: PCM CHGder 1st derivatives, ID1Alg=3 FixD1E=F DoIter=F DoCFld=F I1PDM=0.
 Calling FoFJK, ICntrl=      2127 FMM=F ISym2X=0 I1Cent= 0 IOpClX= 0 NMat=1 NMatS=1 NMatT=0.
 ***** Axes restored to original set *****
 -------------------------------------------------------------------
 Center     Atomic                   Forces (Hartrees/Bohr)
 Number     Number              X              Y              Z
 -------------------------------------------------------------------
      1        6          -0.000681675    0.000077389   -0.000072089
      2        6          -0.000196894   -0.000202645    0.000037628
      3        6           0.000282577   -0.000152638   -0.000008131
      4        6           0.000555836    0.000056308   -0.000006994
      5        1          -0.000035191   -0.000111805    0.000009793
      6        1           0.000064876   -0.000109822   -0.000004161
      7        6           0.000042169   -0.000856417   -0.000033012
      8        1          -0.000024412    0.000200789    0.000007393
      9        1          -0.000053229    0.000262302   -0.000026386
     10        1          -0.000048145    0.000251349    0.000029399
     11        7           0.000017257    0.000825660    0.000051989
     12        8          -0.000281282   -0.000096045   -0.000013333
     13        8           0.000358113   -0.000144425    0.000027903
 -------------------------------------------------------------------
 Cartesian Forces:  Max     0.000856417 RMS     0.000269934

 GradGradGradGradGradGradGradGradGradGradGradGradGradGradGradGradGradGrad
 Berny optimization.
 Using GEDIIS/GDIIS optimizer.
 FormGI is forming the generalized inverse of G from B-inverse, IUseBI=4.
 Internal  Forces:  Max     0.000416999 RMS     0.000146739
 Search for a local minimum.
 Step number   2 out of a maximum of   70
 All quantities printed in internal units (Hartrees-Bohrs-Radians)
 Mixed Optimization -- En-DIIS/RFO-DIIS
 Update second derivatives using D2CorX and points    1    2
 DE= -1.22D-04 DEPred=-1.27D-04 R= 9.63D-01
 TightC=F SS=  1.41D+00  RLast= 2.36D-02 DXNew= 5.0454D-01 7.0685D-02
 Trust test= 9.63D-01 RLast= 2.36D-02 DXMaxT set to 3.00D-01
 ITU=  1  0
 Use linear search instead of GDIIS.
     Eigenvalues ---    0.01054   0.01153   0.01245   0.01344   0.01611
     Eigenvalues ---    0.01725   0.01930   0.02340   0.07536   0.07800
     Eigenvalues ---    0.15831   0.16000   0.16000   0.16000   0.16013
     Eigenvalues ---    0.22714   0.24862   0.24999   0.25000   0.25004
     Eigenvalues ---    0.30689   0.32594   0.34541   0.34710   0.34915
     Eigenvalues ---    0.35753   0.36119   0.37964   0.45621   0.46481
     Eigenvalues ---    0.59239   0.97506   1.01670
 RFO step:  Lambda=-3.63712675D-06 EMin= 1.05427017D-02
 Quartic linear search produced a step of -0.03145.
 Iteration  1 RMS(Cart)=  0.00088367 RMS(Int)=  0.00000069
 Iteration  2 RMS(Cart)=  0.00000057 RMS(Int)=  0.00000033
 Variable       Old X    -DE/DX   Delta X   Delta X   Delta X     New X
                                 (Linear)    (Quad)   (Total)
    R1        2.83070   0.00030   0.00027   0.00052   0.00079   2.83149
    R2        2.61481   0.00042   0.00016   0.00063   0.00079   2.61560
    R3        2.27400  -0.00038   0.00020  -0.00065  -0.00045   2.27355
    R4        2.50185   0.00032   0.00018   0.00025   0.00042   2.50227
    R5        2.03924   0.00011   0.00017   0.00006   0.00023   2.03947
    R6        2.83124   0.00027   0.00028   0.00039   0.00067   2.83191
    R7        2.03917   0.00012   0.00017   0.00008   0.00025   2.03943
    R8        2.61821   0.00041   0.00018   0.00060   0.00078   2.61899
    R9        2.27317  -0.00030   0.00020  -0.00057  -0.00038   2.27279
   R10        2.05569   0.00006   0.00014  -0.00004   0.00010   2.05578
   R11        2.05866   0.00013   0.00015   0.00014   0.00029   2.05895
   R12        2.06010   0.00013   0.00015   0.00014   0.00029   2.06039
   R13        2.72780  -0.00014   0.00028  -0.00075  -0.00048   2.72733
    A1        1.85614   0.00007   0.00005   0.00022   0.00026   1.85641
    A2        2.23705  -0.00004   0.00003  -0.00021  -0.00018   2.23687
    A3        2.18999  -0.00003  -0.00007  -0.00001  -0.00008   2.18991
    A4        1.89255   0.00000  -0.00002   0.00001  -0.00002   1.89253
    A5        2.13095   0.00002   0.00002   0.00012   0.00014   2.13109
    A6        2.25969  -0.00002   0.00001  -0.00013  -0.00012   2.25956
    A7        1.89475  -0.00002  -0.00002  -0.00010  -0.00012   1.89464
    A8        2.25979  -0.00003   0.00001  -0.00021  -0.00020   2.25959
    A9        2.12864   0.00005   0.00001   0.00031   0.00032   2.12896
   A10        1.85372   0.00010   0.00003   0.00035   0.00038   1.85409
   A11        2.23186  -0.00006   0.00002  -0.00025  -0.00024   2.23163
   A12        2.19761  -0.00004  -0.00005  -0.00009  -0.00014   2.19746
   A13        1.91113  -0.00021   0.00000  -0.00124  -0.00124   1.90989
   A14        1.90912  -0.00021   0.00002  -0.00135  -0.00133   1.90779
   A15        1.88523   0.00017  -0.00006   0.00110   0.00105   1.88628
   A16        1.90445  -0.00025   0.00004  -0.00153  -0.00150   1.90296
   A17        1.92212   0.00026   0.00001   0.00160   0.00161   1.92373
   A18        1.93162   0.00023  -0.00001   0.00141   0.00139   1.93301
   A19        1.92761  -0.00015  -0.00003  -0.00047  -0.00051   1.92710
   A20        2.16961   0.00008   0.00000   0.00027   0.00028   2.16988
   A21        2.18594   0.00007   0.00003   0.00021   0.00023   2.18617
    D1        0.00281  -0.00002   0.00000  -0.00111  -0.00111   0.00170
    D2       -3.13897  -0.00001   0.00000  -0.00073  -0.00073  -3.13970
    D3       -3.13946   0.00001   0.00003   0.00055   0.00058  -3.13887
    D4        0.00195   0.00001   0.00003   0.00093   0.00096   0.00291
    D5       -0.00411   0.00002  -0.00001   0.00110   0.00109  -0.00301
    D6       -3.13807   0.00001   0.00000   0.00068   0.00068  -3.13739
    D7        3.13814  -0.00001  -0.00004  -0.00050  -0.00054   3.13759
    D8        0.00417  -0.00001  -0.00003  -0.00093  -0.00095   0.00322
    D9       -0.00052   0.00001   0.00001   0.00068   0.00069   0.00018
   D10        3.14132   0.00001   0.00000   0.00033   0.00033  -3.14153
   D11        3.14129   0.00001   0.00001   0.00027   0.00028   3.14156
   D12       -0.00006   0.00000   0.00000  -0.00008  -0.00008  -0.00014
   D13       -0.00195   0.00000  -0.00002  -0.00002  -0.00004  -0.00199
   D14        3.14020   0.00000  -0.00002  -0.00018  -0.00020   3.13999
   D15        3.13942   0.00000  -0.00001   0.00029   0.00029   3.13971
   D16       -0.00162   0.00000  -0.00001   0.00014   0.00012  -0.00150
   D17        0.00381  -0.00001   0.00002  -0.00071  -0.00069   0.00311
   D18        3.13769   0.00000   0.00000  -0.00028  -0.00028   3.13741
   D19       -3.13833  -0.00001   0.00002  -0.00056  -0.00053  -3.13886
   D20       -0.00445   0.00000   0.00001  -0.00013  -0.00012  -0.00457
   D21       -3.05058  -0.00001   0.00002  -0.00038  -0.00036  -3.05094
   D22        0.09976  -0.00001   0.00003  -0.00086  -0.00083   0.09893
   D23       -0.96419   0.00000  -0.00001  -0.00029  -0.00030  -0.96449
   D24        2.18615  -0.00001   0.00001  -0.00077  -0.00077   2.18538
   D25        1.14310   0.00000   0.00004  -0.00024  -0.00020   1.14289
   D26       -1.98975   0.00000   0.00005  -0.00073  -0.00067  -1.99042
         Item               Value     Threshold  Converged?
 Maximum Force            0.000417     0.000450     YES
 RMS     Force            0.000147     0.000300     YES
 Maximum Displacement     0.003522     0.001800     NO 
 RMS     Displacement     0.000884     0.001200     YES
 Predicted change in Energy=-1.944942D-06
 GradGradGradGradGradGradGradGradGradGradGradGradGradGradGradGradGradGrad

                          Input orientation:                          
 ---------------------------------------------------------------------
 Center     Atomic      Atomic             Coordinates (Angstroms)
 Number     Number       Type             X           Y           Z
 ---------------------------------------------------------------------
      1          6           0       -1.131302   -0.222653   -0.000037
      2          6           0       -0.631350   -1.635141    0.000823
      3          6           0        0.692571   -1.610705   -0.000024
      4          6           0        1.143134   -0.181459   -0.001241
      5          1           0       -1.301806   -2.480864    0.001770
      6          1           0        1.393785   -2.431077    0.000166
      7          6           0       -0.048023    2.030807   -0.000585
      8          1           0        0.972084    2.395923   -0.098253
      9          1           0       -0.644397    2.393407   -0.837232
     10          1           0       -0.476920    2.403852    0.929827
     11          7           0       -0.009489    0.588085   -0.003665
     12          8           0        2.270663    0.237097   -0.000705
     13          8           0       -2.271089    0.162518    0.002927
 ---------------------------------------------------------------------
                    Distance matrix (angstroms):
                    1          2          3          4          5
     1  C    0.000000
     2  C    1.498357   0.000000
     3  C    2.291987   1.324147   0.000000
     4  C    2.274809   2.293902   1.498583   0.000000
     5  H    2.264640   1.079240   2.175941   3.356338   0.000000
     6  H    3.354580   2.175934   1.079218   2.263539   2.696051
     7  C    2.500315   3.712068   3.716058   2.512564   4.682644
     8  H    3.360182   4.339388   4.017567   2.584873   5.381787
     9  H    2.789578   4.114816   4.303640   3.244085   4.989452
    10  H    2.862061   4.147332   4.283573   3.189874   5.040058
    11  N    1.384115   2.308564   2.308155   1.385909   3.329950
    12  O    3.432891   3.453542   2.429968   1.202710   4.488858
    13  O    1.203112   2.433172   3.453637   3.431509   2.815490
                    6          7          8          9         10
     6  H    0.000000
     7  C    4.689053   0.000000
     8  H    4.846385   1.087873   0.000000
     9  H    5.303873   1.089550   1.777389   0.000000
    10  H    5.266911   1.090313   1.776689   1.775009   0.000000
    11  N    3.329345   1.443239   2.059298   2.087374   2.094495
    12  O    2.808570   2.931502   2.521181   3.721160   3.620764
    13  O    4.489772   2.903883   3.939100   2.885977   3.016913
                   11         12         13
    11  N    0.000000
    12  O    2.307010   0.000000
    13  O    2.301301   4.542366   0.000000
 Stoichiometry    C5H5NO2
 Framework group  C1[X(C5H5NO2)]
 Deg. of freedom    33
 Full point group                 C1      NOp   1
 Largest Abelian subgroup         C1      NOp   1
 Largest concise Abelian subgroup C1      NOp   1
                         Standard orientation:                         
 ---------------------------------------------------------------------
 Center     Atomic      Atomic             Coordinates (Angstroms)
 Number     Number       Type             X           Y           Z
 ---------------------------------------------------------------------
      1          6           0       -1.131462   -0.221802   -0.000646
      2          6           0       -0.629987   -1.633750    0.000015
      3          6           0        0.693907   -1.607886    0.000150
      4          6           0        1.142929   -0.178155   -0.000163
      5          1           0       -1.299530   -2.480196    0.000130
      6          1           0        1.396006   -2.427501    0.000527
      7          6           0       -0.050614    2.032825    0.000504
      8          1           0        0.969171    2.399080   -0.096268
      9          1           0       -0.646764    2.395118   -0.836436
     10          1           0       -0.480596    2.405034    0.930750
     11          7           0       -0.010521    0.590147   -0.003126
     12          8           0        2.270005    0.241617    0.001369
     13          8           0       -2.271665    0.162139    0.001634
 ---------------------------------------------------------------------
 Rotational constants (GHZ):      3.3484207      2.3678680      1.3992164
 Basis read from rwf:  (5D, 7F)
 There are   350 symmetry adapted cartesian basis functions of A   symmetry.
 There are   310 symmetry adapted basis functions of A   symmetry.
   310 basis functions,   480 primitive gaussians,   350 cartesian basis functions
    29 alpha electrons       29 beta electrons
       nuclear repulsion energy       356.8752286258 Hartrees.
 NAtoms=   13 NActive=   13 NUniq=   13 SFac= 1.00D+00 NAtFMM=   60 NAOKFM=F Big=F
 Integral buffers will be    131072 words long.
 Raffenetti 2 integral format.
 Two-electron integral symmetry is turned on.
 Nuclear repulsion after empirical dispersion term =      356.8699910402 Hartrees.
 ------------------------------------------------------------------------------
 Polarizable Continuum Model (PCM)
 =================================
 Model                : PCM (using non-symmetric T matrix).
 Atomic radii         : SMD-Coulomb.
 Polarization charges : Total charges.
 Charge compensation  : None.
 Solution method      : On-the-fly selection.
 Cavity type          : VdW (van der Waals Surface) (Alpha=1.000).
 Cavity algorithm     : GePol (No added spheres)
                        Default sphere list used, NSphG=   13.
                        Lebedev-Laikov grids with approx.  5.0 points / Ang**2.
                        Smoothing algorithm: Karplus/York (Gamma=1.0000).
                        Polarization charges: spherical gaussians, with
                                              point-specific exponents (IZeta= 3).
                        Self-potential: point-specific (ISelfS= 7).
                        Self-field    : sphere-specific E.n sum rule (ISelfD= 2).
 1st derivatives      : Analytical E(r).r(x)/FMM algorithm (CHGder, D1EAlg=3).
                        Cavity 1st derivative terms included.
 Solvent              : Toluene, Eps=   2.374100 Eps(inf)=   2.238315
 ------------------------------------------------------------------------------
 Spheres list:
 ISph  on   Nord     Re0    Alpha      Xe            Ye            Ze
    1   C      1    1.8500  1.000     -1.131462     -0.221802     -0.000646
    2   C      2    1.8500  1.000     -0.629987     -1.633750      0.000015
    3   C      3    1.8500  1.000      0.693907     -1.607886      0.000150
    4   C      4    1.8500  1.000      1.142929     -0.178155     -0.000163
    5   H      5    1.2000  1.000     -1.299530     -2.480196      0.000130
    6   H      6    1.2000  1.000      1.396006     -2.427501      0.000527
    7   C      7    1.8500  1.000     -0.050614      2.032825      0.000504
    8   H      8    1.2000  1.000      0.969171      2.399080     -0.096268
    9   H      9    1.2000  1.000     -0.646764      2.395118     -0.836436
   10   H     10    1.2000  1.000     -0.480596      2.405034      0.930750
   11   N     11    1.8900  1.000     -0.010521      0.590147     -0.003126
   12   O     12    2.2940  1.000      2.270005      0.241617      0.001369
   13   O     13    2.2940  1.000     -2.271665      0.162139      0.001634
 ------------------------------------------------------------------------------
 ------------------------------------------------------------------------------
 Atomic radii for non-electrostatic terms: SMD-CDS.
 ------------------------------------------------------------------------------
 Nuclear repulsion after PCM non-electrostatic terms =      356.8641655390 Hartrees.
 One-electron integrals computed using PRISM.
 NBasis=   310 RedAO= T EigKep=  1.17D-06  NBF=   310
 NBsUse=   310 1.00D-06 EigRej= -1.00D+00 NBFU=   310
 Initial guess from the checkpoint file:  ""dieneophile_ma.chk""
 B after Tr=     0.000000    0.000000    0.000000
         Rot=    1.000000   -0.000005    0.000010   -0.000029 Ang=   0.00 deg.
 Requested convergence on RMS density matrix=1.00D-08 within 128 cycles.
 Requested convergence on MAX density matrix=1.00D-06.
 Requested convergence on             energy=1.00D-06.
 No special actions if energy rises.
 Inv3:  Mode=1 IEnd=     5015547.
 Iteration    1 A*A^-1 deviation from unit magnitude is 2.89D-15 for   1277.
 Iteration    1 A*A^-1 deviation from orthogonality  is 1.40D-15 for   1093     52.
 Iteration    1 A^-1*A deviation from unit magnitude is 3.55D-15 for   1277.
 Iteration    1 A^-1*A deviation from orthogonality  is 6.48D-14 for    256    216.
 Error on total polarization charges =  0.01109
 SCF Done:  E(RwB97XD) =  -398.782086310     A.U. after    9 cycles
            NFock=  9  Conv=0.54D-08     -V/T= 2.0044
 SMD-CDS (non-electrostatic) energy       (kcal/mol) =      -3.66
 (included in total energy above)
 D1PCM: PCM CHGder 1st derivatives, ID1Alg=3 FixD1E=F DoIter=F DoCFld=F I1PDM=0.
 Calling FoFJK, ICntrl=      2127 FMM=F ISym2X=0 I1Cent= 0 IOpClX= 0 NMat=1 NMatS=1 NMatT=0.
 ***** Axes restored to original set *****
 -------------------------------------------------------------------
 Center     Atomic                   Forces (Hartrees/Bohr)
 Number     Number              X              Y              Z
 -------------------------------------------------------------------
      1        6          -0.000232751   -0.000007447    0.000198510
      2        6           0.000026265   -0.000011025   -0.000071913
      3        6           0.000008188    0.000022786    0.000013550
      4        6           0.000212000    0.000002357   -0.000017443
      5        1           0.000000278   -0.000026921    0.000003726
      6        1           0.000029553   -0.000009972    0.000004602
      7        6           0.000010889   -0.000354155   -0.000021818
      8        1           0.000010262    0.000051056   -0.000004229
      9        1          -0.000033998    0.000043031   -0.000035248
     10        1          -0.000037077    0.000039532    0.000034673
     11        7          -0.000016308    0.000294705   -0.000041183
     12        8          -0.000039021   -0.000001606   -0.000006127
     13        8           0.000061719   -0.000042342   -0.000057100
 -------------------------------------------------------------------
 Cartesian Forces:  Max     0.000354155 RMS     0.000099196

 GradGradGradGradGradGradGradGradGradGradGradGradGradGradGradGradGradGrad
 Berny optimization.
 Using GEDIIS/GDIIS optimizer.
 FormGI is forming the generalized inverse of G from B-inverse, IUseBI=4.
 Internal  Forces:  Max     0.000219497 RMS     0.000045525
 Search for a local minimum.
 Step number   3 out of a maximum of   70
 All quantities printed in internal units (Hartrees-Bohrs-Radians)
 Mixed Optimization -- En-DIIS/RFO-DIIS
 Swapping is turned off.
 Update second derivatives using D2CorX and points    1    2    3
 DE= -2.16D-06 DEPred=-1.94D-06 R= 1.11D+00
 TightC=F SS=  1.41D+00  RLast= 5.00D-03 DXNew= 5.0454D-01 1.4994D-02
 Trust test= 1.11D+00 RLast= 5.00D-03 DXMaxT set to 3.00D-01
 ITU=  1  1  0
     Eigenvalues ---    0.01040   0.01159   0.01257   0.01417   0.01613
     Eigenvalues ---    0.01836   0.01945   0.02355   0.07520   0.07786
     Eigenvalues ---    0.13548   0.16000   0.16000   0.16000   0.16044
     Eigenvalues ---    0.22719   0.24964   0.24999   0.25000   0.26150
     Eigenvalues ---    0.30662   0.31749   0.34218   0.34554   0.34811
     Eigenvalues ---    0.35582   0.35754   0.37419   0.43763   0.46466
     Eigenvalues ---    0.58046   0.96823   1.01671
 En-DIIS/RFO-DIIS IScMMF=        0 using points:     3    2
 RFO step:  Lambda=-3.08881814D-07.
 DidBck=F Rises=F RFO-DIIS coefs:    1.11486   -0.11486
 Iteration  1 RMS(Cart)=  0.00074443 RMS(Int)=  0.00000098
 Iteration  2 RMS(Cart)=  0.00000103 RMS(Int)=  0.00000071
 Iteration  3 RMS(Cart)=  0.00000000 RMS(Int)=  0.00000071
 Variable       Old X    -DE/DX   Delta X   Delta X   Delta X     New X
                                 (Linear)    (Quad)   (Total)
    R1        2.83149   0.00003   0.00009   0.00020   0.00029   2.83178
    R2        2.61560   0.00013   0.00009   0.00043   0.00052   2.61612
    R3        2.27355  -0.00007  -0.00005  -0.00020  -0.00025   2.27330
    R4        2.50227   0.00005   0.00005   0.00013   0.00018   2.50245
    R5        2.03947   0.00003   0.00003   0.00009   0.00012   2.03959
    R6        2.83191   0.00002   0.00008   0.00015   0.00022   2.83214
    R7        2.03943   0.00002   0.00003   0.00009   0.00012   2.03954
    R8        2.61899   0.00012   0.00009   0.00042   0.00051   2.61950
    R9        2.27279  -0.00004  -0.00004  -0.00016  -0.00020   2.27259
   R10        2.05578   0.00004   0.00001   0.00012   0.00013   2.05591
   R11        2.05895   0.00005   0.00003   0.00019   0.00023   2.05918
   R12        2.06039   0.00005   0.00003   0.00020   0.00024   2.06063
   R13        2.72733  -0.00022  -0.00005  -0.00078  -0.00084   2.72649
    A1        1.85641  -0.00005   0.00003  -0.00015  -0.00012   1.85629
    A2        2.23687   0.00002  -0.00002   0.00003   0.00001   2.23687
    A3        2.18991   0.00003  -0.00001   0.00012   0.00011   2.19002
    A4        1.89253   0.00003   0.00000   0.00010   0.00010   1.89263
    A5        2.13109  -0.00002   0.00002  -0.00005  -0.00003   2.13106
    A6        2.25956  -0.00001  -0.00001  -0.00005  -0.00006   2.25950
    A7        1.89464   0.00004  -0.00001   0.00011   0.00009   1.89473
    A8        2.25959  -0.00002  -0.00002  -0.00013  -0.00016   2.25943
    A9        2.12896  -0.00001   0.00004   0.00003   0.00006   2.12903
   A10        1.85409  -0.00004   0.00004  -0.00012  -0.00008   1.85401
   A11        2.23163   0.00002  -0.00003   0.00003   0.00000   2.23163
   A12        2.19746   0.00003  -0.00002   0.00009   0.00008   2.19754
   A13        1.90989  -0.00003  -0.00014  -0.00048  -0.00062   1.90926
   A14        1.90779  -0.00003  -0.00015  -0.00047  -0.00062   1.90716
   A15        1.88628   0.00004   0.00012   0.00046   0.00058   1.88686
   A16        1.90296  -0.00003  -0.00017  -0.00050  -0.00068   1.90228
   A17        1.92373   0.00004   0.00018   0.00056   0.00075   1.92448
   A18        1.93301   0.00002   0.00016   0.00042   0.00058   1.93359
   A19        1.92710   0.00002  -0.00006   0.00006   0.00000   1.92711
   A20        2.16988  -0.00001   0.00003   0.00000   0.00003   2.16992
   A21        2.18617  -0.00002   0.00003  -0.00006  -0.00003   2.18614
    D1        0.00170   0.00004  -0.00013   0.00228   0.00215   0.00385
    D2       -3.13970   0.00003  -0.00008   0.00157   0.00148  -3.13822
    D3       -3.13887  -0.00002   0.00007  -0.00228  -0.00222  -3.14109
    D4        0.00291  -0.00004   0.00011  -0.00300  -0.00289   0.00002
    D5       -0.00301  -0.00003   0.00013  -0.00215  -0.00203  -0.00504
    D6       -3.13739  -0.00003   0.00008  -0.00214  -0.00206  -3.13945
    D7        3.13759   0.00003  -0.00006   0.00225   0.00219   3.13978
    D8        0.00322   0.00003  -0.00011   0.00227   0.00216   0.00537
    D9        0.00018  -0.00003   0.00008  -0.00150  -0.00142  -0.00124
   D10       -3.14153  -0.00001   0.00004  -0.00057  -0.00053   3.14113
   D11        3.14156  -0.00001   0.00003  -0.00071  -0.00068   3.14088
   D12       -0.00014   0.00000  -0.00001   0.00022   0.00021   0.00006
   D13       -0.00199   0.00001   0.00000   0.00021   0.00020  -0.00178
   D14        3.13999   0.00001  -0.00002   0.00121   0.00119   3.14118
   D15        3.13971  -0.00001   0.00003  -0.00064  -0.00060   3.13910
   D16       -0.00150   0.00000   0.00001   0.00037   0.00038  -0.00112
   D17        0.00311   0.00002  -0.00008   0.00129   0.00121   0.00432
   D18        3.13741   0.00002  -0.00003   0.00128   0.00125   3.13865
   D19       -3.13886   0.00001  -0.00006   0.00031   0.00025  -3.13861
   D20       -0.00457   0.00001  -0.00001   0.00030   0.00029  -0.00428
   D21       -3.05094  -0.00001  -0.00004  -0.00076  -0.00080  -3.05174
   D22        0.09893  -0.00001  -0.00010  -0.00074  -0.00084   0.09809
   D23       -0.96449  -0.00001  -0.00003  -0.00073  -0.00076  -0.96525
   D24        2.18538  -0.00001  -0.00009  -0.00071  -0.00080   2.18458
   D25        1.14289  -0.00001  -0.00002  -0.00072  -0.00074   1.14215
   D26       -1.99042   0.00000  -0.00008  -0.00070  -0.00078  -1.99120
         Item               Value     Threshold  Converged?
 Maximum Force            0.000219     0.000450     YES
 RMS     Force            0.000046     0.000300     YES
 Maximum Displacement     0.003700     0.001800     NO 
 RMS     Displacement     0.000744     0.001200     YES
 Predicted change in Energy=-6.048450D-07
 GradGradGradGradGradGradGradGradGradGradGradGradGradGradGradGradGradGrad

                          Input orientation:                          
 ---------------------------------------------------------------------
 Center     Atomic      Atomic             Coordinates (Angstroms)
 Number     Number       Type             X           Y           Z
 ---------------------------------------------------------------------
      1          6           0       -1.131551   -0.222684    0.001921
      2          6           0       -0.631375   -1.635257    0.000554
      3          6           0        0.692640   -1.610786    0.000125
      4          6           0        1.143334   -0.181457   -0.000579
      5          1           0       -1.301795   -2.481090    0.000506
      6          1           0        1.393786   -2.431296   -0.000422
      7          6           0       -0.048009    2.030506   -0.000820
      8          1           0        0.971989    2.396143   -0.098462
      9          1           0       -0.644109    2.393349   -0.837712
     10          1           0       -0.477057    2.404840    0.929152
     11          7           0       -0.009523    0.588224   -0.002890
     12          8           0        2.270792    0.236988   -0.000713
     13          8           0       -2.271262    0.162311    0.003110
 ---------------------------------------------------------------------
                    Distance matrix (angstroms):
                    1          2          3          4          5
     1  C    0.000000
     2  C    1.498513   0.000000
     3  C    2.292271   1.324242   0.000000
     4  C    2.275260   2.294151   1.498702   0.000000
     5  H    2.264814   1.079303   2.176052   3.356631   0.000000
     6  H    3.354893   2.175996   1.079279   2.263736   2.696041
     7  C    2.500187   3.711891   3.715854   2.512385   4.682572
     8  H    3.360537   4.339674   4.017865   2.585143   5.382127
     9  H    2.790379   4.114915   4.303716   3.244284   4.989521
    10  H    2.862167   4.148312   4.284453   3.190455   5.041318
    11  N    1.384392   2.308805   2.308395   1.386180   3.330265
    12  O    3.433256   3.453677   2.429986   1.202605   4.489023
    13  O    1.202980   2.433204   3.453780   3.431859   2.815571
                    6          7          8          9         10
     6  H    0.000000
     7  C    4.688971   0.000000
     8  H    4.846824   1.087943   0.000000
     9  H    5.303893   1.089670   1.777153   0.000000
    10  H    5.268053   1.090439   1.776457   1.774781   0.000000
    11  N    3.329682   1.442797   2.059386   2.087608   2.094609
    12  O    2.808715   2.931475   2.521587   3.721171   3.621452
    13  O    4.489920   2.903967   3.939416   2.886545   3.017559
                   11         12         13
    11  N    0.000000
    12  O    2.307208   0.000000
    13  O    2.301499   4.542670   0.000000
 Stoichiometry    C5H5NO2
 Framework group  C1[X(C5H5NO2)]
 Deg. of freedom    33
 Full point group                 C1      NOp   1
 Largest Abelian subgroup         C1      NOp   1
 Largest concise Abelian subgroup C1      NOp   1
                         Standard orientation:                         
 ---------------------------------------------------------------------
 Center     Atomic      Atomic             Coordinates (Angstroms)
 Number     Number       Type             X           Y           Z
 ---------------------------------------------------------------------
      1          6           0       -1.131725   -0.221657    0.000914
      2          6           0       -0.630159   -1.633737   -0.000595
      3          6           0        0.693832   -1.607963    0.000078
      4          6           0        1.143120   -0.178192    0.000307
      5          1           0       -1.299746   -2.480229   -0.001529
      6          1           0        1.395785   -2.427784   -0.000213
      7          6           0       -0.050398    2.032598   -0.000048
      8          1           0        0.969319    2.399277   -0.096705
      9          1           0       -0.646165    2.395185   -0.837289
     10          1           0       -0.480581    2.406145    0.929716
     11          7           0       -0.010492    0.590356   -0.002653
     12          8           0        2.270166    0.241362    0.001268
     13          8           0       -2.271814    0.162216    0.001314
 ---------------------------------------------------------------------
 Rotational constants (GHZ):      3.3484114      2.3674809      1.3990760
 Basis read from rwf:  (5D, 7F)
 There are   350 symmetry adapted cartesian basis functions of A   symmetry.
 There are   310 symmetry adapted basis functions of A   symmetry.
   310 basis functions,   480 primitive gaussians,   350 cartesian basis functions
    29 alpha electrons       29 beta electrons
       nuclear repulsion energy       356.8601641509 Hartrees.
 NAtoms=   13 NActive=   13 NUniq=   13 SFac= 1.00D+00 NAtFMM=   60 NAOKFM=F Big=F
 Integral buffers will be    131072 words long.
 Raffenetti 2 integral format.
 Two-electron integral symmetry is turned on.
 Nuclear repulsion after empirical dispersion term =      356.8549269897 Hartrees.
 ------------------------------------------------------------------------------
 Polarizable Continuum Model (PCM)
 =================================
 Model                : PCM (using non-symmetric T matrix).
 Atomic radii         : SMD-Coulomb.
 Polarization charges : Total charges.
 Charge compensation  : None.
 Solution method      : On-the-fly selection.
 Cavity type          : VdW (van der Waals Surface) (Alpha=1.000).
 Cavity algorithm     : GePol (No added spheres)
                        Default sphere list used, NSphG=   13.
                        Lebedev-Laikov grids with approx.  5.0 points / Ang**2.
                        Smoothing algorithm: Karplus/York (Gamma=1.0000).
                        Polarization charges: spherical gaussians, with
                                              point-specific exponents (IZeta= 3).
                        Self-potential: point-specific (ISelfS= 7).
                        Self-field    : sphere-specific E.n sum rule (ISelfD= 2).
 1st derivatives      : Analytical E(r).r(x)/FMM algorithm (CHGder, D1EAlg=3).
                        Cavity 1st derivative terms included.
 Solvent              : Toluene, Eps=   2.374100 Eps(inf)=   2.238315
[...]
 ! D1    D(11,1,2,3)             0.1292         -DE/DX =    0.0                 !
 ! D2    D(11,1,2,5)          -179.8746         -DE/DX =    0.0                 !
 ! D3    D(13,1,2,3)          -179.8757         -DE/DX =    0.0                 !
 ! D4    D(13,1,2,5)             0.1206         -DE/DX =    0.0                 !
 ! D5    D(2,1,11,4)            -0.1918         -DE/DX =    0.0                 !
 ! D6    D(2,1,11,7)          -179.7973         -DE/DX =    0.0                 !
 ! D7    D(13,1,11,4)          179.8129         -DE/DX =    0.0                 !
 ! D8    D(13,1,11,7)            0.2074         -DE/DX =    0.0                 !
 ! D9    D(1,2,3,4)             -0.0209         -DE/DX =    0.0                 !
 ! D10   D(1,2,3,6)           -180.0076         -DE/DX =    0.0                 !
 ! D11   D(5,2,3,4)            179.9832         -DE/DX =    0.0                 !
 ! D12   D(5,2,3,6)             -0.0034         -DE/DX =    0.0                 !
 ! D13   D(2,3,4,11)            -0.0942         -DE/DX =    0.0                 !
 ! D14   D(2,3,4,12)           179.9195         -DE/DX =    0.0                 !
 ! D15   D(6,3,4,11)           179.8937         -DE/DX =    0.0                 !
 ! D16   D(6,3,4,12)            -0.0927         -DE/DX =    0.0                 !
 ! D17   D(3,4,11,1)             0.1795         -DE/DX =    0.0                 !
 ! D18   D(3,4,11,7)           179.7806         -DE/DX =    0.0                 !
 ! D19   D(12,4,11,1)         -179.8338         -DE/DX =    0.0                 !
 ! D20   D(12,4,11,7)           -0.2327         -DE/DX =    0.0                 !
 ! D21   D(8,7,11,1)          -174.8527         -DE/DX =    0.0                 !
 ! D22   D(8,7,11,4)             5.6            -DE/DX =    0.0                 !
 ! D23   D(9,7,11,1)           -55.3079         -DE/DX =    0.0                 !
 ! D24   D(9,7,11,4)           125.1449         -DE/DX =    0.0                 !
 ! D25   D(10,7,11,1)           65.4378         -DE/DX =    0.0                 !
 ! D26   D(10,7,11,4)         -114.1094         -DE/DX =    0.0                 !
 --------------------------------------------------------------------------------
 GradGradGradGradGradGradGradGradGradGradGradGradGradGradGradGradGradGrad

                          Input orientation:                          
 ---------------------------------------------------------------------
 Center     Atomic      Atomic             Coordinates (Angstroms)
 Number     Number       Type             X           Y           Z
 ---------------------------------------------------------------------
      1          6           0       -1.131554   -0.222635    0.000604
      2          6           0       -0.631364   -1.635130    0.000789
      3          6           0        0.692606   -1.610654   -0.000034
      4          6           0        1.143342   -0.181405   -0.001328
      5          1           0       -1.301781   -2.480943    0.001557
      6          1           0        1.393752   -2.431139   -0.000069
      7          6           0       -0.048001    2.030445   -0.000630
      8          1           0        0.972096    2.395977   -0.097672
      9          1           0       -0.643761    2.393408   -0.837703
     10          1           0       -0.477494    2.404166    0.929373
     11          7           0       -0.009519    0.588191   -0.003364
     12          8           0        2.270814    0.237088   -0.000978
     13          8           0       -2.271277    0.162420    0.003224
 ---------------------------------------------------------------------
                    Distance matrix (angstroms):
                    1          2          3          4          5
     1  C    0.000000
     2  C    1.498444   0.000000
     3  C    2.292195   1.324196   0.000000
     4  C    2.275271   2.294102   1.498639   0.000000
     5  H    2.264715   1.079286   2.176002   3.356562   0.000000
     6  H    3.354797   2.175943   1.079260   2.263627   2.695994
     7  C    2.500092   3.711706   3.715657   2.512286   4.682370
     8  H    3.360377   4.339425   4.017555   2.584861   5.381888
     9  H    2.790051   4.114893   4.303497   3.243906   4.989654
    10  H    2.861902   4.147512   4.283889   3.190374   5.040295
    11  N    1.384347   2.308651   2.308227   1.386135   3.330098
    12  O    3.433286   3.453670   2.429999   1.202634   4.489001
    13  O    1.203014   2.433210   3.453752   3.431889   2.815545
                    6          7          8          9         10
     6  H    0.000000
     7  C    4.688751   0.000000
     8  H    4.846480   1.087947   0.000000
     9  H    5.303711   1.089662   1.777258   0.000000
    10  H    5.267409   1.090429   1.776569   1.774913   0.000000
    11  N    3.329495   1.442770   2.059260   2.087389   2.094459
    12  O    2.808678   2.931388   2.521274   3.720830   3.621460
    13  O    4.489878   2.903875   3.939344   2.886742   3.016759
                   11         12         13
    11  N    0.000000
    12  O    2.307205   0.000000
    13  O    2.301495   4.542707   0.000000
 Stoichiometry    C5H5NO2
 Framework group  C1[X(C5H5NO2)]
 Deg. of freedom    33
 Full point group                 C1      NOp   1
 Largest Abelian subgroup         C1      NOp   1
 Largest concise Abelian subgroup C1      NOp   1
                         Standard orientation:                         
 ---------------------------------------------------------------------
 Center     Atomic      Atomic             Coordinates (Angstroms)
 Number     Number       Type             X           Y           Z
 ---------------------------------------------------------------------
      1          6           0       -1.131733   -0.221624   -0.000239
      2          6           0       -0.630194   -1.633640   -0.000169
      3          6           0        0.693752   -1.607899    0.000179
      4          6           0        1.143123   -0.178219   -0.000160
      5          1           0       -1.299803   -2.480093   -0.000320
      6          1           0        1.395683   -2.427713    0.000438
      7          6           0       -0.050334    2.032491    0.000359
      8          1           0        0.969498    2.399036   -0.095644
      9          1           0       -0.645707    2.395213   -0.837094
     10          1           0       -0.480999    2.405436    0.930131
     11          7           0       -0.010471    0.590276   -0.002905
     12          8           0        2.270194    0.241351    0.001343
     13          8           0       -2.271826    0.162341    0.001532
 ---------------------------------------------------------------------
 Rotational constants (GHZ):      3.3487996      2.3674523      1.3991358

 **********************************************************************

            Population analysis using the SCF density.

 **********************************************************************

 Orbital symmetries:
       Occupied  (A) (A) (A) (A) (A) (A) (A) (A) (A) (A) (A) (A)
                 (A) (A) (A) (A) (A) (A) (A) (A) (A) (A) (A) (A)
                 (A) (A) (A) (A) (A)
       Virtual   (A) (A) (A) (A) (A) (A) (A) (A) (A) (A) (A) (A)
                 (A) (A) (A) (A) (A) (A) (A) (A) (A) (A) (A) (A)
                 (A) (A) (A) (A) (A) (A) (A) (A) (A) (A) (A) (A)
                 (A) (A) (A) (A) (A) (A) (A) (A) (A) (A) (A) (A)
                 (A) (A) (A) (A) (A) (A) (A) (A) (A) (A) (A) (A)
                 (A) (A) (A) (A) (A) (A) (A) (A) (A) (A) (A) (A)
                 (A) (A) (A) (A) (A) (A) (A) (A) (A) (A) (A) (A)
                 (A) (A) (A) (A) (A) (A) (A) (A) (A) (A) (A) (A)
                 (A) (A) (A) (A) (A) (A) (A) (A) (A) (A) (A) (A)
                 (A) (A) (A) (A) (A) (A) (A) (A) (A) (A) (A) (A)
                 (A) (A) (A) (A) (A) (A) (A) (A) (A) (A) (A) (A)
                 (A) (A) (A) (A) (A) (A) (A) (A) (A) (A) (A) (A)
                 (A) (A) (A) (A) (A) (A) (A) (A) (A) (A) (A) (A)
                 (A) (A) (A) (A) (A) (A) (A) (A) (A) (A) (A) (A)
                 (A) (A) (A) (A) (A) (A) (A) (A) (A) (A) (A) (A)
                 (A) (A) (A) (A) (A) (A) (A) (A) (A) (A) (A) (A)
                 (A) (A) (A) (A) (A) (A) (A) (A) (A) (A) (A) (A)
                 (A) (A) (A) (A) (A) (A) (A) (A) (A) (A) (A) (A)
                 (A) (A) (A) (A) (A) (A) (A) (A) (A) (A) (A) (A)
                 (A) (A) (A) (A) (A) (A) (A) (A) (A) (A) (A) (A)
                 (A) (A) (A) (A) (A) (A) (A) (A) (A) (A) (A) (A)
                 (A) (A) (A) (A) (A) (A) (A) (A) (A) (A) (A) (A)
                 (A) (A) (A) (A) (A) (A) (A) (A) (A) (A) (A) (A)
                 (A) (A) (A) (A) (A)
 The electronic state is 1-A.
 Alpha  occ. eigenvalues --  -19.25338 -19.25299 -14.48710 -10.41566 -10.41441
 Alpha  occ. eigenvalues --  -10.32411 -10.32312 -10.32055  -1.18836  -1.16833
 Alpha  occ. eigenvalues --   -1.07455  -0.93918  -0.81612  -0.77663  -0.70890
 Alpha  occ. eigenvalues --   -0.65873  -0.59575  -0.58896  -0.56218  -0.54380
 Alpha  occ. eigenvalues --   -0.53868  -0.51591  -0.50633  -0.49657  -0.48728
 Alpha  occ. eigenvalues --   -0.39148  -0.39079  -0.36087  -0.36004
 Alpha virt. eigenvalues --   -0.02776   0.04754   0.05833   0.06284   0.07057
 Alpha virt. eigenvalues --    0.08045   0.08863   0.09388   0.09718   0.10152
 Alpha virt. eigenvalues --    0.11769   0.11821   0.12257   0.12425   0.12941
 Alpha virt. eigenvalues --    0.13401   0.14232   0.15401   0.15755   0.15993
 Alpha virt. eigenvalues --    0.16619   0.17635   0.18364   0.18537   0.21256
 Alpha virt. eigenvalues --    0.21305   0.22003   0.22641   0.23059   0.24066
 Alpha virt. eigenvalues --    0.24168   0.24750   0.26114   0.26503   0.27147
 Alpha virt. eigenvalues --    0.27909   0.28258   0.29679   0.31332   0.32478
 Alpha virt. eigenvalues --    0.33777   0.34866   0.36535   0.38352   0.38869
 Alpha virt. eigenvalues --    0.40529   0.41006   0.42073   0.44505   0.44937
 Alpha virt. eigenvalues --    0.45060   0.46083   0.46864   0.47111   0.49121
 Alpha virt. eigenvalues --    0.50781   0.51316   0.51629   0.54055   0.55121
 Alpha virt. eigenvalues --    0.56484   0.57103   0.57589   0.58024   0.62476
 Alpha virt. eigenvalues --    0.63050   0.63910   0.64592   0.65570   0.66502
 Alpha virt. eigenvalues --    0.67537   0.69410   0.74081   0.74419   0.75888
 Alpha virt. eigenvalues --    0.76327   0.77053   0.78494   0.79746   0.80589
 Alpha virt. eigenvalues --    0.81424   0.83312   0.88173   0.88406   0.92391
 Alpha virt. eigenvalues --    0.93831   0.94783   0.97259   1.01628   1.05057
 Alpha virt. eigenvalues --    1.08332   1.09519   1.11683   1.13630   1.14927
 Alpha virt. eigenvalues --    1.15228   1.16225   1.17759   1.19980   1.23279
 Alpha virt. eigenvalues --    1.25302   1.27821   1.28646   1.31957   1.36939
 Alpha virt. eigenvalues --    1.39469   1.41414   1.46604   1.47764   1.53702
 Alpha virt. eigenvalues --    1.53824   1.56656   1.57929   1.60523   1.62410
 Alpha virt. eigenvalues --    1.63526   1.64387   1.64948   1.65461   1.66583
 Alpha virt. eigenvalues --    1.70288   1.73959   1.75857   1.76531   1.77010
 Alpha virt. eigenvalues --    1.79668   1.83989   1.84541   1.86920   1.87217
 Alpha virt. eigenvalues --    1.91417   1.99270   2.01796   2.02736   2.04760
 Alpha virt. eigenvalues --    2.07510   2.12232   2.12966   2.17699   2.18372
 Alpha virt. eigenvalues --    2.21477   2.24725   2.28460   2.30626   2.31980
 Alpha virt. eigenvalues --    2.36498   2.37538   2.41322   2.43112   2.45764
 Alpha virt. eigenvalues --    2.48665   2.51179   2.51902   2.55206   2.56056
 Alpha virt. eigenvalues --    2.58102   2.58863   2.60908   2.64087   2.66619
 Alpha virt. eigenvalues --    2.67770   2.68618   2.71280   2.74584   2.76198
 Alpha virt. eigenvalues --    2.77747   2.82702   2.85368   2.87411   2.91838
 Alpha virt. eigenvalues --    2.92471   2.95479   3.00023   3.00447   3.00914
 Alpha virt. eigenvalues --    3.03419   3.08031   3.09031   3.10616   3.12964
 Alpha virt. eigenvalues --    3.14223   3.15065   3.16708   3.19197   3.21481
 Alpha virt. eigenvalues --    3.22937   3.24741   3.25532   3.28198   3.28750
 Alpha virt. eigenvalues --    3.33745   3.37816   3.39492   3.40619   3.41420
 Alpha virt. eigenvalues --    3.44247   3.44983   3.45230   3.46157   3.49112
 Alpha virt. eigenvalues --    3.54907   3.56927   3.58994   3.60214   3.61945
 Alpha virt. eigenvalues --    3.66504   3.67972   3.68939   3.70482   3.75773
 Alpha virt. eigenvalues --    3.79667   3.84653   3.85848   3.95896   3.96916
 Alpha virt. eigenvalues --    4.00326   4.09352   4.12585   4.15797   4.16741
 Alpha virt. eigenvalues --    4.21193   4.27108   4.29724   4.33532   4.37841
 Alpha virt. eigenvalues --    4.44008   4.45061   4.46459   4.53590   4.56013
 Alpha virt. eigenvalues --    4.64746   4.73091   4.79298   4.84122   4.85754
 Alpha virt. eigenvalues --    4.88104   4.96775   5.02951   5.09072   5.16585
 Alpha virt. eigenvalues --    5.18981   5.19843   5.24816   5.25926   5.32113
 Alpha virt. eigenvalues --    5.32586   5.34701   5.42434   5.51067   5.66168
 Alpha virt. eigenvalues --    5.73232   5.73486   5.80959   5.83406   5.86177
 Alpha virt. eigenvalues --    5.99602   6.14267   6.27383   6.27575   6.44220
 Alpha virt. eigenvalues --    6.46389   6.46834   6.59495   6.63769   6.64737
 Alpha virt. eigenvalues --    6.86492   6.90263   6.93669   7.02170   7.17241
 Alpha virt. eigenvalues --    7.24094   7.26768   7.28012  22.40642  22.62679
 Alpha virt. eigenvalues --   22.91590  23.33622  23.70964  33.00033  44.15472
 Alpha virt. eigenvalues --   44.29026
          Condensed to atoms (all electrons):
               1          2          3          4          5          6
     1  C    5.711236  -1.145497   1.311423  -0.804207  -0.020163   0.001484
     2  C   -1.145497   7.723405  -1.948625   1.256742   0.370134   0.015583
     3  C    1.311423  -1.948625   7.724395  -1.093757   0.016558   0.372542
     4  C   -0.804207   1.256742  -1.093757   5.627629   0.001231  -0.020618
     5  H   -0.020163   0.370134   0.016558   0.001231   0.426167  -0.001535
     6  H    0.001484   0.015583   0.372542  -0.020618  -0.001535   0.427246
     7  C   -0.052773   0.029855  -0.028889  -0.020812  -0.000193  -0.000572
     8  H   -0.005178   0.003500   0.005188   0.008865   0.000002   0.000007
     9  H    0.011254  -0.007271   0.009747  -0.015052  -0.000005   0.000005
    10  H    0.003327  -0.005818   0.006345  -0.013666  -0.000004   0.000005
    11  N    0.332912  -0.101271  -0.174148   0.390897   0.002762   0.001705
    12  O    0.008440   0.038891  -0.160659   0.395588   0.000263  -0.006729
    13  O    0.408216  -0.172061   0.054589   0.000428  -0.005731   0.000300
               7          8          9         10         11         12
     1  C   -0.052773  -0.005178   0.011254   0.003327   0.332912   0.008440
     2  C    0.029855   0.003500  -0.007271  -0.005818  -0.101271   0.038891
     3  C   -0.028889   0.005188   0.009747   0.006345  -0.174148  -0.160659
     4  C   -0.020812   0.008865  -0.015052  -0.013666   0.390897   0.395588
     5  H   -0.000193   0.000002  -0.000005  -0.000004   0.002762   0.000263
     6  H   -0.000572   0.000007   0.000005   0.000005   0.001705  -0.006729
     7  C    4.970626   0.414492   0.415728   0.419519   0.218221  -0.011572
     8  H    0.414492   0.486703  -0.018477  -0.019040  -0.058481   0.006669
     9  H    0.415728  -0.018477   0.512676  -0.030772  -0.041002   0.000257
    10  H    0.419519  -0.019040  -0.030772   0.509598  -0.030545   0.000340
    11  N    0.218221  -0.058481  -0.041002  -0.030545   6.663329  -0.085427
    12  O   -0.011572   0.006669   0.000257   0.000340  -0.085427   8.269790
    13  O    0.001386   0.001457  -0.000821  -0.003404  -0.087346  -0.000547
              13
     1  C    0.408216
     2  C   -0.172061
     3  C    0.054589
     4  C    0.000428
     5  H   -0.005731
     6  H    0.000300
     7  C    0.001386
     8  H    0.001457
     9  H   -0.000821
    10  H   -0.003404
    11  N   -0.087346
    12  O   -0.000547
    13  O    8.258827
 Mulliken charges:
               1
     1  C    0.239528
     2  C   -0.057567
     3  C   -0.094709
     4  C    0.286731
     5  H    0.210515
     6  H    0.210578
     7  C   -0.355016
     8  H    0.174295
     9  H    0.163734
    10  H    0.164115
    11  N   -0.031605
    12  O   -0.455305
    13  O   -0.455293
 Sum of Mulliken charges =   0.00000
 Mulliken charges with hydrogens summed into heavy atoms:
               1
     1  C    0.239528
     2  C    0.152948
     3  C    0.115869
     4  C    0.286731
     7  C    0.147127
    11  N   -0.031605
    12  O   -0.455305
    13  O   -0.455293
 Electronic spatial extent (au):  <R**2>=            817.0894
 Charge=              0.0000 electrons
 Dipole moment (field-independent basis, Debye):
    X=              0.0628    Y=             -1.3859    Z=             -0.0113  Tot=              1.3873
 Quadrupole moment (field-independent basis, Debye-Ang):
   XX=            -61.0337   YY=            -35.3393   ZZ=            -45.0370
   XY=             -0.3382   XZ=              0.0048   YZ=             -0.0269
 Traceless Quadrupole moment (field-independent basis, Debye-Ang):
   XX=            -13.8970   YY=             11.7974   ZZ=              2.0996
   XY=             -0.3382   XZ=              0.0048   YZ=             -0.0269
 Octapole moment (field-independent basis, Debye-Ang**2):
  XXX=              1.2158  YYY=             -1.9279  ZZZ=              0.1962  XYY=             -0.0004
  XXY=             -8.9240  XXZ=             -0.2584  XZZ=             -0.7804  YZZ=              4.2124
  YYZ=             -0.0656  XYZ=             -0.0026
 Hexadecapole moment (field-independent basis, Debye-Ang**3):
 XXXX=           -640.6619 YYYY=           -406.4132 ZZZZ=            -50.6027 XXXY=             -0.5298
 XXXZ=              0.0391 YYYX=              0.9094 YYYZ=             -0.1528 ZZZX=              0.0023
 ZZZY=              0.4668 XXYY=           -147.7663 XXZZ=            -93.9691 YYZZ=            -88.0845
 XXYZ=             -0.5819 YYXZ=             -0.0067 ZZXY=             -1.6206
 N-N= 3.568567515893D+02 E-N=-1.645949249366D+03  KE= 3.970371533789D+02
 1\1\GINC-D12S4B1\FOpt\RwB97XD\Gen\C5H5N1O2\PMMASS\09-Feb-2022\0\\#n wB
 97XD/Gen scrf(smd,solvent=toluene) opt\\dieneophile diels-alder toluen
 e - opt\\0,1\C,-1.1315538314,-0.2226347834,0.0006044262\C,-0.631363703
 7,-1.6351302498,0.0007891735\C,0.6926055396,-1.6106543057,-0.000033913
 6\C,1.1433423529,-0.1814050781,-0.0013277393\H,-1.3017812591,-2.480942
 6614,0.0015568454\H,1.3937524578,-2.4311387738,-0.0000687831\C,-0.0480
 013531,2.0304454346,-0.0006303836\H,0.9720961717,2.3959772943,-0.09767
 16417\H,-0.6437608513,2.3934083642,-0.837703281\H,-0.4774936072,2.4041
 657165,0.9293725683\N,-0.0095186418,0.5881913734,-0.0033636029\O,2.270
 8140267,0.2370877278,-0.0009776965\O,-2.2712773013,0.1624199415,0.0032
 240284\\Version=ES64L-G09RevD.01\State=1-A\HF=-398.7820865\RMSD=7.487e
 -09\RMSF=2.411e-05\Dipole=0.0241723,-0.54527,-0.0042353\Quadrupole=-10
 .3325235,8.7714879,1.5610356,-0.2332191,0.0140455,-0.0225927\PG=C01 [X
 (C5H5N1O2)]\\@


            THE IRISH PIG
 'TWAS AN EVENING IN NOVEMBER,
 AS I VERY WELL REMEMBER
 I WAS STROLLING DOWN THE STREET IN DRUNKEN PRIDE,
 BUT MY KNEES WERE ALL A'FLUTTER
 SO I LANDED IN THE GUTTER,
 AND A PIG CAME UP AND LAY DOWN BY MY SIDE.

 YES, I LAY THERE IN THE GUTTER
 THINKING THOUGHTS I COULD NOT UTTER
 WHEN A COLLEEN PASSING BY DID SOFTLY SAY,
 'YE CAN TELL A MAN THAT BOOZES
 BY THE COMPANY THAT HE CHOOSES.' -
 AT THAT, THE PIG GOT UP AND WALKED AWAY!
     -- THE ECONOMIST, AUGUST 23, 1986
 Job cpu time:       0 days  1 hours  9 minutes 22.2 seconds.
 File lengths (MBytes):  RWF=     87 Int=      0 D2E=      0 Chk=      9 Scr=      1
 Normal termination of Gaussian 09 at Wed Feb  9 13:03:45 2022.
