 Entering Gaussian System, Link 0=g09
 Input=prod_diels_ma_freq.com
 Output=prod_diels_ma_freq.log
 Initial command:
 /apps/applications/gaussian/G09.D01/2/default/g09/l1.exe "/nobackup/pmmass/Temp/Gau-191130.inp" -scrdir="/nobackup/pmmass/Temp/"
 Entering Link 1 = /apps/applications/gaussian/G09.D01/2/default/g09/l1.exe PID=    191131.
  
 Copyright (c) 1988,1990,1992,1993,1995,1998,2003,2009,2013,
            Gaussian, Inc.  All Rights Reserved.
  
 This is part of the Gaussian(R) 09 program.  It is based on
 the Gaussian(R) 03 system (copyright 2003, Gaussian, Inc.),
 the Gaussian(R) 98 system (copyright 1998, Gaussian, Inc.),
 the Gaussian(R) 94 system (copyright 1995, Gaussian, Inc.),
 the Gaussian 92(TM) system (copyright 1992, Gaussian, Inc.),
 the Gaussian 90(TM) system (copyright 1990, Gaussian, Inc.),
 the Gaussian 88(TM) system (copyright 1988, Gaussian, Inc.),
 the Gaussian 86(TM) system (copyright 1986, Carnegie Mellon
 University), and the Gaussian 82(TM) system (copyright 1983,
 Carnegie Mellon University). Gaussian is a federally registered
 trademark of Gaussian, Inc.
  
 This software contains proprietary and confidential information,
 including trade secrets, belonging to Gaussian, Inc.
  
 This software is provided under written license and may be
 used, copied, transmitted, or stored only in accord with that
 written license.
  
 The following legend is applicable only to US Government
 contracts under FAR:
  
                    RESTRICTED RIGHTS LEGEND
  
 Use, reproduction and disclosure by the US Government is
 subject to restrictions as set forth in subparagraphs (a)
 and (c) of the Commercial Computer Software - Restricted
 Rights clause in FAR 52.227-19.
  
 Gaussian, Inc.
 340 Quinnipiac St., Bldg. 40, Wallingford CT 06492
  
  
 ---------------------------------------------------------------
 Warning -- This program may not be used in any manner that
 competes with the business of Gaussian, Inc. or will provide
 assistance to any competitor of Gaussian, Inc.  The licensee
 of this program is prohibited from giving any competitor of
 Gaussian, Inc. access to this program.  By using this program,
 the user acknowledges that Gaussian, Inc. is engaged in the
 business of creating and licensing software in the field of
 computational chemistry and represents and warrants to the
 licensee that it is not a competitor of Gaussian, Inc. and that
 it will not use this program in any manner prohibited above.
 ---------------------------------------------------------------
  

 Cite this work as:
 Gaussian 09, Revision D.01,
 M. J. Frisch, G. W. Trucks, H. B. Schlegel, G. E. Scuseria, 
 M. A. Robb, J. R. Cheeseman, G. Scalmani, V. Barone, B. Mennucci, 
 G. A. Petersson, H. Nakatsuji, M. Caricato, X. Li, H. P. Hratchian, 
 A. F. Izmaylov, J. Bloino, G. Zheng, J. L. Sonnenberg, M. Hada, 
 M. Ehara, K. Toyota, R. Fukuda, J. Hasegawa, M. Ishida, T. Nakajima, 
 Y. Honda, O. Kitao, H. Nakai, T. Vreven, J. A. Montgomery, Jr., 
 J. E. Peralta, F. Ogliaro, M. Bearpark, J. J. Heyd, E. Brothers, 
 K. N. Kudin, V. N. Staroverov, T. Keith, R. Kobayashi, J. Normand, 
 K. Raghavachari, A. Rendell, J. C. Burant, S. S. Iyengar, J. Tomasi, 
 M. Cossi, N. Rega, J. M. Millam, M. Klene, J. E. Knox, J. B. Cross, 
 V. Bakken, C. Adamo, J. Jaramillo, R. Gomperts, R. E. Stratmann, 
 O. Yazyev, A. J. Austin, R. Cammi, C. Pomelli, J. W. Ochterski, 
 R. L. Martin, K. Morokuma, V. G. Zakrzewski, G. A. Voth, 
 P. Salvador, J. J. Dannenberg, S. Dapprich, A. D. Daniels, 
 O. Farkas, J. B. Foresman, J. V. Ortiz, J. Cioslowski, 
 and D. J. Fox, Gaussian, Inc., Wallingford CT, 2013.
 
 ******************************************
 Gaussian 09:  ES64L-G09RevD.01 24-Apr-2013
                11-Feb-2022 
 ******************************************
 %nprocshared=8
 Will use up to    8 processors via shared memory.
 %mem=4GB
 %NoSave
 %chk="prod_diels_ma_freq.chk"
 --------------------------------------------
 #n wB97XD/Gen scrf(smd,solvent=toluene) freq
 --------------------------------------------
 1/10=4,30=1,38=1/1,3;
 2/12=2,17=6,18=5,40=1/2;
 3/5=7,11=2,16=1,25=1,30=1,70=32201,71=2,72=13,74=-58,140=1/1,2,3;
 4//1;
 5/5=2,38=5,53=13,98=1/2;
 8/6=4,10=90,11=11/1;
 11/6=1,8=1,9=11,15=111,16=1/1,2,10;
 10/6=1/2;
 6/7=2,8=2,9=2,10=2,18=1,28=1/1;
 7/8=1,10=1,25=1/1,2,3,16;
 1/10=4,30=1/3;
 99//99;
 ----------------------------------
 clasisen product in toluene - freq
 ----------------------------------
 Symbolic Z-matrix:
 Charge =  0 Multiplicity = 1
 C                    -2.87539   0.20696  -0.20699 
 C                    -1.56196   0.81915  -0.66836 
 C                    -0.5854   -0.37252  -0.70804 
 C                    -1.3877   -1.54663  -0.16559 
 H                    -1.74584   1.19638  -1.67568 
 H                    -0.36525  -0.6369   -1.74584 
 C                    -3.74254  -2.00073   0.5141 
 H                    -3.31698  -2.98606   0.68747 
 H                    -4.1648   -1.61183   1.43999 
 H                    -4.53264  -2.06683  -0.2336 
 N                    -2.6859   -1.13285   0.04724 
 O                    -0.9836   -2.66266   0.03474 
 O                    -3.92968   0.77546  -0.07091 
 C                     0.7426   -0.2368    0.05334 
 H                     1.04525  -1.24259   0.35174 
 C                    -1.19208   2.01772   0.23487 
 H                    -2.12525   2.3856    0.667 
 C                    -0.27877   1.61674   1.35742 
 H                    -0.32325   2.21849   2.25915 
 C                     0.5916    0.61976   1.27853 
 H                     1.24878   0.41041   2.11418 
 C                    -0.60122   3.18277  -0.5648 
 H                    -1.32552   3.55395  -1.29285 
 H                    -0.33777   4.00836   0.09896 
 H                     0.30303   2.88937  -1.10006 
 C                     1.83051   0.28417  -0.88741 
 H                     1.98301  -0.41993  -1.70608 
 H                     1.56542   1.25856  -1.29365 
 C                     3.90703  -0.54325  -0.09615 
 C                     5.13443  -0.1615    0.67375 
 H                     4.86017   0.0623    1.70639 
 H                     5.85016  -0.97901   0.65791 
 H                     5.5825    0.73765   0.25025 
 O                     3.68578  -1.63008  -0.55992 
 O                     3.06671   0.49689  -0.20441 
 

 GradGradGradGradGradGradGradGradGradGradGradGradGradGradGradGradGradGrad
 Berny optimization.
 Initialization pass.
 Trust Radius=3.00D-01 FncErr=1.00D-07 GrdErr=1.00D-07
 Number of steps in this run=      2 maximum allowed number of steps=      2.
 GradGradGradGradGradGradGradGradGradGradGradGradGradGradGradGradGradGrad

                          Input orientation:                          
 ---------------------------------------------------------------------
 Center     Atomic      Atomic             Coordinates (Angstroms)
 Number     Number       Type             X           Y           Z
 ---------------------------------------------------------------------
      1          6           0       -2.875390    0.206960   -0.206990
      2          6           0       -1.561960    0.819150   -0.668360
      3          6           0       -0.585400   -0.372520   -0.708040
      4          6           0       -1.387700   -1.546630   -0.165590
      5          1           0       -1.745840    1.196380   -1.675680
      6          1           0       -0.365250   -0.636900   -1.745840
      7          6           0       -3.742540   -2.000730    0.514100
      8          1           0       -3.316980   -2.986060    0.687470
      9          1           0       -4.164800   -1.611830    1.439990
     10          1           0       -4.532640   -2.066830   -0.233600
     11          7           0       -2.685900   -1.132850    0.047240
     12          8           0       -0.983600   -2.662660    0.034740
     13          8           0       -3.929680    0.775460   -0.070910
     14          6           0        0.742600   -0.236800    0.053340
     15          1           0        1.045250   -1.242590    0.351740
     16          6           0       -1.192080    2.017720    0.234870
     17          1           0       -2.125250    2.385600    0.667000
     18          6           0       -0.278770    1.616740    1.357420
     19          1           0       -0.323250    2.218490    2.259150
     20          6           0        0.591600    0.619760    1.278530
     21          1           0        1.248780    0.410410    2.114180
     22          6           0       -0.601220    3.182770   -0.564800
     23          1           0       -1.325520    3.553950   -1.292850
     24          1           0       -0.337770    4.008360    0.098960
     25          1           0        0.303030    2.889370   -1.100060
     26          6           0        1.830510    0.284170   -0.887410
     27          1           0        1.983010   -0.419930   -1.706080
     28          1           0        1.565420    1.258560   -1.293650
     29          6           0        3.907030   -0.543250   -0.096150
     30          6           0        5.134430   -0.161500    0.673750
     31          1           0        4.860170    0.062300    1.706390
     32          1           0        5.850160   -0.979010    0.657910
     33          1           0        5.582500    0.737650    0.250250
     34          8           0        3.685780   -1.630080   -0.559920
     35          8           0        3.066710    0.496890   -0.204410
 ---------------------------------------------------------------------
                    Distance matrix (angstroms):
                    1          2          3          4          5
     1  C    0.000000
     2  C    1.520769   0.000000
     3  C    2.414726   1.541208   0.000000
     4  C    2.300003   2.424883   1.521996   0.000000
     5  H    2.100449   1.091241   2.178163   3.151625   0.000000
     6  H    3.062836   2.170981   1.093340   2.090503   2.296055
     7  C    2.479075   3.755644   3.756624   2.492681   4.359296
     8  H    3.345211   4.404315   4.029835   2.553780   5.054282
     9  H    2.771844   4.138790   4.354541   3.208492   4.841984
    10  H    2.813771   4.164473   4.321630   3.188398   4.527073
    11  N    1.376819   2.363393   2.358103   1.379070   3.045895
    12  O    3.445580   3.598868   2.440292   1.203724   4.289375
    13  O    1.205503   2.442325   3.592771   3.444231   2.742557
    14  C    3.654387   2.635693   1.536783   2.510331   3.351992
    15  H    4.217202   3.476912   2.130534   2.505856   4.224830
    16  C    2.511498   1.545706   2.640149   3.592106   2.152081
    17  H    2.464354   2.134068   3.445156   4.086517   2.654495
    18  C    3.343246   2.527155   2.883973   3.681874   3.395393
    19  H    4.079402   3.473164   3.947945   4.603102   4.307129
    20  C    3.794363   2.909976   2.513247   3.270529   3.810967
    21  H    4.736877   3.976161   3.455737   3.997297   4.893724
    22  C    3.762356   2.553516   3.558210   4.810940   2.547539
    23  H    3.844936   2.815142   4.038186   5.224031   2.425152
    24  H    4.580804   3.501211   4.461466   5.659528   3.610989
    25  H    4.253851   2.819639   3.403368   4.838378   2.719452
    26  C    4.755463   3.441372   2.509987   3.772231   3.774093
    27  H    5.122920   3.896023   2.755914   3.873532   4.064198
    28  H    4.691214   3.219406   2.762135   4.226408   3.333805
    29  C    6.824685   5.665105   4.537123   5.389412   6.121778
    30  C    8.066516   6.899607   5.888152   6.720213   7.396065
    31  H    7.969996   6.888833   5.972669   6.717801   7.507590
    32  H    8.848152   7.741569   6.606821   7.306638   8.238761
    33  H    8.486849   7.203735   6.339857   7.346737   7.591061
    34  O    6.822626   5.792172   4.454927   5.089466   6.223849
    35  O    5.949170   4.663013   3.787799   4.900944   5.080803
                    6          7          8          9         10
     6  H    0.000000
     7  C    4.286426   0.000000
     8  H    4.489127   1.087214   0.000000
     9  H    5.053373   1.089412   1.781458   0.000000
    10  H    4.658187   1.089808   1.780782   1.772917   0.000000
    11  N    2.974310   1.444874   2.059744   2.087180   2.088454
    12  O    2.767043   2.877445   2.444444   3.633043   3.608698
    13  O    4.183935   2.843324   3.885817   2.835005   2.910093
    14  C    2.150456   4.841511   4.943758   5.281674   5.591020
    15  H    2.599272   4.850162   4.709719   5.335283   5.668761
    16  C    3.413776   4.767678   5.455077   4.843863   5.297391
    17  H    4.249106   4.677488   5.502306   4.553759   5.141084
    18  C    3.836221   5.078876   5.555657   5.052891   5.847687
    19  H    4.918837   5.704258   6.206443   5.486336   6.503594
    20  C    3.411975   5.122118   5.350541   5.256368   5.980145
    21  H    4.312969   5.769500   5.866658   5.818147   6.713688
    22  C    4.005049   6.156345   6.855508   6.301307   6.566891
    23  H    4.323256   6.321513   7.117535   6.497323   6.557499
    24  H    4.998248   6.919101   7.625218   6.930444   7.390228
    25  H    3.646671   6.548681   7.128844   6.831849   6.978422
    26  C    2.531133   6.184164   6.298516   6.704875   6.815009
    27  H    2.358597   6.341140   6.356414   7.008135   6.879983
    28  H    2.743124   6.485782   6.766052   6.967593   7.026255
    29  C    4.580679   7.811055   7.666009   8.285893   8.577192
    30  C    6.027180   9.066910   8.910929   9.442789   9.894736
    31  H    6.301729   8.926604   8.786153   9.182797   9.824543
    32  H    6.672809   9.648030   9.384326  10.065363  10.477628
    33  H    6.422577   9.722382   9.657014  10.096801  10.507867
    34  O    4.336318   7.514708   7.241085   8.101332   8.236484
    35  O    3.929356   7.288364   7.326520   7.710090   8.020202
                   11         12         13         14         15
    11  N    0.000000
    12  O    2.288733   0.000000
    13  O    2.280920   4.528931   0.000000
    14  C    3.543664   2.977400   4.782291   0.000000
    15  H    3.745163   2.496662   5.385266   1.091903   0.000000
    16  C    3.491818   4.689293   3.021782   2.976374   3.955872
    17  H    3.616341   5.214216   2.528444   3.934225   4.828584
    18  C    3.882150   4.534262   4.009616   2.485846   3.307596
    19  H    4.658985   5.404599   4.529664   3.468441   4.182114
    20  C    3.915319   3.847408   4.720932   1.502527   2.129104
    21  H    4.704848   4.330283   5.632435   2.218594   2.424877
    22  C    4.831673   5.888524   4.137356   3.725776   4.809857
    23  H    5.060886   6.365976   3.999349   4.523177   5.597501
    24  H    5.652294   6.702517   4.835526   4.380715   5.435910
    25  H    5.140842   5.811043   4.841859   3.361025   4.442039
    26  C    4.824881   4.177725   5.838478   1.529696   2.117338
    27  H    5.037967   4.106223   6.250011   2.160489   2.406405
    28  H    5.058710   4.861902   5.650186   2.174285   3.038690
    29  C    6.620794   5.331725   7.946928   3.182747   2.979843
    30  C    7.905289   6.640363   9.142784   4.436074   4.241915
    31  H    7.818205   6.661041   8.996047   4.447068   4.253402
    32  H    8.559258   7.065642   9.962661   5.196494   4.821864
    33  H    8.479765   7.397447   9.517675   4.940947   4.951595
    34  O    6.419828   4.819020   8.001311   3.313552   2.820225
    35  O    5.984305   5.142466   7.003206   2.450760   2.724224
                   16         17         18         19         20
    16  C    0.000000
    17  H    1.092190   0.000000
    18  C    1.501679   2.115966   0.000000
    19  H    2.211986   2.410409   1.084988   0.000000
    20  C    2.495002   3.297489   1.325797   2.086745   0.000000
    21  H    3.474629   4.168907   2.088379   2.400302   1.083524
    22  C    1.531643   2.115533   2.500271   2.996965   3.374864
    23  H    2.170654   2.417772   3.445635   3.924882   4.347047
    24  H    2.170476   2.480142   2.703155   2.805399   3.706444
    25  H    2.185673   3.045132   2.827947   3.482327   3.300317
    26  C    3.660705   4.741333   3.356198   4.275642   2.517700
    27  H    4.448665   5.511833   4.318415   5.291800   3.453241
    28  H    3.242916   4.328442   3.249231   4.136536   2.823562
    29  C    5.715686   6.748997   4.929436   5.574039   3.772852
    30  C    6.705695   7.693550   5.738665   6.161503   4.649025
    31  H    6.528305   7.434659   5.380220   5.641147   4.326028
    32  H    7.665018   8.656087   6.692609   7.134351   5.531156
    33  H    6.894472   7.892961   6.029354   6.411431   5.097091
    34  O    6.142610   7.169316   5.471352   6.231450   4.244482
    35  O    4.543477   5.593123   3.858188   4.530437   2.887971
                   21         22         23         24         25
    21  H    0.000000
    22  C    4.276145   0.000000
    23  H    5.302520   1.091990   0.000000
    24  H    4.418540   1.091596   1.766147   0.000000
    25  H    4.167856   1.090988   1.769466   1.760799   0.000000
    26  C    3.060047   3.797271   4.562496   4.420855   3.027455
    27  H    3.977807   4.578232   5.187374   5.315444   3.760460
    28  H    3.526035   2.987999   3.691389   3.622554   2.071388
    29  C    3.586268   5.867468   6.752682   6.226841   5.077355
    30  C    4.183324   6.753949   7.707337   6.903846   5.983029
    31  H    3.650974   6.687482   7.710371   6.721146   6.052769
    32  H    5.022341   7.774042   8.708822   7.967231   6.987523
    33  H    4.728895   6.699352   7.617968   6.765355   5.858843
    34  O    4.153719   6.445302   7.247378   6.958095   5.670994
    35  O    2.947577   4.560432   5.460952   4.900300   3.763519
                   26         27         28         29         30
    26  C    0.000000
    27  H    1.090520   0.000000
    28  H    1.088457   1.778148   0.000000
    29  C    2.371213   2.511759   3.188050   0.000000
    30  C    3.681267   3.957502   4.315677   1.498329   0.000000
    31  H    3.994479   4.489493   4.613746   2.127044   1.091627
    32  H    4.487897   4.566823   5.212898   2.129377   1.086666
    33  H    3.946814   4.257176   4.334963   2.137264   1.090225
    34  O    2.685820   2.382766   3.657667   1.202179   2.403592
    35  O    1.428261   2.066392   2.005108   1.341547   2.340963
                   31         32         33         34         35
    31  H    0.000000
    32  H    1.778684   0.000000
    33  H    1.760171   1.784587   0.000000
    34  O    3.062597   2.567400   3.140074   0.000000
    35  O    2.656412   3.266416   2.567855   2.243577   0.000000
 Stoichiometry    C13H17NO4
 Framework group  C1[X(C13H17NO4)]
 Deg. of freedom    99
 Full point group                 C1      NOp   1
 Largest Abelian subgroup         C1      NOp   1
 Largest concise Abelian subgroup C1      NOp   1
                         Standard orientation:                         
 ---------------------------------------------------------------------
 Center     Atomic      Atomic             Coordinates (Angstroms)
 Number     Number       Type             X           Y           Z
 ---------------------------------------------------------------------
      1          6           0       -2.875390    0.206961   -0.206990
      2          6           0       -1.561960    0.819151   -0.668360
      3          6           0       -0.585400   -0.372519   -0.708040
      4          6           0       -1.387701   -1.546629   -0.165590
      5          1           0       -1.745840    1.196381   -1.675680
      6          1           0       -0.365250   -0.636899   -1.745840
      7          6           0       -3.742541   -2.000729    0.514100
      8          1           0       -3.316981   -2.986059    0.687470
      9          1           0       -4.164801   -1.611829    1.439990
     10          1           0       -4.532641   -2.066829   -0.233600
     11          7           0       -2.685901   -1.132849    0.047240
     12          8           0       -0.983601   -2.662659    0.034740
     13          8           0       -3.929680    0.775461   -0.070910
     14          6           0        0.742600   -0.236799    0.053340
     15          1           0        1.045249   -1.242589    0.351740
     16          6           0       -1.192080    2.017721    0.234870
     17          1           0       -2.125250    2.385601    0.667000
     18          6           0       -0.278770    1.616741    1.357420
     19          1           0       -0.323250    2.218491    2.259150
     20          6           0        0.591600    0.619761    1.278530
     21          1           0        1.248780    0.410411    2.114180
     22          6           0       -0.601220    3.182771   -0.564800
     23          1           0       -1.325520    3.553951   -1.292850
     24          1           0       -0.337770    4.008361    0.098960
     25          1           0        0.303030    2.889371   -1.100060
     26          6           0        1.830510    0.284171   -0.887410
     27          1           0        1.983010   -0.419929   -1.706080
     28          1           0        1.565420    1.258561   -1.293650
     29          6           0        3.907030   -0.543249   -0.096150
     30          6           0        5.134430   -0.161499    0.673750
     31          1           0        4.860170    0.062301    1.706390
     32          1           0        5.850159   -0.979010    0.657910
     33          1           0        5.582500    0.737651    0.250250
     34          8           0        3.685779   -1.630079   -0.559920
     35          8           0        3.066710    0.496891   -0.204410
 ---------------------------------------------------------------------
 Rotational constants (GHZ):      0.7556172      0.2662772      0.2157288
 General basis read from cards:  (5D, 7F)
 There are   822 symmetry adapted cartesian basis functions of A   symmetry.
 There are   732 symmetry adapted basis functions of A   symmetry.
   732 basis functions,  1126 primitive gaussians,   822 cartesian basis functions
    67 alpha electrons       67 beta electrons
       nuclear repulsion energy      1389.2889779034 Hartrees.
 NAtoms=   35 NActive=   35 NUniq=   35 SFac= 1.00D+00 NAtFMM=   60 NAOKFM=F Big=F
 Integral buffers will be    131072 words long.
 Raffenetti 2 integral format.
 Two-electron integral symmetry is turned on.
 Nuclear repulsion after empirical dispersion term =     1389.2607660385 Hartrees.
 Force inversion solution in PCM.
 ------------------------------------------------------------------------------
 Polarizable Continuum Model (PCM)
 =================================
 Model                : PCM (using non-symmetric T matrix).
 Atomic radii         : SMD-Coulomb.
 Polarization charges : Total charges.
 Charge compensation  : None.
 Solution method      : Matrix inversion.
 Cavity type          : VdW (van der Waals Surface) (Alpha=1.000).
 Cavity algorithm     : GePol (No added spheres)
                        Default sphere list used, NSphG=   35.
                        Lebedev-Laikov grids with approx.  5.0 points / Ang**2.
                        Smoothing algorithm: Karplus/York (Gamma=1.0000).
                        Polarization charges: spherical gaussians, with
                                              point-specific exponents (IZeta= 3).
                        Self-potential: point-specific (ISelfS= 7).
                        Self-field    : sphere-specific E.n sum rule (ISelfD= 2).
 1st derivatives      : Analytical E(r).r(x)/FMM algorithm (CHGder, D1EAlg=3).
                        Cavity 1st derivative terms included.
 2nd derivatives      : Analytical E(r).r(xy)/FMM algorithm (CHGder, D2EAlg=3).
                        Cavity 2nd derivative terms included.
 Solvent              : Toluene, Eps=   2.374100 Eps(inf)=   2.238315
 ------------------------------------------------------------------------------
 ------------------------------------------------------------------------------
 Atomic radii for non-electrostatic terms: SMD-CDS.
 ------------------------------------------------------------------------------
 Nuclear repulsion after PCM non-electrostatic terms =     1389.2507123143 Hartrees.
 One-electron integrals computed using PRISM.
 NBasis=   732 RedAO= T EigKep=  1.31D-06  NBF=   732
 NBsUse=   729 1.00D-06 EigRej=  7.15D-07 NBFU=   729
 ExpMin= 3.17D-02 ExpMax= 2.70D+04 ExpMxC= 9.22D+02 IAcc=3 IRadAn=         5 AccDes= 0.00D+00
 Harris functional with IExCor= 4639 and IRadAn=       5 diagonalized for initial guess.
 HarFok:  IExCor= 4639 AccDes= 0.00D+00 IRadAn=         5 IDoV= 1 UseB2=F ITyADJ=14
 ICtDFT=  3500011 ScaDFX=  1.000000  1.000000  1.000000  1.000000
 FoFCou: FMM=F IPFlag=           0 FMFlag=      100000 FMFlg1=           0
         NFxFlg=           0 DoJE=T BraDBF=F KetDBF=T FulRan=T
         wScrn=  0.000000 ICntrl=     500 IOpCl=  0 I1Cent=   200000004 NGrid=           0
         NMat0=    1 NMatS0=      1 NMatT0=    0 NMatD0=    1 NMtDS0=    0 NMtDT0=    0
 Petite list used in FoFCou.
 Requested convergence on RMS density matrix=1.00D-08 within 128 cycles.
 Requested convergence on MAX density matrix=1.00D-06.
 Requested convergence on             energy=1.00D-06.
 No special actions if energy rises.
 Inv3:  Mode=1 IEnd=    21547200.
 Iteration    1 A*A^-1 deviation from unit magnitude is 5.88D-15 for   1337.
 Iteration    1 A*A^-1 deviation from orthogonality  is 2.51D-15 for    709    468.
 Iteration    1 A^-1*A deviation from unit magnitude is 6.88D-15 for    325.
 Iteration    1 A^-1*A deviation from orthogonality  is 7.79D-14 for    835    783.
 Error on total polarization charges =  0.02090
 SCF Done:  E(RwB97XD) =  -861.394260438     A.U. after   14 cycles
            NFock= 14  Conv=0.75D-08     -V/T= 2.0047
 SMD-CDS (non-electrostatic) energy       (kcal/mol) =      -6.31
 (included in total energy above)
 DoSCS=F DFT=T ScalE2(SS,OS)=  1.000000  1.000000
 Range of M.O.s used for correlation:     1   729
 NBasis=   732 NAE=    67 NBE=    67 NFC=     0 NFV=     0
 NROrb=    729 NOA=    67 NOB=    67 NVA=   662 NVB=   662

 **** Warning!!: The largest alpha MO coefficient is  0.16223850D+03

 Symmetrizing basis deriv contribution to polar:
 IMax=3 JMax=2 DiffMx= 0.00D+00
 G2DrvN: will do    36 centers at a time, making    1 passes.
 Calling FoFCou, ICntrl=  3107 FMM=F I1Cent=   0 AccDes= 0.00D+00.
 NEqPCM:  Using equilibrium solvation (IEInf=0, Eps=   2.3741, EpsInf=   2.2383)
 G2PCM: DoFxE=T DoFxN=T DoGrad=T DoDP/DQ/DG/TGxP=FFFF NFrqRd=   0 IEInf=0 SqF1=F DoCFld=F IF1Alg=4.
 End of G2Drv F.D. properties file   721 does not exist.
 End of G2Drv F.D. properties file   722 does not exist.
 End of G2Drv F.D. properties file   788 does not exist.
          IDoAtm=11111111111111111111111111111111111
 NEqPCM:  Using equilibrium solvation (IEInf=0, Eps=   2.3741, EpsInf=   2.2383)
          Differentiating once with respect to electric field.
                with respect to dipole field.
          Differentiating once with respect to nuclear coordinates.
          There are   108 degrees of freedom in the 1st order CPHF.  IDoFFX=6 NUNeed=     3.
    105 vectors produced by pass  0 Test12= 4.44D-14 1.00D-09 XBig12= 7.31D+01 1.91D+00.
 AX will form   105 AO Fock derivatives at one time.
    105 vectors produced by pass  1 Test12= 4.44D-14 1.00D-09 XBig12= 1.13D+01 3.70D-01.
    105 vectors produced by pass  2 Test12= 4.44D-14 1.00D-09 XBig12= 3.32D-01 4.45D-02.
    105 vectors produced by pass  3 Test12= 4.44D-14 1.00D-09 XBig12= 3.90D-03 4.82D-03.
    105 vectors produced by pass  4 Test12= 4.44D-14 1.00D-09 XBig12= 3.95D-05 4.15D-04.
    105 vectors produced by pass  5 Test12= 4.44D-14 1.00D-09 XBig12= 2.64D-07 3.72D-05.
    105 vectors produced by pass  6 Test12= 4.44D-14 1.00D-09 XBig12= 1.72D-09 2.28D-06.
     48 vectors produced by pass  7 Test12= 4.44D-14 1.00D-09 XBig12= 1.27D-11 2.02D-07.
     37 vectors produced by pass  8 Test12= 4.44D-14 1.00D-09 XBig12= 1.13D-12 1.15D-07.
     37 vectors produced by pass  9 Test12= 4.44D-14 1.00D-09 XBig12= 7.11D-14 1.67D-08.
     33 vectors produced by pass 10 Test12= 4.44D-14 1.00D-09 XBig12= 9.39D-15 7.36D-09.
     33 vectors produced by pass 11 Test12= 4.44D-14 1.00D-09 XBig12= 1.18D-13 2.07D-08.
     33 vectors produced by pass 12 Test12= 4.44D-14 1.00D-09 XBig12= 9.22D-14 2.26D-08.
     25 vectors produced by pass 13 Test12= 4.44D-14 1.00D-09 XBig12= 5.22D-14 1.61D-08.
     23 vectors produced by pass 14 Test12= 4.44D-14 1.00D-09 XBig12= 4.23D-14 1.58D-08.
     21 vectors produced by pass 15 Test12= 4.44D-14 1.00D-09 XBig12= 4.68D-14 1.55D-08.
     21 vectors produced by pass 16 Test12= 4.44D-14 1.00D-09 XBig12= 4.15D-14 1.41D-08.
     20 vectors produced by pass 17 Test12= 4.44D-14 1.00D-09 XBig12= 3.28D-14 1.19D-08.
     18 vectors produced by pass 18 Test12= 4.44D-14 1.00D-09 XBig12= 2.77D-14 9.50D-09.
     13 vectors produced by pass 19 Test12= 4.44D-14 1.00D-09 XBig12= 2.09D-14 8.93D-09.
     13 vectors produced by pass 20 Test12= 4.44D-14 1.00D-09 XBig12= 3.14D-14 9.81D-09.
     13 vectors produced by pass 21 Test12= 4.44D-14 1.00D-09 XBig12= 2.33D-14 8.98D-09.
     13 vectors produced by pass 22 Test12= 4.44D-14 1.00D-09 XBig12= 2.52D-14 8.24D-09.
     12 vectors produced by pass 23 Test12= 4.44D-14 1.00D-09 XBig12= 2.99D-14 1.06D-08.
      6 vectors produced by pass 24 Test12= 4.44D-14 1.00D-09 XBig12= 1.55D-14 7.49D-09.
      6 vectors produced by pass 25 Test12= 4.44D-14 1.00D-09 XBig12= 2.46D-14 8.73D-09.
      6 vectors produced by pass 26 Test12= 4.44D-14 1.00D-09 XBig12= 2.07D-14 9.56D-09.
      5 vectors produced by pass 27 Test12= 4.44D-14 1.00D-09 XBig12= 2.07D-14 7.91D-09.
      4 vectors produced by pass 28 Test12= 4.44D-14 1.00D-09 XBig12= 1.45D-14 6.33D-09.
      4 vectors produced by pass 29 Test12= 4.44D-14 1.00D-09 XBig12= 1.24D-14 7.04D-09.
      4 vectors produced by pass 30 Test12= 4.44D-14 1.00D-09 XBig12= 1.61D-14 6.19D-09.
      4 vectors produced by pass 31 Test12= 4.44D-14 1.00D-09 XBig12= 2.49D-14 9.80D-09.
      4 vectors produced by pass 32 Test12= 4.44D-14 1.00D-09 XBig12= 1.94D-14 8.39D-09.
      4 vectors produced by pass 33 Test12= 4.44D-14 1.00D-09 XBig12= 1.71D-14 6.06D-09.
      4 vectors produced by pass 34 Test12= 4.44D-14 1.00D-09 XBig12= 1.40D-14 8.02D-09.
      4 vectors produced by pass 35 Test12= 4.44D-14 1.00D-09 XBig12= 1.09D-14 5.92D-09.
      4 vectors produced by pass 36 Test12= 4.44D-14 1.00D-09 XBig12= 8.15D-15 5.67D-09.
      4 vectors produced by pass 37 Test12= 4.44D-14 1.00D-09 XBig12= 6.50D-15 4.11D-09.
      4 vectors produced by pass 38 Test12= 4.44D-14 1.00D-09 XBig12= 1.24D-14 7.15D-09.
      4 vectors produced by pass 39 Test12= 4.44D-14 1.00D-09 XBig12= 1.45D-14 5.71D-09.
      4 vectors produced by pass 40 Test12= 4.44D-14 1.00D-09 XBig12= 2.18D-14 7.26D-09.
      4 vectors produced by pass 41 Test12= 4.44D-14 1.00D-09 XBig12= 8.90D-15 4.93D-09.
      4 vectors produced by pass 42 Test12= 4.44D-14 1.00D-09 XBig12= 1.83D-14 7.16D-09.
      4 vectors produced by pass 43 Test12= 4.44D-14 1.00D-09 XBig12= 6.77D-15 5.58D-09.
      4 vectors produced by pass 44 Test12= 4.44D-14 1.00D-09 XBig12= 1.33D-14 5.20D-09.
      4 vectors produced by pass 45 Test12= 4.44D-14 1.00D-09 XBig12= 1.70D-14 6.75D-09.
      4 vectors produced by pass 46 Test12= 4.44D-14 1.00D-09 XBig12= 9.23D-15 4.58D-09.
      4 vectors produced by pass 47 Test12= 4.44D-14 1.00D-09 XBig12= 2.00D-14 6.87D-09.
      4 vectors produced by pass 48 Test12= 4.44D-14 1.00D-09 XBig12= 8.58D-15 4.58D-09.
      4 vectors produced by pass 49 Test12= 4.44D-14 1.00D-09 XBig12= 1.04D-14 5.02D-09.
      4 vectors produced by pass 50 Test12= 4.44D-14 1.00D-09 XBig12= 2.21D-14 1.02D-08.
      3 vectors produced by pass 51 Test12= 4.44D-14 1.00D-09 XBig12= 4.26D-15 3.53D-09.
      1 vectors produced by pass 52 Test12= 4.44D-14 1.00D-09 XBig12= 2.85D-15 3.17D-09.
 InvSVY:  IOpt=1 It=  1 EMax= 1.42D-14
 Solved reduced A of dimension  1267 with   108 vectors.
 Isotropic polarizability for W=    0.000000      186.86 Bohr**3.
 End of Minotr F.D. properties file   721 does not exist.
 End of Minotr F.D. properties file   722 does not exist.
 End of Minotr F.D. properties file   788 does not exist.

 **********************************************************************

            Population analysis using the SCF density.

 **********************************************************************

 Orbital symmetries:
       Occupied  (A) (A) (A) (A) (A) (A) (A) (A) (A) (A) (A) (A)
                 (A) (A) (A) (A) (A) (A) (A) (A) (A) (A) (A) (A)
                 (A) (A) (A) (A) (A) (A) (A) (A) (A) (A) (A) (A)
                 (A) (A) (A) (A) (A) (A) (A) (A) (A) (A) (A) (A)
                 (A) (A) (A) (A) (A) (A) (A) (A) (A) (A) (A) (A)
                 (A) (A) (A) (A) (A) (A) (A)
       Virtual   (A) (A) (A) (A) (A) (A) (A) (A) (A) (A) (A) (A)
                 (A) (A) (A) (A) (A) (A) (A) (A) (A) (A) (A) (A)
                 (A) (A) (A) (A) (A) (A) (A) (A) (A) (A) (A) (A)
                 (A) (A) (A) (A) (A) (A) (A) (A) (A) (A) (A) (A)
                 (A) (A) (A) (A) (A) (A) (A) (A) (A) (A) (A) (A)
                 (A) (A) (A) (A) (A) (A) (A) (A) (A) (A) (A) (A)
                 (A) (A) (A) (A) (A) (A) (A) (A) (A) (A) (A) (A)
                 (A) (A) (A) (A) (A) (A) (A) (A) (A) (A) (A) (A)
                 (A) (A) (A) (A) (A) (A) (A) (A) (A) (A) (A) (A)
                 (A) (A) (A) (A) (A) (A) (A) (A) (A) (A) (A) (A)
                 (A) (A) (A) (A) (A) (A) (A) (A) (A) (A) (A) (A)
                 (A) (A) (A) (A) (A) (A) (A) (A) (A) (A) (A) (A)
                 (A) (A) (A) (A) (A) (A) (A) (A) (A) (A) (A) (A)
                 (A) (A) (A) (A) (A) (A) (A) (A) (A) (A) (A) (A)
                 (A) (A) (A) (A) (A) (A) (A) (A) (A) (A) (A) (A)
                 (A) (A) (A) (A) (A) (A) (A) (A) (A) (A) (A) (A)
                 (A) (A) (A) (A) (A) (A) (A) (A) (A) (A) (A) (A)
                 (A) (A) (A) (A) (A) (A) (A) (A) (A) (A) (A) (A)
                 (A) (A) (A) (A) (A) (A) (A) (A) (A) (A) (A) (A)
                 (A) (A) (A) (A) (A) (A) (A) (A) (A) (A) (A) (A)
                 (A) (A) (A) (A) (A) (A) (A) (A) (A) (A) (A) (A)
                 (A) (A) (A) (A) (A) (A) (A) (A) (A) (A) (A) (A)
                 (A) (A) (A) (A) (A) (A) (A) (A) (A) (A) (A) (A)
                 (A) (A) (A) (A) (A) (A) (A) (A) (A) (A) (A) (A)
                 (A) (A) (A) (A) (A) (A) (A) (A) (A) (A) (A) (A)
                 (A) (A) (A) (A) (A) (A) (A) (A) (A) (A) (A) (A)
                 (A) (A) (A) (A) (A) (A) (A) (A) (A) (A) (A) (A)
                 (A) (A) (A) (A) (A) (A) (A) (A) (A) (A) (A) (A)
                 (A) (A) (A) (A) (A) (A) (A) (A) (A) (A) (A) (A)
                 (A) (A) (A) (A) (A) (A) (A) (A) (A) (A) (A) (A)
                 (A) (A) (A) (A) (A) (A) (A) (A) (A) (A) (A) (A)
                 (A) (A) (A) (A) (A) (A) (A) (A) (A) (A) (A) (A)
                 (A) (A) (A) (A) (A) (A) (A) (A) (A) (A) (A) (A)
                 (A) (A) (A) (A) (A) (A) (A) (A) (A) (A) (A) (A)
                 (A) (A) (A) (A) (A) (A) (A) (A) (A) (A) (A) (A)
                 (A) (A) (A) (A) (A) (A) (A) (A) (A) (A) (A) (A)
                 (A) (A) (A) (A) (A) (A) (A) (A) (A) (A) (A) (A)
                 (A) (A) (A) (A) (A) (A) (A) (A) (A) (A) (A) (A)
                 (A) (A) (A) (A) (A) (A) (A) (A) (A) (A) (A) (A)
                 (A) (A) (A) (A) (A) (A) (A) (A) (A) (A) (A) (A)
                 (A) (A) (A) (A) (A) (A) (A) (A) (A) (A) (A) (A)
                 (A) (A) (A) (A) (A) (A) (A) (A) (A) (A) (A) (A)
                 (A) (A) (A) (A) (A) (A) (A) (A) (A) (A) (A) (A)
                 (A) (A) (A) (A) (A) (A) (A) (A) (A) (A) (A) (A)
                 (A) (A) (A) (A) (A) (A) (A) (A) (A) (A) (A) (A)
                 (A) (A) (A) (A) (A) (A) (A) (A) (A) (A) (A) (A)
                 (A) (A) (A) (A) (A) (A) (A) (A) (A) (A) (A) (A)
                 (A) (A) (A) (A) (A) (A) (A) (A) (A) (A) (A) (A)
                 (A) (A) (A) (A) (A) (A) (A) (A) (A) (A) (A) (A)
                 (A) (A) (A) (A) (A) (A) (A) (A) (A) (A) (A) (A)
                 (A) (A) (A) (A) (A) (A) (A) (A) (A) (A) (A) (A)
                 (A) (A) (A) (A) (A) (A) (A) (A) (A) (A) (A) (A)
                 (A) (A) (A) (A) (A) (A) (A) (A) (A) (A) (A) (A)
                 (A) (A) (A) (A) (A) (A) (A) (A) (A) (A) (A) (A)
                 (A) (A) (A) (A) (A) (A) (A) (A) (A) (A) (A) (A)
                 (A) (A)
 The electronic state is 1-A.
 Alpha  occ. eigenvalues --  -19.29748 -19.23922 -19.23898 -19.23601 -14.49170
 Alpha  occ. eigenvalues --  -10.41659 -10.40438 -10.40253 -10.34236 -10.31747
 Alpha  occ. eigenvalues --  -10.31427 -10.31084 -10.30350 -10.30239 -10.28748
 Alpha  occ. eigenvalues --  -10.28617 -10.28496 -10.27728  -1.21525  -1.18033
 Alpha  occ. eigenvalues --   -1.15791  -1.12448  -1.06580  -0.96837  -0.90273
 Alpha  occ. eigenvalues --   -0.89272  -0.86128  -0.82745  -0.80221  -0.78891
 Alpha  occ. eigenvalues --   -0.74967  -0.71497  -0.71180  -0.66471  -0.64491
 Alpha  occ. eigenvalues --   -0.61584  -0.59966  -0.59613  -0.58287  -0.57737
 Alpha  occ. eigenvalues --   -0.57028  -0.56536  -0.55516  -0.53858  -0.53015
 Alpha  occ. eigenvalues --   -0.52452  -0.51715  -0.51096  -0.50870  -0.49834
 Alpha  occ. eigenvalues --   -0.48962  -0.48805  -0.48332  -0.46874  -0.46261
 Alpha  occ. eigenvalues --   -0.46061  -0.44978  -0.44483  -0.42448  -0.41768
 Alpha  occ. eigenvalues --   -0.39674  -0.39112  -0.37511  -0.36598  -0.36275
 Alpha  occ. eigenvalues --   -0.34610  -0.33558
 Alpha virt. eigenvalues --    0.04137   0.04890   0.04901   0.05201   0.05513
 Alpha virt. eigenvalues --    0.06695   0.06722   0.07062   0.07517   0.07701
 Alpha virt. eigenvalues --    0.08048   0.08407   0.08511   0.09330   0.09496
 Alpha virt. eigenvalues --    0.09873   0.10032   0.10514   0.10841   0.11160
 Alpha virt. eigenvalues --    0.11381   0.11548   0.12018   0.12681   0.12999
 Alpha virt. eigenvalues --    0.13382   0.13748   0.14321   0.14540   0.14671
 Alpha virt. eigenvalues --    0.14939   0.15250   0.15531   0.16028   0.16492
 Alpha virt. eigenvalues --    0.16854   0.17183   0.17505   0.17796   0.18114
 Alpha virt. eigenvalues --    0.18411   0.18686   0.19177   0.19436   0.19843
 Alpha virt. eigenvalues --    0.20017   0.20099   0.20681   0.20879   0.21208
 Alpha virt. eigenvalues --    0.21473   0.22272   0.22463   0.22800   0.23405
 Alpha virt. eigenvalues --    0.23544   0.23729   0.24080   0.24433   0.24676
 Alpha virt. eigenvalues --    0.25099   0.25227   0.25496   0.25723   0.26413
 Alpha virt. eigenvalues --    0.26588   0.26875   0.27105   0.27399   0.28128
 Alpha virt. eigenvalues --    0.28470   0.28875   0.28951   0.29149   0.29493
 Alpha virt. eigenvalues --    0.29942   0.30561   0.30596   0.30816   0.31097
 Alpha virt. eigenvalues --    0.31448   0.31790   0.32005   0.32197   0.32384
 Alpha virt. eigenvalues --    0.33039   0.33407   0.34008   0.34312   0.34680
 Alpha virt. eigenvalues --    0.34986   0.35742   0.36362   0.36653   0.37203
 Alpha virt. eigenvalues --    0.37628   0.38158   0.38457   0.39236   0.39598
 Alpha virt. eigenvalues --    0.39786   0.40792   0.40956   0.41563   0.41834
 Alpha virt. eigenvalues --    0.42543   0.43109   0.43623   0.44668   0.45042
 Alpha virt. eigenvalues --    0.45327   0.45916   0.46407   0.47341   0.47724
 Alpha virt. eigenvalues --    0.48529   0.48842   0.49456   0.49811   0.50686
 Alpha virt. eigenvalues --    0.51216   0.51475   0.52082   0.52482   0.52627
 Alpha virt. eigenvalues --    0.53255   0.53618   0.53818   0.54827   0.55340
 Alpha virt. eigenvalues --    0.55737   0.55834   0.56550   0.56844   0.57224
 Alpha virt. eigenvalues --    0.57734   0.58179   0.58651   0.59025   0.59302
 Alpha virt. eigenvalues --    0.59785   0.60322   0.60487   0.60798   0.61437
 Alpha virt. eigenvalues --    0.61588   0.61939   0.62858   0.63076   0.63833
 Alpha virt. eigenvalues --    0.64238   0.64347   0.64842   0.65820   0.66591
 Alpha virt. eigenvalues --    0.66954   0.67269   0.67760   0.68021   0.68437
 Alpha virt. eigenvalues --    0.68609   0.69653   0.69888   0.70761   0.71867
 Alpha virt. eigenvalues --    0.72344   0.73326   0.73363   0.74077   0.75353
 Alpha virt. eigenvalues --    0.76366   0.76964   0.77735   0.78389   0.78938
 Alpha virt. eigenvalues --    0.79879   0.80162   0.80983   0.81381   0.82079
 Alpha virt. eigenvalues --    0.83037   0.83198   0.83609   0.83764   0.85126
 Alpha virt. eigenvalues --    0.85699   0.87015   0.87187   0.87849   0.89938
 Alpha virt. eigenvalues --    0.90985   0.92425   0.93085   0.93902   0.95067
 Alpha virt. eigenvalues --    0.95127   0.95960   0.97115   0.97750   0.99489
 Alpha virt. eigenvalues --    1.00284   1.00529   1.01996   1.03317   1.03422
 Alpha virt. eigenvalues --    1.04641   1.05017   1.06037   1.07798   1.08805
 Alpha virt. eigenvalues --    1.09963   1.10808   1.11881   1.12866   1.13136
 Alpha virt. eigenvalues --    1.14246   1.15292   1.15898   1.16331   1.16692
 Alpha virt. eigenvalues --    1.17482   1.18004   1.19086   1.19619   1.20142
 Alpha virt. eigenvalues --    1.21587   1.21957   1.22923   1.23228   1.23472
 Alpha virt. eigenvalues --    1.24713   1.25225   1.26107   1.27606   1.28114
 Alpha virt. eigenvalues --    1.29845   1.31342   1.31704   1.34853   1.35027
 Alpha virt. eigenvalues --    1.35578   1.35860   1.36737   1.38776   1.39189
 Alpha virt. eigenvalues --    1.39947   1.40400   1.42521   1.43066   1.44419
 Alpha virt. eigenvalues --    1.46101   1.48461   1.49022   1.49599   1.50888
 Alpha virt. eigenvalues --    1.52211   1.53575   1.55089   1.56092   1.57081
 Alpha virt. eigenvalues --    1.58685   1.60323   1.61108   1.61346   1.61686
 Alpha virt. eigenvalues --    1.62706   1.64512   1.65415   1.65867   1.66367
 Alpha virt. eigenvalues --    1.66617   1.66978   1.67355   1.68687   1.68860
 Alpha virt. eigenvalues --    1.70168   1.70792   1.71266   1.72161   1.72929
 Alpha virt. eigenvalues --    1.73703   1.74114   1.74791   1.75524   1.75948
 Alpha virt. eigenvalues --    1.76968   1.78331   1.79126   1.79949   1.80202
 Alpha virt. eigenvalues --    1.80808   1.83147   1.85045   1.85405   1.86804
 Alpha virt. eigenvalues --    1.87212   1.87976   1.88843   1.90495   1.91220
 Alpha virt. eigenvalues --    1.91518   1.92857   1.93195   1.94343   1.94766
 Alpha virt. eigenvalues --    1.97563   1.98447   1.99895   2.00863   2.02475
 Alpha virt. eigenvalues --    2.03946   2.04205   2.05898   2.06858   2.07235
 Alpha virt. eigenvalues --    2.08914   2.10001   2.10542   2.11258   2.12614
 Alpha virt. eigenvalues --    2.13725   2.14368   2.15140   2.16057   2.17141
 Alpha virt. eigenvalues --    2.18312   2.18484   2.21331   2.21454   2.22243
 Alpha virt. eigenvalues --    2.23350   2.23813   2.24893   2.25685   2.26170
 Alpha virt. eigenvalues --    2.28437   2.29770   2.30937   2.32600   2.32887
 Alpha virt. eigenvalues --    2.33590   2.34850   2.35811   2.36512   2.37418
 Alpha virt. eigenvalues --    2.38293   2.39783   2.40093   2.42344   2.43014
 Alpha virt. eigenvalues --    2.43879   2.44090   2.44966   2.45243   2.46540
 Alpha virt. eigenvalues --    2.47473   2.48295   2.48938   2.49136   2.50814
 Alpha virt. eigenvalues --    2.51901   2.52748   2.53437   2.53761   2.54093
 Alpha virt. eigenvalues --    2.55321   2.56403   2.57086   2.57470   2.58758
 Alpha virt. eigenvalues --    2.60154   2.61523   2.62322   2.62648   2.63574
 Alpha virt. eigenvalues --    2.64613   2.65560   2.66268   2.68391   2.68470
 Alpha virt. eigenvalues --    2.69847   2.70484   2.71897   2.72480   2.73078
 Alpha virt. eigenvalues --    2.74112   2.75115   2.75808   2.77329   2.78018
 Alpha virt. eigenvalues --    2.79353   2.81259   2.81383   2.83886   2.84385
 Alpha virt. eigenvalues --    2.85313   2.86294   2.87328   2.88246   2.89225
 Alpha virt. eigenvalues --    2.89466   2.91492   2.92417   2.93269   2.94638
 Alpha virt. eigenvalues --    2.95163   2.96435   2.98122   2.98738   2.99254
 Alpha virt. eigenvalues --    2.99971   3.00666   3.01800   3.03032   3.04763
 Alpha virt. eigenvalues --    3.05560   3.06330   3.07438   3.07571   3.09689
 Alpha virt. eigenvalues --    3.10200   3.11624   3.12466   3.12664   3.13177
 Alpha virt. eigenvalues --    3.14308   3.14670   3.16493   3.17182   3.17739
 Alpha virt. eigenvalues --    3.18255   3.19034   3.20676   3.20976   3.21338
 Alpha virt. eigenvalues --    3.22124   3.22816   3.23654   3.24971   3.26395
 Alpha virt. eigenvalues --    3.26791   3.28219   3.29048   3.30055   3.30847
 Alpha virt. eigenvalues --    3.31729   3.31899   3.32846   3.34047   3.34741
 Alpha virt. eigenvalues --    3.35236   3.35482   3.36502   3.37905   3.38433
 Alpha virt. eigenvalues --    3.39072   3.39686   3.40893   3.41314   3.42026
 Alpha virt. eigenvalues --    3.42384   3.43891   3.43941   3.45447   3.46092
 Alpha virt. eigenvalues --    3.46529   3.47443   3.47553   3.48939   3.49265
 Alpha virt. eigenvalues --    3.49802   3.50439   3.51048   3.52194   3.52474
 Alpha virt. eigenvalues --    3.52963   3.54713   3.55209   3.56501   3.56853
 Alpha virt. eigenvalues --    3.57362   3.58425   3.59199   3.60109   3.60971
 Alpha virt. eigenvalues --    3.61677   3.62342   3.64984   3.65193   3.67285
 Alpha virt. eigenvalues --    3.67682   3.68271   3.69782   3.70274   3.71539
 Alpha virt. eigenvalues --    3.73002   3.73195   3.75107   3.76612   3.77082
 Alpha virt. eigenvalues --    3.78439   3.79397   3.80001   3.81217   3.82399
 Alpha virt. eigenvalues --    3.85998   3.86415   3.87069   3.87918   3.89998
 Alpha virt. eigenvalues --    3.90754   3.91691   3.93312   3.94664   3.96516
 Alpha virt. eigenvalues --    3.97992   3.99747   4.00330   4.01324   4.01585
 Alpha virt. eigenvalues --    4.05056   4.05895   4.06907   4.08255   4.09563
 Alpha virt. eigenvalues --    4.12315   4.13434   4.15661   4.18207   4.18558
 Alpha virt. eigenvalues --    4.18843   4.22500   4.23653   4.25016   4.26271
 Alpha virt. eigenvalues --    4.28465   4.28970   4.29911   4.31502   4.32121
 Alpha virt. eigenvalues --    4.32842   4.35474   4.38526   4.41952   4.42527
 Alpha virt. eigenvalues --    4.45498   4.46072   4.48184   4.48768   4.49473
 Alpha virt. eigenvalues --    4.50255   4.51777   4.52680   4.56231   4.56657
 Alpha virt. eigenvalues --    4.58605   4.59621   4.61812   4.64455   4.65499
 Alpha virt. eigenvalues --    4.66042   4.69359   4.69869   4.70517   4.74086
 Alpha virt. eigenvalues --    4.75558   4.80366   4.81965   4.85121   4.87144
 Alpha virt. eigenvalues --    4.90370   4.91750   4.93378   4.94059   4.96881
 Alpha virt. eigenvalues --    4.98461   5.00716   5.05122   5.07589   5.08445
 Alpha virt. eigenvalues --    5.10431   5.14489   5.17972   5.19068   5.21538
 Alpha virt. eigenvalues --    5.23898   5.26206   5.26790   5.27042   5.29264
 Alpha virt. eigenvalues --    5.29405   5.35368   5.37088   5.38041   5.40495
 Alpha virt. eigenvalues --    5.40663   5.50442   5.51903   5.52931   5.53677
 Alpha virt. eigenvalues --    5.60089   5.68976   5.73330   5.74046   5.75232
 Alpha virt. eigenvalues --    5.82966   5.83976   5.85313   5.88816   5.95485
 Alpha virt. eigenvalues --    5.99780   6.10551   6.17467   6.18358   6.28968
 Alpha virt. eigenvalues --    6.29393   6.31369   6.32663   6.46692   6.47181
 Alpha virt. eigenvalues --    6.48605   6.51987   6.53925   6.59514   6.63193
 Alpha virt. eigenvalues --    6.66706   6.68463   6.77617   6.81656   6.84884
 Alpha virt. eigenvalues --    6.91384   6.95187   6.97505   6.99402   7.02148
 Alpha virt. eigenvalues --    7.05423   7.17490   7.19738   7.23583   7.29016
 Alpha virt. eigenvalues --    7.29288   7.29899   7.40205   7.53562  22.49544
 Alpha virt. eigenvalues --   22.52773  22.56544  22.64219  22.73887  22.77475
 Alpha virt. eigenvalues --   22.82292  22.96355  23.00055  23.10755  23.43309
 Alpha virt. eigenvalues --   23.49461  23.77553  33.05574  44.09500  44.21021
 Alpha virt. eigenvalues --   44.35649  44.39231
          Condensed to atoms (all electrons):
               1          2          3          4          5          6
     1  C    5.920581  -0.080146  -0.437513  -0.364458  -0.048853  -0.013806
     2  C   -0.080146   7.354608   1.350327  -0.250862   0.422417  -0.025542
     3  C   -0.437513   1.350327   6.929378  -0.097734  -0.021369   0.422807
     4  C   -0.364458  -0.250862  -0.097734   6.014348  -0.011268  -0.028811
     5  H   -0.048853   0.422417  -0.021369  -0.011268   0.542648  -0.009682
     6  H   -0.013806  -0.025542   0.422807  -0.028811  -0.009682   0.537239
     7  C   -0.047832  -0.033578  -0.011268  -0.091876   0.001293   0.001091
     8  H   -0.019737   0.015714   0.044232  -0.001612   0.000004  -0.000093
     9  H    0.028475   0.013939  -0.014286  -0.014437  -0.000063  -0.000027
    10  H   -0.006091  -0.024372  -0.004541  -0.013973   0.000167   0.000108
    11  N    0.434469  -0.547078  -0.545012   0.362856   0.007042   0.004222
    12  O    0.029826  -0.023539  -0.201909   0.475968  -0.000306   0.002672
    13  O    0.404570  -0.128481   0.001871   0.040453   0.003512   0.000111
    14  C   -0.083549  -1.278429  -0.683935   0.366223   0.004258  -0.033226
    15  H   -0.014241   0.001702   0.020152   0.021726  -0.000213  -0.002490
    16  C    0.306695  -1.179725  -0.898208  -0.070740  -0.016416   0.009027
    17  H    0.010717  -0.010035  -0.000591  -0.011302  -0.000243  -0.000267
    18  C   -0.065535   0.399156   0.219372  -0.074409  -0.012484   0.000026
    19  H   -0.003930  -0.006477   0.004474   0.003880  -0.000180   0.000042
    20  C    0.090080  -0.108481  -0.143530  -0.187638   0.001466  -0.005371
    21  H    0.001888   0.006589   0.008443  -0.002790   0.000043  -0.000145
    22  C   -0.269740  -0.150098   0.117283   0.132809   0.000004   0.003120
    23  H   -0.040127  -0.104348   0.000145   0.008447   0.000727  -0.000080
    24  H    0.004416   0.040907   0.001424   0.002209   0.000499   0.000000
    25  H    0.013693   0.080468   0.001195  -0.012890  -0.002716   0.000263
    26  C    0.105451   0.259630  -0.175269  -0.249115   0.004490  -0.000554
    27  H    0.000612   0.010818   0.009271  -0.012418  -0.000015  -0.000176
    28  H    0.004806  -0.008076  -0.013815  -0.004068  -0.000120  -0.001887
    29  C   -0.009179   0.026210   0.060151  -0.044773  -0.000229   0.000764
    30  C   -0.001971  -0.012857  -0.005838   0.010209   0.000125   0.000118
    31  H   -0.000049   0.000394  -0.001199  -0.000087   0.000000   0.000000
    32  H   -0.000038  -0.000198   0.001585   0.000134   0.000000   0.000000
    33  H    0.000078   0.000273  -0.002550  -0.000595   0.000000   0.000001
    34  O    0.000353  -0.007286  -0.001634   0.020422  -0.000002  -0.000097
    35  O    0.008531   0.019943  -0.004066  -0.032616  -0.000418   0.002830
               7          8          9         10         11         12
     1  C   -0.047832  -0.019737   0.028475  -0.006091   0.434469   0.029826
     2  C   -0.033578   0.015714   0.013939  -0.024372  -0.547078  -0.023539
     3  C   -0.011268   0.044232  -0.014286  -0.004541  -0.545012  -0.201909
     4  C   -0.091876  -0.001612  -0.014437  -0.013973   0.362856   0.475968
     5  H    0.001293   0.000004  -0.000063   0.000167   0.007042  -0.000306
     6  H    0.001091  -0.000093  -0.000027   0.000108   0.004222   0.002672
     7  C    5.058518   0.409015   0.416050   0.426120   0.262424  -0.024388
     8  H    0.409015   0.475120  -0.018039  -0.017921  -0.075214   0.004566
     9  H    0.416050  -0.018039   0.497578  -0.027204  -0.043441  -0.000128
    10  H    0.426120  -0.017921  -0.027204   0.503437  -0.017939   0.002902
    11  N    0.262424  -0.075214  -0.043441  -0.017939   7.035633  -0.108141
    12  O   -0.024388   0.004566  -0.000128   0.002902  -0.108141   8.270312
    13  O   -0.000342   0.001379  -0.002023  -0.004151  -0.106521  -0.002928
    14  C    0.002679  -0.001202   0.000484   0.002601   0.121141   0.047104
    15  H   -0.000154  -0.000020   0.000000   0.000002  -0.000945  -0.001392
    16  C   -0.006498  -0.003381  -0.011007   0.012194   0.152169   0.006257
    17  H   -0.000779   0.000001   0.000004  -0.000015  -0.000860   0.000006
    18  C   -0.002653   0.001644   0.001048  -0.002574  -0.011708   0.002107
    19  H    0.000127   0.000001  -0.000002   0.000000   0.000876  -0.000034
    20  C    0.003077   0.000761  -0.001641   0.000283   0.052057   0.015405
    21  H    0.000278   0.000000   0.000002   0.000000   0.001210   0.000043
    22  C    0.000156  -0.000226  -0.000342   0.000866  -0.023402  -0.002498
    23  H    0.000214   0.000000   0.000000   0.000000   0.001144  -0.000045
    24  H    0.000074   0.000000   0.000000   0.000000   0.000297  -0.000017
    25  H   -0.000300   0.000000   0.000000   0.000000  -0.001738   0.000111
    26  C    0.010909   0.000777   0.000722  -0.000791  -0.022881  -0.012699
    27  H    0.000013   0.000000   0.000000   0.000000   0.000097   0.001317
    28  H   -0.000030   0.000000   0.000000   0.000000  -0.000662  -0.000531
    29  C   -0.000418   0.000159   0.000021  -0.000027  -0.003511  -0.002169
    30  C   -0.000199  -0.000007  -0.000001   0.000003   0.001263   0.001023
    31  H    0.000002   0.000000   0.000000   0.000000  -0.000001  -0.000014
    32  H   -0.000002   0.000000   0.000000   0.000000   0.000001   0.000000
    33  H    0.000001   0.000000   0.000000   0.000000   0.000000   0.000004
    34  O    0.000158  -0.000002   0.000000   0.000000   0.000662   0.000171
    35  O   -0.000114   0.000000   0.000005  -0.000002  -0.000887  -0.000504
              13         14         15         16         17         18
     1  C    0.404570  -0.083549  -0.014241   0.306695   0.010717  -0.065535
     2  C   -0.128481  -1.278429   0.001702  -1.179725  -0.010035   0.399156
     3  C    0.001871  -0.683935   0.020152  -0.898208  -0.000591   0.219372
     4  C    0.040453   0.366223   0.021726  -0.070740  -0.011302  -0.074409
     5  H    0.003512   0.004258  -0.000213  -0.016416  -0.000243  -0.012484
     6  H    0.000111  -0.033226  -0.002490   0.009027  -0.000267   0.000026
     7  C   -0.000342   0.002679  -0.000154  -0.006498  -0.000779  -0.002653
     8  H    0.001379  -0.001202  -0.000020  -0.003381   0.000001   0.001644
     9  H   -0.002023   0.000484   0.000000  -0.011007   0.000004   0.001048
    10  H   -0.004151   0.002601   0.000002   0.012194  -0.000015  -0.002574
    11  N   -0.106521   0.121141  -0.000945   0.152169  -0.000860  -0.011708
    12  O   -0.002928   0.047104  -0.001392   0.006257   0.000006   0.002107
    13  O    8.266129   0.004812  -0.000035  -0.007470  -0.001556  -0.001655
    14  C    0.004812   7.337799   0.487686   0.945063  -0.018437  -0.536083
    15  H   -0.000035   0.487686   0.493745  -0.012503   0.000032   0.005295
    16  C   -0.007470   0.945063  -0.012503   6.969742   0.476747  -0.332459
    17  H   -0.001556  -0.018437   0.000032   0.476747   0.546310  -0.056904
    18  C   -0.001655  -0.536083   0.005295  -0.332459  -0.056904   5.630345
    19  H   -0.000083   0.027897   0.000056  -0.054404  -0.006265   0.418248
    20  C    0.003450  -0.150232  -0.076442  -0.043497   0.012868   0.663412
    21  H    0.000028  -0.055725  -0.006367   0.000273   0.000046  -0.038427
    22  C   -0.003124   0.167942   0.005618  -0.011308  -0.073707  -0.034036
    23  H    0.002310   0.030863   0.000003  -0.035974  -0.003859   0.014375
    24  H    0.000558  -0.013405  -0.000002  -0.086523  -0.004878  -0.016147
    25  H   -0.001196  -0.066715   0.000060  -0.060921   0.005393   0.029945
    26  C   -0.002485  -0.430958  -0.077485  -0.069313   0.008280  -0.066764
    27  H   -0.000008  -0.095880  -0.002572  -0.006069   0.000008   0.001457
    28  H   -0.000047  -0.035400   0.003581   0.022980   0.000156   0.013894
    29  C    0.000071  -0.174589   0.002109  -0.031946   0.000109   0.011493
    30  C    0.000011   0.090105  -0.003066   0.014494  -0.000022  -0.003880
    31  H    0.000000  -0.005631  -0.000065  -0.001319   0.000000  -0.001661
    32  H    0.000000   0.010514  -0.000011   0.000134   0.000000  -0.000487
    33  H    0.000000  -0.013848  -0.000022   0.000514   0.000000   0.001294
    34  O    0.000004  -0.001130   0.002542   0.001326  -0.000003  -0.000341
    35  O   -0.000009  -0.056458  -0.016335  -0.030029  -0.000169   0.002063
              19         20         21         22         23         24
     1  C   -0.003930   0.090080   0.001888  -0.269740  -0.040127   0.004416
     2  C   -0.006477  -0.108481   0.006589  -0.150098  -0.104348   0.040907
     3  C    0.004474  -0.143530   0.008443   0.117283   0.000145   0.001424
     4  C    0.003880  -0.187638  -0.002790   0.132809   0.008447   0.002209
     5  H   -0.000180   0.001466   0.000043   0.000004   0.000727   0.000499
     6  H    0.000042  -0.005371  -0.000145   0.003120  -0.000080   0.000000
     7  C    0.000127   0.003077   0.000278   0.000156   0.000214   0.000074
     8  H    0.000001   0.000761   0.000000  -0.000226   0.000000   0.000000
     9  H   -0.000002  -0.001641   0.000002  -0.000342   0.000000   0.000000
    10  H    0.000000   0.000283   0.000000   0.000866   0.000000   0.000000
    11  N    0.000876   0.052057   0.001210  -0.023402   0.001144   0.000297
    12  O   -0.000034   0.015405   0.000043  -0.002498  -0.000045  -0.000017
    13  O   -0.000083   0.003450   0.000028  -0.003124   0.002310   0.000558
    14  C    0.027897  -0.150232  -0.055725   0.167942   0.030863  -0.013405
    15  H    0.000056  -0.076442  -0.006367   0.005618   0.000003  -0.000002
    16  C   -0.054404  -0.043497   0.000273  -0.011308  -0.035974  -0.086523
    17  H   -0.006265   0.012868   0.000046  -0.073707  -0.003859  -0.004878
    18  C    0.418248   0.663412  -0.038427  -0.034036   0.014375  -0.016147
    19  H    0.483674  -0.030020  -0.006831  -0.003510  -0.000091   0.000242
    20  C   -0.030020   5.622324   0.434042  -0.108333   0.003613  -0.009087
    21  H   -0.006831   0.434042   0.492770   0.003543   0.000021  -0.000030
    22  C   -0.003510  -0.108333   0.003543   5.506231   0.505825   0.450230
    23  H   -0.000091   0.003613   0.000021   0.505825   0.513777  -0.015416
    24  H    0.000242  -0.009087  -0.000030   0.450230  -0.015416   0.511497
    25  H    0.000400   0.020010  -0.000083   0.332206  -0.028002  -0.020747
    26  C    0.001735   0.166291  -0.000235  -0.114852  -0.008349   0.001607
    27  H    0.000015  -0.002721  -0.000123   0.001908  -0.000001  -0.000003
    28  H    0.000001   0.021544   0.000132  -0.017303   0.000008  -0.000039
    29  C    0.000517   0.018297  -0.002478   0.004737   0.000460   0.000236
    30  C   -0.000316  -0.018249   0.000168   0.000984   0.000006  -0.000066
    31  H    0.000000  -0.000919   0.000182  -0.000047   0.000000   0.000000
    32  H    0.000000  -0.001774  -0.000008   0.000070   0.000000   0.000000
    33  H    0.000000   0.002425   0.000023  -0.000261   0.000000   0.000000
    34  O    0.000002   0.000529   0.000324   0.000779   0.000001  -0.000004
    35  O    0.000713  -0.026337  -0.001017  -0.002103   0.000028   0.000483
              25         26         27         28         29         30
     1  C    0.013693   0.105451   0.000612   0.004806  -0.009179  -0.001971
     2  C    0.080468   0.259630   0.010818  -0.008076   0.026210  -0.012857
     3  C    0.001195  -0.175269   0.009271  -0.013815   0.060151  -0.005838
     4  C   -0.012890  -0.249115  -0.012418  -0.004068  -0.044773   0.010209
     5  H   -0.002716   0.004490  -0.000015  -0.000120  -0.000229   0.000125
     6  H    0.000263  -0.000554  -0.000176  -0.001887   0.000764   0.000118
     7  C   -0.000300   0.010909   0.000013  -0.000030  -0.000418  -0.000199
     8  H    0.000000   0.000777   0.000000   0.000000   0.000159  -0.000007
     9  H    0.000000   0.000722   0.000000   0.000000   0.000021  -0.000001
    10  H    0.000000  -0.000791   0.000000   0.000000  -0.000027   0.000003
    11  N   -0.001738  -0.022881   0.000097  -0.000662  -0.003511   0.001263
    12  O    0.000111  -0.012699   0.001317  -0.000531  -0.002169   0.001023
    13  O   -0.001196  -0.002485  -0.000008  -0.000047   0.000071   0.000011
    14  C   -0.066715  -0.430958  -0.095880  -0.035400  -0.174589   0.090105
    15  H    0.000060  -0.077485  -0.002572   0.003581   0.002109  -0.003066
    16  C   -0.060921  -0.069313  -0.006069   0.022980  -0.031946   0.014494
    17  H    0.005393   0.008280   0.000008   0.000156   0.000109  -0.000022
    18  C    0.029945  -0.066764   0.001457   0.013894   0.011493  -0.003880
    19  H    0.000400   0.001735   0.000015   0.000001   0.000517  -0.000316
    20  C    0.020010   0.166291  -0.002721   0.021544   0.018297  -0.018249
    21  H   -0.000083  -0.000235  -0.000123   0.000132  -0.002478   0.000168
    22  C    0.332206  -0.114852   0.001908  -0.017303   0.004737   0.000984
    23  H   -0.028002  -0.008349  -0.000001   0.000008   0.000460   0.000006
    24  H   -0.020747   0.001607  -0.000003  -0.000039   0.000236  -0.000066
    25  H    0.550775   0.033465   0.000404   0.006030  -0.001562  -0.000324
    26  C    0.033465   5.976767   0.446261   0.400877   0.052606  -0.064758
    27  H    0.000404   0.446261   0.501197  -0.024223   0.016471   0.002584
    28  H    0.006030   0.400877  -0.024223   0.547064   0.003400  -0.004334
    29  C   -0.001562   0.052606   0.016471   0.003400   5.301988  -0.043655
    30  C   -0.000324  -0.064758   0.002584  -0.004334  -0.043655   5.240325
    31  H    0.000000   0.010474  -0.000049  -0.000033  -0.006445   0.383610
    32  H    0.000000  -0.003915   0.000061   0.000007  -0.122010   0.486082
    33  H    0.000001  -0.000796   0.000015  -0.000084  -0.009000   0.401546
    34  O   -0.000087   0.018736   0.000950   0.005019   0.453623  -0.058517
    35  O   -0.000858   0.214133  -0.020632  -0.064777   0.122654  -0.035007
              31         32         33         34         35
     1  C   -0.000049  -0.000038   0.000078   0.000353   0.008531
     2  C    0.000394  -0.000198   0.000273  -0.007286   0.019943
     3  C   -0.001199   0.001585  -0.002550  -0.001634  -0.004066
     4  C   -0.000087   0.000134  -0.000595   0.020422  -0.032616
     5  H    0.000000   0.000000   0.000000  -0.000002  -0.000418
     6  H    0.000000   0.000000   0.000001  -0.000097   0.002830
     7  C    0.000002  -0.000002   0.000001   0.000158  -0.000114
     8  H    0.000000   0.000000   0.000000  -0.000002   0.000000
     9  H    0.000000   0.000000   0.000000   0.000000   0.000005
    10  H    0.000000   0.000000   0.000000   0.000000  -0.000002
    11  N   -0.000001   0.000001   0.000000   0.000662  -0.000887
    12  O   -0.000014   0.000000   0.000004   0.000171  -0.000504
    13  O    0.000000   0.000000   0.000000   0.000004  -0.000009
    14  C   -0.005631   0.010514  -0.013848  -0.001130  -0.056458
    15  H   -0.000065  -0.000011  -0.000022   0.002542  -0.016335
    16  C   -0.001319   0.000134   0.000514   0.001326  -0.030029
    17  H    0.000000   0.000000   0.000000  -0.000003  -0.000169
    18  C   -0.001661  -0.000487   0.001294  -0.000341   0.002063
    19  H    0.000000   0.000000   0.000000   0.000002   0.000713
    20  C   -0.000919  -0.001774   0.002425   0.000529  -0.026337
    21  H    0.000182  -0.000008   0.000023   0.000324  -0.001017
    22  C   -0.000047   0.000070  -0.000261   0.000779  -0.002103
    23  H    0.000000   0.000000   0.000000   0.000001   0.000028
    24  H    0.000000   0.000000   0.000000  -0.000004   0.000483
    25  H    0.000000   0.000000   0.000001  -0.000087  -0.000858
    26  C    0.010474  -0.003915  -0.000796   0.018736   0.214133
    27  H   -0.000049   0.000061   0.000015   0.000950  -0.020632
    28  H   -0.000033   0.000007  -0.000084   0.005019  -0.064777
    29  C   -0.006445  -0.122010  -0.009000   0.453623   0.122654
    30  C    0.383610   0.486082   0.401546  -0.058517  -0.035007
    31  H    0.494629  -0.017345  -0.021758  -0.002979  -0.000140
    32  H   -0.017345   0.481003  -0.017749  -0.004880   0.016885
    33  H   -0.021758  -0.017749   0.495401   0.002806  -0.007953
    34  O   -0.002979  -0.004880   0.002806   8.157713  -0.172654
    35  O   -0.000140   0.016885  -0.007953  -0.172654   8.357718
 Mulliken charges:
               1
     1  C    0.141553
     2  C   -0.023487
     3  C    0.072156
     4  C    0.118788
     5  H    0.135882
     6  H    0.137814
     7  C   -0.371764
     8  H    0.184081
     9  H    0.174312
    10  H    0.170920
    11  N    0.072378
    12  O   -0.478551
    13  O   -0.467155
    14  C    0.087662
    15  H    0.170052
    16  C    0.052095
    17  H    0.129217
    18  C   -0.156967
    19  H    0.169242
    20  C   -0.217662
    21  H    0.164209
    22  C   -0.419420
    23  H    0.154327
    24  H    0.151685
    25  H    0.123719
    26  C   -0.411992
    27  H    0.171431
    28  H    0.145931
    29  C    0.375915
    30  C   -0.379587
    31  H    0.170450
    32  H    0.171937
    33  H    0.170233
    34  O   -0.416506
    35  O   -0.272899
 Sum of Mulliken charges =   0.00000
 Mulliken charges with hydrogens summed into heavy atoms:
               1
     1  C    0.141553
     2  C    0.112396
     3  C    0.209970
     4  C    0.118788
     7  C    0.157549
    11  N    0.072378
    12  O   -0.478551
    13  O   -0.467155
    14  C    0.257714
    16  C    0.181311
    18  C    0.012275
    20  C   -0.053453
    22  C    0.010311
    26  C   -0.094630
    29  C    0.375915
    30  C    0.133034
    34  O   -0.416506
    35  O   -0.272899
 APT charges:
               1
     1  C    1.253528
     2  C   -0.100205
     3  C   -0.071907
     4  C    1.248278
     5  H    0.005560
     6  H    0.008142
     7  C    0.304079
     8  H    0.059037
     9  H    0.004737
    10  H    0.001475
    11  N   -1.042038
    12  O   -0.913904
    13  O   -0.925266
    14  C    0.047253
    15  H    0.019591
    16  C    0.124427
    17  H   -0.008417
    18  C   -0.022920
    19  H    0.025084
    20  C   -0.058894
    21  H    0.031617
    22  C    0.056872
    23  H   -0.023739
    24  H   -0.013821
    25  H   -0.012155
    26  C    0.558580
    27  H   -0.012671
    28  H   -0.014904
    29  C    1.373933
    30  C   -0.110759
    31  H    0.040556
    32  H    0.027426
    33  H    0.037735
    34  O   -0.837988
    35  O   -1.058322
 Sum of APT charges =   0.00000
 APT charges with hydrogens summed into heavy atoms:
               1
     1  C    1.253528
     2  C   -0.094644
     3  C   -0.063765
     4  C    1.248278
     7  C    0.369328
    11  N   -1.042038
    12  O   -0.913904
    13  O   -0.925266
    14  C    0.066844
    16  C    0.116010
    18  C    0.002165
    20  C   -0.027277
    22  C    0.007157
    26  C    0.531005
    29  C    1.373933
    30  C   -0.005043
    34  O   -0.837988
    35  O   -1.058322
 Electronic spatial extent (au):  <R**2>=           5079.4246
 Charge=              0.0000 electrons
 Dipole moment (field-independent basis, Debye):
    X=              1.0714    Y=              3.2654    Z=              0.0525  Tot=              3.4371
 Quadrupole moment (field-independent basis, Debye-Ang):
   XX=           -108.2526   YY=           -116.4502   ZZ=            -99.5278
   XY=             14.4376   XZ=              4.9449   YZ=             -2.0530
 Traceless Quadrupole moment (field-independent basis, Debye-Ang):
   XX=             -0.1757   YY=             -8.3733   ZZ=              8.5491
   XY=             14.4376   XZ=              4.9449   YZ=             -2.0530
 Octapole moment (field-independent basis, Debye-Ang**2):
  XXX=            107.5899  YYY=             33.3965  ZZZ=             -3.4802  XYY=            -26.0859
  XXY=            -28.1608  XXZ=             27.4399  XZZ=              1.2583  YZZ=             -0.5733
  YYZ=              6.0021  XYZ=             -7.0714
 Hexadecapole moment (field-independent basis, Debye-Ang**3):
 XXXX=          -4419.4673 YYYY=          -1652.2260 ZZZZ=           -419.6809 XXXY=            294.5861
 XXXZ=             73.0695 YYYX=             29.1682 YYYZ=              0.0950 ZZZX=              4.6584
 ZZZY=              8.8005 XXYY=          -1063.3796 XXZZ=           -799.5797 YYZZ=           -325.2878
 XXYZ=            -46.2940 YYXZ=              1.7924 ZZXY=              3.2260
 N-N= 1.389250712314D+03 E-N=-4.789263737894D+03  KE= 8.573923074486D+02
  Exact polarizability: 213.811 -14.306 198.730   2.092  -0.027 148.028
 Approx polarizability: 185.593 -19.719 194.809   0.575   1.513 154.520
 D2PCM: PCM CHGder 2nd derivatives, FixD1E=F FixD2E=F DoIter=F DoCFld=F I1PDM=0
 Calling FoFJK, ICntrl=    100127 FMM=F ISym2X=0 I1Cent= 0 IOpClX= 0 NMat=1 NMatS=1 NMatT=0.
 Full mass-weighted force constant matrix:
 Low frequencies ---   -5.4544   -0.0010    0.0005    0.0007   13.5599   20.9690
 Low frequencies ---   24.4620   33.7809   56.5476
 Diagonal vibrational polarizability:
       54.1142222      35.4170293      68.2017290
 Harmonic frequencies (cm**-1), IR intensities (KM/Mole), Raman scattering
 activities (A**4/AMU), depolarization ratios for plane and unpolarized
 incident light, reduced masses (AMU), force constants (mDyne/A),
 and normal coordinates:
                      1                      2                      3
                      A                      A                      A
 Frequencies --     22.8247                32.9179                56.4880
 Red. masses --      7.3905                 5.4487                 7.9586
 Frc consts  --      0.0023                 0.0035                 0.0150
 IR Inten    --      0.1211                 0.6777                 1.7864
  Atom  AN      X      Y      Z        X      Y      Z        X      Y      Z
     1   6    -0.01   0.01  -0.16     0.01   0.03   0.03     0.01  -0.03  -0.05
     2   6     0.06  -0.03   0.00     0.02  -0.01   0.01     0.01   0.03   0.02
     3   6     0.01  -0.07   0.08    -0.03  -0.05  -0.04     0.04   0.05  -0.01
     4   6    -0.03   0.00   0.16    -0.06  -0.03  -0.05     0.09   0.04   0.03
     5   1     0.19   0.02  -0.01     0.01   0.03   0.02     0.03   0.08   0.03
     6   1    -0.02  -0.15   0.09    -0.07  -0.03  -0.06    -0.01   0.05  -0.02
     7   6    -0.12   0.08  -0.08    -0.05   0.06   0.02     0.09  -0.06  -0.05
     8   1    -0.19   0.05  -0.12    -0.08   0.05   0.04     0.12  -0.06  -0.08
     9   1    -0.12   0.06  -0.07    -0.04   0.09   0.01     0.07  -0.10  -0.04
    10   1    -0.11   0.17  -0.11    -0.06   0.06   0.02     0.09  -0.06  -0.05
    11   7    -0.06   0.03  -0.02    -0.03   0.02   0.00     0.06  -0.02  -0.02
    12   8    -0.06   0.02   0.33    -0.10  -0.05  -0.09     0.14   0.07   0.09
    13   8    -0.02   0.03  -0.34     0.04   0.07   0.07    -0.02  -0.08  -0.11
    14   6     0.03  -0.06   0.03     0.00  -0.11  -0.08     0.07   0.08  -0.07
    15   1     0.06  -0.06   0.00    -0.01  -0.12  -0.12     0.10   0.08  -0.11
    16   6     0.02  -0.08   0.09     0.09  -0.05   0.04    -0.03  -0.01   0.09
    17   1     0.01  -0.12   0.10     0.11  -0.03   0.07    -0.03  -0.08   0.14
    18   6     0.01  -0.11   0.08     0.10  -0.11   0.00     0.04  -0.01   0.03
    19   1     0.00  -0.14   0.10     0.14  -0.14   0.02     0.05  -0.04   0.05
    20   6     0.03  -0.10   0.06     0.07  -0.13  -0.05     0.10   0.04  -0.05
    21   1     0.03  -0.12   0.05     0.09  -0.18  -0.08     0.15   0.06  -0.09
    22   6     0.01  -0.01   0.18     0.11  -0.04   0.06    -0.11   0.06   0.14
    23   1     0.01   0.02   0.19     0.11   0.00   0.08    -0.14   0.07   0.17
    24   1    -0.02  -0.05   0.23     0.13  -0.06   0.08    -0.12   0.04   0.17
    25   1     0.02   0.04   0.17     0.10  -0.04   0.05    -0.11   0.12   0.10
    26   6    -0.02  -0.01   0.01    -0.03  -0.10  -0.12     0.01   0.12  -0.11
    27   1    -0.02   0.01  -0.01     0.01  -0.15  -0.07    -0.05   0.15  -0.15
    28   1    -0.07  -0.02   0.03    -0.11  -0.16  -0.20     0.00   0.14  -0.05
    29   6     0.04   0.06  -0.09    -0.02   0.10   0.06    -0.13  -0.06   0.03
    30   6     0.06   0.09  -0.13    -0.05   0.27   0.03    -0.05  -0.13  -0.06
    31   1     0.09   0.09  -0.12    -0.08   0.30   0.01     0.02  -0.08  -0.06
    32   1     0.08   0.11  -0.16     0.02   0.33   0.08    -0.13  -0.20  -0.06
    33   1     0.02   0.10  -0.15    -0.13   0.29  -0.02     0.01  -0.18  -0.11
    34   8     0.07   0.06  -0.11     0.02   0.01   0.26    -0.36  -0.13   0.29
    35   8    -0.01   0.03  -0.03    -0.04   0.06  -0.15     0.07   0.07  -0.20
                      4                      5                      6
                      A                      A                      A
 Frequencies --     71.0603                92.7184               124.0075
 Red. masses --      3.5194                 3.1050                 2.5159
 Frc consts  --      0.0105                 0.0157                 0.0228
 IR Inten    --      3.8121                 3.4182                 3.3960
  Atom  AN      X      Y      Z        X      Y      Z        X      Y      Z
     1   6     0.01   0.00  -0.02     0.00   0.01  -0.05     0.03   0.00   0.01
     2   6     0.00   0.00  -0.04     0.00   0.00  -0.06     0.02  -0.02  -0.05
     3   6     0.00  -0.01  -0.06     0.00   0.01  -0.06     0.02  -0.03  -0.03
     4   6     0.02   0.01   0.02     0.01   0.01  -0.05     0.02  -0.01   0.01
     5   1     0.00   0.03  -0.02     0.01   0.02  -0.06     0.00  -0.05  -0.06
     6   1    -0.05  -0.03  -0.06     0.03   0.01  -0.05     0.02  -0.06  -0.02
     7   6     0.05   0.04   0.15     0.08   0.07   0.23     0.00   0.01  -0.02
     8   1     0.08   0.07   0.25     0.16   0.15   0.53    -0.10  -0.11  -0.44
     9   1     0.05   0.13   0.11    -0.01   0.30   0.08     0.29  -0.24   0.22
    10   1     0.05  -0.07   0.16     0.13  -0.23   0.20    -0.19   0.37   0.15
    11   7     0.03   0.02   0.05     0.03   0.03   0.06     0.01  -0.01  -0.03
    12   8     0.03   0.02   0.05     0.00  -0.01  -0.11     0.02   0.00   0.09
    13   8     0.00   0.00  -0.05    -0.01  -0.01  -0.11     0.06   0.03   0.10
    14   6     0.02   0.00  -0.10    -0.02  -0.01  -0.01     0.00  -0.01  -0.02
    15   1     0.04  -0.01  -0.15    -0.02  -0.01  -0.04     0.04  -0.01  -0.07
    16   6     0.01  -0.03   0.00    -0.02  -0.02  -0.02     0.04  -0.01  -0.07
    17   1     0.02  -0.04   0.02    -0.04  -0.01  -0.07     0.03   0.03  -0.14
    18   6     0.02  -0.07  -0.02    -0.10  -0.07   0.02    -0.06  -0.07   0.00
    19   1     0.02  -0.11   0.01    -0.17  -0.13   0.06    -0.14  -0.12   0.03
    20   6     0.03  -0.06  -0.06    -0.09  -0.07   0.03    -0.08  -0.08   0.03
    21   1     0.03  -0.09  -0.08    -0.16  -0.12   0.07    -0.17  -0.15   0.08
    22   6     0.01   0.00   0.04     0.05  -0.01   0.04     0.13  -0.04  -0.05
    23   1     0.01   0.03   0.06     0.09   0.03   0.02     0.18  -0.02  -0.08
    24   1     0.01  -0.03   0.07     0.03  -0.04   0.09     0.12  -0.05  -0.04
    25   1     0.01   0.02   0.03     0.07   0.00   0.08     0.15  -0.05  -0.01
    26   6     0.00   0.04  -0.09     0.01   0.04   0.05    -0.02   0.09   0.02
    27   1     0.02   0.08  -0.12     0.02   0.08   0.02     0.00   0.15  -0.02
    28   1     0.00   0.06  -0.06     0.02   0.06   0.09    -0.03   0.11   0.08
    29   6    -0.04   0.01   0.00     0.00   0.00   0.02    -0.05   0.04   0.00
    30   6    -0.18  -0.07   0.26     0.08   0.00  -0.11    -0.02  -0.02  -0.03
    31   1    -0.37  -0.18   0.23     0.19   0.08  -0.10     0.02   0.02  -0.03
    32   1    -0.18  -0.07   0.30     0.05  -0.03  -0.12    -0.07  -0.07  -0.03
    33   1    -0.10  -0.03   0.43     0.08  -0.04  -0.21     0.03  -0.06  -0.06
    34   8     0.03   0.06  -0.14    -0.05   0.00   0.05    -0.11   0.06  -0.01
    35   8    -0.02   0.03  -0.04     0.00   0.01   0.08    -0.02   0.07   0.04
                      7                      8                      9
                      A                      A                      A
 Frequencies --    136.2202               142.0709               152.2733
 Red. masses --      1.6586                 3.2099                 1.0540
 Frc consts  --      0.0181                 0.0382                 0.0144
 IR Inten    --      0.4696                 6.1709                 0.1677
  Atom  AN      X      Y      Z        X      Y      Z        X      Y      Z
     1   6     0.03   0.00   0.01    -0.05   0.01   0.01     0.00   0.00   0.00
     2   6     0.04  -0.03   0.01    -0.07   0.05  -0.02     0.00   0.00   0.00
     3   6     0.02  -0.04   0.03    -0.04   0.07  -0.06     0.00  -0.01   0.00
     4   6     0.00  -0.03   0.01     0.01   0.06   0.00     0.00   0.00   0.00
     5   1     0.05  -0.05   0.00    -0.11   0.07   0.00     0.00   0.00   0.00
     6   1     0.04  -0.05   0.04    -0.08   0.06  -0.07     0.00  -0.01   0.00
     7   6    -0.03   0.00  -0.07     0.02  -0.06  -0.07    -0.01   0.00   0.00
     8   1     0.05   0.12   0.44     0.15   0.06   0.28    -0.01   0.00   0.00
     9   1    -0.39   0.30  -0.36    -0.23   0.13  -0.27    -0.01   0.01  -0.01
    10   1     0.22  -0.41  -0.30     0.18  -0.40  -0.21     0.00   0.01  -0.01
    11   7     0.00  -0.01  -0.02    -0.02  -0.01  -0.07     0.00   0.00   0.00
    12   8    -0.02  -0.04   0.02     0.09   0.12   0.15    -0.01  -0.01   0.00
    13   8     0.05   0.02   0.04    -0.05  -0.02   0.11     0.01   0.00   0.01
    14   6     0.02  -0.02   0.03    -0.03   0.04  -0.07     0.00  -0.01  -0.01
    15   1     0.06  -0.01   0.02    -0.08   0.02  -0.08     0.01  -0.01  -0.02
    16   6     0.04  -0.01  -0.02    -0.04   0.02  -0.01     0.00  -0.01   0.01
    17   1     0.04  -0.01  -0.02    -0.03   0.09  -0.06     0.00  -0.02   0.03
    18   6     0.03   0.01   0.00    -0.11  -0.06   0.02     0.02   0.00  -0.01
    19   1     0.03   0.03  -0.02    -0.17  -0.15   0.08     0.04   0.01  -0.01
    20   6     0.01  -0.02   0.03    -0.06  -0.01  -0.04     0.01  -0.01  -0.01
    21   1    -0.02  -0.02   0.05    -0.08  -0.06  -0.03     0.02   0.00  -0.02
    22   6     0.02  -0.01  -0.04     0.14  -0.04   0.04    -0.03   0.01   0.00
    23   1     0.00  -0.04  -0.04     0.23   0.05  -0.01    -0.05   0.00   0.02
    24   1     0.00   0.01  -0.06     0.19  -0.08   0.06    -0.03   0.01   0.00
    25   1     0.02   0.01  -0.05     0.14  -0.14   0.10    -0.04   0.03  -0.02
    26   6    -0.02   0.05   0.03     0.02  -0.04  -0.05     0.00   0.01   0.00
    27   1    -0.03   0.08  -0.01     0.03  -0.09  -0.01     0.01   0.02  -0.01
    28   1    -0.06   0.05   0.07     0.09  -0.05  -0.12     0.00   0.01   0.02
    29   6    -0.04   0.03  -0.01     0.03  -0.03   0.01    -0.01   0.00   0.01
    30   6    -0.03  -0.02  -0.01     0.02   0.03  -0.01     0.00   0.00   0.01
    31   1    -0.02  -0.06   0.00     0.01   0.15  -0.04    -0.05   0.58  -0.13
    32   1    -0.05  -0.04  -0.04     0.01   0.02   0.09    -0.22  -0.20   0.45
    33   1    -0.02  -0.01   0.03     0.05  -0.02  -0.10     0.29  -0.33  -0.38
    34   8    -0.08   0.05  -0.03     0.08  -0.04   0.02     0.01   0.01  -0.02
    35   8    -0.01   0.06   0.00     0.00  -0.05  -0.01     0.00   0.00   0.02
                     10                     11                     12
                      A                      A                      A
 Frequencies --    169.9455               208.0586               231.5717
 Red. masses --      3.8618                 3.3178                 4.7541
 Frc consts  --      0.0657                 0.0846                 0.1502
 IR Inten    --      5.4103                 2.7878                 0.4652
  Atom  AN      X      Y      Z        X      Y      Z        X      Y      Z
     1   6    -0.02  -0.01   0.03     0.07   0.00  -0.05     0.02   0.01  -0.05
     2   6    -0.01   0.02   0.08     0.07  -0.02  -0.06     0.04   0.05   0.01
     3   6     0.00   0.03   0.09     0.06  -0.03   0.03    -0.01   0.02  -0.02
[...]
 00003373,-0.00001534,0.00000685,0.00002291,0.00004231,-0.00000500,0.00
 000758,-0.00000071,-0.00000249,-0.00001047,-0.00000478,0.00000636,-0.0
 0000854,-0.00000538,0.00000058,-0.00016097,0.00002883,0.00004378,-0.00
 009952,-0.00002328,0.00003344,-0.00012462,0.00004501,0.00002161,-0.000
 99370,-0.00002729,-0.00076548,0.00021008,0.00011901,-0.00019151,0.0000
 1693,0.00000075,-0.00000150,-0.00001120,0.00001091,-0.00000573,-0.0000
 0038,0.00000237,0.00006368,-0.00001841,0.00001749,0.00001196,0.0000036
 1,0.00000067,-0.00016290,0.00003780,0.00001751,-0.00001145,-0.00001872
 ,-0.00000921,-0.00001498,-0.00000340,0.00001090,-0.00001382,0.00000159
 ,0.00000625,0.00000727,0.00000247,-0.00000652,0.00000407,0.00081830,-0
 .00106446,0.00520817,0.00043568,-0.00049566,0.00011244,0.00035723,0.00
 025573,0.00034908,-0.04823264,-0.00824000,-0.12111155,-0.02410488,-0.0
 0641063,0.52704367,0.00000174,-0.00001747,-0.00000173,0.00000090,-0.00
 001783,-0.00000425,-0.00006253,-0.00003835,0.00007424,0.00001743,0.000
 00927,-0.00004200,-0.00000050,0.00000404,0.00000339,0.00002205,0.00000
 073,0.00001014,-0.00000066,0.00000440,-0.00000061,0.00000077,-0.000000
 43,-0.00000158,-0.00000323,-0.00000038,0.00000062,-0.00000044,-0.00000
 076,0.00000096,-0.00002607,0.00000816,0.00001113,-0.00001585,0.0000023
 3,0.00001936,-0.00000929,0.00000949,0.00000525,-0.00016114,0.00003457,
 -0.00020928,0.00005354,-0.00000145,-0.00006378,-0.00001044,-0.00002996
 ,-0.00001064,0.00000480,0.00000030,0.00000835,0.00003357,0.00004063,0.
 00008217,-0.00000531,0.00001197,-0.00000089,-0.00001571,0.00000479,-0.
 00018815,-0.00004843,0.00000619,0.00009768,0.00002012,0.00000444,0.000
 00730,-0.00000153,-0.00000585,0.00000748,-0.00000139,0.00000437,-0.000
 00135,-0.00000282,-0.00000247,0.00000168,0.00005214,-0.00027369,0.0010
 1496,0.00007736,-0.00010026,0.00005534,0.00006628,0.00005243,0.0000713
 1,0.01214781,-0.00387694,-0.02918407,-0.06383506,0.01649048,0.06360719
 ,0.06636423,-0.00001095,0.00003972,-0.00000927,-0.00000349,0.00000091,
 0.00000377,0.00000148,-0.00000112,-0.00001196,-0.00003897,0.00004306,-
 0.00000413,0.00000203,-0.00000147,0.00000076,-0.00000200,-0.00000322,0
 .00000203,-0.00000068,-0.00000150,-0.00000051,-0.00000177,-0.00000119,
 -0.00000173,-0.00000105,0.00000170,-0.00000080,0.00000065,-0.00000002,
 0.00000120,0.00002732,-0.00003307,0.00000174,0.00002043,-0.00003239,0.
 00002229,0.00001652,-0.00001803,-0.00000013,0.00001488,0.00003370,-0.0
 0001768,0.00000841,-0.00001804,-0.00004253,0.00000743,0.00000205,-0.00
 000343,0.00000276,-0.00000198,0.00000259,0.00000058,-0.00002617,0.0000
 2096,0.00001431,-0.00000165,-0.00001064,-0.00005730,-0.00001014,0.0000
 0587,-0.00000685,0.00006701,0.00000456,0.00000431,0.00000518,0.0000022
 7,-0.00000483,-0.00000460,0.00000067,0.00000661,-0.00000924,-0.0000051
 4,0.00000081,0.00000707,0.00000712,-0.00027072,-0.00006111,0.00001426,
 0.00008184,-0.00006316,0.00004142,0.00002681,0.00001980,0.00005607,0.0
 0231905,-0.00471048,-0.00949911,0.01676438,-0.05308282,-0.05393787,-0.
 01491373,0.05570516,-0.00000850,-0.00001726,0.00000171,0.00000114,-0.0
 0000517,-0.00000475,-0.00002469,-0.00000143,0.00003313,0.00000815,-0.0
 0001755,-0.00001209,0.00000018,0.00000132,0.00000266,0.00000963,-0.000
 00008,0.00000721,-0.00000229,-0.00000023,-0.00000104,0.00000021,-0.000
 00017,-0.00000113,-0.00000118,0.00000033,0.00000038,0.00000054,-0.0000
 0042,0.00000044,-0.00000984,0.00001380,0.00000224,-0.00000851,0.000017
 45,0.00000900,0.00000147,0.00000777,0.00000308,-0.00011370,0.00001116,
 -0.00012916,0.00002564,0.00001200,-0.00004254,-0.00001380,-0.00002024,
 -0.00000683,0.00000332,0.00000057,0.00000471,0.00001321,0.00003464,0.0
 0002672,-0.00000746,0.00000336,0.00000610,-0.00000116,-0.00001083,-0.0
 0008943,-0.00005679,0.00000112,0.00005564,0.00001098,0.00000026,0.0000
 0761,0.00000454,-0.00000339,0.00000559,-0.00000444,0.00000740,0.000001
 39,-0.00000263,-0.00000212,-0.00000631,-0.00053466,-0.00007304,0.00053
 990,0.00016628,-0.00001849,0.00010757,0.00004334,0.00002065,0.00003557
 ,0.00686761,-0.00412121,-0.01665656,0.06458226,-0.05236174,-0.29076913
 ,-0.06967175,0.05869478,0.31321330,0.00005523,0.00002030,-0.00001791,-
 0.00000752,-0.00003193,0.00000466,-0.00006329,-0.00008411,0.00010955,0
 .00001915,0.00014746,-0.00007342,-0.00000085,0.00000280,-0.00000098,0.
 00002435,0.00001192,0.00001248,0.00000867,0.00001916,-0.00000333,0.000
 00151,-0.00000153,-0.00000086,-0.00000549,-0.00000192,0.00000226,-0.00
 000444,-0.00000238,0.00000126,-0.00004758,-0.00004354,0.00002752,-0.00
 000342,-0.00009502,0.00002538,-0.00004917,0.00000105,0.00001090,-0.000
 05160,0.00004904,-0.00013705,-0.00000671,0.00000157,0.00002682,0.00001
 533,0.00000658,-0.00000315,-0.00000685,0.00000269,-0.00000065,-0.00000
 384,-0.00000653,0.00003264,-0.00000320,0.00001444,0.00000243,-0.000019
 35,-0.00006313,-0.00005030,0.00001798,0.00001834,-0.00001113,0.0000083
 4,0.00000297,-0.00002252,-0.00000835,0.00000746,-0.00000340,-0.0000056
 1,0.00000518,0.00000796,-0.00000794,-0.00001338,0.00001374,0.00077680,
 0.00108161,0.00004208,-0.00017322,-0.00002384,-0.00012077,-0.00040969,
 -0.00005923,-0.00022404,-0.01560702,0.02352454,0.00445283,-0.17125109,
 0.13626374,0.00155736,-0.00454830,0.00393863,-0.00043383,0.18354407,-0
 .00001225,-0.00000147,0.00000211,0.00000530,0.00000275,-0.00000230,0.0
 0000971,-0.00000012,-0.00000846,-0.00001022,-0.00000362,0.00000410,0.0
 0000137,-0.00000081,0.00000138,0.00000011,0.00000165,0.00000134,-0.000
 00371,-0.00000347,0.00000010,-0.00000068,0.00000022,-0.00000049,0.0000
 0024,0.00000043,-0.00000063,0.00000101,0.00000029,0.00000039,0.0000094
 9,0.00000125,-0.00000142,0.00000573,0.00000163,0.00000203,0.00001121,-
 0.00000048,0.00000002,0.00007638,0.00001253,0.00002301,0.00000409,-0.0
 0000868,0.00000352,-0.00000461,-0.00000743,-0.00000192,0.00000172,0.00
 000038,0.00000091,0.00000387,0.00001812,0.00000210,-0.00000482,0.00000
 051,0.00000353,0.00000352,0.00000047,-0.00001697,-0.00000717,-0.000009
 92,0.00001174,0.00000299,0.00000372,0.00000250,0.00000369,-0.00000020,
 0.00000312,-0.00000572,0.00000518,0.00000254,-0.00000366,-0.00000631,-
 0.00000518,-0.00035385,0.00056570,-0.00040798,0.00006892,0.00000518,0.
 00003156,-0.00014971,0.00000106,-0.00006640,-0.00763826,0.00533072,0.0
 0034711,0.14335506,-0.21172407,-0.00290208,0.00190237,-0.00342449,0.00
 070677,-0.15192168,0.22327075,0.00001954,-0.00001494,-0.00000079,0.000
 00252,-0.00001597,-0.00000016,-0.00006386,-0.00006978,0.00008532,0.000
 00682,0.00004466,-0.00003710,-0.00000091,0.00000331,0.00000080,0.00001
 523,0.00000761,0.00001016,0.00000161,0.00000759,0.00000068,0.00000129,
 -0.00000005,0.00000083,-0.00000205,-0.00000209,0.00000101,-0.00000204,
 -0.00000058,0.00000013,-0.00003336,-0.00000326,0.00001270,-0.00000689,
 -0.00002223,0.00000015,-0.00002199,0.00000964,0.00000303,-0.00015192,0
 .00002029,-0.00019306,-0.00000060,-0.00000592,0.00001932,-0.00000158,-
 0.00000906,-0.00000366,-0.00000095,0.00000103,0.00000236,0.00000945,0.
 00001891,0.00002720,-0.00000732,0.00000677,0.00000372,0.00000340,-0.00
 001684,-0.00008250,-0.00002979,-0.00001066,0.00002870,0.00001050,0.000
 00208,-0.00000569,-0.00000313,0.00000180,0.00000184,-0.00000445,0.0000
 0557,0.00000290,-0.00000400,-0.00000731,0.00000467,-0.00025937,0.00045
 363,0.00064520,0.00000144,0.00000794,-0.00000583,-0.00016956,-0.000009
 51,-0.00008607,-0.01043259,0.01502875,-0.00095672,0.00462848,-0.006130
 70,-0.04838282,0.01968584,-0.02290837,0.00215728,-0.00080880,0.0053453
 2,0.04840553,0.00001076,-0.00002736,0.00000408,-0.00000061,-0.00000314
 ,-0.00000341,0.00003736,0.00003220,-0.00001284,0.00005703,-0.00004147,
 -0.00000029,-0.00000310,0.00000040,-0.00000100,0.00000503,-0.00000129,
 -0.00000090,0.00000210,0.00000327,-0.00000240,0.00000142,0.00000033,-0
 .00000078,-0.00000075,-0.00000013,0.00000085,-0.00000072,-0.00000093,0
 .00000002,-0.00002592,0.00002892,-0.00000037,-0.00003046,0.00002854,0.
 00000001,-0.00001656,0.00001418,0.00000260,0.00015371,-0.00001709,0.00
 009315,0.00002588,0.00002189,-0.00001503,0.00000034,-0.00000702,-0.000
 00036,-0.00000122,0.00000423,-0.00000268,0.00000181,0.00002285,0.00000
 744,-0.00001060,0.00000410,0.00000795,0.00001921,-0.00000974,-0.000014
 56,0.00000772,-0.00002136,-0.00000553,-0.00000924,0.00000134,0.0000004
 8,0.00000522,0.00000444,-0.00000177,-0.00000670,0.00000844,0.00000639,
 -0.00000132,-0.00001289,-0.00000852,0.00024461,0.00027017,-0.00036398,
 0.00006345,0.00000219,0.00008597,-0.00009245,-0.00002308,-0.00007627,-
 0.00851296,-0.02327327,0.01663355,-0.09668628,-0.09141308,0.04303856,-
 0.00349315,-0.00599733,0.00256614,0.01108940,0.01687164,-0.00936286,0.
 09957534,0.00000073,-0.00000580,0.00000293,0.00000052,0.00000767,0.000
 00176,0.00004105,0.00003199,-0.00004269,0.00001684,-0.00004247,0.00002
 318,-0.00000024,0.,-0.00000069,-0.00000444,-0.00000370,-0.00000040,0.0
 0000129,-0.00000169,0.00000013,0.00000048,0.00000031,0.00000087,0.0000
 0138,0.00000002,-0.00000004,-0.00000014,0.00000031,-0.00000070,0.00000
 015,0.00001268,-0.00000679,-0.00001029,0.00002430,-0.00000924,-0.00000
 011,0.00000125,-0.00000308,0.00015693,-0.00000429,0.00011229,0.0000019
 0,0.00000201,-0.00000198,0.00000006,0.00000216,0.00000071,-0.00000005,
 -0.00000076,-0.00000051,0.00000082,-0.00001227,-0.00000393,0.00000396,
 -0.00000167,-0.00000288,-0.00001248,0.00001401,0.00003049,0.00000119,-
 0.00000066,-0.00000430,-0.00000206,0.00000021,0.00000110,-0.00000260,-
 0.00000023,-0.00000123,0.00000341,-0.00000330,-0.00000211,0.00000206,0
 .00000350,0.00000291,-0.00027545,0.00021703,-0.00072087,-0.00000905,0.
 00002762,0.00006066,-0.00002552,-0.00000036,0.00001875,-0.00202484,-0.
 00948639,0.00185507,-0.09321981,-0.23414977,0.09170575,0.00375530,0.00
 643386,-0.00296576,-0.01087645,-0.01580649,0.00858925,0.10307730,0.251
 28848,-0.00000128,0.00001832,-0.00000371,-0.00000295,-0.00000153,0.000
 00332,0.00001762,0.00000855,-0.00000869,-0.00000774,0.00001785,-0.0000
 0133,-0.00000018,-0.00000008,-0.00000012,0.00000156,-0.00000042,-0.000
 00159,0.00000066,0.00000031,0.00000015,-0.00000054,-0.00000043,-0.0000
 0033,-0.00000044,0.00000042,-0.00000043,-0.00000022,0.00000008,0.00000
 044,0.00000905,-0.00001389,0.00000029,0.00000396,-0.00001560,0.0000080
 9,0.00000355,-0.00000801,-0.00000132,0.00007525,0.00001955,0.00004639,
 0.00000167,-0.00001016,-0.00001717,0.00000551,-0.00000085,-0.00000166,
 0.00000134,-0.00000014,0.00000073,0.00000408,-0.00001192,0.00002129,0.
 00000768,0.00000165,-0.00000789,-0.00002674,-0.00001053,-0.00001452,-0
 .00001339,0.00003012,0.00000369,0.00000046,0.00000592,0.00000082,-0.00
 000552,-0.00000175,-0.00000024,0.00000479,-0.00000653,-0.00000350,0.00
 000188,0.00000043,0.00000706,0.00024880,0.00001605,-0.00020346,-0.0000
 0242,-0.00002572,0.00001792,-0.00003110,-0.00000171,-0.00001571,-0.007
 33054,-0.01652518,0.00871083,0.04327284,0.09123048,-0.08385926,0.01264
 478,0.02605824,-0.01064986,-0.00131668,-0.00196656,-0.00036154,-0.0457
 7238,-0.09768112,0.09126815,0.00046089,-0.00020517,-0.00006934,-0.0001
 6608,-0.00022055,-0.00004596,0.00003540,0.00040680,0.00019166,0.000961
 69,-0.00007721,-0.00025011,-0.00005616,0.00004768,-0.00001549,0.000112
 91,-0.00001895,0.00009384,0.00009728,0.00014260,-0.00004844,0.00003240
 ,-0.00000214,-0.00000802,-0.00003367,-0.00001329,0.00002254,-0.0000356
 3,-0.00002116,0.00000296,-0.00060778,0.00019252,0.00011378,-0.00053030
 ,0.00004153,0.00008518,-0.00050789,0.00016987,0.00008479,0.00007811,-0
 .00147271,0.00042152,-0.00015862,0.00111398,-0.00070274,0.00005375,-0.
 00003327,-0.00001725,-0.00004547,0.00002857,-0.00001111,0.00006278,0.0
 0006339,0.00045750,-0.00010550,0.00009941,0.00005346,-0.00028899,0.000
 11024,-0.00072482,0.00001988,-0.00004483,0.00008305,0.00001968,-0.0000
 2322,-0.00011357,-0.00004178,0.00004303,-0.00003188,-0.00001258,0.0000
 3668,0.00004071,-0.00002521,-0.00004833,0.00006427,0.00204219,0.000297
 24,0.00087647,-0.00157927,0.00218716,0.00176512,0.00051163,0.00128485,
 0.00174909,-0.14136155,-0.11324390,-0.06762446,0.00239599,-0.03140865,
 -0.02247837,-0.00484324,-0.00329303,-0.00279174,0.00321157,-0.00061773
 ,0.00178307,-0.00230019,-0.00222144,-0.00238527,0.12054191,-0.00048998
 ,-0.00062098,0.00023215,0.00008652,0.00029843,-0.00011152,0.00085207,0
 .00126892,-0.00133806,0.00054991,-0.00234204,0.00086767,-0.00000956,-0
 .00001332,0.00002077,-0.00021583,-0.00016696,0.00001710,-0.00006723,-0
 .00016476,-0.00001199,0.00000554,0.00001690,-0.00001070,0.00004236,0.0
 0002469,-0.00001238,0.00003977,0.00001034,-0.00000947,0.00010571,0.000
 89997,-0.00028650,-0.00042587,0.00156227,-0.00019960,0.00033735,0.0001
 8522,-0.00007081,0.00113933,-0.00068174,0.00223690,0.00101079,0.000247
 57,-0.00090381,-0.00024126,-0.00024539,-0.00001414,0.00008255,0.000008
 27,0.00002360,0.00009171,0.00048556,-0.00026624,-0.00005572,-0.0001229
 6,0.00005158,0.00018806,0.00076375,0.00028468,-0.00009444,-0.00036406,
 0.00029149,-0.00005713,0.00003483,0.00028172,0.00013114,-0.00007729,0.
 00005564,-0.00000509,0.00003360,-0.00003708,0.00001490,0.00006080,-0.0
 0020863,-0.01875863,-0.00408223,-0.01009543,0.00361677,-0.00041352,0.0
 0278310,0.00132242,0.00082013,0.00118348,-0.13016642,-0.60196116,-0.23
 476456,-0.00942820,-0.01844922,-0.02033054,-0.00330496,-0.00074567,-0.
 00011152,-0.00093217,0.00114409,0.00033927,-0.00082583,0.00101406,-0.0
 0118308,0.10893165,0.72574780,-0.00006648,-0.00009910,0.00002278,0.000
 05389,0.00007310,0.00007147,0.00040820,0.00011784,-0.00049499,0.000145
 18,-0.00040588,0.00015995,0.00003849,-0.00002932,0.00000700,0.00005634
 ,-0.00002231,0.00008517,-0.00001168,-0.00003293,-0.00002835,-0.0000017
 9,-0.00000070,-0.00001400,0.00000376,0.00001295,-0.00000029,0.00001214
 ,-0.00000487,0.00000196,0.00002629,0.00015148,-0.00005522,-0.00005405,
 0.00027620,0.00010736,0.00005736,0.00003274,0.00000546,0.00137481,0.00
 090184,0.00099368,0.00040086,-0.00054576,-0.00013888,-0.00006673,-0.00
 006014,-0.00001135,0.00001318,-0.00000387,0.00001315,0.00002613,0.0000
 4154,0.00002870,0.00001929,0.00001990,-0.00000357,-0.00035857,-0.00000
 851,0.00023408,-0.00007018,0.00001440,0.00012794,0.00005442,0.00000520
 ,0.00002526,0.00002841,-0.00002427,0.00002086,-0.00001894,0.00002115,0
 .00000938,-0.00003504,0.00001214,-0.00003181,-0.00314163,0.00087658,-0
 .00765245,0.00055060,0.00193626,0.00149810,0.00073065,0.00094679,0.001
 54208,-0.07235258,-0.22782243,-0.19263581,-0.01543901,-0.03239578,0.00
 854655,0.00133793,0.00039769,0.00067449,0.00104233,0.00013337,0.000373
 00,-0.00533280,-0.00152880,-0.00477352,0.08192715,0.27916743,0.1645552
 5,0.00180154,-0.00021017,-0.00041755,-0.00012429,-0.00146800,0.0001415
 6,-0.00496726,-0.00578197,0.00799056,0.00036311,0.00524886,-0.00383324
 ,-0.00011298,0.00016695,-0.00003391,0.00126200,0.00045096,0.00038506,0
 .00027424,0.00077283,-0.00001427,0.00008484,-0.00003665,-0.00001573,-0
 .00021466,-0.00011361,0.00009648,-0.00015503,-0.00007977,0.00003006,-0
 .00234010,-0.00106638,0.00114398,-0.00018537,-0.00283315,0.00082589,-0
 .00189076,0.00041057,0.00036603,-0.03952272,-0.00366975,-0.02077060,0.
 00195796,0.00017592,-0.00013972,0.00035505,-0.00001150,-0.00024445,-0.
 00014713,0.00016354,0.00004850,-0.00025321,0.00012063,0.00061475,-0.00
 027040,0.00020980,0.00019866,0.00093051,-0.00156585,-0.00268262,-0.000
 35455,0.00055515,0.00029879,0.00007068,0.00013884,-0.00023200,-0.00017
 312,0.00015420,-0.00011111,-0.00010193,0.00018311,0.00016784,-0.000048
 29,-0.00047711,0.00021717,-0.14886947,-0.02790492,-0.05485515,-0.00943
 727,-0.00639106,-0.01012513,-0.02511733,-0.00255065,-0.01582621,-0.180
 11748,0.07009447,-0.03359418,-0.03575367,0.03224844,-0.01389300,-0.001
 77762,0.00134348,-0.00061767,-0.00648789,-0.00160433,-0.00480115,-0.00
 010817,0.00161963,0.00059189,0.02206185,0.04652975,0.00864208,0.429368
 94,-0.00065983,-0.00043205,0.00020243,-0.00029326,-0.00014162,-0.00004
 477,-0.00129504,0.00126482,0.00005635,-0.00004988,-0.00128407,0.000586
 73,-0.00008514,0.00000724,-0.00001244,-0.00004306,-0.00010084,0.000489
 15,-0.00009667,-0.00012518,0.00000484,-0.00000108,0.00001504,-0.000007
 57,0.00003132,0.00001766,-0.00001262,0.00003535,0.00001119,-0.00000600
 ,0.00012651,0.00061691,-0.00020351,-0.00010925,0.00113498,-0.00011141,
 0.00031480,0.00014488,-0.00004403,-0.00973384,-0.00015791,-0.00525414,
 0.00151437,0.00067346,-0.00198286,-0.00035094,-0.00027353,0.00011045,0
 .00010529,0.00005593,0.00000506,-0.00003530,0.00067641,-0.00034036,-0.
 00004120,-0.00015368,0.00004223,0.00127046,0.00063462,0.00014851,-0.00
 024234,-0.00010044,0.00044399,-0.00026975,-0.00011666,0.00037498,0.000
 17855,-0.00010036,0.00003461,0.00010119,-0.00002600,-0.00011346,0.0001
 1003,0.00023483,-0.00032878,-0.01058593,-0.09910445,-0.01818189,-0.020
 75159,-0.00085694,-0.00920511,0.03098987,0.00907903,0.01707571,0.07136
 036,-0.18500098,-0.00264668,0.00500572,0.00482227,0.00135613,0.0002382
 5,-0.00010767,0.00019727,-0.00096264,0.00063095,-0.00066616,0.00127857
 ,0.00043838,0.00005721,0.03776837,-0.10417588,-0.02215391,-0.10482226,
 0.37179965,0.00028843,0.00008704,-0.00006487,0.00001848,-0.00016739,0.
 00018958,0.00274313,0.00110991,-0.00102322,0.00080340,0.00024068,0.000
 28784,0.00013258,-0.00003432,0.00004278,0.00060989,0.00029133,0.000218
 91,0.00004424,0.00003286,-0.00010148,0.00000793,-0.00000742,-0.0000128
 9,-0.00001140,0.00001015,0.00000645,-0.00001516,-0.00001972,0.00001088
 ,-0.00014999,-0.00001377,-0.00000034,-0.00019637,-0.00020428,0.0000968
 9,-0.00024060,0.00002801,0.00006125,0.00818216,-0.00099873,0.01317344,
 -0.00097225,-0.00071696,0.00111348,-0.00018852,-0.00032145,0.00005012,
 -0.00001461,0.00001809,0.00005900,0.00026296,0.00091944,0.00043977,0.0
 0005389,0.00018770,-0.00002856,0.00120473,-0.00119194,-0.00086540,0.00
 054541,0.00010372,0.00090561,0.00031960,0.00010923,-0.00006616,-0.0000
 7331,-0.00002260,0.00006548,-0.00008121,0.00008583,0.00007821,-0.00012
 774,-0.00018490,0.00006474,-0.04858382,-0.02554912,-0.10379834,-0.0325
 5125,-0.00482677,-0.01588196,-0.01792393,-0.00412157,-0.00821297,-0.03
 457015,-0.00213403,-0.08319486,-0.02248847,0.01459329,0.00376296,0.000
 63298,0.00111503,0.00147312,-0.00414338,-0.00124816,-0.00167057,-0.001
 46847,0.00057126,-0.00016334,0.00750243,-0.01787053,0.02673659,0.14044
 840,0.04013008,0.16624783\\-0.00000034,0.00000006,-0.00000559,0.000001
 51,0.00000059,-0.00000014,0.00000656,-0.00000433,0.00000283,0.00000539
 ,-0.00000615,0.00000258,0.00000034,-0.00000315,-0.00000708,0.00000115,
 -0.00000289,0.00000272,-0.00000642,0.00000156,0.00000110,-0.00000097,0
 .00000051,0.00000374,-0.00000003,0.00000309,-0.00000163,0.00000176,0.0
 0000084,-0.00000142,-0.00000381,0.00000625,-0.00000541,-0.00000315,0.0
 0000513,0.00000399,0.00000286,-0.00000092,-0.00000642,-0.00000882,-0.0
 0000192,0.00000020,-0.00000016,0.00000137,0.00000347,0.00000509,0.0000
 0115,-0.00000284,-0.00000140,0.00000233,-0.00000636,-0.00000258,0.0000
 0063,-0.00000698,-0.00000241,0.00000585,-0.00000526,0.00000059,0.00000
 491,0.00000079,-0.00000402,0.00000424,0.00000050,0.00000392,-0.0000043
 5,-0.00000404,0.00000097,-0.00000097,-0.00001099,-0.00000035,-0.000000
 28,-0.00000857,0.00000202,-0.00000291,-0.00000596,-0.00000010,-0.00000
 498,-0.00000296,0.00000214,-0.00000092,0.00000784,0.00000191,-0.000002
 25,0.00000025,-0.00000050,-0.00001044,0.00000558,0.00000152,-0.0000034
 4,0.00000120,-0.00000354,0.00000283,0.00000877,-0.00000396,0.00000093,
 0.00001162,-0.00000082,0.00000062,0.00000708,0.00000313,0.00000822,0.0
 0001333,0.00000257,-0.00000121,0.00000406\\\@


 Some scientists claim that hydrogen, because it is so
 plentiful, is the basic building block of the universe. 
 I dispute that. I say that stupidity is far more
 abundant than hydrogen, and THAT is the basic building 
 block of the universe.
                   --Frank Zappa
 Job cpu time:       2 days  9 hours 51 minutes 55.4 seconds.
 File lengths (MBytes):  RWF=   2428 Int=      0 D2E=      0 Chk=     40 Scr=      1
 Normal termination of Gaussian 09 at Fri Feb 11 20:43:03 2022.
