 Entering Gaussian System, Link 0=g09
 Input=prod_diels_ma.com
 Output=prod_diels_ma.log
 Initial command:
 /apps/applications/gaussian/G09.D01/2/default/g09/l1.exe "/nobackup/pmmass/Temp/Gau-67871.inp" -scrdir="/nobackup/pmmass/Temp/"
 Entering Link 1 = /apps/applications/gaussian/G09.D01/2/default/g09/l1.exe PID=     67882.
  
 Copyright (c) 1988,1990,1992,1993,1995,1998,2003,2009,2013,
            Gaussian, Inc.  All Rights Reserved.
  
 This is part of the Gaussian(R) 09 program.  It is based on
 the Gaussian(R) 03 system (copyright 2003, Gaussian, Inc.),
 the Gaussian(R) 98 system (copyright 1998, Gaussian, Inc.),
 the Gaussian(R) 94 system (copyright 1995, Gaussian, Inc.),
 the Gaussian 92(TM) system (copyright 1992, Gaussian, Inc.),
 the Gaussian 90(TM) system (copyright 1990, Gaussian, Inc.),
 the Gaussian 88(TM) system (copyright 1988, Gaussian, Inc.),
 the Gaussian 86(TM) system (copyright 1986, Carnegie Mellon
 University), and the Gaussian 82(TM) system (copyright 1983,
 Carnegie Mellon University). Gaussian is a federally registered
 trademark of Gaussian, Inc.
  
 This software contains proprietary and confidential information,
 including trade secrets, belonging to Gaussian, Inc.
  
 This software is provided under written license and may be
 used, copied, transmitted, or stored only in accord with that
 written license.
  
 The following legend is applicable only to US Government
 contracts under FAR:
  
                    RESTRICTED RIGHTS LEGEND
  
 Use, reproduction and disclosure by the US Government is
 subject to restrictions as set forth in subparagraphs (a)
 and (c) of the Commercial Computer Software - Restricted
 Rights clause in FAR 52.227-19.
  
 Gaussian, Inc.
 340 Quinnipiac St., Bldg. 40, Wallingford CT 06492
  
  
 ---------------------------------------------------------------
 Warning -- This program may not be used in any manner that
 competes with the business of Gaussian, Inc. or will provide
 assistance to any competitor of Gaussian, Inc.  The licensee
 of this program is prohibited from giving any competitor of
 Gaussian, Inc. access to this program.  By using this program,
 the user acknowledges that Gaussian, Inc. is engaged in the
 business of creating and licensing software in the field of
 computational chemistry and represents and warrants to the
 licensee that it is not a competitor of Gaussian, Inc. and that
 it will not use this program in any manner prohibited above.
 ---------------------------------------------------------------
  

 Cite this work as:
 Gaussian 09, Revision D.01,
 M. J. Frisch, G. W. Trucks, H. B. Schlegel, G. E. Scuseria, 
 M. A. Robb, J. R. Cheeseman, G. Scalmani, V. Barone, B. Mennucci, 
 G. A. Petersson, H. Nakatsuji, M. Caricato, X. Li, H. P. Hratchian, 
 A. F. Izmaylov, J. Bloino, G. Zheng, J. L. Sonnenberg, M. Hada, 
 M. Ehara, K. Toyota, R. Fukuda, J. Hasegawa, M. Ishida, T. Nakajima, 
 Y. Honda, O. Kitao, H. Nakai, T. Vreven, J. A. Montgomery, Jr., 
 J. E. Peralta, F. Ogliaro, M. Bearpark, J. J. Heyd, E. Brothers, 
 K. N. Kudin, V. N. Staroverov, T. Keith, R. Kobayashi, J. Normand, 
 K. Raghavachari, A. Rendell, J. C. Burant, S. S. Iyengar, J. Tomasi, 
 M. Cossi, N. Rega, J. M. Millam, M. Klene, J. E. Knox, J. B. Cross, 
 V. Bakken, C. Adamo, J. Jaramillo, R. Gomperts, R. E. Stratmann, 
 O. Yazyev, A. J. Austin, R. Cammi, C. Pomelli, J. W. Ochterski, 
 R. L. Martin, K. Morokuma, V. G. Zakrzewski, G. A. Voth, 
 P. Salvador, J. J. Dannenberg, S. Dapprich, A. D. Daniels, 
 O. Farkas, J. B. Foresman, J. V. Ortiz, J. Cioslowski, 
 and D. J. Fox, Gaussian, Inc., Wallingford CT, 2013.
 
 ******************************************
 Gaussian 09:  ES64L-G09RevD.01 24-Apr-2013
                 9-Feb-2022 
 ******************************************
 %nprocshared=8
 Will use up to    8 processors via shared memory.
 %mem=4GB
 %NoSave
 %chk="prod_diels_ma.chk"
 -------------------------------------------
 #n wB97XD/Gen scrf(smd,solvent=toluene) opt
 -------------------------------------------
 1/14=-1,18=20,19=15,26=3,38=1/1,3;
 2/9=110,12=2,17=6,18=5,40=1/2;
 3/5=7,11=2,16=1,25=1,30=1,70=32201,71=1,72=13,74=-58/1,2,3;
 4//1;
 5/5=2,38=5,53=13/2;
 6/7=2,8=2,9=2,10=2,28=1/1;
 7//1,2,3,16;
 1/14=-1,18=20,19=15,26=3/3(2);
 2/9=110/2;
 99//99;
 2/9=110/2;
 3/5=7,6=1,11=2,16=1,25=1,30=1,70=32205,71=1,72=13,74=-58,82=7/1,2,3;
 4/5=5,16=3,69=1/1;
 5/5=2,38=5,53=13/2;
 7//1,2,3,16;
 1/14=-1,18=20,19=15,26=3/3(-5);
 2/9=110/2;
 6/7=2,8=2,9=2,10=2,19=2,28=1/1;
 99/9=1/99;
 ------------------------------------
 diels-alder product in toluene - opt
 ------------------------------------
 Symbolic Z-matrix:
 Charge =  0 Multiplicity = 1
 C                    -2.8494    0.17702  -0.07976 
 C                    -1.60376   0.84222  -0.65102 
 C                    -0.58085  -0.30957  -0.77312 
 C                    -1.3364   -1.54481  -0.29431 
 H                    -1.89415   1.19167  -1.6477 
 H                    -0.34618  -0.50207  -1.82603 
 C                    -3.62507  -2.096     0.55469 
 H                    -3.17637  -3.08728   0.61003 
 H                    -3.96086  -1.78378   1.54564 
 H                    -4.48206  -2.11415  -0.1223 
 N                    -2.61943  -1.17549   0.06033 
 O                    -0.90458  -2.67139  -0.229 
 O                    -3.89438   0.71521   0.20652 
 C                     0.74229  -0.17844   0.0109 
 H                     1.03766  -1.18484   0.3239 
 C                    -1.2201    2.07004   0.20041 
 H                    -2.14869   2.43559   0.65227 
 C                    -0.27061   1.699     1.3101 
 H                    -0.29542   2.31843   2.2045 
 C                     0.6004    0.69806   1.22901 
 H                     1.27796   0.50508   2.05698 
 C                    -0.66627   3.21951  -0.65113 
 H                    -1.41118   3.54544  -1.38443 
 H                    -0.41705   4.07858  -0.02055 
 H                     0.24046   2.92884  -1.18957 
 C                     1.84923   0.32739  -0.91967 
 H                     1.99868  -0.3739   -1.74476 
 H                     1.61205   1.31511  -1.31798 
 C                     3.84779  -0.59014  -0.02925 
 C                     5.09453  -0.26042   0.73964 
 H                     4.82898   0.18969   1.69974 
 H                     5.6775   -1.16614   0.90049 
 H                     5.68715   0.47029   0.18274 
 O                     3.54842  -1.68356  -0.44198 
 O                     3.08838   0.5059   -0.21439 
 

 GradGradGradGradGradGradGradGradGradGradGradGradGradGradGradGradGradGrad
 Berny optimization.
 Initialization pass.
                           ----------------------------
                           !    Initial Parameters    !
                           ! (Angstroms and Degrees)  !
 --------------------------                            --------------------------
 ! Name  Definition              Value          Derivative Info.                !
 --------------------------------------------------------------------------------
 ! R1    R(1,2)                  1.5233         estimate D2E/DX2                !
 ! R2    R(1,11)                 1.3791         estimate D2E/DX2                !
 ! R3    R(1,13)                 1.2098         estimate D2E/DX2                !
 ! R4    R(2,3)                  1.5453         estimate D2E/DX2                !
 ! R5    R(2,5)                  1.0954         estimate D2E/DX2                !
 ! R6    R(2,16)                 1.5426         estimate D2E/DX2                !
 ! R7    R(3,4)                  1.5251         estimate D2E/DX2                !
 ! R8    R(3,6)                  1.0958         estimate D2E/DX2                !
 ! R9    R(3,14)                 1.5436         estimate D2E/DX2                !
 ! R10   R(4,11)                 1.3814         estimate D2E/DX2                !
 ! R11   R(4,12)                 1.2083         estimate D2E/DX2                !
 ! R12   R(7,8)                  1.0895         estimate D2E/DX2                !
 ! R13   R(7,9)                  1.0919         estimate D2E/DX2                !
 ! R14   R(7,10)                 1.0923         estimate D2E/DX2                !
 ! R15   R(7,11)                 1.4502         estimate D2E/DX2                !
 ! R16   R(14,15)                1.0946         estimate D2E/DX2                !
 ! R17   R(14,20)                1.5074         estimate D2E/DX2                !
 ! R18   R(14,26)                1.532          estimate D2E/DX2                !
 ! R19   R(16,17)                1.0955         estimate D2E/DX2                !
 ! R20   R(16,18)                1.5069         estimate D2E/DX2                !
 ! R21   R(16,22)                1.534          estimate D2E/DX2                !
 ! R22   R(18,19)                1.0882         estimate D2E/DX2                !
 ! R23   R(18,20)                1.3293         estimate D2E/DX2                !
 ! R24   R(20,21)                1.0871         estimate D2E/DX2                !
 ! R25   R(22,23)                1.0949         estimate D2E/DX2                !
 ! R26   R(22,24)                1.0944         estimate D2E/DX2                !
 ! R27   R(22,25)                1.0939         estimate D2E/DX2                !
 ! R28   R(26,27)                1.0931         estimate D2E/DX2                !
 ! R29   R(26,28)                1.0911         estimate D2E/DX2                !
 ! R30   R(26,35)                1.4369         estimate D2E/DX2                !
 ! R31   R(29,30)                1.5014         estimate D2E/DX2                !
 ! R32   R(29,34)                1.2065         estimate D2E/DX2                !
 ! R33   R(29,35)                1.3462         estimate D2E/DX2                !
 ! R34   R(30,31)                1.0931         estimate D2E/DX2                !
 ! R35   R(30,32)                1.0891         estimate D2E/DX2                !
 ! R36   R(30,33)                1.0933         estimate D2E/DX2                !
 ! A1    A(2,1,11)             109.2694         estimate D2E/DX2                !
 ! A2    A(2,1,13)             126.9275         estimate D2E/DX2                !
 ! A3    A(11,1,13)            123.8005         estimate D2E/DX2                !
 ! A4    A(1,2,3)              104.2081         estimate D2E/DX2                !
 ! A5    A(1,2,5)              105.2931         estimate D2E/DX2                !
 ! A6    A(1,2,16)             110.1183         estimate D2E/DX2                !
 ! A7    A(3,2,5)              109.9614         estimate D2E/DX2                !
 ! A8    A(3,2,16)             118.1795         estimate D2E/DX2                !
 ! A9    A(5,2,16)             108.314          estimate D2E/DX2                !
 ! A10   A(2,3,4)              104.5338         estimate D2E/DX2                !
 ! A11   A(2,3,6)              110.4034         estimate D2E/DX2                !
 ! A12   A(2,3,14)             117.644          estimate D2E/DX2                !
 ! A13   A(4,3,6)              105.3955         estimate D2E/DX2                !
 ! A14   A(4,3,14)             109.5121         estimate D2E/DX2                !
 ! A15   A(6,3,14)             108.6269         estimate D2E/DX2                !
 ! A16   A(3,4,11)             108.9163         estimate D2E/DX2                !
 ! A17   A(3,4,12)             126.5196         estimate D2E/DX2                !
 ! A18   A(11,4,12)            124.5641         estimate D2E/DX2                !
 ! A19   A(8,7,9)              109.9207         estimate D2E/DX2                !
 ! A20   A(8,7,10)             109.8455         estimate D2E/DX2                !
 ! A21   A(8,7,11)             108.014          estimate D2E/DX2                !
 ! A22   A(9,7,10)             109.0241         estimate D2E/DX2                !
 ! A23   A(9,7,11)             109.9461         estimate D2E/DX2                !
 ! A24   A(10,7,11)            110.0805         estimate D2E/DX2                !
 ! A25   A(1,11,4)             113.017          estimate D2E/DX2                !
 ! A26   A(1,11,7)             122.7874         estimate D2E/DX2                !
 ! A27   A(4,11,7)             124.1858         estimate D2E/DX2                !
 ! A28   A(3,14,15)            107.3649         estimate D2E/DX2                !
 ! A29   A(3,14,20)            112.2821         estimate D2E/DX2                !
 ! A30   A(3,14,26)            109.8086         estimate D2E/DX2                !
 ! A31   A(15,14,20)           109.2056         estimate D2E/DX2                !
 ! A32   A(15,14,26)           106.3971         estimate D2E/DX2                !
 ! A33   A(20,14,26)           111.5229         estimate D2E/DX2                !
 ! A34   A(2,16,17)            106.4057         estimate D2E/DX2                !
 ! A35   A(2,16,18)            111.5424         estimate D2E/DX2                !
 ! A36   A(2,16,22)            112.3227         estimate D2E/DX2                !
 ! A37   A(17,16,18)           108.2115         estimate D2E/DX2                !
 ! A38   A(17,16,22)           106.5566         estimate D2E/DX2                !
 ! A39   A(18,16,22)           111.4579         estimate D2E/DX2                !
 ! A40   A(16,18,19)           116.7906         estimate D2E/DX2                !
 ! A41   A(16,18,20)           123.5972         estimate D2E/DX2                !
 ! A42   A(19,18,20)           119.5818         estimate D2E/DX2                !
 ! A43   A(14,20,18)           123.2849         estimate D2E/DX2                !
 ! A44   A(14,20,21)           116.9729         estimate D2E/DX2                !
 ! A45   A(18,20,21)           119.7076         estimate D2E/DX2                !
 ! A46   A(16,22,23)           110.4388         estimate D2E/DX2                !
 ! A47   A(16,22,24)           110.5219         estimate D2E/DX2                !
 ! A48   A(16,22,25)           111.9253         estimate D2E/DX2                !
 ! A49   A(23,22,24)           107.8874         estimate D2E/DX2                !
 ! A50   A(23,22,25)           108.2628         estimate D2E/DX2                !
 ! A51   A(24,22,25)           107.6641         estimate D2E/DX2                !
 ! A52   A(14,26,27)           110.2084         estimate D2E/DX2                !
 ! A53   A(14,26,28)           111.319          estimate D2E/DX2                !
 ! A54   A(14,26,35)           111.467          estimate D2E/DX2                !
 ! A55   A(27,26,28)           109.5688         estimate D2E/DX2                !
 ! A56   A(27,26,35)           109.4068         estimate D2E/DX2                !
 ! A57   A(28,26,35)           104.7247         estimate D2E/DX2                !
 ! A58   A(30,29,34)           125.4696         estimate D2E/DX2                !
 ! A59   A(30,29,35)           111.1035         estimate D2E/DX2                !
 ! A60   A(34,29,35)           123.426          estimate D2E/DX2                !
 ! A61   A(29,30,31)           109.7852         estimate D2E/DX2                !
 ! A62   A(29,30,32)           109.7244         estimate D2E/DX2                !
 ! A63   A(29,30,33)           109.6348         estimate D2E/DX2                !
 ! A64   A(31,30,32)           110.0452         estimate D2E/DX2                !
 ! A65   A(31,30,33)           107.6901         estimate D2E/DX2                !
 ! A66   A(32,30,33)           109.9328         estimate D2E/DX2                !
 ! A67   A(26,35,29)           116.9248         estimate D2E/DX2                !
 ! D1    D(11,1,2,3)            -2.2828         estimate D2E/DX2                !
 ! D2    D(11,1,2,5)           113.4592         estimate D2E/DX2                !
 ! D3    D(11,1,2,16)         -129.9836         estimate D2E/DX2                !
 ! D4    D(13,1,2,3)           178.2935         estimate D2E/DX2                !
 ! D5    D(13,1,2,5)           -65.9646         estimate D2E/DX2                !
 ! D6    D(13,1,2,16)           50.5927         estimate D2E/DX2                !
 ! D7    D(2,1,11,4)             2.4336         estimate D2E/DX2                !
 ! D8    D(2,1,11,7)          -178.6645         estimate D2E/DX2                !
 ! D9    D(13,1,11,4)         -178.1208         estimate D2E/DX2                !
 ! D10   D(13,1,11,7)            0.7811         estimate D2E/DX2                !
 ! D11   D(1,2,3,4)              1.3553         estimate D2E/DX2                !
 ! D12   D(1,2,3,6)            114.2503         estimate D2E/DX2                !
 ! D13   D(1,2,3,14)          -120.3329         estimate D2E/DX2                !
 ! D14   D(5,2,3,4)           -111.0671         estimate D2E/DX2                !
 ! D15   D(5,2,3,6)              1.8279         estimate D2E/DX2                !
 ! D16   D(5,2,3,14)           127.2448         estimate D2E/DX2                !
 ! D17   D(16,2,3,4)           123.9141         estimate D2E/DX2                !
 ! D18   D(16,2,3,6)          -123.1908         estimate D2E/DX2                !
 ! D19   D(16,2,3,14)            2.226          estimate D2E/DX2                !
 ! D20   D(1,2,16,17)          -27.4611         estimate D2E/DX2                !
 ! D21   D(1,2,16,18)           90.3453         estimate D2E/DX2                !
 ! D22   D(1,2,16,22)         -143.6934         estimate D2E/DX2                !
 ! D23   D(3,2,16,17)         -146.9851         estimate D2E/DX2                !
 ! D24   D(3,2,16,18)          -29.1787         estimate D2E/DX2                !
 ! D25   D(3,2,16,22)           96.7827         estimate D2E/DX2                !
 ! D26   D(5,2,16,17)           87.1923         estimate D2E/DX2                !
 ! D27   D(5,2,16,18)         -155.0013         estimate D2E/DX2                !
 ! D28   D(5,2,16,22)          -29.0399         estimate D2E/DX2                !
 ! D29   D(2,3,4,11)            -0.0471         estimate D2E/DX2                !
 ! D30   D(2,3,4,12)           179.8651         estimate D2E/DX2                !
 ! D31   D(6,3,4,11)          -116.4667         estimate D2E/DX2                !
 ! D32   D(6,3,4,12)            63.4454         estimate D2E/DX2                !
 ! D33   D(14,3,4,11)          126.8503         estimate D2E/DX2                !
 ! D34   D(14,3,4,12)          -53.2375         estimate D2E/DX2                !
 ! D35   D(2,3,14,15)          146.2385         estimate D2E/DX2                !
 ! D36   D(2,3,14,20)           26.1976         estimate D2E/DX2                !
 ! D37   D(2,3,14,26)          -98.4835         estimate D2E/DX2                !
 ! D38   D(4,3,14,15)           27.1508         estimate D2E/DX2                !
 ! D39   D(4,3,14,20)          -92.8901         estimate D2E/DX2                !
 ! D40   D(4,3,14,26)          142.4288         estimate D2E/DX2                !
 ! D41   D(6,3,14,15)          -87.4733         estimate D2E/DX2                !
 ! D42   D(6,3,14,20)          152.4858         estimate D2E/DX2                !
 ! D43   D(6,3,14,26)           27.8047         estimate D2E/DX2                !
 ! D44   D(3,4,11,1)            -1.4941         estimate D2E/DX2                !
 ! D45   D(3,4,11,7)           179.6218         estimate D2E/DX2                !
 ! D46   D(12,4,11,1)          178.5916         estimate D2E/DX2                !
 ! D47   D(12,4,11,7)           -0.2924         estimate D2E/DX2                !
 ! D48   D(8,7,11,1)          -177.4735         estimate D2E/DX2                !
 ! D49   D(8,7,11,4)             1.3047         estimate D2E/DX2                !
 ! D50   D(9,7,11,1)           -57.5292         estimate D2E/DX2                !
 ! D51   D(9,7,11,4)           121.249          estimate D2E/DX2                !
 ! D52   D(10,7,11,1)           62.5949         estimate D2E/DX2                !
 ! D53   D(10,7,11,4)         -118.6269         estimate D2E/DX2                !
 ! D54   D(3,14,20,18)         -29.266          estimate D2E/DX2                !
 ! D55   D(3,14,20,21)         152.8851         estimate D2E/DX2                !
 ! D56   D(15,14,20,18)       -148.232          estimate D2E/DX2                !
 ! D57   D(15,14,20,21)         33.9191         estimate D2E/DX2                !
 ! D58   D(26,14,20,18)         94.4638         estimate D2E/DX2                !
 ! D59   D(26,14,20,21)        -83.3851         estimate D2E/DX2                !
 ! D60   D(3,14,26,27)         -60.2772         estimate D2E/DX2                !
 ! D61   D(3,14,26,28)          61.5111         estimate D2E/DX2                !
 ! D62   D(3,14,26,35)         178.0402         estimate D2E/DX2                !
 ! D63   D(15,14,26,27)         55.6141         estimate D2E/DX2                !
 ! D64   D(15,14,26,28)        177.4024         estimate D2E/DX2                !
 ! D65   D(15,14,26,35)        -66.0684         estimate D2E/DX2                !
 ! D66   D(20,14,26,27)        174.6042         estimate D2E/DX2                !
 ! D67   D(20,14,26,28)        -63.6076         estimate D2E/DX2                !
 ! D68   D(20,14,26,35)         52.9216         estimate D2E/DX2                !
 ! D69   D(2,16,18,19)        -152.3529         estimate D2E/DX2                !
 ! D70   D(2,16,18,20)          29.6671         estimate D2E/DX2                !
 ! D71   D(17,16,18,19)        -35.6387         estimate D2E/DX2                !
 ! D72   D(17,16,18,20)        146.3813         estimate D2E/DX2                !
 ! D73   D(22,16,18,19)         81.211          estimate D2E/DX2                !
 ! D74   D(22,16,18,20)        -96.7691         estimate D2E/DX2                !
 ! D75   D(2,16,22,23)          59.9123         estimate D2E/DX2                !
 ! D76   D(2,16,22,24)         179.2194         estimate D2E/DX2                !
 ! D77   D(2,16,22,25)         -60.7854         estimate D2E/DX2                !
 ! D78   D(17,16,22,23)        -56.2292         estimate D2E/DX2                !
 ! D79   D(17,16,22,24)         63.078          estimate D2E/DX2                !
 ! D80   D(17,16,22,25)       -176.9268         estimate D2E/DX2                !
 ! D81   D(18,16,22,23)       -174.0805         estimate D2E/DX2                !
 ! D82   D(18,16,22,24)        -54.7733         estimate D2E/DX2                !
 ! D83   D(18,16,22,25)         65.2219         estimate D2E/DX2                !
 ! D84   D(16,18,20,14)          0.3054         estimate D2E/DX2                !
 ! D85   D(16,18,20,21)        178.0981         estimate D2E/DX2                !
 ! D86   D(19,18,20,14)       -177.6212         estimate D2E/DX2                !
 ! D87   D(19,18,20,21)          0.1715         estimate D2E/DX2                !
 ! D88   D(14,26,35,29)         82.3485         estimate D2E/DX2                !
 ! D89   D(27,26,35,29)        -39.7976         estimate D2E/DX2                !
 ! D90   D(28,26,35,29)       -157.1691         estimate D2E/DX2                !
 ! D91   D(34,29,30,31)       -122.9624         estimate D2E/DX2                !
 ! D92   D(34,29,30,32)         -1.9017         estimate D2E/DX2                !
 ! D93   D(34,29,30,33)        118.9248         estimate D2E/DX2                !
 ! D94   D(35,29,30,31)         57.3685         estimate D2E/DX2                !
 ! D95   D(35,29,30,32)        178.4292         estimate D2E/DX2                !
 ! D96   D(35,29,30,33)        -60.7443         estimate D2E/DX2                !
 ! D97   D(30,29,35,26)       -178.9896         estimate D2E/DX2                !
 ! D98   D(34,29,35,26)          1.3333         estimate D2E/DX2                !
 --------------------------------------------------------------------------------
 Trust Radius=3.00D-01 FncErr=1.00D-07 GrdErr=1.00D-06
 Number of steps in this run=    210 maximum allowed number of steps=    210.
 GradGradGradGradGradGradGradGradGradGradGradGradGradGradGradGradGradGrad

                          Input orientation:                          
 ---------------------------------------------------------------------
 Center     Atomic      Atomic             Coordinates (Angstroms)
 Number     Number       Type             X           Y           Z
 ---------------------------------------------------------------------
      1          6           0       -2.849400    0.177020   -0.079760
      2          6           0       -1.603760    0.842220   -0.651020
      3          6           0       -0.580850   -0.309570   -0.773120
      4          6           0       -1.336400   -1.544810   -0.294310
      5          1           0       -1.894150    1.191670   -1.647700
      6          1           0       -0.346180   -0.502070   -1.826030
      7          6           0       -3.625070   -2.096000    0.554690
      8          1           0       -3.176370   -3.087280    0.610030
      9          1           0       -3.960860   -1.783780    1.545640
     10          1           0       -4.482060   -2.114150   -0.122300
     11          7           0       -2.619430   -1.175490    0.060330
     12          8           0       -0.904580   -2.671390   -0.229000
     13          8           0       -3.894380    0.715210    0.206520
     14          6           0        0.742290   -0.178440    0.010900
     15          1           0        1.037660   -1.184840    0.323900
     16          6           0       -1.220100    2.070040    0.200410
     17          1           0       -2.148690    2.435590    0.652270
     18          6           0       -0.270610    1.699000    1.310100
     19          1           0       -0.295420    2.318430    2.204500
     20          6           0        0.600400    0.698060    1.229010
     21          1           0        1.277960    0.505080    2.056980
     22          6           0       -0.666270    3.219510   -0.651130
     23          1           0       -1.411180    3.545440   -1.384430
     24          1           0       -0.417050    4.078580   -0.020550
     25          1           0        0.240460    2.928840   -1.189570
     26          6           0        1.849230    0.327390   -0.919670
     27          1           0        1.998680   -0.373900   -1.744760
     28          1           0        1.612050    1.315110   -1.317980
     29          6           0        3.847790   -0.590140   -0.029250
     30          6           0        5.094530   -0.260420    0.739640
     31          1           0        4.828980    0.189690    1.699740
     32          1           0        5.677500   -1.166140    0.900490
     33          1           0        5.687150    0.470290    0.182740
     34          8           0        3.548420   -1.683560   -0.441980
     35          8           0        3.088380    0.505900   -0.214390
 ---------------------------------------------------------------------
                    Distance matrix (angstroms):
                    1          2          3          4          5
     1  C    0.000000
     2  C    1.523302   0.000000
     3  C    2.421536   1.545275   0.000000
     4  C    2.302151   2.428299   1.525101   0.000000
     5  H    2.097726   1.095360   2.177928   3.103397   0.000000
     6  H    3.126777   2.183866   1.095785   2.100954   2.301471
     7  C    2.484112   3.764647   3.771165   2.502523   4.319187
     8  H    3.352368   4.416370   4.045430   2.565645   5.005082
     9  H    2.778850   4.156574   4.355963   3.214080   4.829287
    10  H    2.813689   4.159841   4.347357   3.201392   4.466830
    11  N    1.379056   2.368282   2.366488   1.381424   3.007797
    12  O    3.452251   3.607272   2.445212   1.208270   4.232634
    13  O    1.209788   2.449173   3.604074   3.449896   2.768766
    14  C    3.610375   2.642695   1.543561   2.506207   3.402789
    15  H    4.138459   3.469372   2.142224   2.479501   4.257994
    16  C    2.513292   1.542618   2.649329   3.650399   2.154388
    17  H    2.475480   2.129399   3.467818   4.171260   2.627164
    18  C    3.301256   2.521379   2.910397   3.772578   3.412015
    19  H    4.040581   3.470583   3.981718   4.717236   4.320298
    20  C    3.726323   2.900623   2.533613   3.331991   3.839517
    21  H    4.659225   3.968783   3.482570   4.070073   4.925276
    22  C    3.788042   2.555464   3.532221   4.824432   2.571571
    23  H    3.888045   2.807557   3.990520   5.206208   2.417189
    24  H    4.598043   3.504254   4.455228   5.704618   3.628180
    25  H    4.283856   2.836400   3.366791   4.827165   2.790018
    26  C    4.775477   3.501480   2.516443   3.747592   3.910230
    27  H    5.155542   3.956361   2.757208   3.820680   4.196970
    28  H    4.767911   3.318116   2.783032   4.233249   3.523832
    29  C    6.741175   5.670772   4.499435   5.278018   6.226082
    30  C    7.998049   6.929418   5.873738   6.638944   7.526593
    31  H    7.881897   6.879826   5.969134   6.707953   7.576925
    32  H    8.687519   7.710865   6.534648   7.125007   8.329611
    33  H    8.545619   7.347847   6.388245   7.322463   7.832433
    34  O    6.672710   5.741796   4.364444   4.889021   6.272342
    35  O    5.948405   4.724398   3.800055   4.877548   5.229748
                    6          7          8          9         10
     6  H    0.000000
     7  C    4.354258   0.000000
     8  H    4.541770   1.089509   0.000000
     9  H    5.106550   1.091887   1.786030   0.000000
    10  H    4.754682   1.092281   1.785530   1.778431   0.000000
    11  N    3.029771   1.450187   2.065743   2.091793   2.093759
    12  O    2.751048   2.888998   2.457227   3.643905   3.622191
    13  O    4.266468   2.845462   3.890667   2.835950   2.908396
    14  C    2.159587   4.800685   4.916930   5.201169   5.573020
    15  H    2.646391   4.756525   4.632407   5.180403   5.615160
    16  C    3.389092   4.823410   5.531070   4.916639   5.315258
    17  H    4.245098   4.767025   5.617829   4.678157   5.171529
    18  C    3.832197   5.121042   5.642873   5.079683   5.859027
    19  H    4.919651   5.770237   6.329606   5.540548   6.526080
    20  C    3.416079   5.110389   5.382929   5.202391   5.963721
    21  H    4.327811   5.749974   5.902522   5.739824   6.692343
    22  C    3.915738   6.201866   6.904109   6.380676   6.579350
    23  H    4.208512   6.362966   7.147499   6.594449   6.561573
    24  H    4.924138   6.981958   7.704611   7.027005   7.408412
    25  H    3.538414   6.575240   7.148915   6.880498   6.990923
    26  C    2.515813   6.165591   6.265509   6.655219   6.832434
    27  H    2.349766   6.315035   6.299890   6.952022   6.903683
    28  H    2.719361   6.524568   6.784337   6.990048   7.094198
    29  C    4.563503   7.645406   7.482193   8.054817   8.468628
    30  C    6.020165   8.912631   8.741609   9.217936   9.792361
    31  H    6.300148   8.832128   8.718465   9.009973   9.763349
    32  H    6.645271   9.355321   9.064555   9.679653  10.254827
    33  H    6.432862   9.666521   9.560380  10.001121  10.496914
    34  O    4.298770   7.254131   6.949817   7.768524   8.048367
    35  O    3.925505   7.240979   7.268955   7.617882   8.011536
                   11         12         13         14         15
    11  N    0.000000
    12  O    2.293935   0.000000
    13  O    2.285085   4.538462   0.000000
    14  C    3.506810   2.997421   4.726054   0.000000
    15  H    3.666587   2.507554   5.286680   1.094556   0.000000
    16  C    3.537119   4.771279   2.997895   2.990410   3.963202
    17  H    3.689429   5.329699   2.491151   3.949971   4.834063
    18  C    3.916832   4.676650   3.913750   2.497733   3.316729
    19  H    4.712320   5.584917   4.417550   3.481822   4.193645
    20  C    3.904268   3.967865   4.609645   1.507374   2.134416
    21  H    4.690477   4.480976   5.497405   2.222743   2.432517
    22  C    4.861793   5.910811   4.174659   3.737431   4.822070
    23  H    5.082753   6.343551   4.087494   4.522351   5.593814
    24  H    5.697567   6.770763   4.843103   4.412174   5.471601
    25  H    5.156234   5.796239   4.893478   3.368702   4.455164
    26  C    4.815389   4.129549   5.865813   1.532038   2.119423
    27  H    5.022732   4.000613   6.302524   2.167732   2.420855
    28  H    5.099828   4.838542   5.744976   2.180160   3.045561
    29  C    6.494274   5.191967   7.854981   3.132928   2.893996
    30  C    7.797692   6.537611   9.057404   4.413590   4.181577
    31  H    7.747915   6.691751   8.865827   4.437199   4.261030
    32  H    8.339365   6.845824   9.779671   5.111088   4.675566
    33  H    8.468934   7.313726   9.584689   4.990192   4.937321
    34  O    6.209092   4.566221   7.846650   3.216341   2.671930
    35  O    5.956647   5.102854   6.998565   2.454224   2.711791
                   16         17         18         19         20
    16  C    0.000000
    17  H    1.095483   0.000000
    18  C    1.506856   2.121907   0.000000
    19  H    2.221060   2.420280   1.088237   0.000000
    20  C    2.500913   3.302898   1.329329   2.092767   0.000000
    21  H    3.483713   4.176363   2.093166   2.405312   1.087135
    22  C    1.533991   2.123900   2.512951   3.017300   3.390736
    23  H    2.173714   2.433893   3.459875   3.953592   4.357074
    24  H    2.174384   2.480056   2.730288   2.839678   3.744933
    25  H    2.191533   3.056748   2.832322   3.489911   3.309904
    26  C    3.702998   4.785276   3.368517   4.280678   2.512727
    27  H    4.485206   5.553347   4.333447   5.301716   3.456529
    28  H    3.300985   4.390960   3.255547   4.129523   2.809154
    29  C    5.728247   6.751095   4.898494   5.533137   3.713249
    30  C    6.752508   7.729187   5.740164   6.152060   4.621187
    31  H    6.509614   7.404670   5.332509   5.571875   4.284964
    32  H    7.651134   8.618777   6.614894   7.036934   5.418497
    33  H    7.090107   8.092172   6.186726   6.579839   5.198229
    34  O    6.102537   7.114903   5.394116   6.147755   4.141877
    35  O    4.602346   5.648159   3.876902   4.537223   2.882772
                   21         22         23         24         25
    21  H    0.000000
    22  C    4.299072   0.000000
    23  H    5.321519   1.094920   0.000000
    24  H    4.467560   1.094414   1.769944   0.000000
    25  H    4.182237   1.093877   1.773719   1.766587   0.000000
    26  C    3.036177   3.842423   4.604576   4.473910   3.070591
    27  H    3.968031   4.605495   5.207515   5.351003   3.782547
    28  H    3.486850   3.043381   3.757487   3.665697   2.121762
    29  C    3.486530   5.939436   6.826148   6.323439   5.171305
    30  C    4.109450   6.872479   7.830741   7.055659   6.120067
    31  H    3.582853   6.701057   7.727403   6.753051   6.074996
    32  H    4.846277   7.866694   8.813015   8.093142   7.120296
    33  H    4.791132   6.972768   7.892963   7.093824   6.131406
    34  O    4.023672   6.468961   7.268307   7.007483   5.725009
    35  O    2.904607   4.653151   5.554623   5.008958   3.864229
                   26         27         28         29         30
    26  C    0.000000
    27  H    1.093122   0.000000
    28  H    1.091099   1.784483   0.000000
    29  C    2.372541   2.531589   3.207699   0.000000
    30  C    3.691992   3.971071   4.340940   1.501422   0.000000
    31  H    3.969783   4.493641   4.552125   2.135480   1.093118
    32  H    4.494359   4.599860   5.254150   2.131673   1.089062
    33  H    3.995667   4.246495   4.424062   2.133705   1.093285
    34  O    2.675697   2.411253   3.675449   1.206456   2.410811
    35  O    1.436934   2.074494   2.013028   1.346211   2.349906
                   31         32         33         34         35
    31  H    0.000000
    32  H    1.788033   0.000000
    33  H    1.765356   1.786942   0.000000
    34  O    3.120235   2.569617   3.098953   0.000000
    35  O    2.606448   3.277532   2.629180   2.248815   0.000000
 Stoichiometry    C13H17NO4
 Framework group  C1[X(C13H17NO4)]
 Deg. of freedom    99
 Full point group                 C1      NOp   1
 Largest Abelian subgroup         C1      NOp   1
 Largest concise Abelian subgroup C1      NOp   1
                         Standard orientation:                         
 ---------------------------------------------------------------------
 Center     Atomic      Atomic             Coordinates (Angstroms)
 Number     Number       Type             X           Y           Z
 ---------------------------------------------------------------------
      1          6           0       -2.854513    0.151873   -0.080353
      2          6           0       -1.614805    0.824522   -0.655781
      3          6           0       -0.581334   -0.318653   -0.769626
      4          6           0       -1.325711   -1.557446   -0.282567
      5          1           0       -1.908007    1.164430   -1.654935
      6          1           0       -0.344508   -0.516232   -1.821112
      7          6           0       -3.609556   -2.123745    0.569478
      8          1           0       -3.151809   -3.110465    0.631782
      9          1           0       -3.948572   -1.807808    1.558149
     10          1           0       -4.466086   -2.154409   -0.107643
     11          7           0       -2.612208   -1.197475    0.069115
     12          8           0       -0.883607   -2.679544   -0.209368
     13          8           0       -3.904492    0.682416    0.201884
     14          6           0        0.740250   -0.170007    0.013893
     15          1           0        1.044713   -1.171480    0.333906
     16          6           0       -1.242741    2.061635    0.187301
     17          1           0       -2.174815    2.421755    0.636339
     18          6           0       -0.290313    1.706959    1.299820
     19          1           0       -0.321141    2.332273    2.189928
     20          6           0        0.589867    0.713513    1.225897
     21          1           0        1.268852    0.532454    2.055391
     22          6           0       -0.699147    3.210251   -0.671953
     23          1           0       -1.446734    3.524285   -1.407716
     24          1           0       -0.458052    4.075887   -0.047221
     25          1           0        0.210415    2.924210   -1.208092
     26          6           0        1.842861    0.339538   -0.919783
     27          1           0        1.999048   -0.366011   -1.739980
     28          1           0        1.596789    1.322279   -1.324957
     29          6           0        3.849408   -0.553481   -0.022435
     30          6           0        5.092780   -0.207063    0.744564
     31          1           0        4.822750    0.247187    1.701460
     32          1           0        5.683967   -1.106271    0.911829
     33          1           0        5.678889    0.525202    0.182837
     34          8           0        3.560231   -1.652414   -0.427725
     35          8           0        3.080054    0.534250   -0.215355
 ---------------------------------------------------------------------
 Rotational constants (GHZ):      0.7299139      0.2729786      0.2181829
 General basis read from cards:  (5D, 7F)
 There are   822 symmetry adapted cartesian basis functions of A   symmetry.
 There are   732 symmetry adapted basis functions of A   symmetry.
   732 basis functions,  1126 primitive gaussians,   822 cartesian basis functions
    67 alpha electrons       67 beta electrons
       nuclear repulsion energy      1388.8564523551 Hartrees.
 NAtoms=   35 NActive=   35 NUniq=   35 SFac= 1.00D+00 NAtFMM=   60 NAOKFM=F Big=F
 Integral buffers will be    131072 words long.
 Raffenetti 2 integral format.
 Two-electron integral symmetry is turned on.
 Nuclear repulsion after empirical dispersion term =     1388.8282799282 Hartrees.
 ------------------------------------------------------------------------------
 Polarizable Continuum Model (PCM)
 =================================
 Model                : PCM (using non-symmetric T matrix).
 Atomic radii         : SMD-Coulomb.
 Polarization charges : Total charges.
 Charge compensation  : None.
 Solution method      : On-the-fly selection.
 Cavity type          : VdW (van der Waals Surface) (Alpha=1.000).
 Cavity algorithm     : GePol (No added spheres)
                        Default sphere list used, NSphG=   35.
                        Lebedev-Laikov grids with approx.  5.0 points / Ang**2.
                        Smoothing algorithm: Karplus/York (Gamma=1.0000).
                        Polarization charges: spherical gaussians, with
                                              point-specific exponents (IZeta= 3).
                        Self-potential: point-specific (ISelfS= 7).
                        Self-field    : sphere-specific E.n sum rule (ISelfD= 2).
 1st derivatives      : Analytical E(r).r(x)/FMM algorithm (CHGder, D1EAlg=3).
                        Cavity 1st derivative terms included.
 Solvent              : Toluene, Eps=   2.374100 Eps(inf)=   2.238315
 ------------------------------------------------------------------------------
 ------------------------------------------------------------------------------
 Atomic radii for non-electrostatic terms: SMD-CDS.
 ------------------------------------------------------------------------------
 Nuclear repulsion after PCM non-electrostatic terms =     1388.8182974858 Hartrees.
 One-electron integrals computed using PRISM.
 NBasis=   732 RedAO= T EigKep=  1.24D-06  NBF=   732
 NBsUse=   729 1.00D-06 EigRej=  6.66D-07 NBFU=   729
 ExpMin= 3.17D-02 ExpMax= 2.70D+04 ExpMxC= 9.22D+02 IAcc=3 IRadAn=         5 AccDes= 0.00D+00
 Harris functional with IExCor= 4639 and IRadAn=       5 diagonalized for initial guess.
 HarFok:  IExCor= 4639 AccDes= 0.00D+00 IRadAn=         5 IDoV= 1 UseB2=F ITyADJ=14
 ICtDFT=  3500011 ScaDFX=  1.000000  1.000000  1.000000  1.000000
 FoFCou: FMM=F IPFlag=           0 FMFlag=      100000 FMFlg1=           0
         NFxFlg=           0 DoJE=T BraDBF=F KetDBF=T FulRan=T
         wScrn=  0.000000 ICntrl=     500 IOpCl=  0 I1Cent=   200000004 NGrid=           0
         NMat0=    1 NMatS0=      1 NMatT0=    0 NMatD0=    1 NMtDS0=    0 NMtDT0=    0
 Petite list used in FoFCou.
 Requested convergence on RMS density matrix=1.00D-08 within 128 cycles.
 Requested convergence on MAX density matrix=1.00D-06.
 Requested convergence on             energy=1.00D-06.
 No special actions if energy rises.
 Inv3:  Mode=1 IEnd=    21210843.
 Iteration    1 A*A^-1 deviation from unit magnitude is 7.11D-15 for    664.
 Iteration    1 A*A^-1 deviation from orthogonality  is 6.37D-15 for   1452    388.
 Iteration    1 A^-1*A deviation from unit magnitude is 7.11D-15 for    306.
 Iteration    1 A^-1*A deviation from orthogonality  is 6.07D-15 for   1215   1209.
 Error on total polarization charges =  0.02112
 SCF Done:  E(RwB97XD) =  -861.393606735     A.U. after   14 cycles
            NFock= 14  Conv=0.76D-08     -V/T= 2.0049
 SMD-CDS (non-electrostatic) energy       (kcal/mol) =      -6.26
 (included in total energy above)

 **********************************************************************

            Population analysis using the SCF density.

 **********************************************************************

 Orbital symmetries:
       Occupied  (A) (A) (A) (A) (A) (A) (A) (A) (A) (A) (A) (A)
                 (A) (A) (A) (A) (A) (A) (A) (A) (A) (A) (A) (A)
                 (A) (A) (A) (A) (A) (A) (A) (A) (A) (A) (A) (A)
                 (A) (A) (A) (A) (A) (A) (A) (A) (A) (A) (A) (A)
                 (A) (A) (A) (A) (A) (A) (A) (A) (A) (A) (A) (A)
                 (A) (A) (A) (A) (A) (A) (A)
       Virtual   (A) (A) (A) (A) (A) (A) (A) (A) (A) (A) (A) (A)
                 (A) (A) (A) (A) (A) (A) (A) (A) (A) (A) (A) (A)
                 (A) (A) (A) (A) (A) (A) (A) (A) (A) (A) (A) (A)
                 (A) (A) (A) (A) (A) (A) (A) (A) (A) (A) (A) (A)
                 (A) (A) (A) (A) (A) (A) (A) (A) (A) (A) (A) (A)
                 (A) (A) (A) (A) (A) (A) (A) (A) (A) (A) (A) (A)
                 (A) (A) (A) (A) (A) (A) (A) (A) (A) (A) (A) (A)
                 (A) (A) (A) (A) (A) (A) (A) (A) (A) (A) (A) (A)
                 (A) (A) (A) (A) (A) (A) (A) (A) (A) (A) (A) (A)
                 (A) (A) (A) (A) (A) (A) (A) (A) (A) (A) (A) (A)
                 (A) (A) (A) (A) (A) (A) (A) (A) (A) (A) (A) (A)
                 (A) (A) (A) (A) (A) (A) (A) (A) (A) (A) (A) (A)
                 (A) (A) (A) (A) (A) (A) (A) (A) (A) (A) (A) (A)
                 (A) (A) (A) (A) (A) (A) (A) (A) (A) (A) (A) (A)
                 (A) (A) (A) (A) (A) (A) (A) (A) (A) (A) (A) (A)
                 (A) (A) (A) (A) (A) (A) (A) (A) (A) (A) (A) (A)
                 (A) (A) (A) (A) (A) (A) (A) (A) (A) (A) (A) (A)
                 (A) (A) (A) (A) (A) (A) (A) (A) (A) (A) (A) (A)
                 (A) (A) (A) (A) (A) (A) (A) (A) (A) (A) (A) (A)
                 (A) (A) (A) (A) (A) (A) (A) (A) (A) (A) (A) (A)
                 (A) (A) (A) (A) (A) (A) (A) (A) (A) (A) (A) (A)
                 (A) (A) (A) (A) (A) (A) (A) (A) (A) (A) (A) (A)
                 (A) (A) (A) (A) (A) (A) (A) (A) (A) (A) (A) (A)
                 (A) (A) (A) (A) (A) (A) (A) (A) (A) (A) (A) (A)
                 (A) (A) (A) (A) (A) (A) (A) (A) (A) (A) (A) (A)
                 (A) (A) (A) (A) (A) (A) (A) (A) (A) (A) (A) (A)
                 (A) (A) (A) (A) (A) (A) (A) (A) (A) (A) (A) (A)
                 (A) (A) (A) (A) (A) (A) (A) (A) (A) (A) (A) (A)
                 (A) (A) (A) (A) (A) (A) (A) (A) (A) (A) (A) (A)
                 (A) (A) (A) (A) (A) (A) (A) (A) (A) (A) (A) (A)
                 (A) (A) (A) (A) (A) (A) (A) (A) (A) (A) (A) (A)
                 (A) (A) (A) (A) (A) (A) (A) (A) (A) (A) (A) (A)
                 (A) (A) (A) (A) (A) (A) (A) (A) (A) (A) (A) (A)
                 (A) (A) (A) (A) (A) (A) (A) (A) (A) (A) (A) (A)
                 (A) (A) (A) (A) (A) (A) (A) (A) (A) (A) (A) (A)
                 (A) (A) (A) (A) (A) (A) (A) (A) (A) (A) (A) (A)
                 (A) (A) (A) (A) (A) (A) (A) (A) (A) (A) (A) (A)
                 (A) (A) (A) (A) (A) (A) (A) (A) (A) (A) (A) (A)
                 (A) (A) (A) (A) (A) (A) (A) (A) (A) (A) (A) (A)
                 (A) (A) (A) (A) (A) (A) (A) (A) (A) (A) (A) (A)
                 (A) (A) (A) (A) (A) (A) (A) (A) (A) (A) (A) (A)
                 (A) (A) (A) (A) (A) (A) (A) (A) (A) (A) (A) (A)
                 (A) (A) (A) (A) (A) (A) (A) (A) (A) (A) (A) (A)
                 (A) (A) (A) (A) (A) (A) (A) (A) (A) (A) (A) (A)
                 (A) (A) (A) (A) (A) (A) (A) (A) (A) (A) (A) (A)
                 (A) (A) (A) (A) (A) (A) (A) (A) (A) (A) (A) (A)
                 (A) (A) (A) (A) (A) (A) (A) (A) (A) (A) (A) (A)
                 (A) (A) (A) (A) (A) (A) (A) (A) (A) (A) (A) (A)
                 (A) (A) (A) (A) (A) (A) (A) (A) (A) (A) (A) (A)
                 (A) (A) (A) (A) (A) (A) (A) (A) (A) (A) (A) (A)
                 (A) (A) (A) (A) (A) (A) (A) (A) (A) (A) (A) (A)
                 (A) (A) (A) (A) (A) (A) (A) (A) (A) (A) (A) (A)
                 (A) (A) (A) (A) (A) (A) (A) (A) (A) (A) (A) (A)
                 (A) (A) (A) (A) (A) (A) (A) (A) (A) (A) (A) (A)
                 (A) (A) (A) (A) (A) (A) (A) (A) (A) (A) (A) (A)
                 (A) (A)
 The electronic state is 1-A.
 Alpha  occ. eigenvalues --  -19.29768 -19.23926 -19.23890 -19.23648 -14.49252
 Alpha  occ. eigenvalues --  -10.41754 -10.40523 -10.40341 -10.34390 -10.31876
 Alpha  occ. eigenvalues --  -10.31595 -10.31210 -10.30529 -10.30260 -10.28900
 Alpha  occ. eigenvalues --  -10.28750 -10.28653 -10.27845  -1.21234  -1.17775
 Alpha  occ. eigenvalues --   -1.15519  -1.12191  -1.06381  -0.96637  -0.90153
 Alpha  occ. eigenvalues --   -0.89104  -0.85968  -0.82643  -0.80134  -0.78816
 Alpha  occ. eigenvalues --   -0.74848  -0.71459  -0.71028  -0.66201  -0.64430
 Alpha  occ. eigenvalues --   -0.61424  -0.59827  -0.59523  -0.58173  -0.57608
 Alpha  occ. eigenvalues --   -0.56901  -0.56390  -0.55481  -0.53778  -0.52947
 Alpha  occ. eigenvalues --   -0.52344  -0.51542  -0.51003  -0.50786  -0.49690
 Alpha  occ. eigenvalues --   -0.48942  -0.48769  -0.48269  -0.46792  -0.46255
 Alpha  occ. eigenvalues --   -0.46029  -0.44796  -0.44496  -0.42494  -0.41710
 Alpha  occ. eigenvalues --   -0.39686  -0.39079  -0.37510  -0.36545  -0.36238
 Alpha  occ. eigenvalues --   -0.34590  -0.33513
 Alpha virt. eigenvalues --    0.04132   0.04776   0.04861   0.05229   0.05544
 Alpha virt. eigenvalues --    0.06674   0.06730   0.07014   0.07476   0.07633
 Alpha virt. eigenvalues --    0.07973   0.08404   0.08500   0.09287   0.09555
 Alpha virt. eigenvalues --    0.09815   0.10003   0.10491   0.10784   0.11207
 Alpha virt. eigenvalues --    0.11369   0.11713   0.12110   0.12658   0.13008
 Alpha virt. eigenvalues --    0.13333   0.13653   0.14357   0.14511   0.14706
 Alpha virt. eigenvalues --    0.14943   0.15329   0.15504   0.16079   0.16312
 Alpha virt. eigenvalues --    0.16835   0.17218   0.17412   0.17853   0.18029
 Alpha virt. eigenvalues --    0.18400   0.18666   0.19134   0.19387   0.19797
 Alpha virt. eigenvalues --    0.20112   0.20382   0.20620   0.20863   0.21297
 Alpha virt. eigenvalues --    0.21512   0.22132   0.22476   0.22870   0.23292
 Alpha virt. eigenvalues --    0.23430   0.23576   0.23943   0.24301   0.24696
 Alpha virt. eigenvalues --    0.24898   0.25129   0.25623   0.25757   0.26375
 Alpha virt. eigenvalues --    0.26577   0.26804   0.27254   0.27344   0.27723
 Alpha virt. eigenvalues --    0.28158   0.28925   0.29115   0.29166   0.29270
 Alpha virt. eigenvalues --    0.29865   0.30364   0.30543   0.30897   0.31017
 Alpha virt. eigenvalues --    0.31178   0.31790   0.31969   0.32290   0.32617
 Alpha virt. eigenvalues --    0.32839   0.33638   0.33904   0.34450   0.34576
 Alpha virt. eigenvalues --    0.35121   0.35451   0.36096   0.36675   0.37057
 Alpha virt. eigenvalues --    0.37564   0.38128   0.38501   0.39182   0.39426
 Alpha virt. eigenvalues --    0.39985   0.40620   0.41025   0.41702   0.42080
 Alpha virt. eigenvalues --    0.42962   0.43084   0.43468   0.44790   0.44853
 Alpha virt. eigenvalues --    0.45336   0.45971   0.46211   0.46935   0.47823
 Alpha virt. eigenvalues --    0.48482   0.48648   0.49191   0.49649   0.50650
 Alpha virt. eigenvalues --    0.50781   0.51136   0.52047   0.52231   0.52617
 Alpha virt. eigenvalues --    0.53388   0.53431   0.53858   0.54724   0.55138
 Alpha virt. eigenvalues --    0.55853   0.55950   0.56362   0.56580   0.56849
 Alpha virt. eigenvalues --    0.57762   0.58189   0.58405   0.58790   0.59240
 Alpha virt. eigenvalues --    0.59462   0.60168   0.60433   0.60813   0.61319
 Alpha virt. eigenvalues --    0.61451   0.61831   0.62772   0.63159   0.63699
 Alpha virt. eigenvalues --    0.63989   0.64173   0.64572   0.65775   0.66406
 Alpha virt. eigenvalues --    0.66685   0.67029   0.67423   0.67786   0.68209
 Alpha virt. eigenvalues --    0.68335   0.69654   0.69945   0.71129   0.71851
 Alpha virt. eigenvalues --    0.72701   0.73070   0.73266   0.73993   0.75346
 Alpha virt. eigenvalues --    0.76166   0.76768   0.77354   0.77872   0.78749
 Alpha virt. eigenvalues --    0.79959   0.80585   0.81114   0.81222   0.82045
 Alpha virt. eigenvalues --    0.82664   0.83042   0.83600   0.84037   0.85081
 Alpha virt. eigenvalues --    0.85646   0.86446   0.87168   0.87554   0.90064
 Alpha virt. eigenvalues --    0.90821   0.93217   0.93596   0.93648   0.94472
 Alpha virt. eigenvalues --    0.95632   0.95743   0.96558   0.97752   0.99753
 Alpha virt. eigenvalues --    1.00424   1.00676   1.02329   1.02798   1.03314
 Alpha virt. eigenvalues --    1.04230   1.04901   1.05641   1.07331   1.08295
 Alpha virt. eigenvalues --    1.10433   1.10903   1.12232   1.12939   1.13453
 Alpha virt. eigenvalues --    1.14295   1.15218   1.15898   1.16496   1.16667
 Alpha virt. eigenvalues --    1.17306   1.18239   1.18639   1.19129   1.20043
 Alpha virt. eigenvalues --    1.21159   1.21530   1.22562   1.22858   1.23731
 Alpha virt. eigenvalues --    1.24448   1.25221   1.25530   1.27746   1.28477
 Alpha virt. eigenvalues --    1.29872   1.30786   1.32101   1.34715   1.35232
 Alpha virt. eigenvalues --    1.35468   1.35945   1.36924   1.38825   1.39358
 Alpha virt. eigenvalues --    1.39762   1.40277   1.42604   1.43133   1.44608
 Alpha virt. eigenvalues --    1.45723   1.47687   1.48708   1.49579   1.50947
 Alpha virt. eigenvalues --    1.51916   1.53247   1.53584   1.55899   1.57527
 Alpha virt. eigenvalues --    1.58348   1.60335   1.60752   1.60913   1.61270
 Alpha virt. eigenvalues --    1.62274   1.64776   1.65361   1.65894   1.66366
 Alpha virt. eigenvalues --    1.66809   1.66928   1.67679   1.68472   1.68857
 Alpha virt. eigenvalues --    1.69822   1.70594   1.71576   1.71723   1.72588
 Alpha virt. eigenvalues --    1.73531   1.74188   1.74630   1.75355   1.75623
 Alpha virt. eigenvalues --    1.76915   1.78572   1.78975   1.79390   1.80453
 Alpha virt. eigenvalues --    1.81403   1.82079   1.85139   1.85502   1.86758
 Alpha virt. eigenvalues --    1.86837   1.87845   1.88656   1.89836   1.90598
 Alpha virt. eigenvalues --    1.91759   1.92305   1.92903   1.94261   1.94401
 Alpha virt. eigenvalues --    1.97628   1.98246   1.99566   2.00814   2.02531
 Alpha virt. eigenvalues --    2.03505   2.04161   2.05741   2.06592   2.07034
 Alpha virt. eigenvalues --    2.08924   2.09755   2.10249   2.10836   2.12073
 Alpha virt. eigenvalues --    2.13646   2.14400   2.14650   2.15982   2.16823
 Alpha virt. eigenvalues --    2.17851   2.19211   2.20594   2.21246   2.21896
 Alpha virt. eigenvalues --    2.23121   2.23607   2.25035   2.25327   2.26532
 Alpha virt. eigenvalues --    2.27244   2.29362   2.30436   2.31592   2.32273
 Alpha virt. eigenvalues --    2.32774   2.34938   2.35402   2.36672   2.37480
 Alpha virt. eigenvalues --    2.37694   2.38901   2.40088   2.41871   2.42613
 Alpha virt. eigenvalues --    2.43302   2.43782   2.44880   2.45585   2.46019
 Alpha virt. eigenvalues --    2.47211   2.47997   2.48299   2.49541   2.50417
 Alpha virt. eigenvalues --    2.51282   2.52270   2.52684   2.53410   2.53717
 Alpha virt. eigenvalues --    2.54925   2.55755   2.56533   2.57016   2.59299
 Alpha virt. eigenvalues --    2.59882   2.60955   2.61545   2.62449   2.64070
 Alpha virt. eigenvalues --    2.64729   2.65625   2.66087   2.67427   2.68348
 Alpha virt. eigenvalues --    2.69742   2.70310   2.71714   2.71926   2.73142
 Alpha virt. eigenvalues --    2.73669   2.74660   2.75922   2.77300   2.78043
 Alpha virt. eigenvalues --    2.78506   2.80364   2.81179   2.83341   2.84193
 Alpha virt. eigenvalues --    2.84938   2.85450   2.86710   2.87643   2.88516
 Alpha virt. eigenvalues --    2.89469   2.90923   2.92006   2.92936   2.94411
 Alpha virt. eigenvalues --    2.94935   2.96664   2.96959   2.97920   2.98471
 Alpha virt. eigenvalues --    2.99754   3.00137   3.02221   3.02232   3.04667
 Alpha virt. eigenvalues --    3.05943   3.06063   3.06985   3.07191   3.09644
 Alpha virt. eigenvalues --    3.10368   3.10910   3.12190   3.12622   3.13144
 Alpha virt. eigenvalues --    3.14375   3.14876   3.16414   3.17105   3.17702
 Alpha virt. eigenvalues --    3.18156   3.19267   3.20205   3.20512   3.20941
 Alpha virt. eigenvalues --    3.22241   3.22354   3.23189   3.24295   3.26419
 Alpha virt. eigenvalues --    3.26638   3.27960   3.28912   3.29830   3.30489
 Alpha virt. eigenvalues --    3.31647   3.32140   3.33029   3.33137   3.34364
 Alpha virt. eigenvalues --    3.34653   3.35359   3.36360   3.37436   3.37960
 Alpha virt. eigenvalues --    3.38886   3.39373   3.40076   3.41854   3.42083
 Alpha virt. eigenvalues --    3.42424   3.43146   3.43765   3.44823   3.45369
 Alpha virt. eigenvalues --    3.46226   3.46487   3.47510   3.48278   3.48758
 Alpha virt. eigenvalues --    3.49705   3.50154   3.50527   3.51084   3.51603
 Alpha virt. eigenvalues --    3.52896   3.54058   3.54985   3.55899   3.57067
 Alpha virt. eigenvalues --    3.57433   3.57968   3.58318   3.59474   3.60066
 Alpha virt. eigenvalues --    3.60521   3.61860   3.64244   3.65503   3.67019
 Alpha virt. eigenvalues --    3.67354   3.67582   3.69029   3.69890   3.70810
 Alpha virt. eigenvalues --    3.72696   3.73450   3.75014   3.75933   3.76120
 Alpha virt. eigenvalues --    3.77550   3.78586   3.79730   3.80401   3.82752
 Alpha virt. eigenvalues --    3.84935   3.86278   3.86718   3.87405   3.89753
 Alpha virt. eigenvalues --    3.90687   3.91126   3.92200   3.94086   3.96239
 Alpha virt. eigenvalues --    3.97162   3.98699   4.00099   4.01073   4.01291
 Alpha virt. eigenvalues --    4.04903   4.05184   4.06749   4.07323   4.09768
 Alpha virt. eigenvalues --    4.11353   4.12977   4.13923   4.16913   4.17796
 Alpha virt. eigenvalues --    4.19392   4.22105   4.23355   4.24695   4.26547
 Alpha virt. eigenvalues --    4.27489   4.28375   4.29307   4.30534   4.30948
 Alpha virt. eigenvalues --    4.32442   4.34184   4.38335   4.40733   4.42172
 Alpha virt. eigenvalues --    4.44943   4.45494   4.47488   4.47949   4.48886
 Alpha virt. eigenvalues --    4.49254   4.51198   4.53648   4.55578   4.55967
 Alpha virt. eigenvalues --    4.57954   4.59553   4.60219   4.64521   4.64599
 Alpha virt. eigenvalues --    4.65799   4.67965   4.68976   4.69637   4.72929
 Alpha virt. eigenvalues --    4.74487   4.79289   4.80812   4.84694   4.86872
 Alpha virt. eigenvalues --    4.89672   4.90887   4.93235   4.94361   4.95863
 Alpha virt. eigenvalues --    4.97807   4.99945   5.04902   5.07136   5.07715
 Alpha virt. eigenvalues --    5.09510   5.13848   5.17198   5.18674   5.21160
 Alpha virt. eigenvalues --    5.23499   5.26088   5.26584   5.26870   5.28812
 Alpha virt. eigenvalues --    5.29563   5.35189   5.37011   5.37638   5.40113
 Alpha virt. eigenvalues --    5.40194   5.50039   5.51579   5.52708   5.53822
 Alpha virt. eigenvalues --    5.59515   5.68076   5.72300   5.72943   5.74363
 Alpha virt. eigenvalues --    5.81797   5.82638   5.84811   5.87986   5.95236
 Alpha virt. eigenvalues --    5.99008   6.08440   6.15173   6.16958   6.27936
 Alpha virt. eigenvalues --    6.28486   6.29831   6.31157   6.45233   6.47392
 Alpha virt. eigenvalues --    6.48638   6.51815   6.52444   6.58296   6.63156
 Alpha virt. eigenvalues --    6.66221   6.68035   6.78092   6.81308   6.83337
 Alpha virt. eigenvalues --    6.91204   6.95020   6.97340   6.98436   7.00601
 Alpha virt. eigenvalues --    7.04153   7.17341   7.19310   7.22992   7.28671
 Alpha virt. eigenvalues --    7.28902   7.29227   7.38953   7.53114  22.47935
 Alpha virt. eigenvalues --   22.51326  22.55232  22.62031  22.71384  22.76011
 Alpha virt. eigenvalues --   22.80879  22.95273  22.98878  23.08673  23.40720
 Alpha virt. eigenvalues --   23.46466  23.75270  33.04545  44.08985  44.20037
 Alpha virt. eigenvalues --   44.35369  44.37637
          Condensed to atoms (all electrons):
               1          2          3          4          5          6
     1  C    5.721597   0.300968  -0.114134  -0.336551  -0.045723  -0.014614
     2  C    0.300968   6.680833   1.315686  -0.561874   0.435382  -0.028508
     3  C   -0.114134   1.315686   7.301573  -0.551382  -0.014188   0.412574
     4  C   -0.336551  -0.561874  -0.551382   6.123463  -0.009676  -0.028011
     5  H   -0.045723   0.435382  -0.014188  -0.009676   0.543033  -0.009536
     6  H   -0.014614  -0.028508   0.412574  -0.028011  -0.009536   0.539527
     7  C   -0.055382  -0.027709  -0.019370  -0.083009   0.000063   0.001971
     8  H   -0.012682   0.012518   0.045761  -0.006404   0.000006  -0.000092
     9  H    0.023649   0.008760  -0.010278  -0.022719  -0.000069  -0.000019
    10  H   -0.009626  -0.013283  -0.009408   0.000874   0.000188   0.000084
    11  N    0.323676  -0.441386  -0.577914   0.493831   0.003447   0.007232
    12  O    0.020122  -0.027741  -0.212379   0.487154   0.000014   0.004259
    13  O    0.427018  -0.127260   0.007780   0.036292   0.003103  -0.000322
    14  C   -0.267235  -0.611810  -0.364908   0.445760  -0.009426  -0.035010
    15  H   -0.007518   0.002750   0.013105   0.010855  -0.000210  -0.001025
    16  C    0.008676  -1.263710  -1.287605   0.286962  -0.029123   0.011666
    17  H    0.014681  -0.000629   0.005048  -0.015306  -0.001487  -0.000265
    18  C   -0.055023   0.065263  -0.003240  -0.016052  -0.003237   0.000435
    19  H   -0.005293  -0.008050   0.002070   0.002609  -0.000163   0.000045
    20  C    0.062824   0.150454   0.110910  -0.136589   0.001602  -0.009938
    21  H    0.002483   0.003136   0.003979  -0.002806   0.000038  -0.000150
    22  C   -0.217645  -0.057042   0.113608   0.075812  -0.000885   0.004860
    23  H   -0.042995  -0.087444  -0.000613   0.008948   0.000770  -0.000013
    24  H    0.007662   0.052810   0.006152   0.001518   0.000372  -0.000006
    25  H    0.017264   0.056986   0.001244  -0.015718  -0.002043   0.000159
    26  C    0.104422   0.155539  -0.219979  -0.231650   0.003493   0.006205
    27  H    0.001591   0.002480  -0.022953  -0.017238  -0.000072   0.000488
    28  H    0.003863  -0.010751  -0.001836  -0.000940   0.000031  -0.001968
    29  C   -0.002968   0.044363   0.078647  -0.074430  -0.000106   0.001159
    30  C   -0.003933  -0.011122  -0.003558   0.012745   0.000139  -0.000096
    31  H   -0.000002   0.000295  -0.001373  -0.000069   0.000000   0.000000
    32  H   -0.000044  -0.000176   0.000864   0.000097   0.000000   0.000000
    33  H    0.000038   0.000273  -0.001463  -0.000531   0.000000   0.000000
    34  O   -0.000006  -0.005447   0.015173   0.022583  -0.000003   0.000079
    35  O    0.006819   0.003121  -0.048543  -0.029532  -0.000434   0.003091
               7          8          9         10         11         12
     1  C   -0.055382  -0.012682   0.023649  -0.009626   0.323676   0.020122
     2  C   -0.027709   0.012518   0.008760  -0.013283  -0.441386  -0.027741
     3  C   -0.019370   0.045761  -0.010278  -0.009408  -0.577914  -0.212379
     4  C   -0.083009  -0.006404  -0.022719   0.000874   0.493831   0.487154
     5  H    0.000063   0.000006  -0.000069   0.000188   0.003447   0.000014
     6  H    0.001971  -0.000092  -0.000019   0.000084   0.007232   0.004259
     7  C    5.053869   0.408500   0.418399   0.420728   0.267499  -0.025451
     8  H    0.408500   0.475363  -0.018319  -0.017371  -0.074641   0.003676
     9  H    0.418399  -0.018319   0.495109  -0.026829  -0.036977   0.000455
    10  H    0.420728  -0.017371  -0.026829   0.503525  -0.024613   0.002686
    11  N    0.267499  -0.074641  -0.036977  -0.024613   7.033321  -0.102778
    12  O   -0.025451   0.003676   0.000455   0.002686  -0.102778   8.266877
    13  O   -0.002597   0.001760  -0.002741  -0.004365  -0.111155  -0.002802
    14  C    0.007931  -0.000228   0.004480  -0.002148   0.013137   0.038735
    15  H   -0.000234  -0.000030   0.000003   0.000002  -0.001057   0.000373
    16  C   -0.006692  -0.004185  -0.008103   0.010351   0.137275   0.011486
    17  H   -0.000569   0.000003   0.000000  -0.000018  -0.001028   0.000034
    18  C   -0.001736   0.000638  -0.000350  -0.001391   0.036374   0.005250
    19  H    0.000210   0.000000  -0.000001   0.000000   0.001409  -0.000004
    20  C    0.002039   0.000803  -0.001148  -0.000127   0.029272   0.012563
    21  H    0.000248   0.000000   0.000002   0.000000   0.001005  -0.000018
    22  C    0.000206  -0.000164  -0.000619   0.001077  -0.018373  -0.000649
    23  H    0.000180   0.000000   0.000000   0.000000   0.001438  -0.000022
    24  H    0.000056   0.000000   0.000000   0.000000   0.000165  -0.000012
    25  H   -0.000194   0.000000   0.000000   0.000000  -0.001725   0.000098
    26  C    0.009711   0.000546   0.001146  -0.001128  -0.018831  -0.009523
    27  H    0.000131   0.000000   0.000000   0.000000   0.000345   0.001914
    28  H   -0.000043   0.000000   0.000000   0.000000  -0.000608  -0.000519
    29  C   -0.000512   0.000221   0.000017  -0.000035  -0.006202  -0.002174
    30  C   -0.000261  -0.000008  -0.000003   0.000004   0.001539   0.000333
    31  H    0.000003   0.000000   0.000000   0.000000   0.000006  -0.000018
    32  H   -0.000002   0.000000   0.000000   0.000000   0.000002   0.000001
    33  H    0.000001   0.000000   0.000000   0.000000  -0.000002   0.000005
    34  O    0.000034  -0.000002   0.000000   0.000000   0.000743   0.000804
    35  O    0.000478  -0.000002   0.000006  -0.000002  -0.000061  -0.000296
              13         14         15         16         17         18
     1  C    0.427018  -0.267235  -0.007518   0.008676   0.014681  -0.055023
     2  C   -0.127260  -0.611810   0.002750  -1.263710  -0.000629   0.065263
     3  C    0.007780  -0.364908   0.013105  -1.287605   0.005048  -0.003240
     4  C    0.036292   0.445760   0.010855   0.286962  -0.015306  -0.016052
     5  H    0.003103  -0.009426  -0.000210  -0.029123  -0.001487  -0.003237
     6  H   -0.000322  -0.035010  -0.001025   0.011666  -0.000265   0.000435
     7  C   -0.002597   0.007931  -0.000234  -0.006692  -0.000569  -0.001736
     8  H    0.001760  -0.000228  -0.000030  -0.004185   0.000003   0.000638
     9  H   -0.002741   0.004480   0.000003  -0.008103   0.000000  -0.000350
    10  H   -0.004365  -0.002148   0.000002   0.010351  -0.000018  -0.001391
    11  N   -0.111155   0.013137  -0.001057   0.137275  -0.001028   0.036374
    12  O   -0.002802   0.038735   0.000373   0.011486   0.000034   0.005250
    13  O    8.267411  -0.003735  -0.000077  -0.022507  -0.002640   0.012340
    14  C   -0.003735   6.503951   0.496919   0.632974  -0.017448  -0.156487
    15  H   -0.000077   0.496919   0.488847  -0.019377   0.000028   0.005196
    16  C   -0.022507   0.632974  -0.019377   7.943787   0.465272  -0.161009
    17  H   -0.002640  -0.017448   0.000028   0.465272   0.542198  -0.063114
    18  C    0.012340  -0.156487   0.005196  -0.161009  -0.063114   5.488650
    19  H   -0.000072   0.024748   0.000054  -0.045742  -0.005915   0.419997
    20  C    0.006336  -0.224536  -0.071008  -0.485848   0.011082   0.696439
    21  H    0.000000  -0.046064  -0.006035   0.006903   0.000024  -0.043740
    22  C   -0.007158   0.122527   0.005644  -0.042196  -0.067444  -0.019269
    23  H    0.002042   0.020679   0.000003  -0.021914  -0.004269   0.014046
    24  H    0.000498  -0.011723  -0.000001  -0.130361  -0.004819  -0.001510
    25  H   -0.001147  -0.036359   0.000050  -0.062234   0.005565   0.010939
    26  C   -0.001793  -0.294025  -0.078312   0.054402   0.007122  -0.145422
    27  H   -0.000037  -0.094259  -0.001468   0.003636   0.000006   0.000535
    28  H   -0.000031  -0.042017   0.003101   0.019189   0.000149   0.014108
    29  C    0.000094  -0.166550   0.000617  -0.049279   0.000041  -0.004472
    30  C    0.000025   0.080778  -0.002798   0.014033  -0.000022   0.004225
    31  H    0.000000  -0.004295  -0.000062  -0.001374   0.000000  -0.002047
    32  H    0.000000   0.008469  -0.000009   0.000219   0.000000   0.000043
    33  H    0.000000  -0.012128  -0.000013   0.000352   0.000000   0.000634
    34  O   -0.000001  -0.001144  -0.000056  -0.002056  -0.000003  -0.000748
    35  O   -0.000038  -0.042903  -0.011546  -0.000843  -0.000175   0.001874
              19         20         21         22         23         24
     1  C   -0.005293   0.062824   0.002483  -0.217645  -0.042995   0.007662
     2  C   -0.008050   0.150454   0.003136  -0.057042  -0.087444   0.052810
     3  C    0.002070   0.110910   0.003979   0.113608  -0.000613   0.006152
     4  C    0.002609  -0.136589  -0.002806   0.075812   0.008948   0.001518
     5  H   -0.000163   0.001602   0.000038  -0.000885   0.000770   0.000372
     6  H    0.000045  -0.009938  -0.000150   0.004860  -0.000013  -0.000006
     7  C    0.000210   0.002039   0.000248   0.000206   0.000180   0.000056
     8  H    0.000000   0.000803   0.000000  -0.000164   0.000000   0.000000
     9  H   -0.000001  -0.001148   0.000002  -0.000619   0.000000   0.000000
    10  H    0.000000  -0.000127   0.000000   0.001077   0.000000   0.000000
    11  N    0.001409   0.029272   0.001005  -0.018373   0.001438   0.000165
    12  O   -0.000004   0.012563  -0.000018  -0.000649  -0.000022  -0.000012
    13  O   -0.000072   0.006336   0.000000  -0.007158   0.002042   0.000498
    14  C    0.024748  -0.224536  -0.046064   0.122527   0.020679  -0.011723
    15  H    0.000054  -0.071008  -0.006035   0.005644   0.000003  -0.000001
    16  C   -0.045742  -0.485848   0.006903  -0.042196  -0.021914  -0.130361
    17  H   -0.005915   0.011082   0.000024  -0.067444  -0.004269  -0.004819
    18  C    0.419997   0.696439  -0.043740  -0.019269   0.014046  -0.001510
    19  H    0.483993  -0.032132  -0.006871  -0.005236  -0.000079   0.000394
    20  C   -0.032132   5.668275   0.431796  -0.080970  -0.001351   0.002520
    21  H   -0.006871   0.431796   0.492896   0.003124   0.000019  -0.000035
    22  C   -0.005236  -0.080970   0.003124   5.414073   0.489706   0.447529
    23  H   -0.000079  -0.001351   0.000019   0.489706   0.516913  -0.015703
    24  H    0.000394   0.002520  -0.000035   0.447529  -0.015703   0.511775
    25  H    0.000327   0.023712  -0.000090   0.353964  -0.028283  -0.020108
    26  C    0.003543   0.082939  -0.001370  -0.086045  -0.004373   0.000143
    27  H    0.000017   0.000559  -0.000168   0.001322   0.000001  -0.000003
    28  H   -0.000032   0.027219   0.000354  -0.014381  -0.000006  -0.000118
    29  C    0.000661   0.009249  -0.002246   0.004376   0.000368   0.000321
    30  C   -0.000403  -0.013879   0.000159   0.000104   0.000013  -0.000060
    31  H   -0.000001   0.001343   0.000279  -0.000013   0.000000   0.000000
    32  H    0.000000  -0.000502  -0.000008   0.000035   0.000000   0.000000
    33  H    0.000000   0.000208   0.000005  -0.000208   0.000000   0.000000
    34  O    0.000004  -0.004354   0.000344   0.001041   0.000001  -0.000004
    35  O    0.000727  -0.019908  -0.002150  -0.004687   0.000023   0.000341
              25         26         27         28         29         30
     1  C    0.017264   0.104422   0.001591   0.003863  -0.002968  -0.003933
     2  C    0.056986   0.155539   0.002480  -0.010751   0.044363  -0.011122
     3  C    0.001244  -0.219979  -0.022953  -0.001836   0.078647  -0.003558
     4  C   -0.015718  -0.231650  -0.017238  -0.000940  -0.074430   0.012745
     5  H   -0.002043   0.003493  -0.000072   0.000031  -0.000106   0.000139
     6  H    0.000159   0.006205   0.000488  -0.001968   0.001159  -0.000096
     7  C   -0.000194   0.009711   0.000131  -0.000043  -0.000512  -0.000261
     8  H    0.000000   0.000546   0.000000   0.000000   0.000221  -0.000008
     9  H    0.000000   0.001146   0.000000   0.000000   0.000017  -0.000003
    10  H    0.000000  -0.001128   0.000000   0.000000  -0.000035   0.000004
    11  N   -0.001725  -0.018831   0.000345  -0.000608  -0.006202   0.001539
    12  O    0.000098  -0.009523   0.001914  -0.000519  -0.002174   0.000333
    13  O   -0.001147  -0.001793  -0.000037  -0.000031   0.000094   0.000025
    14  C   -0.036359  -0.294025  -0.094259  -0.042017  -0.166550   0.080778
    15  H    0.000050  -0.078312  -0.001468   0.003101   0.000617  -0.002798
    16  C   -0.062234   0.054402   0.003636   0.019189  -0.049279   0.014033
    17  H    0.005565   0.007122   0.000006   0.000149   0.000041  -0.000022
    18  C    0.010939  -0.145422   0.000535   0.014108  -0.004472   0.004225
    19  H    0.000327   0.003543   0.000017  -0.000032   0.000661  -0.000403
    20  C    0.023712   0.082939   0.000559   0.027219   0.009249  -0.013879
    21  H   -0.000090  -0.001370  -0.000168   0.000354  -0.002246   0.000159
    22  C    0.353964  -0.086045   0.001322  -0.014381   0.004376   0.000104
    23  H   -0.028283  -0.004373   0.000001  -0.000006   0.000368   0.000013
    24  H   -0.020108   0.000143  -0.000003  -0.000118   0.000321  -0.000060
    25  H    0.550064   0.019126   0.000352   0.005960  -0.001769  -0.000252
    26  C    0.019126   5.919357   0.472840   0.391432   0.060145  -0.063523
    27  H    0.000352   0.472840   0.502023  -0.024798   0.018820   0.000314
    28  H    0.005960   0.391432  -0.024798   0.545539   0.002717  -0.003284
    29  C   -0.001769   0.060145   0.018820   0.002717   5.328288  -0.057255
    30  C   -0.000252  -0.063523   0.000314  -0.003284  -0.057255   5.247409
    31  H    0.000000   0.013375  -0.000054  -0.000040  -0.023755   0.392018
    32  H    0.000000  -0.004084   0.000042   0.000004  -0.124745   0.488682
    33  H    0.000000  -0.005609   0.000033  -0.000048   0.010734   0.388978
    34  O   -0.000077   0.006417  -0.000739   0.005207   0.450850  -0.055555
    35  O   -0.000730   0.222202  -0.017715  -0.062864   0.137225  -0.038255
              31         32         33         34         35
     1  C   -0.000002  -0.000044   0.000038  -0.000006   0.006819
     2  C    0.000295  -0.000176   0.000273  -0.005447   0.003121
     3  C   -0.001373   0.000864  -0.001463   0.015173  -0.048543
     4  C   -0.000069   0.000097  -0.000531   0.022583  -0.029532
     5  H    0.000000   0.000000   0.000000  -0.000003  -0.000434
     6  H    0.000000   0.000000   0.000000   0.000079   0.003091
     7  C    0.000003  -0.000002   0.000001   0.000034   0.000478
     8  H    0.000000   0.000000   0.000000  -0.000002  -0.000002
     9  H    0.000000   0.000000   0.000000   0.000000   0.000006
    10  H    0.000000   0.000000   0.000000   0.000000  -0.000002
    11  N    0.000006   0.000002  -0.000002   0.000743  -0.000061
    12  O   -0.000018   0.000001   0.000005   0.000804  -0.000296
    13  O    0.000000   0.000000   0.000000  -0.000001  -0.000038
    14  C   -0.004295   0.008469  -0.012128  -0.001144  -0.042903
    15  H   -0.000062  -0.000009  -0.000013  -0.000056  -0.011546
    16  C   -0.001374   0.000219   0.000352  -0.002056  -0.000843
    17  H    0.000000   0.000000   0.000000  -0.000003  -0.000175
    18  C   -0.002047   0.000043   0.000634  -0.000748   0.001874
    19  H   -0.000001   0.000000   0.000000   0.000004   0.000727
    20  C    0.001343  -0.000502   0.000208  -0.004354  -0.019908
    21  H    0.000279  -0.000008   0.000005   0.000344  -0.002150
    22  C   -0.000013   0.000035  -0.000208   0.001041  -0.004687
    23  H    0.000000   0.000000   0.000000   0.000001   0.000023
    24  H    0.000000   0.000000   0.000000  -0.000004   0.000341
    25  H    0.000000   0.000000   0.000000  -0.000077  -0.000730
    26  C    0.013375  -0.004084  -0.005609   0.006417   0.222202
    27  H   -0.000054   0.000042   0.000033  -0.000739  -0.017715
    28  H   -0.000040   0.000004  -0.000048   0.005207  -0.062864
    29  C   -0.023755  -0.124745   0.010734   0.450850   0.137225
    30  C    0.392018   0.488682   0.388978  -0.055555  -0.038255
    31  H    0.492578  -0.018263  -0.021662  -0.001294   0.003099
    32  H   -0.018263   0.480969  -0.016054  -0.004121   0.016233
    33  H   -0.021662  -0.016054   0.493870   0.000161  -0.009616
    34  O   -0.001294  -0.004121   0.000161   8.160243  -0.173927
    35  O    0.003099   0.016233  -0.009616  -0.173927   8.347119
 Mulliken charges:
               1
     1  C    0.144021
     2  C   -0.007675
     3  C    0.030952
     4  C    0.130986
     5  H    0.134701
     6  H    0.135739
     7  C   -0.368495
     8  H    0.184336
     9  H    0.176149
    10  H    0.170825
    11  N    0.065634
    12  O   -0.472454
    13  O   -0.474222
    14  C    0.043349
    15  H    0.173291
    16  C    0.036975
    17  H    0.133898
    18  C   -0.098138
    19  H    0.169184
    20  C   -0.249854
    21  H    0.164957
    22  C   -0.416024
    23  H    0.151913
    24  H    0.152206
    25  H    0.124917
    26  C   -0.368439
    27  H    0.172056
    28  H    0.145414
    29  C    0.367585
    30  C   -0.377229
    31  H    0.171327
    32  H    0.172349
    33  H    0.172041
    34  O   -0.414146
    35  O   -0.278129
 Sum of Mulliken charges =   0.00000
 Mulliken charges with hydrogens summed into heavy atoms:
               1
     1  C    0.144021
     2  C    0.127026
     3  C    0.166691
     4  C    0.130986
     7  C    0.162815
    11  N    0.065634
    12  O   -0.472454
    13  O   -0.474222
    14  C    0.216640
    16  C    0.170874
    18  C    0.071046
    20  C   -0.084897
    22  C    0.013012
    26  C   -0.050969
    29  C    0.367585
    30  C    0.138488
    34  O   -0.414146
    35  O   -0.278129
 Electronic spatial extent (au):  <R**2>=           5035.4090
 Charge=              0.0000 electrons
 Dipole moment (field-independent basis, Debye):
    X=              1.1316    Y=              3.3547    Z=             -0.1524  Tot=              3.5437
 Quadrupole moment (field-independent basis, Debye-Ang):
   XX=           -107.3416   YY=           -116.1709   ZZ=            -99.3182
   XY=             13.7189   XZ=              6.0220   YZ=             -3.5548
 Traceless Quadrupole moment (field-independent basis, Debye-Ang):
   XX=              0.2686   YY=             -8.5606   ZZ=              8.2921
   XY=             13.7189   XZ=              6.0220   YZ=             -3.5548
 Octapole moment (field-independent basis, Debye-Ang**2):
  XXX=            114.9562  YYY=             32.6272  ZZZ=             -3.6992  XYY=            -30.1124
  XXY=            -29.2348  XXZ=             16.6114  XZZ=              3.2082  YZZ=             -1.0575
  YYZ=              9.8253  XYZ=             -1.7792
 Hexadecapole moment (field-independent basis, Debye-Ang**3):
 XXXX=          -4294.6759 YYYY=          -1708.4611 ZZZZ=           -426.9332 XXXY=            259.3095
 XXXZ=             99.6186 YYYX=             32.6242 YYYZ=             -8.6199 ZZZX=              1.0712
 ZZZY=             10.1505 XXYY=          -1041.4320 XXZZ=           -776.4291 YYZZ=           -335.7673
 XXYZ=            -50.4628 YYXZ=             -3.1505 ZZXY=              3.3760
 N-N= 1.388818297486D+03 E-N=-4.788314981189D+03  KE= 8.571657913887D+02
 D1PCM: PCM CHGder 1st derivatives, ID1Alg=3 FixD1E=F DoIter=F DoCFld=F I1PDM=0.
 Calling FoFJK, ICntrl=      2127 FMM=F ISym2X=0 I1Cent= 0 IOpClX= 0 NMat=1 NMatS=1 NMatT=0.
 ***** Axes restored to original set *****
 -------------------------------------------------------------------
 Center     Atomic                   Forces (Hartrees/Bohr)
 Number     Number              X              Y              Z
 -------------------------------------------------------------------
      1        6          -0.005036120    0.000746885    0.001295541
      2        6          -0.000745005   -0.000882675   -0.000414687
      3        6          -0.000710584   -0.000486583    0.000193537
      4        6           0.000514204   -0.005410945    0.000382944
      5        1           0.000632518   -0.000508008    0.001953647
      6        1          -0.000475279    0.000553109    0.002272659
      7        6           0.001568890    0.001079492   -0.000648794
      8        1          -0.000669709    0.001467604    0.000073213
      9        1           0.000472792   -0.000489979   -0.001577196
     10        1           0.001365988   -0.000010477    0.001135467
     11        7          -0.000146181    0.000428283   -0.000150278
     12        8          -0.002836266    0.007084664   -0.000476921
     13        8           0.006374811   -0.003075264   -0.001882559
     14        6          -0.000199610    0.001120612    0.000916034
     15        1          -0.000517933    0.001977530   -0.000957408
     16        6           0.000984182    0.000018536    0.001307752
     17        1           0.001916955   -0.000507180   -0.001000133
     18        6           0.000894688   -0.001284486   -0.000830411
     19        1           0.000036997   -0.001313573   -0.001861826
     20        6          -0.001553996    0.001437817    0.000036484
     21        1          -0.001445198    0.000371747   -0.001920183
     22        6          -0.000265371    0.000131854    0.000012611
     23        1           0.001321853   -0.000479675    0.001327847
     24        1          -0.000142637   -0.001480835   -0.001144348
     25        1          -0.001183813    0.000308570    0.001057119
     26        6           0.002667237    0.000371748    0.001796519
[...]
    19  H   -0.003930  -0.006478   0.004473   0.003880  -0.000180   0.000042
    20  C    0.090069  -0.108449  -0.143502  -0.187629   0.001465  -0.005371
    21  H    0.001888   0.006590   0.008444  -0.002790   0.000043  -0.000145
    22  C   -0.269735  -0.150094   0.117281   0.132805   0.000005   0.003120
    23  H   -0.040127  -0.104346   0.000145   0.008447   0.000727  -0.000080
    24  H    0.004415   0.040904   0.001424   0.002209   0.000499   0.000000
    25  H    0.013693   0.080467   0.001194  -0.012890  -0.002716   0.000263
    26  C    0.105449   0.259619  -0.175272  -0.249110   0.004490  -0.000555
    27  H    0.000612   0.010818   0.009270  -0.012419  -0.000015  -0.000176
    28  H    0.004806  -0.008076  -0.013814  -0.004068  -0.000120  -0.001887
    29  C   -0.009179   0.026211   0.060152  -0.044774  -0.000229   0.000764
    30  C   -0.001971  -0.012857  -0.005838   0.010209   0.000125   0.000118
    31  H   -0.000049   0.000394  -0.001199  -0.000087   0.000000   0.000000
    32  H   -0.000038  -0.000198   0.001585   0.000134   0.000000   0.000000
    33  H    0.000078   0.000273  -0.002550  -0.000595   0.000000   0.000001
    34  O    0.000353  -0.007286  -0.001633   0.020423  -0.000002  -0.000097
    35  O    0.008531   0.019945  -0.004067  -0.032616  -0.000418   0.002830
               7          8          9         10         11         12
     1  C   -0.047831  -0.019737   0.028475  -0.006092   0.434464   0.029826
     2  C   -0.033577   0.015714   0.013940  -0.024371  -0.547075  -0.023541
     3  C   -0.011269   0.044232  -0.014285  -0.004542  -0.545017  -0.201913
     4  C   -0.091878  -0.001612  -0.014438  -0.013972   0.362866   0.475973
     5  H    0.001293   0.000004  -0.000063   0.000167   0.007041  -0.000306
     6  H    0.001091  -0.000093  -0.000027   0.000108   0.004222   0.002672
     7  C    5.058521   0.409015   0.416050   0.426119   0.262426  -0.024389
     8  H    0.409015   0.475118  -0.018040  -0.017920  -0.075214   0.004566
     9  H    0.416050  -0.018040   0.497578  -0.027204  -0.043440  -0.000128
    10  H    0.426119  -0.017920  -0.027204   0.503436  -0.017938   0.002902
    11  N    0.262426  -0.075214  -0.043440  -0.017938   7.035630  -0.108142
    12  O   -0.024389   0.004566  -0.000128   0.002902  -0.108142   8.270314
    13  O   -0.000342   0.001379  -0.002024  -0.004151  -0.106521  -0.002928
    14  C    0.002678  -0.001203   0.000484   0.002600   0.121135   0.047107
    15  H   -0.000154  -0.000020   0.000000   0.000002  -0.000945  -0.001392
    16  C   -0.006499  -0.003381  -0.011007   0.012194   0.152167   0.006259
    17  H   -0.000779   0.000001   0.000004  -0.000015  -0.000860   0.000006
    18  C   -0.002653   0.001644   0.001048  -0.002574  -0.011704   0.002107
    19  H    0.000127   0.000001  -0.000002   0.000000   0.000876  -0.000034
    20  C    0.003077   0.000761  -0.001641   0.000283   0.052053   0.015404
    21  H    0.000278   0.000000   0.000002   0.000000   0.001209   0.000043
    22  C    0.000155  -0.000226  -0.000342   0.000866  -0.023401  -0.002498
    23  H    0.000214   0.000000   0.000000   0.000000   0.001144  -0.000045
    24  H    0.000074   0.000000   0.000000   0.000000   0.000297  -0.000017
    25  H   -0.000300   0.000000   0.000000   0.000000  -0.001738   0.000111
    26  C    0.010909   0.000777   0.000722  -0.000791  -0.022881  -0.012700
    27  H    0.000013   0.000000   0.000000   0.000000   0.000097   0.001317
    28  H   -0.000030   0.000000   0.000000   0.000000  -0.000662  -0.000531
    29  C   -0.000418   0.000159   0.000021  -0.000027  -0.003511  -0.002168
    30  C   -0.000199  -0.000007  -0.000001   0.000003   0.001263   0.001023
    31  H    0.000002   0.000000   0.000000   0.000000  -0.000001  -0.000014
    32  H   -0.000002   0.000000   0.000000   0.000000   0.000001   0.000000
    33  H    0.000001   0.000000   0.000000   0.000000   0.000000   0.000004
    34  O    0.000158  -0.000002   0.000000   0.000000   0.000662   0.000171
    35  O   -0.000114   0.000000   0.000005  -0.000002  -0.000887  -0.000504
              13         14         15         16         17         18
     1  C    0.404572  -0.083563  -0.014240   0.306681   0.010717  -0.065525
     2  C   -0.128479  -1.278388   0.001702  -1.179698  -0.010036   0.399126
     3  C    0.001873  -0.683930   0.020154  -0.898208  -0.000591   0.219349
     4  C    0.040452   0.366257   0.021725  -0.070723  -0.011302  -0.074415
     5  H    0.003512   0.004258  -0.000213  -0.016415  -0.000243  -0.012484
     6  H    0.000111  -0.033226  -0.002490   0.009027  -0.000267   0.000027
     7  C   -0.000342   0.002678  -0.000154  -0.006499  -0.000779  -0.002653
     8  H    0.001379  -0.001203  -0.000020  -0.003381   0.000001   0.001644
     9  H   -0.002024   0.000484   0.000000  -0.011007   0.000004   0.001048
    10  H   -0.004151   0.002600   0.000002   0.012194  -0.000015  -0.002574
    11  N   -0.106521   0.121135  -0.000945   0.152167  -0.000860  -0.011704
    12  O   -0.002928   0.047107  -0.001392   0.006259   0.000006   0.002107
    13  O    8.266130   0.004810  -0.000035  -0.007472  -0.001556  -0.001654
    14  C    0.004810   7.337753   0.487684   0.945039  -0.018436  -0.536055
    15  H   -0.000035   0.487684   0.493743  -0.012504   0.000032   0.005294
    16  C   -0.007472   0.945039  -0.012504   6.969763   0.476748  -0.332440
    17  H   -0.001556  -0.018436   0.000032   0.476748   0.546309  -0.056904
    18  C   -0.001654  -0.536055   0.005294  -0.332440  -0.056904   5.630327
    19  H   -0.000083   0.027898   0.000056  -0.054402  -0.006264   0.418247
    20  C    0.003449  -0.150256  -0.076442  -0.043528   0.012867   0.663425
    21  H    0.000028  -0.055726  -0.006367   0.000272   0.000046  -0.038428
    22  C   -0.003124   0.167943   0.005618  -0.011316  -0.073706  -0.034039
    23  H    0.002310   0.030862   0.000003  -0.035977  -0.003859   0.014377
    24  H    0.000558  -0.013404  -0.000002  -0.086524  -0.004878  -0.016147
    25  H   -0.001196  -0.066714   0.000060  -0.060920   0.005393   0.029944
    26  C   -0.002485  -0.430947  -0.077483  -0.069305   0.008280  -0.066766
    27  H   -0.000008  -0.095879  -0.002572  -0.006069   0.000008   0.001457
    28  H   -0.000047  -0.035402   0.003581   0.022980   0.000156   0.013894
    29  C    0.000071  -0.174593   0.002108  -0.031946   0.000109   0.011492
    30  C    0.000011   0.090106  -0.003066   0.014494  -0.000022  -0.003880
    31  H    0.000000  -0.005631  -0.000065  -0.001320   0.000000  -0.001661
    32  H    0.000000   0.010514  -0.000011   0.000134   0.000000  -0.000487
    33  H    0.000000  -0.013848  -0.000022   0.000514   0.000000   0.001294
    34  O    0.000004  -0.001128   0.002542   0.001326  -0.000003  -0.000341
    35  O   -0.000009  -0.056464  -0.016335  -0.030031  -0.000169   0.002063
              19         20         21         22         23         24
     1  C   -0.003930   0.090069   0.001888  -0.269735  -0.040127   0.004415
     2  C   -0.006478  -0.108449   0.006590  -0.150094  -0.104346   0.040904
     3  C    0.004473  -0.143502   0.008444   0.117281   0.000145   0.001424
     4  C    0.003880  -0.187629  -0.002790   0.132805   0.008447   0.002209
     5  H   -0.000180   0.001465   0.000043   0.000005   0.000727   0.000499
     6  H    0.000042  -0.005371  -0.000145   0.003120  -0.000080   0.000000
     7  C    0.000127   0.003077   0.000278   0.000155   0.000214   0.000074
     8  H    0.000001   0.000761   0.000000  -0.000226   0.000000   0.000000
     9  H   -0.000002  -0.001641   0.000002  -0.000342   0.000000   0.000000
    10  H    0.000000   0.000283   0.000000   0.000866   0.000000   0.000000
    11  N    0.000876   0.052053   0.001209  -0.023401   0.001144   0.000297
    12  O   -0.000034   0.015404   0.000043  -0.002498  -0.000045  -0.000017
    13  O   -0.000083   0.003449   0.000028  -0.003124   0.002310   0.000558
    14  C    0.027898  -0.150256  -0.055726   0.167943   0.030862  -0.013404
    15  H    0.000056  -0.076442  -0.006367   0.005618   0.000003  -0.000002
    16  C   -0.054402  -0.043528   0.000272  -0.011316  -0.035977  -0.086524
    17  H   -0.006264   0.012867   0.000046  -0.073706  -0.003859  -0.004878
    18  C    0.418247   0.663425  -0.038428  -0.034039   0.014377  -0.016147
    19  H    0.483674  -0.030020  -0.006831  -0.003510  -0.000091   0.000242
    20  C   -0.030020   5.622309   0.434042  -0.108328   0.003613  -0.009087
    21  H   -0.006831   0.434042   0.492771   0.003543   0.000021  -0.000030
    22  C   -0.003510  -0.108328   0.003543   5.506224   0.505824   0.450233
    23  H   -0.000091   0.003613   0.000021   0.505824   0.513775  -0.015416
    24  H    0.000242  -0.009087  -0.000030   0.450233  -0.015416   0.511497
    25  H    0.000400   0.020011  -0.000083   0.332207  -0.028001  -0.020748
    26  C    0.001735   0.166290  -0.000234  -0.114851  -0.008348   0.001607
    27  H    0.000015  -0.002721  -0.000123   0.001908  -0.000001  -0.000003
    28  H    0.000001   0.021543   0.000132  -0.017303   0.000008  -0.000039
    29  C    0.000517   0.018299  -0.002478   0.004736   0.000460   0.000236
    30  C   -0.000316  -0.018250   0.000168   0.000984   0.000006  -0.000066
    31  H    0.000000  -0.000918   0.000182  -0.000047   0.000000   0.000000
    32  H    0.000000  -0.001774  -0.000008   0.000070   0.000000   0.000000
    33  H    0.000000   0.002425   0.000023  -0.000261   0.000000   0.000000
    34  O    0.000002   0.000528   0.000324   0.000779   0.000001  -0.000004
    35  O    0.000713  -0.026336  -0.001017  -0.002103   0.000028   0.000483
              25         26         27         28         29         30
     1  C    0.013693   0.105449   0.000612   0.004806  -0.009179  -0.001971
     2  C    0.080467   0.259619   0.010818  -0.008076   0.026211  -0.012857
     3  C    0.001194  -0.175272   0.009270  -0.013814   0.060152  -0.005838
     4  C   -0.012890  -0.249110  -0.012419  -0.004068  -0.044774   0.010209
     5  H   -0.002716   0.004490  -0.000015  -0.000120  -0.000229   0.000125
     6  H    0.000263  -0.000555  -0.000176  -0.001887   0.000764   0.000118
     7  C   -0.000300   0.010909   0.000013  -0.000030  -0.000418  -0.000199
     8  H    0.000000   0.000777   0.000000   0.000000   0.000159  -0.000007
     9  H    0.000000   0.000722   0.000000   0.000000   0.000021  -0.000001
    10  H    0.000000  -0.000791   0.000000   0.000000  -0.000027   0.000003
    11  N   -0.001738  -0.022881   0.000097  -0.000662  -0.003511   0.001263
    12  O    0.000111  -0.012700   0.001317  -0.000531  -0.002168   0.001023
    13  O   -0.001196  -0.002485  -0.000008  -0.000047   0.000071   0.000011
    14  C   -0.066714  -0.430947  -0.095879  -0.035402  -0.174593   0.090106
    15  H    0.000060  -0.077483  -0.002572   0.003581   0.002108  -0.003066
    16  C   -0.060920  -0.069305  -0.006069   0.022980  -0.031946   0.014494
    17  H    0.005393   0.008280   0.000008   0.000156   0.000109  -0.000022
    18  C    0.029944  -0.066766   0.001457   0.013894   0.011492  -0.003880
    19  H    0.000400   0.001735   0.000015   0.000001   0.000517  -0.000316
    20  C    0.020011   0.166290  -0.002721   0.021543   0.018299  -0.018250
    21  H   -0.000083  -0.000234  -0.000123   0.000132  -0.002478   0.000168
    22  C    0.332207  -0.114851   0.001908  -0.017303   0.004736   0.000984
    23  H   -0.028001  -0.008348  -0.000001   0.000008   0.000460   0.000006
    24  H   -0.020748   0.001607  -0.000003  -0.000039   0.000236  -0.000066
    25  H    0.550776   0.033464   0.000404   0.006030  -0.001562  -0.000324
    26  C    0.033464   5.976758   0.446259   0.400879   0.052609  -0.064759
    27  H    0.000404   0.446259   0.501199  -0.024223   0.016471   0.002584
    28  H    0.006030   0.400879  -0.024223   0.547064   0.003399  -0.004334
    29  C   -0.001562   0.052609   0.016471   0.003399   5.301992  -0.043658
    30  C   -0.000324  -0.064759   0.002584  -0.004334  -0.043658   5.240325
    31  H    0.000000   0.010474  -0.000049  -0.000033  -0.006446   0.383610
    32  H    0.000000  -0.003915   0.000061   0.000007  -0.122010   0.486082
    33  H    0.000001  -0.000796   0.000015  -0.000084  -0.009000   0.401547
    34  O   -0.000087   0.018734   0.000950   0.005019   0.453624  -0.058516
    35  O   -0.000858   0.214134  -0.020632  -0.064777   0.122654  -0.035007
              31         32         33         34         35
     1  C   -0.000049  -0.000038   0.000078   0.000353   0.008531
     2  C    0.000394  -0.000198   0.000273  -0.007286   0.019945
     3  C   -0.001199   0.001585  -0.002550  -0.001633  -0.004067
     4  C   -0.000087   0.000134  -0.000595   0.020423  -0.032616
     5  H    0.000000   0.000000   0.000000  -0.000002  -0.000418
     6  H    0.000000   0.000000   0.000001  -0.000097   0.002830
     7  C    0.000002  -0.000002   0.000001   0.000158  -0.000114
     8  H    0.000000   0.000000   0.000000  -0.000002   0.000000
     9  H    0.000000   0.000000   0.000000   0.000000   0.000005
    10  H    0.000000   0.000000   0.000000   0.000000  -0.000002
    11  N   -0.000001   0.000001   0.000000   0.000662  -0.000887
    12  O   -0.000014   0.000000   0.000004   0.000171  -0.000504
    13  O    0.000000   0.000000   0.000000   0.000004  -0.000009
    14  C   -0.005631   0.010514  -0.013848  -0.001128  -0.056464
    15  H   -0.000065  -0.000011  -0.000022   0.002542  -0.016335
    16  C   -0.001320   0.000134   0.000514   0.001326  -0.030031
    17  H    0.000000   0.000000   0.000000  -0.000003  -0.000169
    18  C   -0.001661  -0.000487   0.001294  -0.000341   0.002063
    19  H    0.000000   0.000000   0.000000   0.000002   0.000713
    20  C   -0.000918  -0.001774   0.002425   0.000528  -0.026336
    21  H    0.000182  -0.000008   0.000023   0.000324  -0.001017
    22  C   -0.000047   0.000070  -0.000261   0.000779  -0.002103
    23  H    0.000000   0.000000   0.000000   0.000001   0.000028
    24  H    0.000000   0.000000   0.000000  -0.000004   0.000483
    25  H    0.000000   0.000000   0.000001  -0.000087  -0.000858
    26  C    0.010474  -0.003915  -0.000796   0.018734   0.214134
    27  H   -0.000049   0.000061   0.000015   0.000950  -0.020632
    28  H   -0.000033   0.000007  -0.000084   0.005019  -0.064777
    29  C   -0.006446  -0.122010  -0.009000   0.453624   0.122654
    30  C    0.383610   0.486082   0.401547  -0.058516  -0.035007
    31  H    0.494628  -0.017344  -0.021758  -0.002979  -0.000140
    32  H   -0.017344   0.481003  -0.017749  -0.004879   0.016885
    33  H   -0.021758  -0.017749   0.495400   0.002806  -0.007953
    34  O   -0.002979  -0.004879   0.002806   8.157716  -0.172654
    35  O   -0.000140   0.016885  -0.007953  -0.172654   8.357718
 Mulliken charges:
               1
     1  C    0.141556
     2  C   -0.023485
     3  C    0.072151
     4  C    0.118791
     5  H    0.135882
     6  H    0.137814
     7  C   -0.371765
     8  H    0.184082
     9  H    0.174312
    10  H    0.170921
    11  N    0.072382
    12  O   -0.478555
    13  O   -0.467159
    14  C    0.087662
    15  H    0.170053
    16  C    0.052085
    17  H    0.129217
    18  C   -0.156960
    19  H    0.169242
    20  C   -0.217663
    21  H    0.164209
    22  C   -0.419418
    23  H    0.154327
    24  H    0.151685
    25  H    0.123719
    26  C   -0.411991
    27  H    0.171430
    28  H    0.145932
    29  C    0.375915
    30  C   -0.379585
    31  H    0.170450
    32  H    0.171937
    33  H    0.170234
    34  O   -0.416511
    35  O   -0.272897
 Sum of Mulliken charges =   0.00000
 Mulliken charges with hydrogens summed into heavy atoms:
               1
     1  C    0.141556
     2  C    0.112397
     3  C    0.209965
     4  C    0.118791
     7  C    0.157550
    11  N    0.072382
    12  O   -0.478555
    13  O   -0.467159
    14  C    0.257715
    16  C    0.181302
    18  C    0.012282
    20  C   -0.053454
    22  C    0.010313
    26  C   -0.094629
    29  C    0.375915
    30  C    0.133036
    34  O   -0.416511
    35  O   -0.272897
 Electronic spatial extent (au):  <R**2>=           5079.4270
 Charge=              0.0000 electrons
 Dipole moment (field-independent basis, Debye):
    X=              1.0714    Y=              3.2655    Z=              0.0525  Tot=              3.4372
 Quadrupole moment (field-independent basis, Debye-Ang):
   XX=           -108.2525   YY=           -116.4503   ZZ=            -99.5278
   XY=             14.4378   XZ=              4.9450   YZ=             -2.0531
 Traceless Quadrupole moment (field-independent basis, Debye-Ang):
   XX=             -0.1756   YY=             -8.3735   ZZ=              8.5491
   XY=             14.4378   XZ=              4.9450   YZ=             -2.0531
 Octapole moment (field-independent basis, Debye-Ang**2):
  XXX=            107.5901  YYY=             33.3968  ZZZ=             -3.4801  XYY=            -26.0862
  XXY=            -28.1609  XXZ=             27.4401  XZZ=              1.2582  YZZ=             -0.5733
  YYZ=              6.0021  XYZ=             -7.0715
 Hexadecapole moment (field-independent basis, Debye-Ang**3):
 XXXX=          -4419.4692 YYYY=          -1652.2280 ZZZZ=           -419.6811 XXXY=            294.5904
 XXXZ=             73.0685 YYYX=             29.1691 YYYZ=              0.0947 ZZZX=              4.6581
 ZZZY=              8.8005 XXYY=          -1063.3795 XXZZ=           -799.5808 YYZZ=           -325.2882
 XXYZ=            -46.2947 YYXZ=              1.7924 ZZXY=              3.2263
 N-N= 1.389250303974D+03 E-N=-4.789262865467D+03  KE= 8.573922517457D+02
 1\1\GINC-D12S4B1\FOpt\RwB97XD\Gen\C13H17N1O4\PMMASS\10-Feb-2022\0\\#n 
 wB97XD/Gen scrf(smd,solvent=toluene) opt\\diels-alder product in tolue
 ne - opt\\0,1\C,-2.8730223504,0.1938782703,-0.2094172385\C,-1.56290110
 25,0.8084003827,-0.6770476059\C,-0.5817503292,-0.3796552252,-0.7114225
 44\C,-1.3783889832,-1.5535873152,-0.1603135693\H,-1.7501935087,1.17879
 20308,-1.6862723601\H,-0.3625605426,-0.649458523,-1.7480310468\C,-3.73
 01069917,-2.012775212,0.5267048451\H,-3.3003532925,-2.995361298,0.7052
 103324\H,-4.1521067083,-1.6199308993,1.4510491397\H,-4.5213869541,-2.0
 864999821,-0.2190340149\N,-2.6777849566,-1.1436127045,0.0525471603\O,-
 0.9695220818,-2.6667941303,0.0459862862\O,-3.9292747376,0.7590667049,-
 0.0747327456\C,0.7471775508,-0.2341314521,0.046531253\H,1.0543424249,-
 1.2369044959,0.3504279925\C,-1.1959891909,2.0138626743,0.2181799152\H,
 -2.1297610417,2.3806986288,0.6498934992\C,-0.2789470969,1.6232701129,1
 .341356921\H,-0.3240531636,2.2302905658,2.2395162485\C,0.5951719937,0.
 6292413013,1.2668079023\H,1.2547807807,0.4275351551,2.1024254703\C,-0.
 6112458882,3.1763467912,-0.5896786911\H,-1.3383963016,3.5402646066,-1.
 3185449218\H,-0.3497567878,4.0069671733,0.0685593806\H,0.2931214353,2.
 8832479836,-1.1249083071\C,1.8312213949,0.2853834272,-0.8994728849\H,1
 .9849069705,-0.423067491,-1.714166646\H,1.5615230537,1.2562472171,-1.3
 110864198\C,3.9124908798,-0.5290919517,-0.1072690412\C,5.1398678003,-0
 .137880107,0.6579130026\H,4.8667171419,0.0910927687,1.6897116141\H,5.8
 587658377,-0.9526724411,0.645620343\H,5.5835859567,0.760428673,0.22810
 13767\O,3.6946146685,-1.6195755095,-0.5640236551\O,3.0678841203,0.5070
 742703,-0.2201809908\\Version=ES64L-G09RevD.01\State=1-A\HF=-861.39426
 04\RMSD=5.169e-09\RMSF=3.753e-06\Dipole=0.4165202,1.2864788,0.0120504\
 Quadrupole=-0.2007167,-6.1592123,6.359929,10.777037,3.62979,-1.4569215
 \PG=C01 [X(C13H17N1O4)]\\@


 SOME PHYSICISTS WOULD PREFER TO COME BACK TO THE IDEA OF AN OBJECTIVE
 REAL WORLD WHOSE SMALLEST PARTS EXIST OBJECTIVELY IN THE SAME SENSE AS
 STONES OR TREES EXIST INDEPENDENTLY OF WHETHER WE OBSERVE THEM.
 THIS, HOWEVER, IS IMPOSSIBLE.  -- WERNER HEISENBERG
 Job cpu time:       5 days  3 hours 40 minutes 35.6 seconds.
 File lengths (MBytes):  RWF=    518 Int=      0 D2E=      0 Chk=     37 Scr=      1
 Normal termination of Gaussian 09 at Thu Feb 10 04:26:22 2022.
