 Entering Gaussian System, Link 0=g09
 Input=ts_diels_ma_freq.com
 Output=ts_diels_ma_freq.log
 Initial command:
 /apps/applications/gaussian/G09.D01/2/default/g09/l1.exe "/nobackup/pmmass/Temp/Gau-195990.inp" -scrdir="/nobackup/pmmass/Temp/"
 Entering Link 1 = /apps/applications/gaussian/G09.D01/2/default/g09/l1.exe PID=    195991.
  
 Copyright (c) 1988,1990,1992,1993,1995,1998,2003,2009,2013,
            Gaussian, Inc.  All Rights Reserved.
  
 This is part of the Gaussian(R) 09 program.  It is based on
 the Gaussian(R) 03 system (copyright 2003, Gaussian, Inc.),
 the Gaussian(R) 98 system (copyright 1998, Gaussian, Inc.),
 the Gaussian(R) 94 system (copyright 1995, Gaussian, Inc.),
 the Gaussian 92(TM) system (copyright 1992, Gaussian, Inc.),
 the Gaussian 90(TM) system (copyright 1990, Gaussian, Inc.),
 the Gaussian 88(TM) system (copyright 1988, Gaussian, Inc.),
 the Gaussian 86(TM) system (copyright 1986, Carnegie Mellon
 University), and the Gaussian 82(TM) system (copyright 1983,
 Carnegie Mellon University). Gaussian is a federally registered
 trademark of Gaussian, Inc.
  
 This software contains proprietary and confidential information,
 including trade secrets, belonging to Gaussian, Inc.
  
 This software is provided under written license and may be
 used, copied, transmitted, or stored only in accord with that
 written license.
  
 The following legend is applicable only to US Government
 contracts under FAR:
  
                    RESTRICTED RIGHTS LEGEND
  
 Use, reproduction and disclosure by the US Government is
 subject to restrictions as set forth in subparagraphs (a)
 and (c) of the Commercial Computer Software - Restricted
 Rights clause in FAR 52.227-19.
  
 Gaussian, Inc.
 340 Quinnipiac St., Bldg. 40, Wallingford CT 06492
  
  
 ---------------------------------------------------------------
 Warning -- This program may not be used in any manner that
 competes with the business of Gaussian, Inc. or will provide
 assistance to any competitor of Gaussian, Inc.  The licensee
 of this program is prohibited from giving any competitor of
 Gaussian, Inc. access to this program.  By using this program,
 the user acknowledges that Gaussian, Inc. is engaged in the
 business of creating and licensing software in the field of
 computational chemistry and represents and warrants to the
 licensee that it is not a competitor of Gaussian, Inc. and that
 it will not use this program in any manner prohibited above.
 ---------------------------------------------------------------
  

 Cite this work as:
 Gaussian 09, Revision D.01,
 M. J. Frisch, G. W. Trucks, H. B. Schlegel, G. E. Scuseria, 
 M. A. Robb, J. R. Cheeseman, G. Scalmani, V. Barone, B. Mennucci, 
 G. A. Petersson, H. Nakatsuji, M. Caricato, X. Li, H. P. Hratchian, 
 A. F. Izmaylov, J. Bloino, G. Zheng, J. L. Sonnenberg, M. Hada, 
 M. Ehara, K. Toyota, R. Fukuda, J. Hasegawa, M. Ishida, T. Nakajima, 
 Y. Honda, O. Kitao, H. Nakai, T. Vreven, J. A. Montgomery, Jr., 
 J. E. Peralta, F. Ogliaro, M. Bearpark, J. J. Heyd, E. Brothers, 
 K. N. Kudin, V. N. Staroverov, T. Keith, R. Kobayashi, J. Normand, 
 K. Raghavachari, A. Rendell, J. C. Burant, S. S. Iyengar, J. Tomasi, 
 M. Cossi, N. Rega, J. M. Millam, M. Klene, J. E. Knox, J. B. Cross, 
 V. Bakken, C. Adamo, J. Jaramillo, R. Gomperts, R. E. Stratmann, 
 O. Yazyev, A. J. Austin, R. Cammi, C. Pomelli, J. W. Ochterski, 
 R. L. Martin, K. Morokuma, V. G. Zakrzewski, G. A. Voth, 
 P. Salvador, J. J. Dannenberg, S. Dapprich, A. D. Daniels, 
 O. Farkas, J. B. Foresman, J. V. Ortiz, J. Cioslowski, 
 and D. J. Fox, Gaussian, Inc., Wallingford CT, 2013.
 
 ******************************************
 Gaussian 09:  ES64L-G09RevD.01 24-Apr-2013
                11-Feb-2022 
 ******************************************
 %nprocshared=8
 Will use up to    8 processors via shared memory.
 %mem=4GB
 %NoSave
 %chk="ts_diels_ma_freq.chk"
 --------------------------------------------
 #n wB97XD/Gen scrf(smd,solvent=toluene) freq
 --------------------------------------------
 1/10=4,30=1,38=1/1,3;
 2/12=2,17=6,18=5,40=1/2;
 3/5=7,11=2,16=1,25=1,30=1,70=32201,71=2,72=13,74=-58,140=1/1,2,3;
 4//1;
 5/5=2,38=5,53=13,98=1/2;
 8/6=4,10=90,11=11/1;
 11/6=1,8=1,9=11,15=111,16=1/1,2,10;
 10/6=1/2;
 6/7=2,8=2,9=2,10=2,18=1,28=1/1;
 7/8=1,10=1,25=1/1,2,3,16;
 1/10=4,30=1/3;
 99//99;
 -----------------------------
 ts diels-alder toluene - freq
 -----------------------------
 Symbolic Z-matrix:
 Charge =  0 Multiplicity = 1
 C                    -2.63453  -0.65629   0.55883 
 C                    -1.63088   0.30322   1.08273 
 C                    -0.37657  -0.25116   0.88902 
 C                    -0.57032  -1.57532   0.23951 
 H                    -1.90686   0.9993    1.85688 
 H                     0.49205  -0.07667   1.50294 
 C                    -2.5155   -2.84316  -0.67296 
 H                    -2.03366  -3.0354   -1.63094 
 H                    -2.41568  -3.72973  -0.04514 
 H                    -3.57136  -2.63577  -0.83233 
 N                    -1.92054  -1.6922   -0.04024 
 O                     0.25588  -2.42178  -0.0162 
 O                    -3.83895  -0.60374   0.62065 
 C                    -0.81407   2.6117   -0.29714 
 H                    -0.86702   3.58611   0.1785 
 C                     0.44734   2.04538  -0.47091 
 H                     1.30719   2.59751  -0.11019 
 C                    -1.9914    1.92234  -0.48795 
 H                    -1.99902   1.0995   -1.19507 
 C                    -3.32619   2.52588  -0.19867 
 H                    -4.03231   1.76998   0.14772 
 H                    -3.2567    3.3138    0.55258 
 H                    -3.74436   2.96051  -1.1117 
 C                     0.62719   0.73198  -0.84473 
 H                    -0.11036   0.25785  -1.4829 
 C                     1.97551   0.0942   -0.94466 
 H                     2.38948   0.27021  -1.94379 
 H                     1.87456  -0.98227  -0.79974 
 C                     4.03561   0.12295   0.31993 
 C                     4.42914  -1.1375   -0.39619 
 H                     4.34417  -1.02839  -1.47812 
 H                     5.4553   -1.37818  -0.13384 
 H                     3.77886  -1.96087  -0.09266 
 O                     2.83653   0.66401   0.03647 
 O                     4.72248   0.66809   1.13891 
 

 GradGradGradGradGradGradGradGradGradGradGradGradGradGradGradGradGradGrad
 Berny optimization.
 Initialization pass.
 Trust Radius=3.00D-01 FncErr=1.00D-07 GrdErr=1.00D-07
 Number of steps in this run=      2 maximum allowed number of steps=      2.
 GradGradGradGradGradGradGradGradGradGradGradGradGradGradGradGradGradGrad

                          Input orientation:                          
 ---------------------------------------------------------------------
 Center     Atomic      Atomic             Coordinates (Angstroms)
 Number     Number       Type             X           Y           Z
 ---------------------------------------------------------------------
      1          6           0       -2.634530   -0.656290    0.558830
      2          6           0       -1.630880    0.303220    1.082730
      3          6           0       -0.376570   -0.251160    0.889020
      4          6           0       -0.570320   -1.575320    0.239510
      5          1           0       -1.906860    0.999300    1.856880
      6          1           0        0.492050   -0.076670    1.502940
      7          6           0       -2.515500   -2.843160   -0.672960
      8          1           0       -2.033660   -3.035400   -1.630940
      9          1           0       -2.415680   -3.729730   -0.045140
     10          1           0       -3.571360   -2.635770   -0.832330
     11          7           0       -1.920540   -1.692200   -0.040240
     12          8           0        0.255880   -2.421780   -0.016200
     13          8           0       -3.838950   -0.603740    0.620650
     14          6           0       -0.814070    2.611700   -0.297140
     15          1           0       -0.867020    3.586110    0.178500
     16          6           0        0.447340    2.045380   -0.470910
     17          1           0        1.307190    2.597510   -0.110190
     18          6           0       -1.991400    1.922340   -0.487950
     19          1           0       -1.999020    1.099500   -1.195070
     20          6           0       -3.326190    2.525880   -0.198670
     21          1           0       -4.032310    1.769980    0.147720
     22          1           0       -3.256700    3.313800    0.552580
     23          1           0       -3.744360    2.960510   -1.111700
     24          6           0        0.627190    0.731980   -0.844730
     25          1           0       -0.110360    0.257850   -1.482900
     26          6           0        1.975510    0.094200   -0.944660
     27          1           0        2.389480    0.270210   -1.943790
     28          1           0        1.874560   -0.982270   -0.799740
     29          6           0        4.035610    0.122950    0.319930
     30          6           0        4.429140   -1.137500   -0.396190
     31          1           0        4.344170   -1.028390   -1.478120
     32          1           0        5.455300   -1.378180   -0.133840
     33          1           0        3.778860   -1.960870   -0.092660
     34          8           0        2.836530    0.664010    0.036470
     35          8           0        4.722480    0.668090    1.138910
 ---------------------------------------------------------------------
                    Distance matrix (angstroms):
                    1          2          3          4          5
     1  C    0.000000
     2  C    1.484063   0.000000
     3  C    2.317658   1.384974   0.000000
     4  C    2.282004   2.316187   1.487549   0.000000
     5  H    2.226076   1.077033   2.200498   3.321279   0.000000
     6  H    3.317048   2.197208   1.077889   2.229537   2.652877
     7  C    2.512743   3.710082   3.705842   2.494743   4.640585
     8  H    3.288815   4.321183   4.104648   2.787791   5.334770
     9  H    3.139858   4.260597   4.138970   2.850940   5.122529
    10  H    2.594478   4.008813   4.342360   3.358517   4.818313
    11  N    1.393476   2.307957   2.307372   1.383841   3.292935
    12  O    3.435416   3.491867   2.435366   1.210161   4.459783
    13  O    1.207150   2.431392   3.490617   3.431206   2.798388
    14  C    3.837515   2.810747   3.129592   4.228303   2.904105
    15  H    4.611583   3.489768   3.933195   5.170311   3.254199
    16  C    4.225791   3.125367   2.793266   3.827505   3.472052
    17  H    5.154800   3.913960   3.456644   4.589101   4.093135
    18  C    2.856343   2.284417   3.037733   3.844775   2.521384
    19  H    2.561803   2.440894   2.966489   3.354678   3.054985
    20  C    3.343412   3.075106   4.194673   4.960510   2.927496
    21  H    2.830121   2.965214   4.242519   4.815063   2.834204
    22  H    4.018551   3.462361   4.595354   5.587320   2.979963
    23  H    4.135654   4.042711   5.065542   5.698601   4.004400
    24  C    3.812623   2.999636   2.231589   2.816601   3.713700
    25  H    3.372795   2.982700   2.440484   2.557102   3.864103
    26  C    4.906749   4.142469   3.002322   3.266620   4.872436
    27  H    5.688777   5.032316   3.993454   4.114996   5.782318
    28  H    4.720579   4.181422   2.907579   2.721982   5.028259
    29  C    6.719751   5.720443   4.464432   4.909703   6.200254
    30  C    7.144163   6.402087   5.052941   5.058696   7.056000
    31  H    7.279415   6.635688   5.337867   5.234653   7.369473
    32  H    8.151458   7.383840   6.027199   6.040393   7.988540
    33  H    6.577077   5.981048   4.599392   4.378853   6.700054
    34  O    5.652305   4.602454   3.447954   4.081967   5.091764
    35  O    7.497738   6.364076   5.187271   5.818551   6.676326
                    6          7          8          9         10
     6  H    0.000000
     7  C    4.629618   0.000000
     8  H    4.995448   1.089427   0.000000
     9  H    4.918973   1.090930   1.772793   0.000000
    10  H    5.339830   1.087773   1.778202   1.775391   0.000000
    11  N    3.288150   1.441881   2.085020   2.096835   2.059839
    12  O    2.804123   2.879139   2.868084   2.974694   3.919136
    13  O    4.451269   2.905159   3.773818   3.498684   2.512350
    14  C    3.489064   5.726395   5.929263   6.545410   5.951892
    15  H    4.125187   6.691635   6.962723   7.481302   6.859083
    16  C    2.898479   5.719884   5.771946   6.459881   6.180108
    17  H    3.227674   6.673122   6.723365   7.341523   7.190894
    18  C    3.758618   4.797802   5.087966   5.685243   4.836449
    19  H    3.855913   4.010476   4.157954   4.981707   4.068916
    20  C    4.924195   5.450574   5.886414   6.323390   5.206176
    21  H    5.071151   4.924966   5.499992   5.735634   4.536916
    22  H    5.143112   6.321351   6.824656   7.118701   6.116729
    23  H    5.831636   5.948544   6.256760   6.903785   5.605919
    24  C    2.486711   4.763154   4.678825   5.459419   5.382352
    25  H    3.064318   4.007114   3.816608   4.825189   4.557938
    26  C    2.867158   5.373181   5.132136   5.891870   6.183294
    27  H    3.949749   5.947009   5.530741   6.534061   6.723963
    28  H    2.834392   4.769865   4.492262   5.150157   5.691500
    29  C    3.741147   7.259523   7.114570   7.523002   8.173386
    30  C    4.498081   7.156389   6.847950   7.327650   8.151259
    31  H    4.962995   7.141201   6.687911   7.419315   8.102859
    32  H    5.385799   8.122221   7.814871   8.215229   9.140570
    33  H    4.110872   6.382331   6.107889   6.442317   7.418109
    34  O    2.862818   6.437993   6.339136   6.848162   7.259781
    35  O    4.310884   8.246218   8.187389   8.467356   9.142705
                   11         12         13         14         15
    11  N    0.000000
    12  O    2.295576   0.000000
    13  O    2.302568   4.525315   0.000000
    14  C    4.451273   5.153605   4.509023   0.000000
    15  H    5.386864   6.115027   5.155842   1.085593   0.000000
    16  C    4.445429   4.494323   5.155737   1.393582   2.126764
    17  H    5.368868   5.129070   6.104497   2.129529   2.405797
    18  C    3.642851   4.913674   3.320168   1.377582   2.115778
    19  H    3.022148   4.344390   3.095676   2.120645   3.057997
    20  C    4.448949   6.110962   3.275474   2.515514   2.704415
    21  H    4.059753   5.998858   2.428085   3.356108   3.649430
    22  H    5.215055   6.749712   3.961157   2.679815   2.434062
    23  H    5.110974   6.794931   3.964071   3.061336   3.214821
    24  C    3.607600   3.281849   4.886501   2.431138   3.380195
    25  H    3.026667   3.076647   4.366880   2.727974   3.796064
    26  C    4.380457   3.185800   6.061787   3.812984   4.640571
    27  H    5.104001   3.938866   6.792163   4.296134   5.109217
    28  H    3.934924   2.303530   5.899575   4.516410   5.416947
    29  C    6.237004   4.568916   7.913735   5.485804   6.004104
    30  C    6.383794   4.382906   8.347465   6.446516   7.119836
    31  H    6.461790   4.559919   8.458642   6.422804   7.155033
    32  H    7.383115   5.304423   9.356928   7.433089   8.044468
    33  H    5.705970   3.553825   7.770563   6.484228   7.240630
    34  O    5.309174   4.023012   6.819860   4.151105   4.719653
    35  O    7.147802   5.552665   8.670884   6.040964   6.378067
                   16         17         18         19         20
    16  C    0.000000
    17  H    1.083655   0.000000
    18  C    2.441901   3.388105   0.000000
    19  H    2.720988   3.788406   1.084962   0.000000
    20  C    3.813728   4.634778   1.493187   2.188322   0.000000
    21  H    4.530542   5.409398   2.143036   2.527231   1.090860
    22  H    4.046768   4.667058   2.149383   3.088554   1.090882
    23  H    4.338021   5.162649   2.130664   2.552748   1.094255
    24  C    1.377355   2.117109   2.898493   2.674844   4.389155
    25  H    2.128478   3.060685   2.701622   2.087644   4.139417
    26  C    2.523261   2.722049   4.391703   4.107338   5.880271
    27  H    3.015379   3.154325   4.903174   4.528492   6.387674
    28  H    3.363295   3.689473   4.845577   4.415277   6.302079
    29  C    4.146908   3.708467   6.341555   6.298066   7.761386
    30  C    5.098141   4.876338   7.112972   6.853001   8.579307
    31  H    5.064367   4.923579   7.058802   6.696573   8.550102
    32  H    6.075693   5.745736   8.153046   7.926663   9.610435
    33  H    5.224188   5.185392   6.966454   6.630616   8.403803
    34  O    2.806037   2.469577   5.016704   5.008881   6.442125
    35  O    4.771296   4.116688   7.021111   7.128263   8.367891
                   21         22         23         24         25
    21  H    0.000000
    22  H    1.774504   0.000000
    23  H    1.756820   1.769874   0.000000
    24  C    4.875791   4.868559   4.914068   0.000000
    25  H    4.508564   4.835438   4.544020   1.084454   0.000000
    26  C    6.332096   6.323257   6.400043   1.494897   2.160402
    27  H    6.918317   6.882925   6.749376   2.127635   2.542002
    28  H    6.585110   6.827504   6.871324   2.120521   2.438137
    29  C    8.236121   7.963255   8.404121   3.653037   4.522993
    30  C    8.963560   8.932322   9.171245   4.260395   4.871858
    31  H    8.979958   8.986188   9.026068   4.161253   4.636515
    32  H   10.000247   9.918911  10.218326   5.316840   5.955932
    33  H    8.659758   8.816892   9.047500   4.213084   4.688445
    34  O    6.958197   6.664474   7.064016   2.379562   3.340301
    35  O    8.879356   8.426795   9.055817   4.550858   5.513486
                   26         27         28         29         30
    26  C    0.000000
    27  H    1.095724   0.000000
    28  H    1.090862   1.772766   0.000000
    29  C    2.417442   2.802830   2.673071   0.000000
    30  C    2.799679   2.921802   2.590913   1.502141   0.000000
    31  H    2.674946   2.392493   2.561503   2.157261   1.090733
    32  H    3.864488   3.923310   3.663587   2.115377   1.086167
    33  H    2.863789   3.214775   2.254768   2.139733   1.092215
    34  O    1.424309   2.067937   2.082035   1.345693   2.443162
    35  O    3.495205   3.886417   3.820039   1.199873   2.388040
                   31         32         33         34         35
    31  H    0.000000
    32  H    1.778778   0.000000
    33  H    1.763120   1.775296   0.000000
    34  O    2.726019   3.325282   2.791891   0.000000
    35  O    3.141657   2.518757   3.052641   2.184536   0.000000
 Stoichiometry    C13H17NO4
 Framework group  C1[X(C13H17NO4)]
 Deg. of freedom    99
 Full point group                 C1      NOp   1
 Largest Abelian subgroup         C1      NOp   1
 Largest concise Abelian subgroup C1      NOp   1
                         Standard orientation:                         
 ---------------------------------------------------------------------
 Center     Atomic      Atomic             Coordinates (Angstroms)
 Number     Number       Type             X           Y           Z
 ---------------------------------------------------------------------
      1          6           0       -2.634530   -0.656289    0.558830
      2          6           0       -1.630880    0.303220    1.082730
      3          6           0       -0.376570   -0.251160    0.889020
      4          6           0       -0.570321   -1.575320    0.239510
      5          1           0       -1.906860    0.999300    1.856880
      6          1           0        0.492050   -0.076671    1.502940
      7          6           0       -2.515501   -2.843159   -0.672960
      8          1           0       -2.033661   -3.035400   -1.630940
      9          1           0       -2.415681   -3.729729   -0.045140
     10          1           0       -3.571361   -2.635769   -0.832330
     11          7           0       -1.920541   -1.692200   -0.040240
     12          8           0        0.255879   -2.421780   -0.016200
     13          8           0       -3.838950   -0.603739    0.620650
     14          6           0       -0.814069    2.611700   -0.297140
     15          1           0       -0.867019    3.586110    0.178500
     16          6           0        0.447341    2.045379   -0.470910
     17          1           0        1.307191    2.597509   -0.110190
     18          6           0       -1.991399    1.922340   -0.487950
     19          1           0       -1.999020    1.099500   -1.195070
     20          6           0       -3.326189    2.525881   -0.198670
     21          1           0       -4.032309    1.769981    0.147720
     22          1           0       -3.256699    3.313801    0.552580
     23          1           0       -3.744359    2.960511   -1.111700
     24          6           0        0.627190    0.731979   -0.844730
     25          1           0       -0.110360    0.257850   -1.482900
     26          6           0        1.975510    0.094199   -0.944660
     27          1           0        2.389480    0.270209   -1.943790
     28          1           0        1.874560   -0.982271   -0.799740
     29          6           0        4.035610    0.122948    0.319930
     30          6           0        4.429140   -1.137502   -0.396190
     31          1           0        4.344170   -1.028392   -1.478120
     32          1           0        5.455299   -1.378182   -0.133840
     33          1           0        3.778859   -1.960872   -0.092660
     34          8           0        2.836530    0.664009    0.036470
     35          8           0        4.722480    0.668088    1.138910
 ---------------------------------------------------------------------
 Rotational constants (GHZ):      0.6682706      0.2656886      0.2073559
 General basis read from cards:  (5D, 7F)
 There are   822 symmetry adapted cartesian basis functions of A   symmetry.
 There are   732 symmetry adapted basis functions of A   symmetry.
   732 basis functions,  1126 primitive gaussians,   822 cartesian basis functions
    67 alpha electrons       67 beta electrons
       nuclear repulsion energy      1363.4528276243 Hartrees.
 NAtoms=   35 NActive=   35 NUniq=   35 SFac= 1.00D+00 NAtFMM=   60 NAOKFM=F Big=F
 Integral buffers will be    131072 words long.
 Raffenetti 2 integral format.
 Two-electron integral symmetry is turned on.
 Nuclear repulsion after empirical dispersion term =     1363.4243861041 Hartrees.
 Force inversion solution in PCM.
 ------------------------------------------------------------------------------
 Polarizable Continuum Model (PCM)
 =================================
 Model                : PCM (using non-symmetric T matrix).
 Atomic radii         : SMD-Coulomb.
 Polarization charges : Total charges.
 Charge compensation  : None.
 Solution method      : Matrix inversion.
 Cavity type          : VdW (van der Waals Surface) (Alpha=1.000).
 Cavity algorithm     : GePol (No added spheres)
                        Default sphere list used, NSphG=   35.
                        Lebedev-Laikov grids with approx.  5.0 points / Ang**2.
                        Smoothing algorithm: Karplus/York (Gamma=1.0000).
                        Polarization charges: spherical gaussians, with
                                              point-specific exponents (IZeta= 3).
                        Self-potential: point-specific (ISelfS= 7).
                        Self-field    : sphere-specific E.n sum rule (ISelfD= 2).
 1st derivatives      : Analytical E(r).r(x)/FMM algorithm (CHGder, D1EAlg=3).
                        Cavity 1st derivative terms included.
 2nd derivatives      : Analytical E(r).r(xy)/FMM algorithm (CHGder, D2EAlg=3).
                        Cavity 2nd derivative terms included.
 Solvent              : Toluene, Eps=   2.374100 Eps(inf)=   2.238315
 ------------------------------------------------------------------------------
 ------------------------------------------------------------------------------
 Atomic radii for non-electrostatic terms: SMD-CDS.
 ------------------------------------------------------------------------------
 Nuclear repulsion after PCM non-electrostatic terms =     1363.4146723128 Hartrees.
 One-electron integrals computed using PRISM.
 NBasis=   732 RedAO= T EigKep=  1.18D-06  NBF=   732
 NBsUse=   730 1.00D-06 EigRej=  3.39D-07 NBFU=   730
 ExpMin= 3.17D-02 ExpMax= 2.70D+04 ExpMxC= 9.22D+02 IAcc=3 IRadAn=         5 AccDes= 0.00D+00
 Harris functional with IExCor= 4639 and IRadAn=       5 diagonalized for initial guess.
 HarFok:  IExCor= 4639 AccDes= 0.00D+00 IRadAn=         5 IDoV= 1 UseB2=F ITyADJ=14
 ICtDFT=  3500011 ScaDFX=  1.000000  1.000000  1.000000  1.000000
 FoFCou: FMM=F IPFlag=           0 FMFlag=      100000 FMFlg1=           0
         NFxFlg=           0 DoJE=T BraDBF=F KetDBF=T FulRan=T
         wScrn=  0.000000 ICntrl=     500 IOpCl=  0 I1Cent=   200000004 NGrid=           0
         NMat0=    1 NMatS0=      1 NMatT0=    0 NMatD0=    1 NMtDS0=    0 NMtDT0=    0
 Petite list used in FoFCou.
 Requested convergence on RMS density matrix=1.00D-08 within 128 cycles.
 Requested convergence on MAX density matrix=1.00D-06.
 Requested convergence on             energy=1.00D-06.
 No special actions if energy rises.
 Inv3:  Mode=1 IEnd=    20813868.
 Iteration    1 A*A^-1 deviation from unit magnitude is 4.66D-15 for   2630.
 Iteration    1 A*A^-1 deviation from orthogonality  is 3.78D-15 for   2600    461.
 Iteration    1 A^-1*A deviation from unit magnitude is 4.33D-15 for   2603.
 Iteration    1 A^-1*A deviation from orthogonality  is 4.65D-14 for    785    747.
 Error on total polarization charges =  0.02115
 SCF Done:  E(RwB97XD) =  -861.293740603     A.U. after   16 cycles
            NFock= 16  Conv=0.46D-08     -V/T= 2.0046
 SMD-CDS (non-electrostatic) energy       (kcal/mol) =      -6.10
 (included in total energy above)
 DoSCS=F DFT=T ScalE2(SS,OS)=  1.000000  1.000000
 Range of M.O.s used for correlation:     1   730
 NBasis=   732 NAE=    67 NBE=    67 NFC=     0 NFV=     0
 NROrb=    730 NOA=    67 NOB=    67 NVA=   663 NVB=   663

 **** Warning!!: The largest alpha MO coefficient is  0.18061787D+03

 Symmetrizing basis deriv contribution to polar:
 IMax=3 JMax=2 DiffMx= 0.00D+00
 G2DrvN: will do    36 centers at a time, making    1 passes.
 Calling FoFCou, ICntrl=  3107 FMM=F I1Cent=   0 AccDes= 0.00D+00.
 NEqPCM:  Using equilibrium solvation (IEInf=0, Eps=   2.3741, EpsInf=   2.2383)
 G2PCM: DoFxE=T DoFxN=T DoGrad=T DoDP/DQ/DG/TGxP=FFFF NFrqRd=   0 IEInf=0 SqF1=F DoCFld=F IF1Alg=4.
 End of G2Drv F.D. properties file   721 does not exist.
 End of G2Drv F.D. properties file   722 does not exist.
 End of G2Drv F.D. properties file   788 does not exist.
          IDoAtm=11111111111111111111111111111111111
 NEqPCM:  Using equilibrium solvation (IEInf=0, Eps=   2.3741, EpsInf=   2.2383)
          Differentiating once with respect to electric field.
                with respect to dipole field.
          Differentiating once with respect to nuclear coordinates.
          There are   108 degrees of freedom in the 1st order CPHF.  IDoFFX=6 NUNeed=     3.
    105 vectors produced by pass  0 Test12= 4.44D-14 1.00D-09 XBig12= 1.11D+02 4.87D+00.
 AX will form   105 AO Fock derivatives at one time.
    105 vectors produced by pass  1 Test12= 4.44D-14 1.00D-09 XBig12= 1.75D+01 6.27D-01.
    105 vectors produced by pass  2 Test12= 4.44D-14 1.00D-09 XBig12= 5.94D-01 1.71D-01.
    105 vectors produced by pass  3 Test12= 4.44D-14 1.00D-09 XBig12= 8.90D-03 2.15D-02.
    105 vectors produced by pass  4 Test12= 4.44D-14 1.00D-09 XBig12= 8.90D-05 1.07D-03.
    105 vectors produced by pass  5 Test12= 4.44D-14 1.00D-09 XBig12= 6.75D-07 5.82D-05.
    105 vectors produced by pass  6 Test12= 4.44D-14 1.00D-09 XBig12= 4.78D-09 4.39D-06.
     55 vectors produced by pass  7 Test12= 4.44D-14 1.00D-09 XBig12= 3.56D-11 4.01D-07.
     36 vectors produced by pass  8 Test12= 4.44D-14 1.00D-09 XBig12= 2.75D-12 1.61D-07.
     36 vectors produced by pass  9 Test12= 4.44D-14 1.00D-09 XBig12= 1.82D-13 4.07D-08.
     34 vectors produced by pass 10 Test12= 4.44D-14 1.00D-09 XBig12= 1.20D-14 1.32D-08.
     34 vectors produced by pass 11 Test12= 4.44D-14 1.00D-09 XBig12= 7.24D-14 2.32D-08.
     32 vectors produced by pass 12 Test12= 4.44D-14 1.00D-09 XBig12= 6.84D-14 1.67D-08.
     30 vectors produced by pass 13 Test12= 4.44D-14 1.00D-09 XBig12= 4.03D-14 1.44D-08.
     19 vectors produced by pass 14 Test12= 4.44D-14 1.00D-09 XBig12= 2.23D-14 8.92D-09.
     15 vectors produced by pass 15 Test12= 4.44D-14 1.00D-09 XBig12= 1.75D-14 1.12D-08.
     15 vectors produced by pass 16 Test12= 4.44D-14 1.00D-09 XBig12= 4.19D-14 1.44D-08.
     15 vectors produced by pass 17 Test12= 4.44D-14 1.00D-09 XBig12= 2.62D-14 1.22D-08.
     15 vectors produced by pass 18 Test12= 4.44D-14 1.00D-09 XBig12= 3.59D-14 1.26D-08.
     15 vectors produced by pass 19 Test12= 4.44D-14 1.00D-09 XBig12= 1.28D-14 7.70D-09.
     15 vectors produced by pass 20 Test12= 4.44D-14 1.00D-09 XBig12= 2.41D-14 1.01D-08.
     15 vectors produced by pass 21 Test12= 4.44D-14 1.00D-09 XBig12= 2.03D-14 9.96D-09.
     15 vectors produced by pass 22 Test12= 4.44D-14 1.00D-09 XBig12= 2.48D-14 9.00D-09.
     12 vectors produced by pass 23 Test12= 4.44D-14 1.00D-09 XBig12= 1.09D-14 6.11D-09.
     12 vectors produced by pass 24 Test12= 4.44D-14 1.00D-09 XBig12= 2.75D-14 9.28D-09.
     12 vectors produced by pass 25 Test12= 4.44D-14 1.00D-09 XBig12= 1.38D-14 6.05D-09.
     12 vectors produced by pass 26 Test12= 4.44D-14 1.00D-09 XBig12= 1.83D-14 8.70D-09.
     12 vectors produced by pass 27 Test12= 4.44D-14 1.00D-09 XBig12= 2.03D-14 1.02D-08.
      6 vectors produced by pass 28 Test12= 4.44D-14 1.00D-09 XBig12= 7.61D-15 4.39D-09.
      6 vectors produced by pass 29 Test12= 4.44D-14 1.00D-09 XBig12= 9.67D-15 6.01D-09.
      5 vectors produced by pass 30 Test12= 4.44D-14 1.00D-09 XBig12= 9.13D-15 5.85D-09.
      5 vectors produced by pass 31 Test12= 4.44D-14 1.00D-09 XBig12= 1.09D-14 5.69D-09.
      5 vectors produced by pass 32 Test12= 4.44D-14 1.00D-09 XBig12= 9.76D-15 5.18D-09.
      4 vectors produced by pass 33 Test12= 4.44D-14 1.00D-09 XBig12= 5.52D-15 3.85D-09.
      4 vectors produced by pass 34 Test12= 4.44D-14 1.00D-09 XBig12= 1.37D-14 6.75D-09.
      4 vectors produced by pass 35 Test12= 4.44D-14 1.00D-09 XBig12= 9.96D-15 4.88D-09.
      4 vectors produced by pass 36 Test12= 4.44D-14 1.00D-09 XBig12= 1.31D-14 6.06D-09.
      4 vectors produced by pass 37 Test12= 4.44D-14 1.00D-09 XBig12= 1.51D-14 6.42D-09.
      3 vectors produced by pass 38 Test12= 4.44D-14 1.00D-09 XBig12= 6.00D-15 3.97D-09.
      1 vectors produced by pass 39 Test12= 4.44D-14 1.00D-09 XBig12= 2.36D-15 2.41D-09.
 InvSVY:  IOpt=1 It=  1 EMax= 7.35D-15
 Solved reduced A of dimension  1242 with   108 vectors.
 Isotropic polarizability for W=    0.000000      215.27 Bohr**3.
 End of Minotr F.D. properties file   721 does not exist.
 End of Minotr F.D. properties file   722 does not exist.
 End of Minotr F.D. properties file   788 does not exist.

 **********************************************************************

            Population analysis using the SCF density.

 **********************************************************************

 Orbital symmetries:
       Occupied  (A) (A) (A) (A) (A) (A) (A) (A) (A) (A) (A) (A)
                 (A) (A) (A) (A) (A) (A) (A) (A) (A) (A) (A) (A)
                 (A) (A) (A) (A) (A) (A) (A) (A) (A) (A) (A) (A)
                 (A) (A) (A) (A) (A) (A) (A) (A) (A) (A) (A) (A)
                 (A) (A) (A) (A) (A) (A) (A) (A) (A) (A) (A) (A)
                 (A) (A) (A) (A) (A) (A) (A)
       Virtual   (A) (A) (A) (A) (A) (A) (A) (A) (A) (A) (A) (A)
                 (A) (A) (A) (A) (A) (A) (A) (A) (A) (A) (A) (A)
                 (A) (A) (A) (A) (A) (A) (A) (A) (A) (A) (A) (A)
                 (A) (A) (A) (A) (A) (A) (A) (A) (A) (A) (A) (A)
                 (A) (A) (A) (A) (A) (A) (A) (A) (A) (A) (A) (A)
                 (A) (A) (A) (A) (A) (A) (A) (A) (A) (A) (A) (A)
                 (A) (A) (A) (A) (A) (A) (A) (A) (A) (A) (A) (A)
                 (A) (A) (A) (A) (A) (A) (A) (A) (A) (A) (A) (A)
                 (A) (A) (A) (A) (A) (A) (A) (A) (A) (A) (A) (A)
                 (A) (A) (A) (A) (A) (A) (A) (A) (A) (A) (A) (A)
                 (A) (A) (A) (A) (A) (A) (A) (A) (A) (A) (A) (A)
                 (A) (A) (A) (A) (A) (A) (A) (A) (A) (A) (A) (A)
                 (A) (A) (A) (A) (A) (A) (A) (A) (A) (A) (A) (A)
                 (A) (A) (A) (A) (A) (A) (A) (A) (A) (A) (A) (A)
                 (A) (A) (A) (A) (A) (A) (A) (A) (A) (A) (A) (A)
                 (A) (A) (A) (A) (A) (A) (A) (A) (A) (A) (A) (A)
                 (A) (A) (A) (A) (A) (A) (A) (A) (A) (A) (A) (A)
                 (A) (A) (A) (A) (A) (A) (A) (A) (A) (A) (A) (A)
                 (A) (A) (A) (A) (A) (A) (A) (A) (A) (A) (A) (A)
                 (A) (A) (A) (A) (A) (A) (A) (A) (A) (A) (A) (A)
                 (A) (A) (A) (A) (A) (A) (A) (A) (A) (A) (A) (A)
                 (A) (A) (A) (A) (A) (A) (A) (A) (A) (A) (A) (A)
                 (A) (A) (A) (A) (A) (A) (A) (A) (A) (A) (A) (A)
                 (A) (A) (A) (A) (A) (A) (A) (A) (A) (A) (A) (A)
                 (A) (A) (A) (A) (A) (A) (A) (A) (A) (A) (A) (A)
                 (A) (A) (A) (A) (A) (A) (A) (A) (A) (A) (A) (A)
                 (A) (A) (A) (A) (A) (A) (A) (A) (A) (A) (A) (A)
                 (A) (A) (A) (A) (A) (A) (A) (A) (A) (A) (A) (A)
                 (A) (A) (A) (A) (A) (A) (A) (A) (A) (A) (A) (A)
                 (A) (A) (A) (A) (A) (A) (A) (A) (A) (A) (A) (A)
                 (A) (A) (A) (A) (A) (A) (A) (A) (A) (A) (A) (A)
                 (A) (A) (A) (A) (A) (A) (A) (A) (A) (A) (A) (A)
                 (A) (A) (A) (A) (A) (A) (A) (A) (A) (A) (A) (A)
                 (A) (A) (A) (A) (A) (A) (A) (A) (A) (A) (A) (A)
                 (A) (A) (A) (A) (A) (A) (A) (A) (A) (A) (A) (A)
                 (A) (A) (A) (A) (A) (A) (A) (A) (A) (A) (A) (A)
                 (A) (A) (A) (A) (A) (A) (A) (A) (A) (A) (A) (A)
                 (A) (A) (A) (A) (A) (A) (A) (A) (A) (A) (A) (A)
                 (A) (A) (A) (A) (A) (A) (A) (A) (A) (A) (A) (A)
                 (A) (A) (A) (A) (A) (A) (A) (A) (A) (A) (A) (A)
                 (A) (A) (A) (A) (A) (A) (A) (A) (A) (A) (A) (A)
                 (A) (A) (A) (A) (A) (A) (A) (A) (A) (A) (A) (A)
                 (A) (A) (A) (A) (A) (A) (A) (A) (A) (A) (A) (A)
                 (A) (A) (A) (A) (A) (A) (A) (A) (A) (A) (A) (A)
                 (A) (A) (A) (A) (A) (A) (A) (A) (A) (A) (A) (A)
                 (A) (A) (A) (A) (A) (A) (A) (A) (A) (A) (A) (A)
                 (A) (A) (A) (A) (A) (A) (A) (A) (A) (A) (A) (A)
                 (A) (A) (A) (A) (A) (A) (A) (A) (A) (A) (A) (A)
                 (A) (A) (A) (A) (A) (A) (A) (A) (A) (A) (A) (A)
                 (A) (A) (A) (A) (A) (A) (A) (A) (A) (A) (A) (A)
                 (A) (A) (A) (A) (A) (A) (A) (A) (A) (A) (A) (A)
                 (A) (A) (A) (A) (A) (A) (A) (A) (A) (A) (A) (A)
                 (A) (A) (A) (A) (A) (A) (A) (A) (A) (A) (A) (A)
                 (A) (A) (A) (A) (A) (A) (A) (A) (A) (A) (A) (A)
                 (A) (A) (A) (A) (A) (A) (A) (A) (A) (A) (A) (A)
                 (A) (A) (A)
 The electronic state is 1-A.
 Alpha  occ. eigenvalues --  -19.29757 -19.24254 -19.24024 -19.22982 -14.48104
 Alpha  occ. eigenvalues --  -10.41726 -10.40584 -10.40497 -10.35164 -10.31909
 Alpha  occ. eigenvalues --  -10.31735 -10.31730 -10.31181 -10.30838 -10.29383
 Alpha  occ. eigenvalues --  -10.29208 -10.29162 -10.27799  -1.21172  -1.17813
 Alpha  occ. eigenvalues --   -1.15683  -1.12523  -1.06406  -0.94900  -0.91645
 Alpha  occ. eigenvalues --   -0.89340  -0.85045  -0.83478  -0.80586  -0.77517
 Alpha  occ. eigenvalues --   -0.75874  -0.71484  -0.70185  -0.67501  -0.64681
 Alpha  occ. eigenvalues --   -0.62289  -0.60048  -0.59683  -0.59141  -0.58172
 Alpha  occ. eigenvalues --   -0.58018  -0.55564  -0.55353  -0.53761  -0.53096
 Alpha  occ. eigenvalues --   -0.52981  -0.52009  -0.51316  -0.51245  -0.49642
 Alpha  occ. eigenvalues --   -0.49227  -0.48931  -0.48394  -0.47958  -0.47514
 Alpha  occ. eigenvalues --   -0.47041  -0.44952  -0.44380  -0.43640  -0.43295
 Alpha  occ. eigenvalues --   -0.38823  -0.38092  -0.36132  -0.36020  -0.35430
 Alpha  occ. eigenvalues --   -0.32531  -0.31046
 Alpha virt. eigenvalues --   -0.00803   0.02065   0.04311   0.04725   0.05098
 Alpha virt. eigenvalues --    0.05758   0.06700   0.06936   0.07185   0.07300
 Alpha virt. eigenvalues --    0.07959   0.08082   0.08638   0.09383   0.09446
 Alpha virt. eigenvalues --    0.09637   0.09961   0.10238   0.10665   0.10852
 Alpha virt. eigenvalues --    0.11589   0.11848   0.12169   0.12334   0.12685
 Alpha virt. eigenvalues --    0.13017   0.13457   0.13928   0.14066   0.14333
 Alpha virt. eigenvalues --    0.14563   0.14910   0.15110   0.15455   0.15595
 Alpha virt. eigenvalues --    0.15817   0.16457   0.16716   0.17054   0.17163
 Alpha virt. eigenvalues --    0.17406   0.18121   0.18300   0.18608   0.18799
 Alpha virt. eigenvalues --    0.19289   0.19447   0.20010   0.20099   0.20261
 Alpha virt. eigenvalues --    0.20558   0.21412   0.21786   0.21858   0.22186
 Alpha virt. eigenvalues --    0.22645   0.22916   0.23294   0.23657   0.23888
 Alpha virt. eigenvalues --    0.24078   0.24420   0.24716   0.25182   0.25415
 Alpha virt. eigenvalues --    0.25519   0.26154   0.26644   0.26904   0.27345
 Alpha virt. eigenvalues --    0.27457   0.27817   0.28057   0.28583   0.28830
 Alpha virt. eigenvalues --    0.29262   0.29665   0.30266   0.30512   0.30830
 Alpha virt. eigenvalues --    0.31096   0.31597   0.31959   0.32414   0.32508
 Alpha virt. eigenvalues --    0.32913   0.33547   0.33926   0.34252   0.34497
 Alpha virt. eigenvalues --    0.34845   0.35356   0.35833   0.36129   0.36958
 Alpha virt. eigenvalues --    0.37427   0.37682   0.38186   0.38870   0.39222
 Alpha virt. eigenvalues --    0.39894   0.40226   0.40855   0.41392   0.41538
 Alpha virt. eigenvalues --    0.42459   0.42788   0.43359   0.43944   0.44662
 Alpha virt. eigenvalues --    0.44908   0.45333   0.45602   0.46243   0.47062
 Alpha virt. eigenvalues --    0.47458   0.47789   0.48192   0.49087   0.49442
 Alpha virt. eigenvalues --    0.50199   0.50739   0.51131   0.51535   0.51597
 Alpha virt. eigenvalues --    0.52022   0.52450   0.53379   0.53931   0.54496
 Alpha virt. eigenvalues --    0.54799   0.55134   0.55792   0.56267   0.56803
 Alpha virt. eigenvalues --    0.57349   0.57863   0.58396   0.58771   0.58911
 Alpha virt. eigenvalues --    0.59427   0.59713   0.60326   0.60522   0.61263
 Alpha virt. eigenvalues --    0.61456   0.61622   0.62232   0.62837   0.63250
 Alpha virt. eigenvalues --    0.63763   0.64325   0.64997   0.65490   0.65679
 Alpha virt. eigenvalues --    0.66091   0.66577   0.67452   0.67610   0.67999
 Alpha virt. eigenvalues --    0.68254   0.69067   0.69466   0.69857   0.70300
 Alpha virt. eigenvalues --    0.70556   0.71661   0.71769   0.72393   0.73229
 Alpha virt. eigenvalues --    0.73829   0.74768   0.76235   0.76727   0.77584
 Alpha virt. eigenvalues --    0.78385   0.79014   0.79166   0.80206   0.80903
 Alpha virt. eigenvalues --    0.81323   0.82695   0.83180   0.83524   0.84066
 Alpha virt. eigenvalues --    0.84788   0.84922   0.85745   0.87415   0.89292
 Alpha virt. eigenvalues --    0.89597   0.89816   0.90638   0.91210   0.92087
 Alpha virt. eigenvalues --    0.92616   0.93927   0.95184   0.96009   0.96841
 Alpha virt. eigenvalues --    0.97633   0.98191   0.98895   1.00304   1.01072
 Alpha virt. eigenvalues --    1.01399   1.02576   1.04521   1.05009   1.06396
 Alpha virt. eigenvalues --    1.07705   1.08643   1.10155   1.10336   1.12046
 Alpha virt. eigenvalues --    1.12416   1.12607   1.13190   1.14171   1.14842
 Alpha virt. eigenvalues --    1.15514   1.17026   1.17196   1.17949   1.18830
 Alpha virt. eigenvalues --    1.19419   1.20230   1.21013   1.21643   1.22146
 Alpha virt. eigenvalues --    1.22912   1.24858   1.25050   1.26205   1.26845
 Alpha virt. eigenvalues --    1.28066   1.28291   1.28974   1.30619   1.31505
 Alpha virt. eigenvalues --    1.32809   1.33762   1.34526   1.35634   1.36612
 Alpha virt. eigenvalues --    1.37750   1.38783   1.39726   1.40575   1.41913
 Alpha virt. eigenvalues --    1.42273   1.43682   1.44715   1.46094   1.47016
 Alpha virt. eigenvalues --    1.49332   1.50714   1.51260   1.51974   1.53860
 Alpha virt. eigenvalues --    1.54411   1.58076   1.58520   1.59981   1.60409
 Alpha virt. eigenvalues --    1.61221   1.61699   1.62319   1.62480   1.63242
 Alpha virt. eigenvalues --    1.63980   1.64413   1.66272   1.66302   1.67367
 Alpha virt. eigenvalues --    1.67678   1.68196   1.69117   1.70210   1.70350
 Alpha virt. eigenvalues --    1.70888   1.71249   1.71723   1.72224   1.73868
 Alpha virt. eigenvalues --    1.74714   1.75280   1.76066   1.76487   1.76729
 Alpha virt. eigenvalues --    1.77848   1.78158   1.78772   1.79800   1.80849
 Alpha virt. eigenvalues --    1.81164   1.82247   1.83552   1.85329   1.86425
 Alpha virt. eigenvalues --    1.87192   1.88124   1.89574   1.91063   1.92341
 Alpha virt. eigenvalues --    1.93880   1.95227   1.95350   1.95498   1.97961
 Alpha virt. eigenvalues --    1.98351   1.99356   2.00358   2.00527   2.01810
 Alpha virt. eigenvalues --    2.02039   2.04013   2.05006   2.05911   2.07153
 Alpha virt. eigenvalues --    2.08167   2.09504   2.10665   2.12248   2.12934
 Alpha virt. eigenvalues --    2.14054   2.14681   2.16343   2.17561   2.18216
 Alpha virt. eigenvalues --    2.19206   2.20792   2.21507   2.22063   2.22653
 Alpha virt. eigenvalues --    2.24234   2.25321   2.26346   2.27874   2.28960
 Alpha virt. eigenvalues --    2.29974   2.31047   2.32898   2.34591   2.35364
 Alpha virt. eigenvalues --    2.36993   2.39262   2.39810   2.40232   2.40584
 Alpha virt. eigenvalues --    2.42655   2.43308   2.44114   2.44502   2.45656
 Alpha virt. eigenvalues --    2.46042   2.46599   2.47169   2.47618   2.48577
 Alpha virt. eigenvalues --    2.49052   2.50343   2.51581   2.52635   2.53313
 Alpha virt. eigenvalues --    2.54105   2.54123   2.54851   2.57396   2.57942
 Alpha virt. eigenvalues --    2.58524   2.58847   2.59927   2.60986   2.61593
 Alpha virt. eigenvalues --    2.62000   2.63274   2.63430   2.64409   2.65434
 Alpha virt. eigenvalues --    2.66353   2.67660   2.68430   2.69978   2.70236
 Alpha virt. eigenvalues --    2.70712   2.71706   2.73050   2.73423   2.74361
 Alpha virt. eigenvalues --    2.74955   2.76259   2.76979   2.77526   2.79883
 Alpha virt. eigenvalues --    2.80279   2.80622   2.83552   2.84841   2.85568
 Alpha virt. eigenvalues --    2.86106   2.86948   2.87595   2.88180   2.89247
 Alpha virt. eigenvalues --    2.89803   2.91495   2.92395   2.92640   2.94212
 Alpha virt. eigenvalues --    2.94792   2.95942   2.97209   2.98275   2.99042
 Alpha virt. eigenvalues --    3.00244   3.01488   3.01952   3.02521   3.03224
 Alpha virt. eigenvalues --    3.05068   3.06300   3.06692   3.08676   3.09116
 Alpha virt. eigenvalues --    3.09952   3.10296   3.10877   3.11847   3.13612
 Alpha virt. eigenvalues --    3.14745   3.15379   3.16038   3.16471   3.17595
 Alpha virt. eigenvalues --    3.18408   3.19041   3.19815   3.20292   3.20895
 Alpha virt. eigenvalues --    3.21740   3.21922   3.23022   3.23410   3.24553
 Alpha virt. eigenvalues --    3.25285   3.26620   3.27134   3.27523   3.28873
 Alpha virt. eigenvalues --    3.30226   3.30785   3.31044   3.32068   3.32435
 Alpha virt. eigenvalues --    3.33369   3.34162   3.35290   3.36200   3.36842
 Alpha virt. eigenvalues --    3.37620   3.38216   3.39153   3.39629   3.41094
 Alpha virt. eigenvalues --    3.41128   3.42328   3.43591   3.44164   3.44648
 Alpha virt. eigenvalues --    3.45248   3.45728   3.46267   3.47282   3.47723
 Alpha virt. eigenvalues --    3.49106   3.49122   3.50317   3.51079   3.52050
 Alpha virt. eigenvalues --    3.52541   3.53915   3.54179   3.54601   3.56855
 Alpha virt. eigenvalues --    3.57307   3.57566   3.58815   3.59668   3.59882
 Alpha virt. eigenvalues --    3.62021   3.62691   3.63365   3.65234   3.65744
 Alpha virt. eigenvalues --    3.65837   3.67846   3.68980   3.70058   3.71207
 Alpha virt. eigenvalues --    3.71378   3.73271   3.75168   3.75614   3.76420
 Alpha virt. eigenvalues --    3.76521   3.77771   3.79409   3.80570   3.82332
 Alpha virt. eigenvalues --    3.83253   3.83886   3.85808   3.87216   3.88601
 Alpha virt. eigenvalues --    3.90159   3.91096   3.91804   3.94727   3.96590
 Alpha virt. eigenvalues --    3.98272   4.00046   4.00412   4.01017   4.02487
 Alpha virt. eigenvalues --    4.05835   4.08200   4.08820   4.11212   4.12758
 Alpha virt. eigenvalues --    4.12941   4.14094   4.16458   4.17359   4.20700
 Alpha virt. eigenvalues --    4.22081   4.24482   4.25394   4.26996   4.28327
 Alpha virt. eigenvalues --    4.29220   4.30560   4.31741   4.34032   4.34715
 Alpha virt. eigenvalues --    4.37113   4.38248   4.42923   4.43943   4.45120
 Alpha virt. eigenvalues --    4.45877   4.48382   4.49236   4.51307   4.51512
 Alpha virt. eigenvalues --    4.53012   4.54698   4.55986   4.58429   4.61126
 Alpha virt. eigenvalues --    4.63733   4.64153   4.64948   4.68005   4.69407
 Alpha virt. eigenvalues --    4.71096   4.73173   4.74182   4.78599   4.80382
 Alpha virt. eigenvalues --    4.84502   4.85685   4.87521   4.87921   4.89992
 Alpha virt. eigenvalues --    4.91543   4.96195   4.99050   5.01912   5.04072
 Alpha virt. eigenvalues --    5.08066   5.09824   5.12452   5.12617   5.19828
 Alpha virt. eigenvalues --    5.22128   5.23453   5.24774   5.26628   5.27145
 Alpha virt. eigenvalues --    5.27642   5.30553   5.32815   5.35530   5.36479
 Alpha virt. eigenvalues --    5.36986   5.38042   5.42771   5.45718   5.52153
 Alpha virt. eigenvalues --    5.54684   5.59660   5.67890   5.72372   5.74050
 Alpha virt. eigenvalues --    5.74396   5.81001   5.84807   5.88293   5.94724
 Alpha virt. eigenvalues --    5.99695   6.01135   6.01617   6.14658   6.14966
 Alpha virt. eigenvalues --    6.29612   6.30816   6.31488   6.38084   6.46488
 Alpha virt. eigenvalues --    6.47453   6.49938   6.52847   6.54821   6.60134
 Alpha virt. eigenvalues --    6.60575   6.65166   6.66404   6.75395   6.85952
 Alpha virt. eigenvalues --    6.93577   6.93910   6.94981   6.97397   6.97555
 Alpha virt. eigenvalues --    7.00627   7.02043   7.18763   7.19866   7.23542
 Alpha virt. eigenvalues --    7.24632   7.28720   7.30038   7.36228   7.53611
 Alpha virt. eigenvalues --   22.50645  22.51799  22.57704  22.64728  22.64923
 Alpha virt. eigenvalues --   22.69991  22.84057  22.89219  23.03465  23.10139
 Alpha virt. eigenvalues --   23.38618  23.49702  23.79411  33.04310  44.13401
 Alpha virt. eigenvalues --   44.22633  44.36897  44.44838
          Condensed to atoms (all electrons):
               1          2          3          4          5          6
     1  C    7.321320  -0.931175  -0.393242  -1.061249  -0.032378   0.000034
     2  C   -0.931175   7.523180   1.493441  -0.697052   0.429174  -0.014692
     3  C   -0.393242   1.493441   7.286091  -1.340745  -0.020415   0.428583
     4  C   -1.061249  -0.697052  -1.340745   8.060114   0.002543  -0.033715
     5  H   -0.032378   0.429174  -0.020415   0.002543   0.432619  -0.001992
     6  H    0.000034  -0.014692   0.428583  -0.033715  -0.001992   0.427010
     7  C   -0.141149  -0.030465  -0.003629  -0.121647  -0.002413  -0.001296
     8  H   -0.043182  -0.004608  -0.015182   0.058754   0.000005  -0.000033
     9  H   -0.015049  -0.002417   0.006394  -0.031496   0.000018   0.000032
    10  H    0.038056   0.021953   0.012343  -0.011833  -0.000034  -0.000005
    11  N    0.354790  -0.646081  -0.444144   0.249711   0.000209   0.004223
    12  O    0.082771   0.033231  -0.121005   0.309590   0.000325  -0.006506
    13  O    0.304706  -0.135650   0.011681   0.102546  -0.005469   0.000496
    14  C   -0.527252  -0.209832  -0.041178   0.548153  -0.025499   0.014714
    15  H   -0.006532  -0.002919   0.009071   0.002729   0.000731   0.000010
    16  C    0.380616   0.076565   0.050336  -0.501626   0.016289  -0.023679
    17  H    0.000016   0.008141   0.002361  -0.005424   0.000000   0.000522
    18  C   -0.141544  -0.359030  -0.305922   0.523688  -0.013522   0.005392
    19  H   -0.004802  -0.049130  -0.031362   0.029151   0.002938  -0.000095
    20  C   -0.093381   0.058439   0.083854  -0.012744  -0.007729   0.001143
    21  H    0.086000  -0.029121  -0.009098  -0.014084  -0.000640  -0.000003
    22  H   -0.026445  -0.020219   0.002740   0.006024   0.001274   0.000006
    23  H   -0.024347   0.022647   0.007498   0.001559  -0.000302   0.000005
    24  C    0.624522  -0.229922  -0.100936  -0.432432   0.018321  -0.039511
    25  H    0.016233  -0.021870  -0.043810  -0.010067  -0.000036   0.001947
    26  C   -0.004565  -0.100727  -0.349809   0.104786  -0.000816   0.016483
    27  H    0.002835   0.011568   0.009709  -0.033484   0.000002  -0.000130
    28  H   -0.007743  -0.022241  -0.036251   0.081618   0.000011   0.001001
    29  C   -0.000149   0.005282   0.022088  -0.007882   0.000034  -0.001236
    30  C   -0.001513   0.009280   0.024312  -0.030977   0.000004   0.001165
    31  H   -0.000552   0.000162   0.001490  -0.006234   0.000000   0.000002
    32  H    0.000060  -0.000041  -0.000904   0.001170   0.000000  -0.000005
    33  H    0.000653   0.000101  -0.000510   0.008693   0.000000  -0.000121
    34  O    0.000203   0.004959   0.016292   0.000856  -0.000253   0.001942
    35  O    0.000592  -0.001627  -0.008449   0.003276  -0.000005  -0.000553
               7          8          9         10         11         12
     1  C   -0.141149  -0.043182  -0.015049   0.038056   0.354790   0.082771
     2  C   -0.030465  -0.004608  -0.002417   0.021953  -0.646081   0.033231
     3  C   -0.003629  -0.015182   0.006394   0.012343  -0.444144  -0.121005
     4  C   -0.121647   0.058754  -0.031496  -0.011833   0.249711   0.309590
     5  H   -0.002413   0.000005   0.000018  -0.000034   0.000209   0.000325
     6  H   -0.001296  -0.000033   0.000032  -0.000005   0.004223  -0.006506
     7  C    5.067799   0.418727   0.437830   0.397093   0.343518  -0.016298
     8  H    0.418727   0.504864  -0.027797  -0.020145  -0.037669  -0.004863
     9  H    0.437830  -0.027797   0.508528  -0.016716  -0.024931  -0.001379
    10  H    0.397093  -0.020145  -0.016716   0.483616  -0.079268   0.002019
    11  N    0.343518  -0.037669  -0.024931  -0.079268   7.355526  -0.129444
    12  O   -0.016298  -0.004863  -0.001379   0.002019  -0.129444   8.333043
    13  O   -0.022746   0.001761  -0.000540   0.002345  -0.118917  -0.005194
    14  C    0.030961   0.002543   0.000119  -0.000688   0.061141  -0.000637
    15  H   -0.000040   0.000000   0.000000   0.000000  -0.000461  -0.000019
    16  C   -0.005116  -0.000705  -0.000196   0.000260   0.001525  -0.006386
    17  H   -0.000048   0.000000   0.000000   0.000000  -0.000149   0.000256
    18  C   -0.010336   0.009918  -0.002973  -0.006756  -0.007845  -0.024298
    19  H   -0.003568  -0.000060  -0.000033   0.000073  -0.003075  -0.000619
    20  C    0.000064  -0.001079   0.000727  -0.000850  -0.007328  -0.002525
    21  H   -0.000688   0.000001   0.000001  -0.000010   0.005566   0.000094
    22  H    0.000344   0.000000   0.000000   0.000000  -0.000133  -0.000045
    23  H   -0.000042   0.000000   0.000000   0.000000  -0.001360  -0.000005
    24  C   -0.028719   0.000737  -0.001227  -0.000211  -0.012603  -0.022136
    25  H   -0.001389  -0.000106  -0.000023   0.000005   0.007109   0.001544
    26  C    0.037119  -0.010282   0.005247   0.000791   0.139328   0.060753
    27  H    0.000525   0.000000   0.000000   0.000000  -0.000680   0.005008
    28  H   -0.001121  -0.000070   0.000024   0.000004   0.006116  -0.011004
    29  C   -0.002005  -0.000040   0.000020  -0.000029  -0.002204  -0.013300
    30  C   -0.000434   0.000076  -0.000060   0.000026  -0.004055   0.006378
    31  H    0.000033   0.000000   0.000000   0.000000  -0.000118   0.000867
    32  H    0.000006   0.000000   0.000000   0.000000   0.000019  -0.000143
    33  H    0.000020   0.000000   0.000000   0.000000   0.000140   0.000652
    34  O   -0.000156   0.000070  -0.000030  -0.000001  -0.004157   0.001017
    35  O    0.000032   0.000000   0.000000   0.000000   0.000066  -0.000265
              13         14         15         16         17         18
     1  C    0.304706  -0.527252  -0.006532   0.380616   0.000016  -0.141544
     2  C   -0.135650  -0.209832  -0.002919   0.076565   0.008141  -0.359030
     3  C    0.011681  -0.041178   0.009071   0.050336   0.002361  -0.305922
     4  C    0.102546   0.548153   0.002729  -0.501626  -0.005424   0.523688
     5  H   -0.005469  -0.025499   0.000731   0.016289   0.000000  -0.013522
     6  H    0.000496   0.014714   0.000010  -0.023679   0.000522   0.005392
     7  C   -0.022746   0.030961  -0.000040  -0.005116  -0.000048  -0.010336
     8  H    0.001761   0.002543   0.000000  -0.000705   0.000000   0.009918
     9  H   -0.000540   0.000119   0.000000  -0.000196   0.000000  -0.002973
    10  H    0.002345  -0.000688   0.000000   0.000260   0.000000  -0.006756
    11  N   -0.118917   0.061141  -0.000461   0.001525  -0.000149  -0.007845
    12  O   -0.005194  -0.000637  -0.000019  -0.006386   0.000256  -0.024298
    13  O    8.334139   0.026067   0.000193  -0.010386  -0.000012   0.023181
    14  C    0.026067   6.309241   0.413839  -0.411986  -0.013727   0.752071
    15  H    0.000193   0.413839   0.482288  -0.010803  -0.003674  -0.058618
    16  C   -0.010386  -0.411986  -0.010803   6.155736   0.405342  -0.825018
    17  H   -0.000012  -0.013727  -0.003674   0.405342   0.451934   0.008276
    18  C    0.023181   0.752071  -0.058618  -0.825018   0.008276   6.983052
    19  H    0.002773  -0.031952   0.002772  -0.001115  -0.000201   0.429628
    20  C   -0.008955   0.053445   0.004032  -0.027182   0.002325  -0.126084
    21  H   -0.004961  -0.031459  -0.000087   0.034740   0.000005  -0.078781
    22  H    0.003814   0.066817   0.001659  -0.005244  -0.000021  -0.100339
    23  H    0.000886  -0.027246   0.000323  -0.029146  -0.000009  -0.037582
    24  C   -0.027474  -0.758936   0.003162   1.080848  -0.046295  -0.055559
    25  H    0.000247   0.014525  -0.000046  -0.042169   0.001834   0.021287
    26  C   -0.003698  -0.117723  -0.000541  -0.201896   0.003320  -0.636161
    27  H   -0.000025  -0.000254  -0.000003  -0.012093   0.000654  -0.003580
    28  H    0.000082   0.004852   0.000007  -0.002217  -0.000384   0.007373
    29  C    0.000126  -0.008810   0.000250   0.016495  -0.001026   0.034929
    30  C    0.000033  -0.001191  -0.000002   0.006193   0.000223   0.001363
    31  H    0.000000  -0.001379   0.000000  -0.003690   0.000011  -0.001695
    32  H    0.000000  -0.000130   0.000000  -0.001601   0.000001  -0.000121
    33  H    0.000000   0.001695   0.000000   0.007666  -0.000003   0.002439
    34  O    0.000052   0.053855   0.000203  -0.004995  -0.007398   0.008075
    35  O    0.000000  -0.002307  -0.000010  -0.010270  -0.000438  -0.000381
              19         20         21         22         23         24
     1  C   -0.004802  -0.093381   0.086000  -0.026445  -0.024347   0.624522
     2  C   -0.049130   0.058439  -0.029121  -0.020219   0.022647  -0.229922
     3  C   -0.031362   0.083854  -0.009098   0.002740   0.007498  -0.100936
     4  C    0.029151  -0.012744  -0.014084   0.006024   0.001559  -0.432432
     5  H    0.002938  -0.007729  -0.000640   0.001274  -0.000302   0.018321
     6  H   -0.000095   0.001143  -0.000003   0.000006   0.000005  -0.039511
     7  C   -0.003568   0.000064  -0.000688   0.000344  -0.000042  -0.028719
     8  H   -0.000060  -0.001079   0.000001   0.000000   0.000000   0.000737
     9  H   -0.000033   0.000727   0.000001   0.000000   0.000000  -0.001227
    10  H    0.000073  -0.000850  -0.000010   0.000000   0.000000  -0.000211
    11  N   -0.003075  -0.007328   0.005566  -0.000133  -0.001360  -0.012603
    12  O   -0.000619  -0.002525   0.000094  -0.000045  -0.000005  -0.022136
    13  O    0.002773  -0.008955  -0.004961   0.003814   0.000886  -0.027474
    14  C   -0.031952   0.053445  -0.031459   0.066817  -0.027246  -0.758936
    15  H    0.002772   0.004032  -0.000087   0.001659   0.000323   0.003162
    16  C   -0.001115  -0.027182   0.034740  -0.005244  -0.029146   1.080848
    17  H   -0.000201   0.002325   0.000005  -0.000021  -0.000009  -0.046295
    18  C    0.429628  -0.126084  -0.078781  -0.100339  -0.037582  -0.055559
    19  H    0.524131  -0.001462  -0.004226   0.004205  -0.002725  -0.017753
    20  C   -0.001462   5.334690   0.405587   0.463732   0.465995  -0.122737
    21  H   -0.004226   0.405587   0.485283  -0.024216  -0.022270   0.023959
    22  H    0.004205   0.463732  -0.024216   0.521780  -0.018181  -0.020790
    23  H   -0.002725   0.465995  -0.022270  -0.018181   0.519792  -0.012367
    24  C   -0.017753  -0.122737   0.023959  -0.020790  -0.012367   6.447520
    25  H    0.005706  -0.000469  -0.000019   0.000023  -0.000021   0.421298
    26  C   -0.015612  -0.009801   0.001139  -0.000867  -0.001427  -0.468599
    27  H   -0.000031  -0.000444   0.000000   0.000000  -0.000001  -0.027323
    28  H    0.000088   0.000502  -0.000001   0.000000   0.000001  -0.039123
    29  C    0.000536   0.000994  -0.000028   0.000010   0.000028   0.101316
    30  C   -0.000102  -0.000151   0.000002   0.000003  -0.000002   0.050150
    31  H    0.000000  -0.000040   0.000000   0.000000   0.000000  -0.023940
    32  H    0.000000   0.000000   0.000000   0.000000   0.000000  -0.006697
    33  H    0.000000   0.000031   0.000000   0.000000   0.000000   0.036147
    34  O   -0.000399   0.000741  -0.000009   0.000026   0.000002  -0.081182
    35  O   -0.000005  -0.000163   0.000000   0.000000   0.000000   0.012948
              25         26         27         28         29         30
     1  C    0.016233  -0.004565   0.002835  -0.007743  -0.000149  -0.001513
     2  C   -0.021870  -0.100727   0.011568  -0.022241   0.005282   0.009280
     3  C   -0.043810  -0.349809   0.009709  -0.036251   0.022088   0.024312
     4  C   -0.010067   0.104786  -0.033484   0.081618  -0.007882  -0.030977
     5  H   -0.000036  -0.000816   0.000002   0.000011   0.000034   0.000004
     6  H    0.001947   0.016483  -0.000130   0.001001  -0.001236   0.001165
     7  C   -0.001389   0.037119   0.000525  -0.001121  -0.002005  -0.000434
     8  H   -0.000106  -0.010282   0.000000  -0.000070  -0.000040   0.000076
     9  H   -0.000023   0.005247   0.000000   0.000024   0.000020  -0.000060
    10  H    0.000005   0.000791   0.000000   0.000004  -0.000029   0.000026
    11  N    0.007109   0.139328  -0.000680   0.006116  -0.002204  -0.004055
    12  O    0.001544   0.060753   0.005008  -0.011004  -0.013300   0.006378
    13  O    0.000247  -0.003698  -0.000025   0.000082   0.000126   0.000033
    14  C    0.014525  -0.117723  -0.000254   0.004852  -0.008810  -0.001191
    15  H   -0.000046  -0.000541  -0.000003   0.000007   0.000250  -0.000002
    16  C   -0.042169  -0.201896  -0.012093  -0.002217   0.016495   0.006193
    17  H    0.001834   0.003320   0.000654  -0.000384  -0.001026   0.000223
    18  C    0.021287  -0.636161  -0.003580   0.007373   0.034929   0.001363
    19  H    0.005706  -0.015612  -0.000031   0.000088   0.000536  -0.000102
    20  C   -0.000469  -0.009801  -0.000444   0.000502   0.000994  -0.000151
    21  H   -0.000019   0.001139   0.000000  -0.000001  -0.000028   0.000002
    22  H    0.000023  -0.000867   0.000000   0.000000   0.000010   0.000003
    23  H   -0.000021  -0.001427  -0.000001   0.000001   0.000028  -0.000002
    24  C    0.421298  -0.468599  -0.027323  -0.039123   0.101316   0.050150
    25  H    0.496105  -0.055196   0.001104  -0.004622   0.002965  -0.000454
    26  C   -0.055196   7.097199   0.435966   0.402473  -0.245957  -0.093178
    27  H    0.001104   0.435966   0.533934  -0.043964  -0.007200   0.000693
    28  H   -0.004622   0.402473  -0.043964   0.523461  -0.002181  -0.002123
    29  C    0.002965  -0.245957  -0.007200  -0.002181   5.170567   0.063263
    30  C   -0.000454  -0.093178   0.000693  -0.002123   0.063263   5.268053
    31  H   -0.000098   0.044068  -0.001421  -0.006352  -0.074484   0.442462
    32  H    0.000001   0.024333   0.000058   0.000519  -0.038973   0.401910
    33  H    0.000040  -0.097763   0.000611  -0.000899  -0.026897   0.428020
    34  O    0.003243   0.124025  -0.041393  -0.033267   0.117841  -0.003789
    35  O   -0.000036   0.014594   0.001104   0.000135   0.417091  -0.047363
              31         32         33         34         35
     1  C   -0.000552   0.000060   0.000653   0.000203   0.000592
     2  C    0.000162  -0.000041   0.000101   0.004959  -0.001627
     3  C    0.001490  -0.000904  -0.000510   0.016292  -0.008449
     4  C   -0.006234   0.001170   0.008693   0.000856   0.003276
     5  H    0.000000   0.000000   0.000000  -0.000253  -0.000005
     6  H    0.000002  -0.000005  -0.000121   0.001942  -0.000553
     7  C    0.000033   0.000006   0.000020  -0.000156   0.000032
     8  H    0.000000   0.000000   0.000000   0.000070   0.000000
     9  H    0.000000   0.000000   0.000000  -0.000030   0.000000
    10  H    0.000000   0.000000   0.000000  -0.000001   0.000000
    11  N   -0.000118   0.000019   0.000140  -0.004157   0.000066
    12  O    0.000867  -0.000143   0.000652   0.001017  -0.000265
    13  O    0.000000   0.000000   0.000000   0.000052   0.000000
    14  C   -0.001379  -0.000130   0.001695   0.053855  -0.002307
    15  H    0.000000   0.000000   0.000000   0.000203  -0.000010
    16  C   -0.003690  -0.001601   0.007666  -0.004995  -0.010270
    17  H    0.000011   0.000001  -0.000003  -0.007398  -0.000438
    18  C   -0.001695  -0.000121   0.002439   0.008075  -0.000381
    19  H    0.000000   0.000000   0.000000  -0.000399  -0.000005
    20  C   -0.000040   0.000000   0.000031   0.000741  -0.000163
    21  H    0.000000   0.000000   0.000000  -0.000009   0.000000
    22  H    0.000000   0.000000   0.000000   0.000026   0.000000
    23  H    0.000000   0.000000   0.000000   0.000002   0.000000
    24  C   -0.023940  -0.006697   0.036147  -0.081182   0.012948
    25  H   -0.000098   0.000001   0.000040   0.003243  -0.000036
    26  C    0.044068   0.024333  -0.097763   0.124025   0.014594
    27  H   -0.001421   0.000058   0.000611  -0.041393   0.001104
    28  H   -0.006352   0.000519  -0.000899  -0.033267   0.000135
    29  C   -0.074484  -0.038973  -0.026897   0.117841   0.417091
    30  C    0.442462   0.401910   0.428020  -0.003789  -0.047363
    31  H    0.503814  -0.014099  -0.028325  -0.000281  -0.000201
    32  H   -0.014099   0.465140  -0.009896  -0.000719   0.000487
    33  H   -0.028325  -0.009896   0.461750   0.020618  -0.002715
    34  O   -0.000281  -0.000719   0.020618   8.227928  -0.079902
    35  O   -0.000201   0.000487  -0.002715  -0.079902   8.142876
 Mulliken charges:
               1
     1  C    0.242839
     2  C   -0.189306
     3  C   -0.201693
     4  C    0.257731
     5  H    0.207008
     6  H    0.218861
     7  C   -0.340766
     8  H    0.168363
     9  H    0.165926
    10  H    0.177962
    11  N   -0.004365
    12  O   -0.471477
    13  O   -0.471100
    14  C   -0.141853
    15  H    0.162485
    16  C   -0.095093
    17  H    0.193590
    18  C   -0.014529
    19  H    0.166322
    20  C   -0.453176
    21  H    0.177326
    22  H    0.144044
    23  H    0.158297
    24  C   -0.244453
    25  H    0.185217
    26  C   -0.097004
    27  H    0.168253
    28  H    0.185296
    29  C    0.478564
    30  C   -0.518213
    31  H    0.169999
    32  H    0.179625
    33  H    0.197852
    34  O   -0.324017
    35  O   -0.438514
 Sum of Mulliken charges =   0.00000
 Mulliken charges with hydrogens summed into heavy atoms:
               1
     1  C    0.242839
     2  C    0.017702
     3  C    0.017168
     4  C    0.257731
     7  C    0.171485
    11  N   -0.004365
    12  O   -0.471477
    13  O   -0.471100
    14  C    0.020632
    16  C    0.098497
    18  C    0.151794
    20  C    0.026490
    24  C   -0.059237
    26  C    0.256544
    29  C    0.478564
    30  C    0.029263
    34  O   -0.324017
    35  O   -0.438514
 APT charges:
               1
     1  C    1.356741
     2  C   -0.236844
     3  C   -0.166607
     4  C    1.331165
     5  H    0.047526
     6  H    0.049131
     7  C    0.358044
     8  H   -0.002435
     9  H   -0.022026
    10  H    0.047905
    11  N   -0.984502
    12  O   -0.944561
    13  O   -0.957487
    14  C   -0.105633
    15  H    0.044431
    16  C   -0.083331
    17  H    0.086566
    18  C    0.147502
    19  H    0.015299
    20  C   -0.025628
    21  H    0.045024
    22  H   -0.003353
    23  H   -0.019639
    24  C    0.015649
    25  H    0.026479
    26  C    0.501305
    27  H   -0.063926
    28  H    0.029447
    29  C    1.527167
    30  C   -0.140374
    31  H    0.045782
    32  H    0.040972
    33  H    0.056261
    34  O   -1.069907
    35  O   -0.946142
 Sum of APT charges =   0.00000
 APT charges with hydrogens summed into heavy atoms:
               1
     1  C    1.356741
     2  C   -0.189318
     3  C   -0.117477
     4  C    1.331165
     7  C    0.381488
    11  N   -0.984502
    12  O   -0.944561
    13  O   -0.957487
    14  C   -0.061202
    16  C    0.003234
    18  C    0.162801
    20  C   -0.003596
    24  C    0.042128
    26  C    0.466826
    29  C    1.527167
    30  C    0.002641
    34  O   -1.069907
    35  O   -0.946142
 Electronic spatial extent (au):  <R**2>=           5244.0027
 Charge=              0.0000 electrons
 Dipole moment (field-independent basis, Debye):
    X=             -1.6548    Y=              0.0122    Z=             -3.7588  Tot=              4.1069
 Quadrupole moment (field-independent basis, Debye-Ang):
   XX=           -129.5379   YY=           -104.1427   ZZ=           -104.6071
   XY=            -10.5652   XZ=             -9.2871   YZ=              1.7111
 Traceless Quadrupole moment (field-independent basis, Debye-Ang):
   XX=            -16.7753   YY=              8.6199   ZZ=              8.1555
   XY=            -10.5652   XZ=             -9.2871   YZ=              1.7111
 Octapole moment (field-independent basis, Debye-Ang**2):
  XXX=              2.1090  YYY=              5.1872  ZZZ=             -1.9535  XYY=            -27.4922
  XXY=            -47.6769  XXZ=            -82.1094  XZZ=             -6.3291  YZZ=             -9.5040
  YYZ=              4.5994  XYZ=            -15.1456
 Hexadecapole moment (field-independent basis, Debye-Ang**3):
 XXXX=          -5299.3507 YYYY=          -1783.3840 ZZZZ=           -406.6731 XXXY=           -271.5932
 XXXZ=           -196.5002 YYYX=             60.8873 YYYZ=             34.7777 ZZZX=            -18.3403
 ZZZY=             15.2526 XXYY=           -999.7083 XXZZ=           -877.5964 YYZZ=           -377.3990
 XXYZ=            -22.6683 YYXZ=              4.6276 ZZXY=             -5.5882
 N-N= 1.363414672313D+03 E-N=-4.737165753293D+03  KE= 8.573157314894D+02
  Exact polarizability: 260.285  -9.321 230.722  -5.506  -1.408 154.801
 Approx polarizability: 237.323  -8.410 217.214  -6.487  -2.702 169.397
 D2PCM: PCM CHGder 2nd derivatives, FixD1E=F FixD2E=F DoIter=F DoCFld=F I1PDM=0
 Calling FoFJK, ICntrl=    100127 FMM=F ISym2X=0 I1Cent= 0 IOpClX= 0 NMat=1 NMatS=1 NMatT=0.
 Full mass-weighted force constant matrix:
 Low frequencies --- -535.4950  -13.7007   -0.0008   -0.0007    0.0001    4.3294
 Low frequencies ---    7.5283   28.4016   43.4147
 ******    1 imaginary frequencies (negative Signs) ****** 
 Diagonal vibrational polarizability:
       87.2545579     100.7876073     131.5937573
 Harmonic frequencies (cm**-1), IR intensities (KM/Mole), Raman scattering
 activities (A**4/AMU), depolarization ratios for plane and unpolarized
 incident light, reduced masses (AMU), force constants (mDyne/A),
 and normal coordinates:
                      1                      2                      3
                      A                      A                      A
 Frequencies --   -535.4939                27.4341                43.1070
 Red. masses --      7.9515                 5.8595                 3.5110
 Frc consts  --      1.3434                 0.0026                 0.0038
 IR Inten    --     12.1512                 2.1943                 1.3677
  Atom  AN      X      Y      Z        X      Y      Z        X      Y      Z
     1   6     0.00  -0.04   0.02     0.08  -0.01   0.06     0.02  -0.01  -0.05
     2   6     0.05  -0.25   0.30     0.08   0.02  -0.01    -0.04   0.02   0.00
     3   6    -0.15  -0.18   0.34     0.09   0.05  -0.08    -0.01   0.06   0.06
     4   6    -0.02  -0.03   0.03     0.08   0.05  -0.07     0.06   0.04   0.09
     5   1    -0.02   0.18  -0.13     0.11   0.03   0.00    -0.10   0.01  -0.01
     6   1     0.13   0.13  -0.16     0.11   0.07  -0.12    -0.03   0.12   0.08
     7   6    -0.01  -0.01  -0.01     0.05  -0.04   0.13     0.17   0.00  -0.07
     8   1    -0.01  -0.02  -0.02     0.22  -0.28   0.26    -0.05   0.29  -0.24
     9   1    -0.01  -0.01  -0.01    -0.18   0.06   0.32     0.53  -0.10  -0.27
    10   1    -0.01  -0.02  -0.02     0.10   0.04  -0.11     0.08  -0.18   0.25
    11   7    -0.01  -0.01  -0.03     0.07   0.01   0.01     0.08   0.00   0.01
    12   8     0.00   0.01  -0.01     0.09   0.07  -0.12     0.10   0.05   0.17
    13   8     0.00   0.01  -0.01     0.08  -0.04   0.13     0.01  -0.03  -0.14
    14   6    -0.08   0.01  -0.01    -0.04   0.04  -0.07    -0.03   0.03   0.02
    15   1     0.00  -0.06   0.15    -0.05   0.04  -0.07    -0.02   0.03   0.02
    16   6     0.05  -0.06  -0.03    -0.03   0.07  -0.11    -0.03   0.03   0.00
    17   1    -0.01  -0.08   0.17    -0.03   0.09  -0.13    -0.02   0.03  -0.02
    18   6    -0.01   0.27  -0.23    -0.03   0.01  -0.02    -0.03   0.03   0.03
    19   1     0.02  -0.07   0.16    -0.03   0.00  -0.01    -0.04   0.04   0.01
    20   6    -0.03   0.06  -0.04    -0.03  -0.02   0.02    -0.03   0.03   0.05
    21   1     0.10  -0.03   0.06     0.00  -0.04   0.05    -0.02   0.02   0.04
    22   1    -0.03   0.07  -0.05    -0.03  -0.02   0.02    -0.02   0.01   0.07
    23   1    -0.22   0.00   0.02    -0.07  -0.03   0.04    -0.04   0.05   0.07
    24   6     0.15   0.21  -0.29    -0.01   0.07  -0.11    -0.04   0.03   0.01
    25   1    -0.05  -0.05   0.14    -0.02   0.05  -0.08    -0.06   0.02   0.04
    26   6     0.04   0.02  -0.04     0.00   0.10  -0.13    -0.05   0.02  -0.03
    27   1     0.18  -0.15  -0.02     0.04   0.20  -0.09    -0.07   0.03  -0.04
    28   1    -0.09   0.04   0.06     0.00   0.09  -0.23    -0.05   0.02  -0.04
    29   6     0.00   0.00   0.00    -0.12  -0.09   0.08    -0.05  -0.07  -0.03
    30   6     0.00   0.00   0.00    -0.10  -0.05   0.01    -0.13  -0.12   0.01
    31   1     0.01   0.00   0.00    -0.01   0.03   0.01    -0.14  -0.16   0.01
    32   1     0.00  -0.01   0.01    -0.12  -0.09   0.07    -0.13  -0.16   0.00
    33   1    -0.01   0.00   0.00    -0.13  -0.05  -0.09    -0.16  -0.07   0.06
    34   8     0.01   0.01  -0.01    -0.04   0.01  -0.03    -0.01   0.00  -0.05
    35   8     0.00   0.00   0.00    -0.20  -0.21   0.23    -0.01  -0.09  -0.05
                      4                      5                      6
                      A                      A                      A
 Frequencies --     44.3886                59.1744                73.7683
 Red. masses --      3.7082                 1.4533                 4.3837
 Frc consts  --      0.0043                 0.0030                 0.0141
 IR Inten    --      6.9159                 1.5207                 2.2214
  Atom  AN      X      Y      Z        X      Y      Z        X      Y      Z
     1   6    -0.02   0.01  -0.02     0.01   0.01   0.05     0.01   0.01  -0.05
     2   6    -0.04   0.02  -0.01     0.03   0.00   0.02     0.02  -0.01  -0.02
     3   6    -0.03   0.03   0.04     0.02  -0.01  -0.01     0.01  -0.03   0.00
     4   6     0.00   0.01   0.06     0.00   0.00  -0.01     0.00  -0.04   0.03
     5   1    -0.06   0.04  -0.03     0.05   0.01   0.02     0.02  -0.02  -0.01
     6   1    -0.04   0.05   0.05     0.03  -0.01  -0.02     0.02   0.00  -0.02
     7   6     0.03  -0.03   0.05    -0.02   0.06  -0.06     0.00  -0.01  -0.01
     8   1     0.03  -0.03   0.05    -0.37   0.42  -0.31     0.07  -0.07   0.03
     9   1     0.05  -0.01   0.06     0.43  -0.10  -0.35    -0.09   0.01   0.03
    10   1     0.02  -0.05   0.05    -0.12  -0.11   0.42     0.03   0.03  -0.11
    11   7     0.00   0.00   0.03    -0.01   0.00   0.03     0.01  -0.01  -0.02
    12   8     0.01   0.01   0.11    -0.01   0.00  -0.04    -0.01  -0.07   0.09
    13   8    -0.02   0.01  -0.06     0.01   0.02   0.08     0.01   0.04  -0.11
    14   6    -0.01   0.01  -0.01     0.00  -0.02  -0.04     0.07  -0.02  -0.05
    15   1    -0.02   0.01  -0.02     0.00  -0.01  -0.06     0.17  -0.02  -0.04
    16   6     0.00   0.00   0.02     0.00  -0.02  -0.04     0.03  -0.09  -0.14
    17   1    -0.01   0.00   0.03     0.00  -0.01  -0.06     0.07  -0.11  -0.21
    18   6     0.00   0.01  -0.04     0.00  -0.03  -0.02     0.01   0.05   0.07
    19   1     0.02   0.00  -0.03     0.00  -0.04   0.00    -0.12   0.07   0.04
    20   6    -0.01   0.01  -0.08     0.00  -0.02  -0.02     0.08   0.12   0.26
    21   1    -0.02   0.01  -0.09     0.00  -0.02   0.00     0.08   0.15   0.31
    22   1    -0.03   0.02  -0.09     0.01  -0.01  -0.03     0.23   0.08   0.29
    23   1     0.01   0.00  -0.10     0.00  -0.04  -0.02     0.00   0.19   0.34
    24   6     0.00   0.00   0.03     0.00  -0.03  -0.02    -0.03  -0.10  -0.10
    25   1     0.00   0.00   0.03     0.00  -0.04  -0.01    -0.05  -0.13  -0.04
    26   6    -0.01   0.00   0.04     0.01  -0.02  -0.01    -0.02  -0.10  -0.07
    27   1     0.01   0.05   0.06     0.02  -0.01   0.00     0.00  -0.13  -0.06
    28   1    -0.02  -0.01  -0.02     0.02  -0.02  -0.01     0.00  -0.10  -0.02
    29   6     0.02  -0.03  -0.02    -0.01   0.01   0.02    -0.05   0.06   0.02
    30   6     0.12   0.16  -0.30     0.03   0.03   0.00     0.09   0.10   0.02
    31   1     0.11   0.40  -0.28     0.05   0.06   0.00     0.15   0.12   0.02
    32   1     0.14   0.19  -0.36     0.03   0.05   0.02     0.09   0.17   0.08
    33   1     0.19   0.04  -0.49     0.04   0.01  -0.03     0.13   0.05  -0.04
    34   8    -0.03  -0.07   0.10    -0.01  -0.01   0.01    -0.07  -0.03  -0.06
    35   8    -0.02  -0.15   0.09    -0.04   0.00   0.05    -0.16   0.10   0.08
                      7                      8                      9
                      A                      A                      A
 Frequencies --     96.2904               122.7487               144.7872
 Red. masses --      2.6257                 9.0245                 5.0699
 Frc consts  --      0.0143                 0.0801                 0.0626
 IR Inten    --      3.1382                 0.2309                 1.5929
  Atom  AN      X      Y      Z        X      Y      Z        X      Y      Z
     1   6    -0.03  -0.03  -0.05    -0.08   0.02  -0.02     0.08  -0.01   0.03
     2   6    -0.02  -0.01  -0.08    -0.07   0.04  -0.02     0.10  -0.07   0.05
     3   6    -0.03  -0.01  -0.07    -0.08  -0.02   0.07     0.10  -0.05  -0.04
     4   6    -0.03  -0.03  -0.04    -0.07   0.00   0.08     0.04  -0.09   0.00
     5   1    -0.03  -0.02  -0.07    -0.08   0.01   0.01     0.13  -0.06   0.04
     6   1    -0.03  -0.01  -0.07    -0.08   0.00   0.06     0.09  -0.12  -0.01
     7   6    -0.04  -0.17   0.20    -0.08   0.05  -0.04     0.00   0.01  -0.02
     8   1    -0.34  -0.07   0.03    -0.04   0.06  -0.02    -0.01   0.00  -0.02
     9   1     0.36  -0.16   0.15    -0.14   0.03  -0.05    -0.05  -0.01  -0.04
    10   1    -0.13  -0.36   0.57    -0.07   0.09  -0.08     0.01   0.06  -0.02
    11   7    -0.04  -0.08   0.03    -0.07   0.02   0.02     0.05  -0.03   0.00
    12   8    -0.01  -0.01  -0.07    -0.08  -0.03   0.13     0.01  -0.13   0.05
    13   8    -0.03   0.00  -0.08    -0.08   0.04  -0.03     0.08   0.04   0.02
    14   6     0.03   0.04   0.06     0.01  -0.08   0.09     0.06   0.04   0.15
    15   1     0.04   0.02   0.11    -0.06  -0.10   0.13     0.07   0.02   0.19
    16   6     0.03   0.03   0.05     0.04   0.00   0.06     0.02  -0.04   0.19
    17   1     0.03   0.01   0.09     0.01   0.03   0.07     0.06  -0.14   0.25
    18   6     0.03   0.07   0.00     0.04  -0.16   0.07     0.06   0.11  -0.03
    19   1     0.02   0.10  -0.04     0.11  -0.10   0.00     0.13   0.08   0.00
    20   6     0.03   0.07   0.02     0.01  -0.19   0.00     0.02   0.11  -0.24
    21   1     0.02   0.06  -0.01    -0.02  -0.21  -0.10    -0.01   0.13  -0.26
    22   1     0.04   0.04   0.06    -0.06  -0.23   0.05    -0.09   0.18  -0.30
    23   1     0.04   0.11   0.04     0.09  -0.13  -0.01     0.13   0.02  -0.33
    24   6     0.03   0.05  -0.02     0.09   0.04  -0.03    -0.09  -0.04   0.10
    25   1     0.03   0.08  -0.04     0.07   0.02   0.01    -0.11   0.09   0.03
    26   6     0.02   0.04  -0.01     0.10   0.07  -0.12    -0.11  -0.04  -0.03
    27   1     0.03   0.04  -0.01    -0.08  -0.13  -0.23    -0.21  -0.06  -0.07
    28   1     0.01   0.04  -0.02     0.13   0.09   0.10    -0.06  -0.04   0.02
    29   6     0.01   0.01   0.01     0.07   0.03  -0.04    -0.10   0.04  -0.04
    30   6     0.00   0.00   0.01     0.08   0.02  -0.01    -0.05   0.04  -0.02
    31   1     0.01   0.00   0.01     0.06  -0.05  -0.01    -0.10   0.00  -0.02
    32   1    -0.01  -0.01   0.02     0.09   0.04   0.00    -0.04   0.10  -0.04
    33   1    -0.02   0.01   0.01     0.12   0.01   0.05     0.00   0.02   0.04
    34   8     0.03   0.03  -0.01     0.26   0.28  -0.39    -0.07   0.04  -0.13
    35   8     0.01   0.00   0.01    -0.08  -0.14   0.19    -0.16   0.05   0.01
                     10                     11                     12
                      A                      A                      A
 Frequencies --    162.9332               171.4368               179.2530
 Red. masses --      5.9360                 9.3050                 3.2465
 Frc consts  --      0.0928                 0.1611                 0.0615
 IR Inten    --      2.0473                 9.5590                 2.2929
  Atom  AN      X      Y      Z        X      Y      Z        X      Y      Z
     1   6     0.10   0.09  -0.04    -0.03   0.03   0.05    -0.02   0.02  -0.02
     2   6     0.16  -0.04   0.04    -0.05   0.01   0.14    -0.02   0.05  -0.02
     3   6     0.12  -0.08  -0.01    -0.03   0.03   0.17    -0.03   0.02   0.03
     4   6     0.03  -0.09   0.02     0.03   0.09   0.03    -0.01   0.04   0.02
     5   1     0.20  -0.01   0.03    -0.08   0.02   0.12    -0.03   0.02   0.00
     6   1     0.15  -0.12  -0.04    -0.03   0.05   0.15    -0.01   0.06  -0.02
     7   6    -0.11   0.05   0.07     0.08   0.01   0.08     0.00   0.01   0.02
     8   1    -0.19   0.02   0.03     0.25   0.07   0.15    -0.03   0.00   0.01
     9   1    -0.15   0.03   0.05    -0.05  -0.04   0.02     0.05   0.04   0.05
    10   1    -0.10   0.14   0.14     0.12   0.05  -0.09    -0.01  -0.02   0.06
    11   7     0.02  -0.01   0.06     0.01  -0.06   0.27    -0.01   0.05  -0.03
    12   8    -0.03  -0.15   0.02     0.12   0.30  -0.38    -0.01   0.03   0.05
    13   8     0.09   0.29  -0.24    -0.04   0.16  -0.26    -0.02   0.01   0.01
    14   6    -0.09  -0.02  -0.01     0.02  -0.09   0.05     0.06  -0.03   0.13
    15   1    -0.14  -0.01  -0.02     0.03  -0.08   0.01     0.02  -0.07   0.22
    16   6    -0.06   0.05  -0.02     0.00  -0.12   0.05     0.07   0.01   0.05
    17   1    -0.09   0.10  -0.05     0.02  -0.14   0.02     0.07  -0.04   0.12
[...]
 704,-0.00000102,0.00000173,-0.00000200,0.00000668,0.00003192,-0.000019
 70,0.00009964,-0.00009058,-0.00004351,-0.00000534,0.00000152,-0.000000
 63,0.00002607,0.00002469,-0.00003595,-0.00000260,-0.00000033,-0.000002
 90,0.00000395,-0.00000344,0.00000476,0.00000344,-0.00000046,-0.0000040
 2,-0.00000152,0.00000093,0.00000066,-0.00006858,0.00004537,0.00001443,
 -0.00006490,0.00013262,0.00003252,-0.00003048,0.00001526,0.00000803,-0
 .00001044,0.00000288,0.00000133,-0.00001061,0.00000689,0.00000443,-0.0
 0010373,0.00006286,-0.00002238,-0.00004177,-0.00003288,0.00000410,0.00
 000307,-0.00000027,0.00000874,0.00000010,0.00000394,0.00000304,-0.0000
 0335,-0.00000069,-0.00000323,-0.00000012,0.00000036,0.00000068,-0.0000
 0148,0.00000171,0.00000200,-0.00000309,0.00000056,0.00000038,0.0001923
 6,0.00004153,-0.00030099,-0.00003898,0.00003015,-0.00001491,-0.0000719
 8,0.00097163,0.00024388,-0.00065244,0.00036236,0.00000272,0.00011016,0
 .00043098,0.00047671,0.02056621,-0.03654236,-0.11266484,0.03496996,-0.
 02236463,0.54890133,-0.00009733,0.00001459,0.00001253,0.00004328,-0.00
 000177,-0.00000938,-0.00000188,-0.00001317,0.00003606,-0.00014849,0.00
 000680,0.00001877,0.00001180,0.00000348,-0.00000016,0.00001039,-0.0000
 0841,0.00000655,-0.00001025,-0.00001815,0.00000301,-0.00000456,-0.0000
 0093,-0.00000287,-0.00000101,0.00000589,-0.00000137,0.00000238,-0.0000
 0167,-0.00000122,0.00009131,-0.00003183,0.00000369,0.00007373,-0.00002
 326,-0.00010685,0.00008587,-0.00000291,-0.00000614,-0.00000112,-0.0000
 1142,0.00000947,0.00001518,-0.00001473,-0.00000702,0.00014560,-0.00003
 000,-0.00005300,0.00000969,-0.00000593,-0.00001130,-0.00000581,0.00002
 547,-0.00003394,-0.00000509,-0.00000804,-0.00000005,0.00001103,-0.0000
 0847,0.00002809,0.00000178,0.00000131,-0.00000543,0.00000256,-0.000004
 51,-0.00000545,0.00001385,-0.00000808,-0.00000322,-0.00031101,-0.00003
 196,-0.00012030,-0.00000580,0.00000615,0.00000113,-0.00120058,0.000865
 55,0.00159485,-0.00036893,0.00078491,-0.00060416,-0.00061667,-0.000152
 17,0.00049066,-0.00103270,-0.00661298,0.00852083,-0.04753003,0.0075964
 9,-0.02160165,0.04808792,0.00000481,0.00004691,0.00003141,-0.00003141,
 -0.00000998,-0.00000777,0.00000805,-0.00000468,-0.00001144,-0.00002121
 ,0.00008623,0.00004750,-0.00000362,-0.00000436,0.00000053,0.00000630,-
 0.00000791,-0.00000731,0.00000374,0.00001171,0.00001707,-0.00000365,-0
 .00000036,-0.00000625,-0.00000149,-0.00000194,0.00000028,-0.00000039,-
 0.00000111,-0.00000161,0.00000462,-0.00003109,-0.00002217,0.00002289,-
 0.00005831,-0.00009055,-0.00001110,-0.00001308,-0.00000968,0.00000010,
 -0.00002096,-0.00002288,0.00000314,-0.00000031,-0.00000116,0.00000486,
 0.00002679,0.00002486,-0.00002298,-0.00000451,-0.00000678,-0.00000132,
 -0.00001189,0.00001901,-0.00000115,0.00000410,-0.00000423,-0.00000431,
 0.00000070,-0.00001049,-0.00000123,0.00000015,0.00000279,-0.00000031,0
 .00000019,0.00000054,-0.00000403,0.00000378,0.00000161,0.00007839,-0.0
 0024410,0.00010084,-0.00001142,0.00001621,-0.00000542,0.00148128,0.000
 21319,-0.00089316,0.00051985,-0.00029899,0.00039920,0.00007939,-0.0003
 0681,0.00043724,-0.00411589,0.00916016,-0.03054478,0.00709797,-0.04670
 778,0.02687900,-0.00575733,0.05016735,0.00004134,0.00001689,0.00000831
 ,-0.00004096,0.00000461,0.00000614,0.00000364,0.00000116,-0.00004796,0
 .00004176,0.00003816,0.00000652,-0.00000884,-0.00000257,-0.00000046,-0
 .00000747,0.00000687,-0.00000766,0.00000505,0.00000882,-0.00000237,0.0
 0000071,-0.00000001,0.00000140,-0.00000035,-0.00000325,0.00000014,-0.0
 0000064,0.00000060,0.00000032,-0.00002201,0.00000341,-0.00000692,-0.00
 001402,-0.00003633,0.00005651,-0.00003733,-0.00000424,0.00000054,0.000
 02995,0.00003151,-0.00001447,-0.00001479,0.00001157,0.00000291,-0.0001
 9491,0.00002010,0.00001968,-0.00000009,0.00000725,0.00000259,-0.000007
 80,-0.00002473,0.00002566,0.00000311,0.00000618,-0.00000286,-0.0000045
 6,0.00000324,-0.00001553,-0.00000214,-0.00000062,0.00000244,-0.0000015
 4,0.00000280,0.00000222,-0.00000744,0.00000502,0.00000277,0.00013592,0
 .00024854,0.00038482,0.00002110,-0.00001468,-0.00001709,-0.00100668,0.
 00019417,0.00037911,-0.00004849,-0.00020651,0.00013374,0.00016821,0.00
 042107,-0.00035004,-0.00379203,0.00394511,-0.01468194,-0.01996825,0.02
 789864,-0.31552682,0.02390705,-0.02941547,0.34120048,0.00009476,0.0000
 1909,0.00000767,-0.00005173,-0.00002595,-0.00000834,0.00003339,0.00000
 856,-0.00001360,0.00017024,-0.00001904,-0.00001139,-0.00000728,-0.0000
 0034,-0.00000163,0.00001571,-0.00000010,-0.00003111,0.00001266,0.00003
 136,0.00001167,0.00000163,-0.00000159,-0.00000188,-0.00000050,-0.00000
 800,0.00000077,-0.00000302,-0.00000031,-0.00000027,-0.00009713,0.00000
 946,-0.00001908,-0.00013146,-0.00001070,0.00003633,-0.00008563,-0.0000
 0699,0.00000147,0.00000466,-0.00000462,-0.00001464,-0.00001227,0.00001
 059,0.00000620,-0.00012940,0.00005564,0.00004253,0.00000583,-0.0000417
 3,-0.00001748,0.00000129,-0.00001075,0.00002242,0.00000254,0.00000667,
 0.00000170,-0.00000870,0.00000136,-0.00001750,-0.00000245,-0.00000126,
 0.00000442,-0.00000112,0.00000316,0.00000330,-0.00000971,0.00000691,0.
 00000124,0.00021158,0.00007137,-0.00006532,-0.00003269,0.00000808,0.00
 000314,0.00040489,-0.00002134,0.00073877,-0.00000428,-0.00002107,-0.00
 005380,0.00021873,0.00022140,-0.00000004,-0.00987587,-0.00081635,-0.00
 395524,-0.30256113,0.06085599,-0.06403113,0.00101607,-0.00050878,0.000
 47905,0.32288935,-0.00001276,-0.00005953,-0.00003923,0.00004085,0.0000
 1533,0.00001257,-0.00002346,0.00001750,0.00001868,0.00012018,-0.000150
 21,-0.00004979,-0.00000042,0.00000320,-0.00000003,-0.00002744,-0.00002
 010,0.00002211,0.00000039,0.00000240,-0.00000146,0.00000138,0.00000088
 ,0.00000191,0.00000126,0.00000060,0.00000064,-0.00000020,-0.00000009,0
 .00000035,-0.00005609,0.00004825,0.00002001,-0.00011918,0.00009005,0.0
 0002504,0.00000671,0.00001471,0.00000965,0.00000555,0.00004492,0.00006
 389,-0.00000279,-0.00000112,-0.00000107,-0.00005057,-0.00006990,-0.000
 03271,0.00000202,0.00008441,0.00000812,0.00001577,0.00001072,-0.000020
 04,-0.00000098,-0.00000669,0.00000320,0.00000308,0.00000415,0.00000259
 ,0.00000284,-0.00000036,-0.00000165,0.00000046,-0.00000083,-0.00000152
 ,0.00000299,-0.00000225,-0.00000018,0.00010791,0.00034646,0.00003431,0
 .00005850,-0.00003643,0.00001060,-0.00206566,-0.00076916,-0.00129243,-
 0.00002095,0.00000766,0.00004000,0.00010397,0.00041508,0.00001719,0.02
 936418,-0.00686313,0.00919252,0.05476751,-0.05938312,0.01322396,0.0023
 9946,-0.00171184,0.00071254,-0.06476182,0.06459922,0.00000693,-0.00000
 713,-0.00000331,-0.00000209,0.00001124,0.00000287,-0.00000774,0.000003
 51,-0.00001734,0.00000995,0.00000861,0.00000193,-0.00000204,-0.0000025
 1,0.00000159,-0.00001371,-0.00000075,0.00001429,0.00000132,-0.00000024
 ,-0.00000145,0.00000125,0.00000134,0.00000045,0.00000011,0.00000004,0.
 00000103,-0.00000024,0.00000057,0.00000054,-0.00000475,0.00000439,0.00
 000128,0.00001243,-0.00000096,0.00002278,-0.00000693,0.00000181,-0.000
 00057,0.00001715,0.00003984,-0.00000582,-0.00000660,0.00000377,0.00000
 194,-0.00009207,-0.00003673,0.00000075,-0.00000834,0.00004051,0.000027
 16,0.00000609,-0.00001205,0.00000878,0.00000154,0.00000153,-0.00000200
 ,-0.00000174,0.00000321,-0.00000587,0.00000004,-0.00000008,0.00000139,
 -0.00000087,0.00000052,0.00000130,-0.00000289,0.00000189,0.00000091,0.
 00011847,0.00015623,0.00026423,0.00003719,-0.00001676,-0.00000977,-0.0
 0114514,-0.00032367,-0.00097487,0.00001501,-0.00027261,0.00035360,-0.0
 0007494,0.00036989,-0.00027357,0.01675508,-0.00217407,0.00276017,-0.06
 843337,0.01572178,-0.06608497,-0.02944401,0.00642654,-0.00460115,0.070
 88807,-0.01338943,0.06608556,-0.00004502,0.00006656,0.00004851,-0.0000
 2157,0.00000871,-0.00000731,0.00002392,-0.00003827,-0.00005440,-0.0002
 2229,0.00025243,0.00009128,0.00000348,-0.00000524,0.00000156,0.0000244
 7,0.00000797,0.00000768,-0.00000726,-0.00002366,-0.00000714,-0.0000023
 8,-0.00000007,-0.00000038,-0.00000102,0.00000433,-0.00000099,0.0000022
 1,0.00000074,0.00000009,0.00013804,-0.00007340,-0.00001364,0.00012263,
 -0.00000854,-0.00009633,0.00004666,-0.00001559,-0.00001489,0.00003368,
 -0.00000584,0.00001746,-0.00000134,0.00000106,-0.00000196,-0.00004100,
 0.00000978,-0.00000996,0.00000885,-0.00000682,-0.00000024,-0.00001619,
 -0.00001949,0.00000885,0.00000064,0.00000236,-0.00000562,0.00000159,-0
 .00000050,0.00000101,-0.00000116,0.00000088,-0.00000013,0.00000005,-0.
 00000178,-0.00000022,0.00000015,-0.00000059,-0.00000028,-0.00000011,0.
 00008854,-0.00010990,-0.00001938,0.00000488,-0.00000367,-0.00028492,0.
 00159303,0.00011401,0.00006614,-0.00022229,-0.00003137,-0.00195532,0.0
 0106669,-0.00066206,0.00669694,0.00596167,-0.00825839,-0.14240371,-0.1
 2069525,0.04751926,0.00107589,0.00285984,-0.00121808,-0.01449191,-0.02
 245722,0.00939207,0.15315005,0.00010266,-0.00000635,-0.00000786,-0.000
 03635,-0.00003240,-0.00002105,0.00003385,0.00003815,0.00002596,0.00033
 438,-0.00010796,-0.00002292,-0.00000852,-0.00000068,-0.00000020,0.0000
 0783,-0.00004696,-0.00003222,0.00001529,0.00004164,0.00002009,0.000002
 03,-0.00000086,-0.00000360,-0.00000161,-0.00000854,0.00000176,-0.00000
 385,-0.00000165,-0.00000051,-0.00015424,0.00002671,-0.00001677,-0.0003
 8315,-0.00005617,-0.00010833,-0.00010104,-0.00000177,0.00000322,-0.000
 00389,0.00002359,0.00002121,-0.00001747,0.00001188,0.00000901,-0.00020
 142,0.00005582,0.00002849,-0.00000288,0.00000091,-0.00001880,0.0000153
 3,-0.00000439,0.00001895,0.00000099,0.00000217,0.00000585,-0.00000940,
 0.00000564,-0.00002442,-0.00000037,-0.00000185,0.00000519,-0.00000113,
 0.00000257,0.00000363,-0.00001198,0.00000769,0.00000167,0.00034472,0.0
 0031778,-0.00000874,0.00001183,-0.00002257,0.00001512,-0.00043006,-0.0
 0072178,0.00018011,-0.00003680,0.00015481,-0.00003299,0.00139813,0.000
 02711,0.00055448,-0.02092396,-0.02036975,0.01112036,-0.12207921,-0.201
 48100,0.05887527,-0.00098894,-0.00154495,0.00029990,0.00489373,0.00705
 543,-0.00289235,0.13306149,0.21614882,-0.00006110,0.00002623,0.0000265
 7,0.00002370,-0.00002096,-0.00002280,-0.00000266,0.00001328,0.00005117
 ,-0.00007696,0.00003377,0.00003733,0.00000777,-0.00000104,0.00000145,0
 .00000179,-0.00003401,0.00000166,-0.00000412,-0.00000294,0.00001942,-0
 .00000510,0.00000010,-0.00000817,-0.00000179,0.00000390,0.00000025,0.0
 0000090,-0.00000222,-0.00000225,0.00004911,-0.00004517,-0.00000476,0.0
 0016466,-0.00006218,-0.00030688,0.00004571,-0.00000722,-0.00001253,-0.
 00002299,-0.00002623,-0.00001083,0.00001411,-0.00001245,-0.00000299,0.
 00013654,-0.00001210,-0.00003427,-0.00001019,-0.00000427,-0.00001204,0
 .00000442,0.00002091,-0.00001266,-0.00000466,-0.00000567,-0.00000028,0
 .00000339,-0.00000327,0.00000915,0.00000164,0.00000097,-0.00000097,0.0
 0000151,-0.00000346,-0.00000257,0.00000527,-0.00000266,-0.00000139,-0.
 00017082,-0.00026080,0.00004298,0.00000310,0.00000753,0.00000247,0.000
 81493,0.00057762,0.00025349,0.00020538,0.00014067,-0.00000083,-0.00081
 067,-0.00002244,0.00034888,-0.01308845,-0.01287493,0.00572903,0.045881
 72,0.05658412,-0.06106186,0.01918796,0.02484756,-0.00769663,-0.0043206
 4,-0.00719670,0.00172148,-0.05005491,-0.06138244,0.06671077,0.00242001
 ,0.00106982,0.00051692,-0.00161515,-0.00048733,-0.00049971,0.00176656,
 -0.00028822,-0.00128521,0.00196318,0.00196866,0.00027969,-0.00018207,-
 0.00006005,-0.00003690,-0.00022469,-0.00005498,-0.00056150,0.00029104,
 0.00068936,0.00026531,0.00001665,-0.00001211,-0.00006155,-0.00002905,-
 0.00018722,0.00001958,-0.00005843,-0.00000104,-0.00001499,-0.00129786,
 -0.00041291,-0.00051885,-0.00115317,-0.00153276,0.00090823,-0.00206624
 ,-0.00031559,-0.00004047,0.00014322,-0.00103283,-0.00080869,-0.0002134
 7,0.00033687,0.00007786,0.00028600,-0.00020746,0.00075263,-0.00070517,
 -0.00024063,-0.00030810,-0.00040268,-0.00073038,0.00055651,0.00032780,
 0.00051014,0.00009033,-0.00013201,0.00012052,-0.00023671,-0.00008579,-
 0.00002378,0.00012143,-0.00012263,0.00011739,0.00012704,-0.00023911,0.
 00015884,0.00002071,-0.03422206,-0.02148349,-0.03717440,-0.00701953,0.
 00531900,0.00052901,-0.10482931,-0.03108646,-0.05202541,0.00150382,0.0
 0153378,-0.00828147,-0.00981842,-0.00734703,-0.01171527,-0.19988812,0.
 11029006,-0.00328932,-0.01625995,0.01626852,-0.00764846,-0.00085010,-0
 .00071414,0.00038164,0.00011056,0.00389106,0.00178373,-0.00253460,0.00
 226625,0.00020574,0.46301257,-0.00043577,-0.00108460,-0.00065618,0.000
 65652,0.00041880,0.00002955,-0.00034150,0.00018351,0.00028497,0.001442
 79,-0.00236507,-0.00072220,0.00002970,0.00002966,0.00003479,-0.0005150
 2,-0.00026494,0.00031785,-0.00006886,-0.00011869,-0.00006107,0.0000240
 2,0.00001086,0.00004232,0.00003086,0.00004774,-0.00000257,0.00000434,0
 .00000007,0.00000847,-0.00054243,0.00075561,0.00029127,-0.00155936,0.0
 0115374,0.00111390,0.00031284,0.00028542,0.00014383,0.00050597,0.00125
 691,0.00066582,-0.00004670,-0.00002747,-0.00006317,0.00067546,-0.00256
 366,-0.00006746,0.00165715,0.00054811,0.00124500,0.00029551,-0.0000232
 3,-0.00018368,-0.00009409,-0.00016344,0.00001994,0.00007243,0.00005208
 ,0.00004918,0.00006479,-0.00000918,-0.00003936,0.00002532,-0.00002739,
 -0.00003064,0.00006853,-0.00004802,-0.00000363,0.00607804,0.01109585,0
 .01220019,0.00374440,-0.00112005,-0.00075897,-0.01747371,-0.11528903,-
 0.05116531,0.00173285,0.00294729,-0.00197294,-0.02304503,-0.00954304,-
 0.03137562,0.07317183,-0.14707736,-0.03027700,0.03526854,-0.00565433,0
 .00129997,0.00089197,-0.00075106,-0.00105576,0.00145466,-0.00563193,-0
 .00426859,-0.00141687,0.00139902,0.00102299,-0.06911727,0.23973715,0.0
 0064464,-0.00000423,-0.00011013,-0.00003443,0.00017120,0.00025025,0.00
 014840,-0.00026652,-0.00013885,0.00094270,0.00017034,-0.00004075,-0.00
 012912,-0.00002356,-0.00003319,-0.00016440,-0.00011031,0.00020402,0.00
 009396,0.00013944,0.00000711,0.00000941,0.00001912,0.00000306,-0.00000
 198,-0.00004705,0.00001529,-0.00000501,0.00001129,-0.00000189,-0.00045
 222,0.00023308,-0.00001921,-0.00063961,-0.00036799,0.00074564,-0.00046
 832,0.00000253,0.00007110,-0.00013302,-0.00028155,-0.00011596,-0.00013
 289,0.00015535,-0.00000391,0.00030775,-0.00146369,0.00115751,0.0005441
 2,0.00000652,0.00025792,-0.00008033,-0.00007160,0.00011826,0.00006899,
 0.00018457,-0.00000429,-0.00006931,0.00006857,-0.00018194,-0.00003116,
 -0.00000179,0.00004254,-0.00004141,0.00004984,0.00004611,-0.00010190,0
 .00005898,0.00003623,-0.00902417,-0.00069579,-0.00432832,0.00002841,0.
 00067496,0.00042622,-0.04374046,-0.06023553,-0.13572381,-0.03033259,-0
 .01942303,-0.02982462,-0.00503070,-0.00592271,-0.00290327,-0.03179647,
 -0.00872453,-0.07625691,0.00569067,-0.00865087,0.01422277,-0.00163682,
 0.00262109,0.00060205,0.00020483,-0.00296802,0.00021986,0.00080550,-0.
 00215829,-0.00109365,0.18506857,0.09893134,0.25254123,0.00112618,0.000
 48632,0.00024289,-0.00072043,-0.00034400,-0.00017168,0.00052644,0.0000
 0924,-0.00022343,0.00114359,0.00076582,0.00015634,-0.00008417,-0.00002
 862,-0.00001494,0.00035383,0.00010259,-0.00043761,0.00013146,0.0003106
 0,0.00012117,0.00001135,-0.00001543,-0.00002428,-0.00000960,-0.0000853
 3,0.00000471,-0.00002967,0.00000036,-0.00000531,-0.00073247,-0.0001626
 1,-0.00027631,-0.00065154,-0.00062463,0.00029829,-0.00099005,-0.000145
 78,-0.00002685,0.00001215,-0.00014648,-0.00034740,-0.00013386,0.000137
 56,0.00008057,-0.00046133,0.00014765,0.00066746,0.00027755,-0.00051787
 ,-0.00004298,-0.00001334,-0.00022863,0.00030854,0.00006811,0.00014278,
 0.00000899,-0.00010179,0.00003659,-0.00021587,-0.00003528,-0.00001358,
 0.00006213,-0.00002960,0.00004483,0.00005424,-0.00013331,0.00008940,0.
 00001938,0.00008865,-0.00280404,-0.00322282,-0.00135641,0.00072495,0.0
 0019121,0.00473174,0.00940692,0.00686262,-0.00245233,-0.00077915,-0.00
 282480,-0.00125318,-0.00045714,-0.00113252,-0.28028607,-0.17235602,-0.
 24937504,0.01112982,-0.00021646,-0.00913667,0.00149303,-0.00095947,0.0
 0117992,0.00231239,-0.00129654,0.00020105,0.00065377,0.00290775,0.0018
 7571,-0.08789180,-0.01355191,-0.07051165,0.35330616,0.00028981,-0.0002
 1163,-0.00011599,-0.00005459,-0.00003302,-0.00003447,0.00005698,0.0001
 7384,0.00000669,0.00079640,-0.00046907,-0.00015569,-0.00004224,-0.0000
 0590,0.00000134,0.00008387,-0.00004106,-0.00013779,0.00001634,0.000045
 78,0.00000419,0.00001583,-0.00000444,0.00001328,0.00001298,-0.00001040
 ,-0.00000381,-0.00000833,0.00000435,0.00000066,-0.00043613,0.00021945,
 0.00005304,-0.00060443,0.00032074,0.00019559,-0.00028002,0.00005936,0.
 00003900,0.00000958,0.00001045,-0.00007081,-0.00007264,0.00005626,0.00
 002309,-0.00043335,-0.00001487,0.00005064,-0.00001954,-0.00018325,-0.0
 0005582,0.00000096,-0.00003772,0.00008283,0.00000931,0.00003628,0.0000
 1539,-0.00002375,0.00001396,-0.00007007,-0.00000083,-0.00000371,0.0000
 1301,-0.00001189,0.00001780,0.00001978,-0.00003568,0.00001778,0.000008
 10,0.00062852,0.00010758,0.00002187,-0.00003628,-0.00001634,-0.0000020
 0,0.00444205,0.00304952,-0.00067169,-0.00095132,-0.00045767,-0.0002465
 2,0.00061585,0.00047364,0.00042500,-0.15583329,-0.25455441,-0.22562029
 ,-0.01808765,-0.01365750,-0.04335983,0.00113459,-0.00800147,-0.0031239
 4,-0.00139730,0.00194572,0.00060069,0.00000045,-0.00091013,-0.00129648
 ,-0.00920459,0.03184067,0.00791888,0.17942034,0.24021940,0.00084514,0.
 00016505,0.00006225,-0.00053695,-0.00014757,-0.00006101,0.00032106,0.0
 0007637,-0.00030274,0.00116338,0.00015076,-0.00006268,-0.00011103,-0.0
 0002033,-0.00001551,0.00017659,0.00002310,-0.00040718,0.00008817,0.000
 19914,0.00004353,0.00001479,-0.00000762,0.00000069,0.00000323,-0.00005
 814,0.00000084,-0.00001860,0.00000592,-0.00000326,-0.00065921,0.000095
 29,-0.00008244,-0.00073925,-0.00018670,0.00043410,-0.00074649,-0.00004
 489,0.00003131,0.00005977,-0.00014341,-0.00022211,-0.00012809,0.000139
 25,0.00003756,-0.00057858,0.00017096,0.00058831,0.00021052,-0.00040685
 ,-0.00016316,-0.00007241,-0.00019770,0.00024945,0.00005679,0.00011724,
 0.00000825,-0.00007082,0.00002438,-0.00017021,-0.00002771,-0.00001189,
 0.00003877,-0.00002708,0.00004773,0.00004104,-0.00009521,0.00006305,0.
 00002157,0.00004356,-0.00207048,-0.00219383,-0.00094466,0.00057600,-0.
 00002094,0.00210706,0.00260281,0.01112109,-0.00063980,0.00004007,-0.00
 093293,-0.00090811,-0.00013224,-0.00136288,-0.23688602,-0.23570202,-0.
 39894589,-0.02284484,-0.03216185,-0.00811675,-0.00016632,-0.00079596,0
 .00013354,0.00010950,0.00157436,0.00048681,0.00254458,-0.00445876,-0.0
 0466774,-0.06719792,0.00500280,-0.02018647,0.32565494,0.26547214,0.424
 61862\\0.00000079,-0.00000104,-0.00000449,0.00000217,-0.00000061,-0.00
 000589,-0.00000990,0.00000137,-0.00000097,0.00000642,0.00000204,0.0000
 0226,-0.00000641,0.00000473,-0.00000441,-0.00000280,0.00000435,0.00000
 240,0.00000422,-0.00000309,0.00000381,0.00000475,-0.00000490,0.0000019
 1,0.00000206,-0.00000009,0.00000228,0.00000123,-0.00000276,-0.00000281
 ,0.00000017,0.00000012,0.00000039,-0.00000245,0.00000145,0.00000695,-0
 .00000310,-0.00000011,-0.00000679,0.00000332,0.00000267,-0.00000597,-0
 .00000270,-0.00000116,-0.00000994,-0.00000641,0.00000129,-0.00000328,0
 .00000228,0.00000356,-0.00000093,-0.00000609,-0.00000301,-0.00001045,0
 .00000209,-0.00000260,-0.00000525,0.00000122,-0.00000341,-0.00001461,-
 0.00000228,-0.00000189,-0.00001197,-0.00000364,0.00000083,-0.00001321,
 0.00000091,-0.00000361,-0.00001482,0.00000302,-0.00000738,-0.00000178,
 0.00000344,-0.00000227,0.00000035,-0.00000296,-0.00000089,0.00000222,0
 .00000446,-0.00000187,0.00000557,0.00000143,-0.00000112,0.00000698,0.0
 0000748,0.00000682,0.00001599,-0.00000220,0.00000019,0.00001870,0.0000
 0343,0.,0.00000727,0.00000236,0.00000282,0.00001652,0.00000258,0.00000
 373,0.00001274,0.00000089,0.00000408,0.00000792,-0.00000979,0.00000172
 ,0.00000330\\\@


 THERE ARE PEOPLE SO ADDICTED TO EXAGERATING THEY
 CAN'T TELL THE TRUTH WITHOUT LYING. -- FORTUNE COOKIE
 Job cpu time:       2 days  4 hours 45 minutes 54.0 seconds.
 File lengths (MBytes):  RWF=   2432 Int=      0 D2E=      0 Chk=     39 Scr=      1
 Normal termination of Gaussian 09 at Fri Feb 11 20:06:28 2022.
