 Entering Gaussian System, Link 0=g09
 Input=ts_diels_ma.com
 Output=ts_diels_ma.log
 Initial command:
 /apps/applications/gaussian/G09.D01/2/default/g09/l1.exe "/nobackup/pmmass/Temp/Gau-67868.inp" -scrdir="/nobackup/pmmass/Temp/"
 Entering Link 1 = /apps/applications/gaussian/G09.D01/2/default/g09/l1.exe PID=     67872.
  
 Copyright (c) 1988,1990,1992,1993,1995,1998,2003,2009,2013,
            Gaussian, Inc.  All Rights Reserved.
  
 This is part of the Gaussian(R) 09 program.  It is based on
 the Gaussian(R) 03 system (copyright 2003, Gaussian, Inc.),
 the Gaussian(R) 98 system (copyright 1998, Gaussian, Inc.),
 the Gaussian(R) 94 system (copyright 1995, Gaussian, Inc.),
 the Gaussian 92(TM) system (copyright 1992, Gaussian, Inc.),
 the Gaussian 90(TM) system (copyright 1990, Gaussian, Inc.),
 the Gaussian 88(TM) system (copyright 1988, Gaussian, Inc.),
 the Gaussian 86(TM) system (copyright 1986, Carnegie Mellon
 University), and the Gaussian 82(TM) system (copyright 1983,
 Carnegie Mellon University). Gaussian is a federally registered
 trademark of Gaussian, Inc.
  
 This software contains proprietary and confidential information,
 including trade secrets, belonging to Gaussian, Inc.
  
 This software is provided under written license and may be
 used, copied, transmitted, or stored only in accord with that
 written license.
  
 The following legend is applicable only to US Government
 contracts under FAR:
  
                    RESTRICTED RIGHTS LEGEND
  
 Use, reproduction and disclosure by the US Government is
 subject to restrictions as set forth in subparagraphs (a)
 and (c) of the Commercial Computer Software - Restricted
 Rights clause in FAR 52.227-19.
  
 Gaussian, Inc.
 340 Quinnipiac St., Bldg. 40, Wallingford CT 06492
  
  
 ---------------------------------------------------------------
 Warning -- This program may not be used in any manner that
 competes with the business of Gaussian, Inc. or will provide
 assistance to any competitor of Gaussian, Inc.  The licensee
 of this program is prohibited from giving any competitor of
 Gaussian, Inc. access to this program.  By using this program,
 the user acknowledges that Gaussian, Inc. is engaged in the
 business of creating and licensing software in the field of
 computational chemistry and represents and warrants to the
 licensee that it is not a competitor of Gaussian, Inc. and that
 it will not use this program in any manner prohibited above.
 ---------------------------------------------------------------
  

 Cite this work as:
 Gaussian 09, Revision D.01,
 M. J. Frisch, G. W. Trucks, H. B. Schlegel, G. E. Scuseria, 
 M. A. Robb, J. R. Cheeseman, G. Scalmani, V. Barone, B. Mennucci, 
 G. A. Petersson, H. Nakatsuji, M. Caricato, X. Li, H. P. Hratchian, 
 A. F. Izmaylov, J. Bloino, G. Zheng, J. L. Sonnenberg, M. Hada, 
 M. Ehara, K. Toyota, R. Fukuda, J. Hasegawa, M. Ishida, T. Nakajima, 
 Y. Honda, O. Kitao, H. Nakai, T. Vreven, J. A. Montgomery, Jr., 
 J. E. Peralta, F. Ogliaro, M. Bearpark, J. J. Heyd, E. Brothers, 
 K. N. Kudin, V. N. Staroverov, T. Keith, R. Kobayashi, J. Normand, 
 K. Raghavachari, A. Rendell, J. C. Burant, S. S. Iyengar, J. Tomasi, 
 M. Cossi, N. Rega, J. M. Millam, M. Klene, J. E. Knox, J. B. Cross, 
 V. Bakken, C. Adamo, J. Jaramillo, R. Gomperts, R. E. Stratmann, 
 O. Yazyev, A. J. Austin, R. Cammi, C. Pomelli, J. W. Ochterski, 
 R. L. Martin, K. Morokuma, V. G. Zakrzewski, G. A. Voth, 
 P. Salvador, J. J. Dannenberg, S. Dapprich, A. D. Daniels, 
 O. Farkas, J. B. Foresman, J. V. Ortiz, J. Cioslowski, 
 and D. J. Fox, Gaussian, Inc., Wallingford CT, 2013.
 
 ******************************************
 Gaussian 09:  ES64L-G09RevD.01 24-Apr-2013
                 9-Feb-2022 
 ******************************************
 %nprocshared=8
 Will use up to    8 processors via shared memory.
 %mem=4GB
 %NoSave
 %chk="ts_diels_ma.chk"
 -------------------------------------------------------------------
 #n wB97XD/Gen scrf(smd,solvent=toluene) opt=(calcfc,ts,noeigentest)
 -------------------------------------------------------------------
 1/5=1,10=4,11=1,14=-1,18=20,26=3,38=1/1,3;
 2/9=110,12=2,17=6,18=5,40=1/2;
 3/5=7,11=2,16=1,25=1,30=1,70=32201,71=2,72=13,74=-58,140=1/1,2,3;
 4//1;
 5/5=2,38=5,53=13/2;
 8/6=4,10=90,11=11/1;
 11/6=1,8=1,9=11,15=111,16=1/1,2,10;
 10/6=1,13=1/2;
 6/7=2,8=2,9=2,10=2,28=1/1;
 7/10=1,18=20,25=1/1,2,3,16;
 1/5=1,10=4,11=1,14=-1,18=20,26=3/3(2);
 2/9=110/2;
 99//99;
 2/9=110/2;
 3/5=7,6=1,11=2,16=1,25=1,30=1,70=32205,71=1,72=13,74=-58,82=7/1,2,3;
 4/5=5,16=3,69=1/1;
 5/5=2,38=5,53=13/2;
 7//1,2,3,16;
 1/5=1,11=1,14=-1,18=20,26=3/3(-5);
 2/9=110/2;
 6/7=2,8=2,9=2,10=2,19=2,28=1/1;
 99/9=1/99;
 ----------------------------
 ts diels alder toluene - opt
 ----------------------------
 Symbolic Z-matrix:
 Charge =  0 Multiplicity = 1
 C                    -2.63633   0.74735  -0.58 
 C                    -1.65935  -0.24014  -1.12033 
 C                    -0.39049   0.2793   -0.92347 
 C                    -0.54381   1.60203  -0.24884 
 H                    -1.95801  -0.92744  -1.89876 
 H                     0.48508   0.07921  -1.5255 
 C                    -2.48325   2.90744   0.67907 
 H                    -3.21457   2.59037   1.42491 
 H                    -1.68537   3.47024   1.16401 
 H                    -2.97967   3.54623  -0.05681 
 N                    -1.89409   1.74766   0.04412 
 O                     0.31197   2.42192   0.01026 
 O                    -3.84575   0.74398  -0.64728 
 C                    -0.93467  -2.56765   0.26071 
 H                    -1.02302  -3.53817  -0.22475 
 C                     0.352    -2.04512   0.44541 
 H                     1.19585  -2.62331   0.07791 
 C                    -2.08475  -1.83209   0.4507 
 H                    -2.06257  -1.00297   1.15489 
 C                    -3.44262  -2.38979   0.14675 
 H                    -4.11412  -1.61331  -0.22874 
 H                    -3.38404  -3.19653  -0.58933 
 H                    -3.89471  -2.79233   1.06117 
 C                     0.57221  -0.74242   0.83453 
 H                    -0.15726  -0.24044   1.46613 
 C                     1.94896  -0.15321   0.92383 
 H                     2.39786  -0.40284   1.89414 
 H                     1.8897    0.93408   0.8356 
 C                     3.9553   -0.18497  -0.43372 
 C                     4.43336   1.00271   0.3572 
 H                     4.39653   0.80723   1.43209 
 H                     5.45616   1.22642   0.0588 
 H                     3.79972   1.87087   0.15103 
 O                     2.74646  -0.70599  -0.13125 
 O                     4.58193  -0.6918   -1.32836 
 
 Add virtual bond connecting atoms C18        and C2         Dist= 4.30D+00.
 Add virtual bond connecting atoms C24        and C3         Dist= 4.25D+00.
 Add virtual bond connecting atoms H28        and O12        Dist= 4.38D+00.

 GradGradGradGradGradGradGradGradGradGradGradGradGradGradGradGradGradGrad
 Berny optimization.
 Initialization pass.
                           ----------------------------
                           !    Initial Parameters    !
                           ! (Angstroms and Degrees)  !
 --------------------------                            --------------------------
 ! Name  Definition              Value          Derivative Info.                !
 --------------------------------------------------------------------------------
 ! R1    R(1,2)                  1.4905         calculate D2E/DX2 analytically  !
 ! R2    R(1,11)                 1.3932         calculate D2E/DX2 analytically  !
 ! R3    R(1,13)                 1.2113         calculate D2E/DX2 analytically  !
 ! R4    R(2,3)                  1.3851         calculate D2E/DX2 analytically  !
 ! R5    R(2,5)                  1.0805         calculate D2E/DX2 analytically  !
 ! R6    R(2,18)                 2.2767         calculate D2E/DX2 analytically  !
 ! R7    R(3,4)                  1.4927         calculate D2E/DX2 analytically  !
 ! R8    R(3,6)                  1.0812         calculate D2E/DX2 analytically  !
 ! R9    R(3,24)                 2.2497         calculate D2E/DX2 analytically  !
 ! R10   R(4,11)                 1.3893         calculate D2E/DX2 analytically  !
 ! R11   R(4,12)                 1.2131         calculate D2E/DX2 analytically  !
 ! R12   R(7,8)                  1.0916         calculate D2E/DX2 analytically  !
 ! R13   R(7,9)                  1.0902         calculate D2E/DX2 analytically  !
 ! R14   R(7,10)                 1.0936         calculate D2E/DX2 analytically  !
 ! R15   R(7,11)                 1.4475         calculate D2E/DX2 analytically  !
 ! R16   R(12,28)                2.3204         calculate D2E/DX2 analytically  !
 ! R17   R(14,15)                1.0888         calculate D2E/DX2 analytically  !
 ! R18   R(14,16)                1.401          calculate D2E/DX2 analytically  !
 ! R19   R(14,18)                1.3783         calculate D2E/DX2 analytically  !
 ! R20   R(16,17)                1.0869         calculate D2E/DX2 analytically  !
 ! R21   R(16,24)                1.3773         calculate D2E/DX2 analytically  !
 ! R22   R(18,19)                1.088          calculate D2E/DX2 analytically  !
 ! R23   R(18,20)                1.4991         calculate D2E/DX2 analytically  !
 ! R24   R(20,21)                1.0931         calculate D2E/DX2 analytically  !
 ! R25   R(20,22)                1.0937         calculate D2E/DX2 analytically  !
 ! R26   R(20,23)                1.0966         calculate D2E/DX2 analytically  !
 ! R27   R(24,25)                1.0877         calculate D2E/DX2 analytically  !
 ! R28   R(24,26)                1.5002         calculate D2E/DX2 analytically  !
 ! R29   R(26,27)                1.0979         calculate D2E/DX2 analytically  !
 ! R30   R(26,28)                1.0925         calculate D2E/DX2 analytically  !
 ! R31   R(26,34)                1.4334         calculate D2E/DX2 analytically  !
 ! R32   R(29,30)                1.5049         calculate D2E/DX2 analytically  !
 ! R33   R(29,34)                1.3506         calculate D2E/DX2 analytically  !
 ! R34   R(29,35)                1.2041         calculate D2E/DX2 analytically  !
 ! R35   R(30,31)                1.0931         calculate D2E/DX2 analytically  !
 ! R36   R(30,32)                1.0887         calculate D2E/DX2 analytically  !
 ! R37   R(30,33)                1.0944         calculate D2E/DX2 analytically  !
 ! A1    A(2,1,11)             106.7905         calculate D2E/DX2 analytically  !
 ! A2    A(2,1,13)             129.2333         calculate D2E/DX2 analytically  !
 ! A3    A(11,1,13)            123.9733         calculate D2E/DX2 analytically  !
 ! A4    A(1,2,3)              107.4861         calculate D2E/DX2 analytically  !
 ! A5    A(1,2,5)              120.0932         calculate D2E/DX2 analytically  !
 ! A6    A(1,2,18)              95.2            calculate D2E/DX2 analytically  !
 ! A7    A(3,2,5)              126.4505         calculate D2E/DX2 analytically  !
 ! A8    A(3,2,18)             109.5916         calculate D2E/DX2 analytically  !
 ! A9    A(5,2,18)              90.0405         calculate D2E/DX2 analytically  !
 ! A10   A(2,3,4)              107.6046         calculate D2E/DX2 analytically  !
 ! A11   A(2,3,6)              126.3896         calculate D2E/DX2 analytically  !
 ! A12   A(2,3,24)             109.4355         calculate D2E/DX2 analytically  !
 ! A13   A(4,3,6)              119.92           calculate D2E/DX2 analytically  !
 ! A14   A(4,3,24)              95.349          calculate D2E/DX2 analytically  !
 ! A15   A(6,3,24)              90.2596         calculate D2E/DX2 analytically  !
 ! A16   A(3,4,11)             106.7384         calculate D2E/DX2 analytically  !
 ! A17   A(3,4,12)             128.5313         calculate D2E/DX2 analytically  !
 ! A18   A(11,4,12)            124.7301         calculate D2E/DX2 analytically  !
 ! A19   A(8,7,9)              109.6537         calculate D2E/DX2 analytically  !
 ! A20   A(8,7,10)             108.9837         calculate D2E/DX2 analytically  !
 ! A21   A(8,7,11)             109.8556         calculate D2E/DX2 analytically  !
 ! A22   A(9,7,10)             109.268          calculate D2E/DX2 analytically  !
 ! A23   A(9,7,11)             108.1107         calculate D2E/DX2 analytically  !
 ! A24   A(10,7,11)            110.9521         calculate D2E/DX2 analytically  !
 ! A25   A(1,11,4)             110.3682         calculate D2E/DX2 analytically  !
 ! A26   A(1,11,7)             123.7051         calculate D2E/DX2 analytically  !
 ! A27   A(4,11,7)             124.8925         calculate D2E/DX2 analytically  !
 ! A28   A(4,12,28)             97.0229         calculate D2E/DX2 analytically  !
 ! A29   A(15,14,16)           117.7614         calculate D2E/DX2 analytically  !
 ! A30   A(15,14,18)           117.9989         calculate D2E/DX2 analytically  !
 ! A31   A(16,14,18)           123.306          calculate D2E/DX2 analytically  !
 ! A32   A(14,16,17)           118.037          calculate D2E/DX2 analytically  !
 ! A33   A(14,16,24)           122.471          calculate D2E/DX2 analytically  !
 ! A34   A(17,16,24)           118.3286         calculate D2E/DX2 analytically  !
 ! A35   A(2,18,14)             97.015          calculate D2E/DX2 analytically  !
 ! A36   A(2,18,19)             84.8339         calculate D2E/DX2 analytically  !
 ! A37   A(2,18,20)            106.8263         calculate D2E/DX2 analytically  !
 ! A38   A(14,18,19)           118.6114         calculate D2E/DX2 analytically  !
 ! A39   A(14,18,20)           121.9591         calculate D2E/DX2 analytically  !
 ! A40   A(19,18,20)           115.6704         calculate D2E/DX2 analytically  !
 ! A41   A(18,20,21)           111.2126         calculate D2E/DX2 analytically  !
 ! A42   A(18,20,22)           111.2463         calculate D2E/DX2 analytically  !
 ! A43   A(18,20,23)           109.9326         calculate D2E/DX2 analytically  !
 ! A44   A(21,20,22)           109.0082         calculate D2E/DX2 analytically  !
 ! A45   A(21,20,23)           107.0938         calculate D2E/DX2 analytically  !
 ! A46   A(22,20,23)           108.2117         calculate D2E/DX2 analytically  !
 ! A47   A(3,24,16)             98.069          calculate D2E/DX2 analytically  !
 ! A48   A(3,24,25)             87.5456         calculate D2E/DX2 analytically  !
 ! A49   A(3,24,26)            105.1206         calculate D2E/DX2 analytically  !
 ! A50   A(16,24,25)           119.5611         calculate D2E/DX2 analytically  !
 ! A51   A(16,24,26)           122.3461         calculate D2E/DX2 analytically  !
 ! A52   A(25,24,26)           113.5566         calculate D2E/DX2 analytically  !
 ! A53   A(24,26,27)           109.7881         calculate D2E/DX2 analytically  !
 ! A54   A(24,26,28)           109.6519         calculate D2E/DX2 analytically  !
 ! A55   A(24,26,34)           108.3789         calculate D2E/DX2 analytically  !
 ! A56   A(27,26,28)           108.6541         calculate D2E/DX2 analytically  !
 ! A57   A(27,26,34)           109.5943         calculate D2E/DX2 analytically  !
 ! A58   A(28,26,34)           110.765          calculate D2E/DX2 analytically  !
 ! A59   A(12,28,26)           134.7309         calculate D2E/DX2 analytically  !
 ! A60   A(30,29,34)           118.1035         calculate D2E/DX2 analytically  !
 ! A61   A(30,29,35)           123.8733         calculate D2E/DX2 analytically  !
 ! A62   A(34,29,35)           118.0201         calculate D2E/DX2 analytically  !
 ! A63   A(29,30,31)           111.4051         calculate D2E/DX2 analytically  !
 ! A64   A(29,30,32)           108.4556         calculate D2E/DX2 analytically  !
 ! A65   A(29,30,33)           110.0676         calculate D2E/DX2 analytically  !
 ! A66   A(31,30,32)           109.7501         calculate D2E/DX2 analytically  !
 ! A67   A(31,30,33)           107.9141         calculate D2E/DX2 analytically  !
 ! A68   A(32,30,33)           109.2267         calculate D2E/DX2 analytically  !
 ! A69   A(26,34,29)           120.9316         calculate D2E/DX2 analytically  !
 ! D1    D(11,1,2,3)            -6.2201         calculate D2E/DX2 analytically  !
 ! D2    D(11,1,2,5)          -160.7119         calculate D2E/DX2 analytically  !
 ! D3    D(11,1,2,18)          106.2178         calculate D2E/DX2 analytically  !
 ! D4    D(13,1,2,3)           173.1665         calculate D2E/DX2 analytically  !
 ! D5    D(13,1,2,5)            18.6747         calculate D2E/DX2 analytically  !
 ! D6    D(13,1,2,18)          -74.3955         calculate D2E/DX2 analytically  !
 ! D7    D(2,1,11,4)            10.1472         calculate D2E/DX2 analytically  !
 ! D8    D(2,1,11,7)           179.0012         calculate D2E/DX2 analytically  !
 ! D9    D(13,1,11,4)         -169.2799         calculate D2E/DX2 analytically  !
 ! D10   D(13,1,11,7)           -0.426          calculate D2E/DX2 analytically  !
 ! D11   D(1,2,3,4)              0.2694         calculate D2E/DX2 analytically  !
 ! D12   D(1,2,3,6)           -151.8482         calculate D2E/DX2 analytically  !
 ! D13   D(1,2,3,24)           102.7245         calculate D2E/DX2 analytically  !
 ! D14   D(5,2,3,4)            152.6747         calculate D2E/DX2 analytically  !
 ! D15   D(5,2,3,6)              0.5572         calculate D2E/DX2 analytically  !
 ! D16   D(5,2,3,24)          -104.8701         calculate D2E/DX2 analytically  !
 ! D17   D(18,2,3,4)          -102.0282         calculate D2E/DX2 analytically  !
 ! D18   D(18,2,3,6)           105.8543         calculate D2E/DX2 analytically  !
 ! D19   D(18,2,3,24)            0.427          calculate D2E/DX2 analytically  !
 ! D20   D(1,2,18,14)         -161.8746         calculate D2E/DX2 analytically  !
 ! D21   D(1,2,18,19)          -43.6245         calculate D2E/DX2 analytically  !
 ! D22   D(1,2,18,20)           71.6575         calculate D2E/DX2 analytically  !
 ! D23   D(3,2,18,14)          -51.2252         calculate D2E/DX2 analytically  !
 ! D24   D(3,2,18,19)           67.0249         calculate D2E/DX2 analytically  !
 ! D25   D(3,2,18,20)         -177.6931         calculate D2E/DX2 analytically  !
 ! D26   D(5,2,18,14)           77.8907         calculate D2E/DX2 analytically  !
 ! D27   D(5,2,18,19)         -163.8592         calculate D2E/DX2 analytically  !
 ! D28   D(5,2,18,20)          -48.5773         calculate D2E/DX2 analytically  !
 ! D29   D(2,3,4,11)             5.7871         calculate D2E/DX2 analytically  !
 ! D30   D(2,3,4,12)          -174.0452         calculate D2E/DX2 analytically  !
 ! D31   D(6,3,4,11)           160.0428         calculate D2E/DX2 analytically  !
 ! D32   D(6,3,4,12)           -19.7895         calculate D2E/DX2 analytically  !
 ! D33   D(24,3,4,11)         -106.5671         calculate D2E/DX2 analytically  !
 ! D34   D(24,3,4,12)           73.6006         calculate D2E/DX2 analytically  !
 ! D35   D(2,3,24,16)           50.965          calculate D2E/DX2 analytically  !
 ! D36   D(2,3,24,25)          -68.5509         calculate D2E/DX2 analytically  !
 ! D37   D(2,3,24,26)          177.6966         calculate D2E/DX2 analytically  !
 ! D38   D(4,3,24,16)          161.7684         calculate D2E/DX2 analytically  !
 ! D39   D(4,3,24,25)           42.2525         calculate D2E/DX2 analytically  !
 ! D40   D(4,3,24,26)          -71.5            calculate D2E/DX2 analytically  !
 ! D41   D(6,3,24,16)          -78.1388         calculate D2E/DX2 analytically  !
 ! D42   D(6,3,24,25)          162.3452         calculate D2E/DX2 analytically  !
 ! D43   D(6,3,24,26)           48.5928         calculate D2E/DX2 analytically  !
 ! D44   D(3,4,11,1)            -9.9718         calculate D2E/DX2 analytically  !
 ! D45   D(3,4,11,7)          -178.665          calculate D2E/DX2 analytically  !
 ! D46   D(12,4,11,1)          169.8685         calculate D2E/DX2 analytically  !
 ! D47   D(12,4,11,7)            1.1753         calculate D2E/DX2 analytically  !
 ! D48   D(3,4,12,28)          -44.535          calculate D2E/DX2 analytically  !
 ! D49   D(11,4,12,28)         135.6604         calculate D2E/DX2 analytically  !
 ! D50   D(8,7,11,1)            55.0832         calculate D2E/DX2 analytically  !
 ! D51   D(8,7,11,4)          -137.6812         calculate D2E/DX2 analytically  !
 ! D52   D(9,7,11,1)           174.7094         calculate D2E/DX2 analytically  !
 ! D53   D(9,7,11,4)           -18.0551         calculate D2E/DX2 analytically  !
 ! D54   D(10,7,11,1)          -65.4888         calculate D2E/DX2 analytically  !
 ! D55   D(10,7,11,4)          101.7468         calculate D2E/DX2 analytically  !
 ! D56   D(4,12,28,26)           4.2307         calculate D2E/DX2 analytically  !
 ! D57   D(15,14,16,17)          1.214          calculate D2E/DX2 analytically  !
 ! D58   D(15,14,16,24)        168.6701         calculate D2E/DX2 analytically  !
 ! D59   D(18,14,16,17)       -167.4901         calculate D2E/DX2 analytically  !
 ! D60   D(18,14,16,24)         -0.034          calculate D2E/DX2 analytically  !
 ! D61   D(15,14,18,2)        -108.1816         calculate D2E/DX2 analytically  !
 ! D62   D(15,14,18,19)        163.8942         calculate D2E/DX2 analytically  !
 ! D63   D(15,14,18,20)          6.6863         calculate D2E/DX2 analytically  !
 ! D64   D(16,14,18,2)          60.4974         calculate D2E/DX2 analytically  !
 ! D65   D(16,14,18,19)        -27.4269         calculate D2E/DX2 analytically  !
 ! D66   D(16,14,18,20)        175.3653         calculate D2E/DX2 analytically  !
 ! D67   D(14,16,24,3)         -61.2323         calculate D2E/DX2 analytically  !
 ! D68   D(14,16,24,25)         30.5259         calculate D2E/DX2 analytically  !
 ! D69   D(14,16,24,26)       -174.9125         calculate D2E/DX2 analytically  !
 ! D70   D(17,16,24,3)         106.189          calculate D2E/DX2 analytically  !
 ! D71   D(17,16,24,25)       -162.0527         calculate D2E/DX2 analytically  !
 ! D72   D(17,16,24,26)         -7.4911         calculate D2E/DX2 analytically  !
 ! D73   D(2,18,20,21)         -35.804          calculate D2E/DX2 analytically  !
 ! D74   D(2,18,20,22)          85.9154         calculate D2E/DX2 analytically  !
 ! D75   D(2,18,20,23)        -154.2377         calculate D2E/DX2 analytically  !
 ! D76   D(14,18,20,21)       -145.6235         calculate D2E/DX2 analytically  !
 ! D77   D(14,18,20,22)        -23.9041         calculate D2E/DX2 analytically  !
 ! D78   D(14,18,20,23)         95.9428         calculate D2E/DX2 analytically  !
 ! D79   D(19,18,20,21)         56.5446         calculate D2E/DX2 analytically  !
 ! D80   D(19,18,20,22)        178.2641         calculate D2E/DX2 analytically  !
 ! D81   D(19,18,20,23)        -61.8891         calculate D2E/DX2 analytically  !
 ! D82   D(3,24,26,27)         165.7834         calculate D2E/DX2 analytically  !
 ! D83   D(3,24,26,28)          46.4801         calculate D2E/DX2 analytically  !
 ! D84   D(3,24,26,34)         -74.5404         calculate D2E/DX2 analytically  !
 ! D85   D(16,24,26,27)        -84.1431         calculate D2E/DX2 analytically  !
 ! D86   D(16,24,26,28)        156.5536         calculate D2E/DX2 analytically  !
 ! D87   D(16,24,26,34)         35.5331         calculate D2E/DX2 analytically  !
 ! D88   D(25,24,26,27)         71.8031         calculate D2E/DX2 analytically  !
 ! D89   D(25,24,26,28)        -47.5002         calculate D2E/DX2 analytically  !
 ! D90   D(25,24,26,34)       -168.5207         calculate D2E/DX2 analytically  !
 ! D91   D(24,26,28,12)        -19.6655         calculate D2E/DX2 analytically  !
 ! D92   D(27,26,28,12)       -139.6634         calculate D2E/DX2 analytically  !
 ! D93   D(34,26,28,12)         99.9028         calculate D2E/DX2 analytically  !
 ! D94   D(24,26,34,29)        168.4244         calculate D2E/DX2 analytically  !
 ! D95   D(27,26,34,29)        -71.778          calculate D2E/DX2 analytically  !
 ! D96   D(28,26,34,29)         48.0946         calculate D2E/DX2 analytically  !
 ! D97   D(34,29,30,31)         53.2599         calculate D2E/DX2 analytically  !
 ! D98   D(34,29,30,32)        174.1542         calculate D2E/DX2 analytically  !
 ! D99   D(34,29,30,33)        -66.4055         calculate D2E/DX2 analytically  !
 ! D100  D(35,29,30,31)       -127.3926         calculate D2E/DX2 analytically  !
 ! D101  D(35,29,30,32)         -6.4983         calculate D2E/DX2 analytically  !
 ! D102  D(35,29,30,33)        112.942          calculate D2E/DX2 analytically  !
 ! D103  D(30,29,34,26)         -0.7388         calculate D2E/DX2 analytically  !
 ! D104  D(35,29,34,26)        179.8749         calculate D2E/DX2 analytically  !
 --------------------------------------------------------------------------------
 Trust Radius=3.00D-01 FncErr=1.00D-07 GrdErr=1.00D-06
 Number of steps in this run=    210 maximum allowed number of steps=    210.
 Search for a saddle point of order  1.
 GradGradGradGradGradGradGradGradGradGradGradGradGradGradGradGradGradGrad

                          Input orientation:                          
 ---------------------------------------------------------------------
 Center     Atomic      Atomic             Coordinates (Angstroms)
 Number     Number       Type             X           Y           Z
 ---------------------------------------------------------------------
      1          6           0       -2.636330    0.747350   -0.580000
      2          6           0       -1.659350   -0.240140   -1.120330
      3          6           0       -0.390490    0.279300   -0.923470
      4          6           0       -0.543810    1.602030   -0.248840
      5          1           0       -1.958010   -0.927440   -1.898760
      6          1           0        0.485080    0.079210   -1.525500
      7          6           0       -2.483250    2.907440    0.679070
      8          1           0       -3.214570    2.590370    1.424910
      9          1           0       -1.685370    3.470240    1.164010
     10          1           0       -2.979670    3.546230   -0.056810
     11          7           0       -1.894090    1.747660    0.044120
     12          8           0        0.311970    2.421920    0.010260
     13          8           0       -3.845750    0.743980   -0.647280
     14          6           0       -0.934670   -2.567650    0.260710
     15          1           0       -1.023020   -3.538170   -0.224750
     16          6           0        0.352000   -2.045120    0.445410
     17          1           0        1.195850   -2.623310    0.077910
     18          6           0       -2.084750   -1.832090    0.450700
     19          1           0       -2.062570   -1.002970    1.154890
     20          6           0       -3.442620   -2.389790    0.146750
     21          1           0       -4.114120   -1.613310   -0.228740
     22          1           0       -3.384040   -3.196530   -0.589330
     23          1           0       -3.894710   -2.792330    1.061170
     24          6           0        0.572210   -0.742420    0.834530
     25          1           0       -0.157260   -0.240440    1.466130
     26          6           0        1.948960   -0.153210    0.923830
     27          1           0        2.397860   -0.402840    1.894140
     28          1           0        1.889700    0.934080    0.835600
     29          6           0        3.955300   -0.184970   -0.433720
     30          6           0        4.433360    1.002710    0.357200
     31          1           0        4.396530    0.807230    1.432090
     32          1           0        5.456160    1.226420    0.058800
     33          1           0        3.799720    1.870870    0.151030
     34          8           0        2.746460   -0.705990   -0.131250
     35          8           0        4.581930   -0.691800   -1.328360
 ---------------------------------------------------------------------
                    Distance matrix (angstroms):
                    1          2          3          4          5
     1  C    0.000000
     2  C    1.490498   0.000000
     3  C    2.319664   1.385127   0.000000
     4  C    2.284466   2.323255   1.492731   0.000000
     5  H    2.237000   1.080524   2.205568   3.334729   0.000000
     6  H    3.329201   2.205613   1.081249   2.237735   2.668587
     7  C    2.504931   3.718052   3.722217   2.515261   4.650526
     8  H    2.784017   4.112024   4.339512   3.303213   5.000071
     9  H    3.370464   4.357270   4.026957   2.605669   5.366049
    10  H    2.867985   4.148604   4.257674   3.122532   4.944724
    11  N    1.393221   2.315685   2.313682   1.389349   3.306815
    12  O    3.441666   3.500129   2.440517   1.213141   4.473855
    13  O    1.211295   2.443893   3.497289   3.434794   2.814855
    14  C    3.819904   2.801738   3.131060   4.218844   2.898418
    15  H    4.592892   3.476202   3.932096   5.162546   3.239202
    16  C    4.216571   3.123303   2.797866   3.819183   3.475700
    17  H    5.145853   3.907358   3.456064   4.581122   4.090236
    18  C    2.831977   2.276709   3.035923   3.828450   2.520797
    19  H    2.530349   2.433336   2.959670   3.326126   3.056373
    20  C    3.319626   3.067008   4.193437   4.949163   2.920042
    21  H    2.807127   2.950665   4.234388   4.804782   2.812151
    22  H    4.014143   3.463634   4.599390   5.586503   2.982774
    23  H    4.099548   4.033541   5.064905   5.679354   3.998726
    24  C    3.809861   3.008924   2.249726   2.813474   3.729225
    25  H    3.362762   2.990995   2.456566   2.546613   3.877777
    26  C    4.908910   4.148017   3.012077   3.266485   4.881686
    27  H    5.726026   5.057119   4.022330   4.155152   5.799560
    28  H    4.745918   4.219030   2.953359   2.746659   5.074136
    29  C    6.658844   5.656746   4.397874   4.844537   6.137169
    30  C    7.136110   6.391313   5.043111   5.049623   7.047301
    31  H    7.315272   6.654736   5.361244   5.278654   7.381316
    32  H    8.131787   7.360138   6.003766   6.019582   7.964990
    33  H    6.574150   5.989505   4.609285   4.370174   6.721877
    34  O    5.593568   4.539434   3.382139   4.020779   5.030424
    35  O    7.398275   6.261058   5.082512   5.718411   6.568995
                    6          7          8          9         10
     6  H    0.000000
     7  C    4.655104   0.000000
     8  H    5.357075   1.091622   0.000000
     9  H    4.841839   1.090194   1.783450   0.000000
    10  H    5.116813   1.093620   1.778859   1.780839   0.000000
    11  N    3.302708   1.447536   2.088159   2.065188   2.103218
    12  O    2.806567   2.914840   3.803432   2.533669   3.479003
    13  O    4.468700   2.880307   2.846316   3.921799   2.991881
    14  C    3.494582   5.705238   5.758340   6.151066   6.454640
    15  H    4.129377   6.670461   6.714408   7.175317   7.351558
    16  C    2.900858   5.711488   5.930228   5.923382   6.528051
    17  H    3.221759   6.669810   6.960508   6.827327   7.450929
    18  C    3.763304   4.761733   4.667304   5.364981   5.475835
    19  H    3.853067   3.961652   3.783135   4.489095   4.796302
    20  C    4.931451   5.409658   5.146620   6.201830   5.957524
    21  H    5.069403   4.890914   4.605939   5.803539   5.285583
    22  H    5.155286   6.299104   6.129771   7.099683   6.775832
    23  H    5.841161   5.884352   5.437679   6.641652   6.501117
    24  C    2.500482   4.762508   5.078951   4.790796   5.639402
    25  H    3.076463   3.992348   4.166813   4.024369   4.962279
    26  C    2.862897   5.391843   5.868590   5.137648   6.240105
    27  H    3.947789   6.021593   6.377998   5.675086   6.951201
    28  H    2.877248   4.800140   5.398533   4.395576   5.597364
    29  C    3.647492   7.228847   7.909744   6.908723   7.884017
    30  C    4.470607   7.181301   7.883622   6.646691   7.848179
    31  H    4.957499   7.232516   7.817192   6.644772   8.007950
    32  H    5.342072   8.139091   8.883027   7.566880   8.749749
    33  H    4.124032   6.389759   7.165244   5.802614   6.986427
    34  O    2.770255   6.408070   6.987239   6.225730   7.132705
    35  O    4.173428   8.179308   8.895985   7.925499   8.761023
                   11         12         13         14         15
    11  N    0.000000
    12  O    2.307049   0.000000
    13  O    2.300953   4.531498   0.000000
    14  C    4.425980   5.149043   4.501747   0.000000
    15  H    5.363865   6.112291   5.146178   1.088754   0.000000
    16  C    4.426187   4.488363   5.156952   1.400954   2.137520
    17  H    5.352966   5.122516   6.105921   2.139072   2.419082
    18  C    3.607807   4.902536   3.307993   1.378343   2.119956
    19  H    2.971222   4.321862   3.078860   2.126015   3.067786
    20  C    4.418933   6.104763   3.257839   2.516830   2.703933
    21  H    4.037215   5.994203   2.409152   3.355477   3.641428
    22  H    5.202521   6.751813   3.967890   2.667859   2.413307
    23  H    5.064423   6.781517   3.927682   3.074582   3.233647
    24  C    3.592754   3.280273   4.891167   2.435451   3.388665
    25  H    2.998538   3.070488   4.363547   2.733736   3.805738
    26  C    4.376783   3.185222   6.070585   3.818975   4.648640
    27  H    5.144712   3.984873   6.837885   4.296540   5.101216
    28  H    3.950370   2.320363   5.927095   4.535381   5.441443
    29  C    6.178896   4.501872   7.859067   5.483722   6.005938
    30  C    6.378839   4.372686   8.343835   6.447676   7.122523
    31  H    6.510205   4.616541   8.500762   6.417448   7.141368
    32  H    7.368723   5.281502   9.341136   7.434947   8.047453
    33  H    5.696146   3.533818   7.769195   6.490527   7.256566
    34  O    5.252224   3.966180   6.769485   4.143685   4.715821
    35  O    7.055034   5.451579   8.576195   6.039605   6.382417
                   16         17         18         19         20
    16  C    0.000000
    17  H    1.086942   0.000000
    18  C    2.446050   3.395193   0.000000
    19  H    2.723892   3.795087   1.088033   0.000000
    20  C    3.821928   4.644855   1.499075   2.200944   0.000000
    21  H    4.537308   5.413863   2.151243   2.548687   1.093081
    22  H    4.044061   4.663602   2.152095   3.098434   1.093652
    23  H    4.355689   5.187405   2.137917   2.562680   1.096626
    24  C    1.377292   2.121119   2.897265   2.666943   4.393829
    25  H    2.134967   3.071829   2.698086   2.075700   4.141746
    26  C    2.521605   2.717379   4.394691   4.107049   5.888572
    27  H    2.996906   3.110306   4.921389   4.560930   6.411907
    28  H    3.375263   3.702775   4.857581   4.412998   6.321097
    29  C    4.149313   3.717772   6.322769   6.277545   7.741279
    30  C    5.094561   4.869034   7.108487   6.845157   8.578135
    31  H    5.046549   4.883315   7.066550   6.713690   8.563020
    32  H    6.074940   5.742040   8.146987   7.918516   9.605883
    33  H    5.225745   5.194530   6.959073   6.605538   8.402662
    34  O    2.803434   2.474723   4.994733   4.986895   6.420061
    35  O    4.782263   4.144136   6.993564   7.100193   8.333818
                   21         22         23         24         25
    21  H    0.000000
    22  H    1.780345   0.000000
    23  H    1.761277   1.774348   0.000000
    24  C    4.883716   4.868465   4.920048   0.000000
    25  H    4.518196   4.834821   4.543640   1.087671   0.000000
    26  C    6.342022   6.323950   6.413446   1.500194   2.176663
    27  H    6.955411   6.884961   6.782325   2.138010   2.595805
    28  H    6.608167   6.848700   6.884505   2.132237   2.442767
    29  C    8.197421   7.934710   8.405693   3.655750   4.530525
    30  C    8.958030   8.924196   9.179033   4.264012   4.883538
    31  H    9.002696   8.980730   9.046495   4.169402   4.672876
    32  H    9.986842   9.906144  10.227114   5.322693   5.970154
    33  H    8.655206   8.822306   9.043121   4.208714   4.673843
    34  O    6.921004   6.632922   7.062565   2.379374   3.346633
    35  O    8.813605   8.383109   9.054033   4.556151   5.520219
                   26         27         28         29         30
    26  C    0.000000
    27  H    1.097874   0.000000
    28  H    1.092472   1.779351   0.000000
    29  C    2.422674   2.809274   2.670234   0.000000
    30  C    2.798118   2.912218   2.589166   1.504885   0.000000
    31  H    2.677942   2.381689   2.579940   2.158794   1.093141
    32  H    3.866796   3.921245   3.661764   2.118296   1.088673
    33  H    2.849462   3.189577   2.234813   2.143039   1.094398
    34  O    1.433445   2.077409   2.087742   1.350646   2.450280
    35  O    3.506418   3.903609   3.817632   1.204127   2.394692
                   31         32         33         34         35
    31  H    0.000000
    32  H    1.784506   0.000000
    33  H    1.768793   1.779780   0.000000
    34  O    2.730677   3.333587   2.798079   0.000000
    35  O    3.146673   2.523501   3.060674   2.191398   0.000000
 Stoichiometry    C13H17NO4
 Framework group  C1[X(C13H17NO4)]
 Deg. of freedom    99
 Full point group                 C1      NOp   1
 Largest Abelian subgroup         C1      NOp   1
 Largest concise Abelian subgroup C1      NOp   1
                         Standard orientation:                         
 ---------------------------------------------------------------------
 Center     Atomic      Atomic             Coordinates (Angstroms)
 Number     Number       Type             X           Y           Z
 ---------------------------------------------------------------------
      1          6           0       -2.606619   -0.665011    0.571346
      2          6           0       -1.603032    0.305551    1.093271
      3          6           0       -0.347775   -0.242876    0.887997
      4          6           0       -0.536559   -1.567549    0.226294
      5          1           0       -1.878737    1.005620    1.868784
      6          1           0        0.538079   -0.056792    1.479379
      7          6           0       -2.513193   -2.838324   -0.670693
      8          1           0       -3.245166   -2.511711   -1.411759
      9          1           0       -1.732693   -3.422296   -1.158873
     10          1           0       -3.015653   -3.460058    0.075621
     11          7           0       -1.892620   -1.686330   -0.051695
     12          8           0        0.298610   -2.407915   -0.034454
     13          8           0       -3.814925   -0.634882    0.650862
     14          6           0       -0.842604    2.605230   -0.314905
     15          1           0       -0.904975    3.581447    0.163108
     16          6           0        0.430516    2.053430   -0.508175
     17          1           0        1.290395    2.616246   -0.154214
     18          6           0       -2.010188    1.893199   -0.486919
     19          1           0       -2.013177    1.057956   -1.184182
     20          6           0       -3.352497    2.482696   -0.173989
     21          1           0       -4.036680    1.724100    0.214922
     22          1           0       -3.268925    3.294082    0.554533
     23          1           0       -3.805217    2.887303   -1.087184
     24          6           0        0.618537    0.743069   -0.888354
     25          1           0       -0.128079    0.251764   -1.508204
     26          6           0        1.981257    0.123450   -0.986576
     27          1           0        2.425393    0.355205   -1.963489
     28          1           0        1.899466   -0.961529   -0.888453
     29          6           0        4.001730    0.123048    0.350227
     30          6           0        4.445859   -1.081257   -0.435316
     31          1           0        4.402155   -0.893987   -1.511410
     32          1           0        5.466621   -1.324577   -0.145407
     33          1           0        3.795798   -1.933739   -0.215311
     34          8           0        2.801353    0.667594    0.055593
     35          8           0        4.648356    0.623620    1.234096
 ---------------------------------------------------------------------
 Rotational constants (GHZ):      0.6688295      0.2671734      0.2096761
 General basis read from cards:  (5D, 7F)
 There are   822 symmetry adapted cartesian basis functions of A   symmetry.
 There are   732 symmetry adapted basis functions of A   symmetry.
   732 basis functions,  1126 primitive gaussians,   822 cartesian basis functions
    67 alpha electrons       67 beta electrons
       nuclear repulsion energy      1363.9569698145 Hartrees.
 NAtoms=   35 NActive=   35 NUniq=   35 SFac= 1.00D+00 NAtFMM=   60 NAOKFM=F Big=F
 Integral buffers will be    131072 words long.
 Raffenetti 2 integral format.
 Two-electron integral symmetry is turned on.
 Nuclear repulsion after empirical dispersion term =     1363.9284189532 Hartrees.
 Force inversion solution in PCM.
 ------------------------------------------------------------------------------
 Polarizable Continuum Model (PCM)
 =================================
 Model                : PCM (using non-symmetric T matrix).
 Atomic radii         : SMD-Coulomb.
 Polarization charges : Total charges.
 Charge compensation  : None.
 Solution method      : Matrix inversion.
 Cavity type          : VdW (van der Waals Surface) (Alpha=1.000).
 Cavity algorithm     : GePol (No added spheres)
                        Default sphere list used, NSphG=   35.
                        Lebedev-Laikov grids with approx.  5.0 points / Ang**2.
                        Smoothing algorithm: Karplus/York (Gamma=1.0000).
                        Polarization charges: spherical gaussians, with
                                              point-specific exponents (IZeta= 3).
                        Self-potential: point-specific (ISelfS= 7).
                        Self-field    : sphere-specific E.n sum rule (ISelfD= 2).
 1st derivatives      : Analytical E(r).r(x)/FMM algorithm (CHGder, D1EAlg=3).
                        Cavity 1st derivative terms included.
 2nd derivatives      : Analytical E(r).r(xy)/FMM algorithm (CHGder, D2EAlg=3).
                        Cavity 2nd derivative terms included.
 Solvent              : Toluene, Eps=   2.374100 Eps(inf)=   2.238315
 ------------------------------------------------------------------------------
 ------------------------------------------------------------------------------
 Atomic radii for non-electrostatic terms: SMD-CDS.
 ------------------------------------------------------------------------------
 Nuclear repulsion after PCM non-electrostatic terms =     1363.9187686730 Hartrees.
 One-electron integrals computed using PRISM.
 NBasis=   732 RedAO= T EigKep=  1.22D-06  NBF=   732
 NBsUse=   730 1.00D-06 EigRej=  3.43D-07 NBFU=   730
 ExpMin= 3.17D-02 ExpMax= 2.70D+04 ExpMxC= 9.22D+02 IAcc=3 IRadAn=         5 AccDes= 0.00D+00
 Harris functional with IExCor= 4639 and IRadAn=       5 diagonalized for initial guess.
 HarFok:  IExCor= 4639 AccDes= 0.00D+00 IRadAn=         5 IDoV= 1 UseB2=F ITyADJ=14
 ICtDFT=  3500011 ScaDFX=  1.000000  1.000000  1.000000  1.000000
 FoFCou: FMM=F IPFlag=           0 FMFlag=      100000 FMFlg1=           0
         NFxFlg=           0 DoJE=T BraDBF=F KetDBF=T FulRan=T
         wScrn=  0.000000 ICntrl=     500 IOpCl=  0 I1Cent=   200000004 NGrid=           0
         NMat0=    1 NMatS0=      1 NMatT0=    0 NMatD0=    1 NMtDS0=    0 NMtDT0=    0
 Petite list used in FoFCou.
 Requested convergence on RMS density matrix=1.00D-08 within 128 cycles.
 Requested convergence on MAX density matrix=1.00D-06.
 Requested convergence on             energy=1.00D-06.
 No special actions if energy rises.
 Inv3:  Mode=1 IEnd=    20861307.
 Iteration    1 A*A^-1 deviation from unit magnitude is 4.77D-15 for   2617.
 Iteration    1 A*A^-1 deviation from orthogonality  is 2.75D-15 for   2623     89.
 Iteration    1 A^-1*A deviation from unit magnitude is 5.00D-15 for   2617.
 Iteration    1 A^-1*A deviation from orthogonality  is 4.60D-14 for   1298    879.
 Error on total polarization charges =  0.02128
 SCF Done:  E(RwB97XD) =  -861.293144958     A.U. after   16 cycles
            NFock= 16  Conv=0.46D-08     -V/T= 2.0049
 SMD-CDS (non-electrostatic) energy       (kcal/mol) =      -6.06
 (included in total energy above)
 DoSCS=F DFT=T ScalE2(SS,OS)=  1.000000  1.000000
 Range of M.O.s used for correlation:     1   730
 NBasis=   732 NAE=    67 NBE=    67 NFC=     0 NFV=     0
 NROrb=    730 NOA=    67 NOB=    67 NVA=   663 NVB=   663

 **** Warning!!: The largest alpha MO coefficient is  0.13514126D+03

 Symmetrizing basis deriv contribution to polar:
 IMax=3 JMax=2 DiffMx= 0.00D+00
 G2DrvN: will do    36 centers at a time, making    1 passes.
 Calling FoFCou, ICntrl=  3107 FMM=F I1Cent=   0 AccDes= 0.00D+00.
 NEqPCM:  Using equilibrium solvation (IEInf=0, Eps=   2.3741, EpsInf=   2.2383)
 G2PCM: DoFxE=T DoFxN=T DoGrad=T DoDP/DQ/DG/TGxP=FFFF NFrqRd=   0 IEInf=0 SqF1=F DoCFld=F IF1Alg=4.
 End of G2Drv F.D. properties file   721 does not exist.
 End of G2Drv F.D. properties file   722 does not exist.
 End of G2Drv F.D. properties file   788 does not exist.
          IDoAtm=11111111111111111111111111111111111
 NEqPCM:  Using equilibrium solvation (IEInf=0, Eps=   2.3741, EpsInf=   2.2383)
          Differentiating once with respect to nuclear coordinates.
          There are   108 degrees of freedom in the 1st order CPHF.  IDoFFX=6 NUNeed=     0.
    102 vectors produced by pass  0 Test12= 4.44D-14 1.00D-09 XBig12= 1.67D-01 9.11D-02.
 AX will form   102 AO Fock derivatives at one time.
    102 vectors produced by pass  1 Test12= 4.44D-14 1.00D-09 XBig12= 5.68D-02 5.39D-02.
    102 vectors produced by pass  2 Test12= 4.44D-14 1.00D-09 XBig12= 2.56D-03 6.71D-03.
    102 vectors produced by pass  3 Test12= 4.44D-14 1.00D-09 XBig12= 3.14D-05 5.63D-04.
    102 vectors produced by pass  4 Test12= 4.44D-14 1.00D-09 XBig12= 3.22D-07 4.08D-05.
    102 vectors produced by pass  5 Test12= 4.44D-14 1.00D-09 XBig12= 2.82D-09 3.36D-06.
    102 vectors produced by pass  6 Test12= 4.44D-14 1.00D-09 XBig12= 2.89D-11 4.20D-07.
     88 vectors produced by pass  7 Test12= 4.44D-14 1.00D-09 XBig12= 3.51D-12 2.19D-07.
     62 vectors produced by pass  8 Test12= 4.44D-14 1.00D-09 XBig12= 3.53D-13 4.08D-08.
     38 vectors produced by pass  9 Test12= 4.44D-14 1.00D-09 XBig12= 2.05D-14 1.24D-08.
     38 vectors produced by pass 10 Test12= 4.44D-14 1.00D-09 XBig12= 3.14D-14 1.19D-08.
     28 vectors produced by pass 11 Test12= 4.44D-14 1.00D-09 XBig12= 2.81D-14 1.32D-08.
     27 vectors produced by pass 12 Test12= 4.44D-14 1.00D-09 XBig12= 4.33D-14 1.67D-08.
     21 vectors produced by pass 13 Test12= 4.44D-14 1.00D-09 XBig12= 2.04D-14 8.48D-09.
     21 vectors produced by pass 14 Test12= 4.44D-14 1.00D-09 XBig12= 3.15D-14 1.03D-08.
     14 vectors produced by pass 15 Test12= 4.44D-14 1.00D-09 XBig12= 1.67D-14 1.09D-08.
     10 vectors produced by pass 16 Test12= 4.44D-14 1.00D-09 XBig12= 1.23D-14 6.79D-09.
      9 vectors produced by pass 17 Test12= 4.44D-14 1.00D-09 XBig12= 1.42D-14 6.49D-09.
      9 vectors produced by pass 18 Test12= 4.44D-14 1.00D-09 XBig12= 2.44D-14 9.59D-09.
      9 vectors produced by pass 19 Test12= 4.44D-14 1.00D-09 XBig12= 1.49D-14 6.58D-09.
      9 vectors produced by pass 20 Test12= 4.44D-14 1.00D-09 XBig12= 1.52D-14 7.59D-09.
      9 vectors produced by pass 21 Test12= 4.44D-14 1.00D-09 XBig12= 1.68D-14 1.01D-08.
      9 vectors produced by pass 22 Test12= 4.44D-14 1.00D-09 XBig12= 1.89D-14 7.59D-09.
      9 vectors produced by pass 23 Test12= 4.44D-14 1.00D-09 XBig12= 1.15D-14 6.94D-09.
      9 vectors produced by pass 24 Test12= 4.44D-14 1.00D-09 XBig12= 2.19D-14 9.34D-09.
      8 vectors produced by pass 25 Test12= 4.44D-14 1.00D-09 XBig12= 8.89D-15 4.59D-09.
      8 vectors produced by pass 26 Test12= 4.44D-14 1.00D-09 XBig12= 1.50D-14 6.82D-09.
      8 vectors produced by pass 27 Test12= 4.44D-14 1.00D-09 XBig12= 7.74D-15 4.07D-09.
      8 vectors produced by pass 28 Test12= 4.44D-14 1.00D-09 XBig12= 2.00D-14 6.94D-09.
      8 vectors produced by pass 29 Test12= 4.44D-14 1.00D-09 XBig12= 9.18D-15 5.48D-09.
      7 vectors produced by pass 30 Test12= 4.44D-14 1.00D-09 XBig12= 6.26D-15 4.65D-09.
      7 vectors produced by pass 31 Test12= 4.44D-14 1.00D-09 XBig12= 1.15D-14 5.51D-09.
      7 vectors produced by pass 32 Test12= 4.44D-14 1.00D-09 XBig12= 1.45D-14 6.14D-09.
      7 vectors produced by pass 33 Test12= 4.44D-14 1.00D-09 XBig12= 1.06D-14 5.16D-09.
      7 vectors produced by pass 34 Test12= 4.44D-14 1.00D-09 XBig12= 1.78D-14 8.21D-09.
      7 vectors produced by pass 35 Test12= 4.44D-14 1.00D-09 XBig12= 1.19D-14 5.90D-09.
      7 vectors produced by pass 36 Test12= 4.44D-14 1.00D-09 XBig12= 1.12D-14 5.94D-09.
      7 vectors produced by pass 37 Test12= 4.44D-14 1.00D-09 XBig12= 4.99D-15 3.70D-09.
      7 vectors produced by pass 38 Test12= 4.44D-14 1.00D-09 XBig12= 5.95D-15 4.25D-09.
      7 vectors produced by pass 39 Test12= 4.44D-14 1.00D-09 XBig12= 1.15D-14 5.75D-09.
      7 vectors produced by pass 40 Test12= 4.44D-14 1.00D-09 XBig12= 8.42D-15 5.83D-09.
      6 vectors produced by pass 41 Test12= 4.44D-14 1.00D-09 XBig12= 4.26D-15 3.26D-09.
      6 vectors produced by pass 42 Test12= 4.44D-14 1.00D-09 XBig12= 7.80D-15 4.43D-09.
      6 vectors produced by pass 43 Test12= 4.44D-14 1.00D-09 XBig12= 4.45D-15 3.34D-09.
      6 vectors produced by pass 44 Test12= 4.44D-14 1.00D-09 XBig12= 1.46D-14 6.15D-09.
      6 vectors produced by pass 45 Test12= 4.44D-14 1.00D-09 XBig12= 3.64D-15 2.70D-09.
      6 vectors produced by pass 46 Test12= 4.44D-14 1.00D-09 XBig12= 1.03D-14 5.84D-09.
      6 vectors produced by pass 47 Test12= 4.44D-14 1.00D-09 XBig12= 6.57D-15 3.65D-09.
      6 vectors produced by pass 48 Test12= 4.44D-14 1.00D-09 XBig12= 4.17D-15 3.87D-09.
      6 vectors produced by pass 49 Test12= 4.44D-14 1.00D-09 XBig12= 5.84D-15 3.95D-09.
      6 vectors produced by pass 50 Test12= 4.44D-14 1.00D-09 XBig12= 9.95D-15 5.80D-09.
      6 vectors produced by pass 51 Test12= 4.44D-14 1.00D-09 XBig12= 4.29D-15 3.21D-09.
      6 vectors produced by pass 52 Test12= 4.44D-14 1.00D-09 XBig12= 4.70D-15 3.13D-09.
      6 vectors produced by pass 53 Test12= 4.44D-14 1.00D-09 XBig12= 8.94D-15 5.21D-09.
      5 vectors produced by pass 54 Test12= 4.44D-14 1.00D-09 XBig12= 3.79D-15 2.75D-09.
      5 vectors produced by pass 55 Test12= 4.44D-14 1.00D-09 XBig12= 4.53D-15 3.20D-09.
      5 vectors produced by pass 56 Test12= 4.44D-14 1.00D-09 XBig12= 7.16D-15 3.81D-09.
      5 vectors produced by pass 57 Test12= 4.44D-14 1.00D-09 XBig12= 7.39D-15 4.30D-09.
      5 vectors produced by pass 58 Test12= 4.44D-14 1.00D-09 XBig12= 6.49D-15 4.51D-09.
      5 vectors produced by pass 59 Test12= 4.44D-14 1.00D-09 XBig12= 6.36D-15 3.51D-09.
      5 vectors produced by pass 60 Test12= 4.44D-14 1.00D-09 XBig12= 5.05D-15 3.41D-09.
      5 vectors produced by pass 61 Test12= 4.44D-14 1.00D-09 XBig12= 3.53D-15 3.67D-09.
      5 vectors produced by pass 62 Test12= 4.44D-14 1.00D-09 XBig12= 4.57D-15 3.79D-09.
      5 vectors produced by pass 63 Test12= 4.44D-14 1.00D-09 XBig12= 6.50D-15 3.96D-09.
      3 vectors produced by pass 64 Test12= 4.44D-14 1.00D-09 XBig12= 2.53D-15 2.33D-09.
      1 vectors produced by pass 65 Test12= 4.44D-14 1.00D-09 XBig12= 1.48D-15 1.93D-09.
 InvSVY:  IOpt=1 It=  1 EMax= 6.66D-16
 Solved reduced A of dimension  1382 with   108 vectors.
 End of Minotr F.D. properties file   721 does not exist.
 End of Minotr F.D. properties file   722 does not exist.
 End of Minotr F.D. properties file   788 does not exist.

 **********************************************************************

            Population analysis using the SCF density.

 **********************************************************************

 Orbital symmetries:
       Occupied  (A) (A) (A) (A) (A) (A) (A) (A) (A) (A) (A) (A)
                 (A) (A) (A) (A) (A) (A) (A) (A) (A) (A) (A) (A)
                 (A) (A) (A) (A) (A) (A) (A) (A) (A) (A) (A) (A)
                 (A) (A) (A) (A) (A) (A) (A) (A) (A) (A) (A) (A)
                 (A) (A) (A) (A) (A) (A) (A) (A) (A) (A) (A) (A)
                 (A) (A) (A) (A) (A) (A) (A)
       Virtual   (A) (A) (A) (A) (A) (A) (A) (A) (A) (A) (A) (A)
                 (A) (A) (A) (A) (A) (A) (A) (A) (A) (A) (A) (A)
                 (A) (A) (A) (A) (A) (A) (A) (A) (A) (A) (A) (A)
                 (A) (A) (A) (A) (A) (A) (A) (A) (A) (A) (A) (A)
                 (A) (A) (A) (A) (A) (A) (A) (A) (A) (A) (A) (A)
                 (A) (A) (A) (A) (A) (A) (A) (A) (A) (A) (A) (A)
                 (A) (A) (A) (A) (A) (A) (A) (A) (A) (A) (A) (A)
                 (A) (A) (A) (A) (A) (A) (A) (A) (A) (A) (A) (A)
                 (A) (A) (A) (A) (A) (A) (A) (A) (A) (A) (A) (A)
                 (A) (A) (A) (A) (A) (A) (A) (A) (A) (A) (A) (A)
                 (A) (A) (A) (A) (A) (A) (A) (A) (A) (A) (A) (A)
                 (A) (A) (A) (A) (A) (A) (A) (A) (A) (A) (A) (A)
                 (A) (A) (A) (A) (A) (A) (A) (A) (A) (A) (A) (A)
                 (A) (A) (A) (A) (A) (A) (A) (A) (A) (A) (A) (A)
                 (A) (A) (A) (A) (A) (A) (A) (A) (A) (A) (A) (A)
                 (A) (A) (A) (A) (A) (A) (A) (A) (A) (A) (A) (A)
                 (A) (A) (A) (A) (A) (A) (A) (A) (A) (A) (A) (A)
                 (A) (A) (A) (A) (A) (A) (A) (A) (A) (A) (A) (A)
                 (A) (A) (A) (A) (A) (A) (A) (A) (A) (A) (A) (A)
                 (A) (A) (A) (A) (A) (A) (A) (A) (A) (A) (A) (A)
                 (A) (A) (A) (A) (A) (A) (A) (A) (A) (A) (A) (A)
                 (A) (A) (A) (A) (A) (A) (A) (A) (A) (A) (A) (A)
                 (A) (A) (A) (A) (A) (A) (A) (A) (A) (A) (A) (A)
                 (A) (A) (A) (A) (A) (A) (A) (A) (A) (A) (A) (A)
                 (A) (A) (A) (A) (A) (A) (A) (A) (A) (A) (A) (A)
                 (A) (A) (A) (A) (A) (A) (A) (A) (A) (A) (A) (A)
                 (A) (A) (A) (A) (A) (A) (A) (A) (A) (A) (A) (A)
                 (A) (A) (A) (A) (A) (A) (A) (A) (A) (A) (A) (A)
                 (A) (A) (A) (A) (A) (A) (A) (A) (A) (A) (A) (A)
                 (A) (A) (A) (A) (A) (A) (A) (A) (A) (A) (A) (A)
                 (A) (A) (A) (A) (A) (A) (A) (A) (A) (A) (A) (A)
                 (A) (A) (A) (A) (A) (A) (A) (A) (A) (A) (A) (A)
                 (A) (A) (A) (A) (A) (A) (A) (A) (A) (A) (A) (A)
                 (A) (A) (A) (A) (A) (A) (A) (A) (A) (A) (A) (A)
                 (A) (A) (A) (A) (A) (A) (A) (A) (A) (A) (A) (A)
                 (A) (A) (A) (A) (A) (A) (A) (A) (A) (A) (A) (A)
                 (A) (A) (A) (A) (A) (A) (A) (A) (A) (A) (A) (A)
                 (A) (A) (A) (A) (A) (A) (A) (A) (A) (A) (A) (A)
                 (A) (A) (A) (A) (A) (A) (A) (A) (A) (A) (A) (A)
                 (A) (A) (A) (A) (A) (A) (A) (A) (A) (A) (A) (A)
                 (A) (A) (A) (A) (A) (A) (A) (A) (A) (A) (A) (A)
                 (A) (A) (A) (A) (A) (A) (A) (A) (A) (A) (A) (A)
                 (A) (A) (A) (A) (A) (A) (A) (A) (A) (A) (A) (A)
                 (A) (A) (A) (A) (A) (A) (A) (A) (A) (A) (A) (A)
                 (A) (A) (A) (A) (A) (A) (A) (A) (A) (A) (A) (A)
                 (A) (A) (A) (A) (A) (A) (A) (A) (A) (A) (A) (A)
                 (A) (A) (A) (A) (A) (A) (A) (A) (A) (A) (A) (A)
                 (A) (A) (A) (A) (A) (A) (A) (A) (A) (A) (A) (A)
                 (A) (A) (A) (A) (A) (A) (A) (A) (A) (A) (A) (A)
                 (A) (A) (A) (A) (A) (A) (A) (A) (A) (A) (A) (A)
                 (A) (A) (A) (A) (A) (A) (A) (A) (A) (A) (A) (A)
                 (A) (A) (A) (A) (A) (A) (A) (A) (A) (A) (A) (A)
                 (A) (A) (A) (A) (A) (A) (A) (A) (A) (A) (A) (A)
                 (A) (A) (A) (A) (A) (A) (A) (A) (A) (A) (A) (A)
                 (A) (A) (A) (A) (A) (A) (A) (A) (A) (A) (A) (A)
                 (A) (A) (A)
 The electronic state is 1-A.
 Alpha  occ. eigenvalues --  -19.29796 -19.24308 -19.24047 -19.23053 -14.48188
 Alpha  occ. eigenvalues --  -10.41835 -10.40827 -10.40530 -10.35307 -10.31970
 Alpha  occ. eigenvalues --  -10.31879 -10.31813 -10.31265 -10.31010 -10.29513
 Alpha  occ. eigenvalues --  -10.29359 -10.29304 -10.27905  -1.20854  -1.17609
 Alpha  occ. eigenvalues --   -1.15484  -1.12281  -1.06233  -0.94775  -0.91485
 Alpha  occ. eigenvalues --   -0.89193  -0.84983  -0.83282  -0.80518  -0.77395
 Alpha  occ. eigenvalues --   -0.75767  -0.71308  -0.70034  -0.67372  -0.64589
 Alpha  occ. eigenvalues --   -0.62278  -0.60015  -0.59570  -0.58973  -0.58064
 Alpha  occ. eigenvalues --   -0.57908  -0.55460  -0.55278  -0.53709  -0.53011
 Alpha  occ. eigenvalues --   -0.52866  -0.51974  -0.51179  -0.51104  -0.49586
 Alpha  occ. eigenvalues --   -0.49292  -0.48865  -0.48314  -0.47915  -0.47367
 Alpha  occ. eigenvalues --   -0.47021  -0.44857  -0.44422  -0.43600  -0.43385
 Alpha  occ. eigenvalues --   -0.38803  -0.38116  -0.36124  -0.35974  -0.35415
 Alpha  occ. eigenvalues --   -0.32486  -0.31113
 Alpha virt. eigenvalues --   -0.00798   0.01964   0.04318   0.04725   0.05094
 Alpha virt. eigenvalues --    0.05776   0.06698   0.06950   0.07204   0.07306
 Alpha virt. eigenvalues --    0.07851   0.08083   0.08620   0.09422   0.09454
 Alpha virt. eigenvalues --    0.09635   0.09919   0.10226   0.10669   0.10881
 Alpha virt. eigenvalues --    0.11586   0.11861   0.12222   0.12368   0.12576
 Alpha virt. eigenvalues --    0.12745   0.13435   0.13895   0.14081   0.14335
 Alpha virt. eigenvalues --    0.14672   0.14926   0.15160   0.15395   0.15623
 Alpha virt. eigenvalues --    0.15774   0.16276   0.16779   0.16988   0.17219
 Alpha virt. eigenvalues --    0.17287   0.18173   0.18349   0.18564   0.18794
 Alpha virt. eigenvalues --    0.19317   0.19435   0.19920   0.20182   0.20295
 Alpha virt. eigenvalues --    0.20596   0.21227   0.21756   0.21886   0.22131
 Alpha virt. eigenvalues --    0.22410   0.22868   0.23345   0.23423   0.23817
 Alpha virt. eigenvalues --    0.24062   0.24370   0.24628   0.25176   0.25354
 Alpha virt. eigenvalues --    0.25560   0.25982   0.26294   0.26689   0.27291
 Alpha virt. eigenvalues --    0.27698   0.27761   0.28371   0.28756   0.28866
 Alpha virt. eigenvalues --    0.29227   0.29602   0.30006   0.30375   0.30694
 Alpha virt. eigenvalues --    0.31004   0.31657   0.32014   0.32218   0.32476
 Alpha virt. eigenvalues --    0.32806   0.33319   0.33880   0.33983   0.34713
 Alpha virt. eigenvalues --    0.35038   0.35318   0.35986   0.36407   0.36715
 Alpha virt. eigenvalues --    0.37214   0.37725   0.37882   0.38439   0.39257
 Alpha virt. eigenvalues --    0.39770   0.40229   0.40633   0.40944   0.41792
 Alpha virt. eigenvalues --    0.42598   0.42750   0.43448   0.43697   0.44204
 Alpha virt. eigenvalues --    0.44659   0.44843   0.45772   0.45885   0.46915
 Alpha virt. eigenvalues --    0.47336   0.47722   0.48305   0.49316   0.49546
 Alpha virt. eigenvalues --    0.50092   0.50737   0.51269   0.51448   0.51922
 Alpha virt. eigenvalues --    0.52060   0.52305   0.53540   0.53744   0.54293
 Alpha virt. eigenvalues --    0.54782   0.55346   0.55717   0.56218   0.56538
 Alpha virt. eigenvalues --    0.57295   0.57783   0.58385   0.58704   0.58890
 Alpha virt. eigenvalues --    0.59545   0.59656   0.60437   0.60479   0.60801
 Alpha virt. eigenvalues --    0.61303   0.61764   0.62292   0.62710   0.63251
 Alpha virt. eigenvalues --    0.63855   0.64604   0.64986   0.65227   0.65382
 Alpha virt. eigenvalues --    0.65895   0.66609   0.67031   0.67419   0.67616
 Alpha virt. eigenvalues --    0.67750   0.68925   0.69353   0.69416   0.70347
 Alpha virt. eigenvalues --    0.70832   0.71490   0.71678   0.72665   0.73233
 Alpha virt. eigenvalues --    0.73832   0.74687   0.75961   0.76348   0.77259
 Alpha virt. eigenvalues --    0.78313   0.79145   0.79554   0.80329   0.80842
 Alpha virt. eigenvalues --    0.81176   0.82649   0.82736   0.83389   0.83497
 Alpha virt. eigenvalues --    0.84410   0.85052   0.85478   0.87647   0.88042
 Alpha virt. eigenvalues --    0.89008   0.90284   0.90784   0.91399   0.92167
 Alpha virt. eigenvalues --    0.93160   0.94063   0.94785   0.96086   0.96943
 Alpha virt. eigenvalues --    0.97522   0.97961   0.98901   1.00357   1.00867
 Alpha virt. eigenvalues --    1.01628   1.02588   1.04787   1.05232   1.06299
 Alpha virt. eigenvalues --    1.07708   1.08420   1.09036   1.09508   1.11337
 Alpha virt. eigenvalues --    1.12224   1.13129   1.13551   1.14356   1.14935
 Alpha virt. eigenvalues --    1.15618   1.16970   1.17355   1.17837   1.18889
 Alpha virt. eigenvalues --    1.19871   1.20114   1.21156   1.21270   1.21908
 Alpha virt. eigenvalues --    1.22819   1.24657   1.25265   1.26149   1.26457
 Alpha virt. eigenvalues --    1.27718   1.27960   1.28768   1.31005   1.31147
 Alpha virt. eigenvalues --    1.33112   1.33401   1.34440   1.35311   1.36800
 Alpha virt. eigenvalues --    1.37724   1.38385   1.39449   1.40624   1.41852
 Alpha virt. eigenvalues --    1.42413   1.42666   1.44680   1.44879   1.47413
 Alpha virt. eigenvalues --    1.49224   1.50346   1.51580   1.51789   1.54045
 Alpha virt. eigenvalues --    1.54233   1.57788   1.58190   1.60001   1.60125
 Alpha virt. eigenvalues --    1.61290   1.61511   1.62070   1.62558   1.63037
 Alpha virt. eigenvalues --    1.63719   1.64381   1.66227   1.66412   1.66975
 Alpha virt. eigenvalues --    1.67537   1.68371   1.68683   1.70208   1.70342
 Alpha virt. eigenvalues --    1.70905   1.71403   1.71773   1.72719   1.74006
 Alpha virt. eigenvalues --    1.74805   1.75165   1.75920   1.76212   1.76576
 Alpha virt. eigenvalues --    1.77852   1.78365   1.78980   1.79726   1.80348
 Alpha virt. eigenvalues --    1.81378   1.82266   1.83549   1.84866   1.86091
 Alpha virt. eigenvalues --    1.86668   1.89035   1.89338   1.90053   1.92313
 Alpha virt. eigenvalues --    1.93959   1.94805   1.95144   1.95591   1.97614
 Alpha virt. eigenvalues --    1.98381   1.98992   1.99630   2.00720   2.01151
 Alpha virt. eigenvalues --    2.02304   2.04392   2.05050   2.05420   2.06737
 Alpha virt. eigenvalues --    2.07855   2.09665   2.10599   2.12090   2.12752
 Alpha virt. eigenvalues --    2.13476   2.14592   2.15327   2.17409   2.17444
 Alpha virt. eigenvalues --    2.19263   2.20855   2.21404   2.21847   2.22157
 Alpha virt. eigenvalues --    2.24482   2.25121   2.25996   2.27766   2.28255
 Alpha virt. eigenvalues --    2.29648   2.31220   2.32855   2.34259   2.35038
 Alpha virt. eigenvalues --    2.37044   2.38855   2.39622   2.39798   2.41045
 Alpha virt. eigenvalues --    2.42448   2.42983   2.44365   2.44631   2.45092
 Alpha virt. eigenvalues --    2.45436   2.46234   2.46504   2.47397   2.48184
 Alpha virt. eigenvalues --    2.48978   2.49979   2.51135   2.51729   2.52932
 Alpha virt. eigenvalues --    2.53490   2.54122   2.55588   2.56469   2.57453
 Alpha virt. eigenvalues --    2.57884   2.58635   2.60132   2.60574   2.61175
 Alpha virt. eigenvalues --    2.61344   2.62521   2.63353   2.64754   2.65303
 Alpha virt. eigenvalues --    2.66182   2.67229   2.67916   2.68988   2.69297
 Alpha virt. eigenvalues --    2.70247   2.71393   2.72242   2.73667   2.74068
 Alpha virt. eigenvalues --    2.74735   2.75785   2.76284   2.77878   2.79062
 Alpha virt. eigenvalues --    2.79659   2.80415   2.83515   2.83780   2.85227
 Alpha virt. eigenvalues --    2.85358   2.86904   2.87632   2.88488   2.88685
 Alpha virt. eigenvalues --    2.90033   2.91077   2.91637   2.91861   2.94046
 Alpha virt. eigenvalues --    2.95085   2.95606   2.96552   2.97280   2.98246
 Alpha virt. eigenvalues --    3.00993   3.01413   3.01572   3.01962   3.03080
 Alpha virt. eigenvalues --    3.05000   3.05913   3.06304   3.08592   3.08968
 Alpha virt. eigenvalues --    3.09555   3.10554   3.10655   3.11949   3.13252
 Alpha virt. eigenvalues --    3.14711   3.15105   3.16230   3.16775   3.17516
 Alpha virt. eigenvalues --    3.17848   3.19038   3.19577   3.20496   3.20771
 Alpha virt. eigenvalues --    3.21219   3.22020   3.22901   3.23410   3.23738
 Alpha virt. eigenvalues --    3.25224   3.25976   3.26830   3.27722   3.28418
 Alpha virt. eigenvalues --    3.29817   3.30109   3.30748   3.31916   3.32617
 Alpha virt. eigenvalues --    3.33037   3.33990   3.34915   3.35928   3.36540
 Alpha virt. eigenvalues --    3.37317   3.38137   3.38466   3.38989   3.40533
 Alpha virt. eigenvalues --    3.41306   3.41733   3.42935   3.43346   3.44413
 Alpha virt. eigenvalues --    3.44673   3.45093   3.45851   3.47225   3.47658
 Alpha virt. eigenvalues --    3.48052   3.49371   3.50413   3.50887   3.51285
 Alpha virt. eigenvalues --    3.52074   3.53122   3.54072   3.54273   3.55942
 Alpha virt. eigenvalues --    3.56689   3.57899   3.57953   3.58842   3.60279
 Alpha virt. eigenvalues --    3.60921   3.62582   3.63640   3.63998   3.65104
 Alpha virt. eigenvalues --    3.66339   3.67670   3.67979   3.69492   3.70388
 Alpha virt. eigenvalues --    3.71683   3.73382   3.74882   3.74940   3.75423
 Alpha virt. eigenvalues --    3.75958   3.77418   3.78582   3.80637   3.81750
 Alpha virt. eigenvalues --    3.82575   3.83473   3.85700   3.86548   3.87899
 Alpha virt. eigenvalues --    3.89485   3.90207   3.90999   3.94211   3.96176
 Alpha virt. eigenvalues --    3.97681   3.99171   3.99923   4.00155   4.01868
 Alpha virt. eigenvalues --    4.04942   4.07745   4.08861   4.10104   4.11608
 Alpha virt. eigenvalues --    4.12561   4.13614   4.15425   4.16841   4.19541
 Alpha virt. eigenvalues --    4.21347   4.24183   4.25196   4.26581   4.27780
 Alpha virt. eigenvalues --    4.28709   4.30247   4.32010   4.33046   4.34853
 Alpha virt. eigenvalues --    4.37235   4.37625   4.41918   4.43109   4.44169
 Alpha virt. eigenvalues --    4.45130   4.47890   4.48457   4.50821   4.51370
 Alpha virt. eigenvalues --    4.52044   4.53846   4.55388   4.57607   4.59918
 Alpha virt. eigenvalues --    4.62585   4.63924   4.64377   4.66902   4.68265
 Alpha virt. eigenvalues --    4.69561   4.72222   4.72805   4.77373   4.79914
 Alpha virt. eigenvalues --    4.84046   4.85301   4.87086   4.87406   4.90007
 Alpha virt. eigenvalues --    4.91368   4.96044   4.98047   5.00901   5.04377
 Alpha virt. eigenvalues --    5.07559   5.09421   5.12012   5.12132   5.19787
 Alpha virt. eigenvalues --    5.21724   5.23398   5.24716   5.26248   5.27265
 Alpha virt. eigenvalues --    5.27525   5.30318   5.32036   5.35346   5.36054
 Alpha virt. eigenvalues --    5.36495   5.37701   5.41331   5.45161   5.51892
 Alpha virt. eigenvalues --    5.54201   5.58800   5.67017   5.71246   5.72936
 Alpha virt. eigenvalues --    5.73644   5.79888   5.84480   5.87979   5.93013
 Alpha virt. eigenvalues --    5.98576   6.00017   6.00775   6.13070   6.13332
 Alpha virt. eigenvalues --    6.28410   6.29400   6.30469   6.36909   6.45441
 Alpha virt. eigenvalues --    6.47273   6.49920   6.52348   6.53217   6.59061
 Alpha virt. eigenvalues --    6.60142   6.64540   6.65702   6.75255   6.84431
 Alpha virt. eigenvalues --    6.93542   6.93745   6.94863   6.96030   6.96991
 Alpha virt. eigenvalues --    6.99880   7.00482   7.17730   7.19374   7.23070
 Alpha virt. eigenvalues --    7.24263   7.28118   7.29459   7.35661   7.53274
 Alpha virt. eigenvalues --   22.49244  22.50087  22.57124  22.62631  22.62762
 Alpha virt. eigenvalues --   22.68703  22.82253  22.87753  23.01911  23.08248
 Alpha virt. eigenvalues --   23.36044  23.46663  23.76668  33.03342  44.12903
 Alpha virt. eigenvalues --   44.22432  44.36760  44.42956
          Condensed to atoms (all electrons):
               1          2          3          4          5          6
     1  C    7.929105  -1.191922  -0.585398  -1.148101  -0.047823   0.000597
     2  C   -1.191922   7.225964   1.436803  -0.417736   0.429579  -0.016668
     3  C   -0.585398   1.436803   7.449621  -1.014328  -0.015366   0.417978
     4  C   -1.148101  -0.417736  -1.014328   7.564986   0.009036  -0.021255
     5  H   -0.047823   0.429579  -0.015366   0.009036   0.431400  -0.001904
     6  H    0.000597  -0.016668   0.417978  -0.021255  -0.001904   0.422082
     7  C   -0.153488   0.008185  -0.046552  -0.110592  -0.001565  -0.002120
     8  H    0.063471  -0.007518   0.002603  -0.053035  -0.000045   0.000008
     9  H   -0.016470   0.008907   0.022232   0.044937   0.000000  -0.000033
    10  H   -0.034208   0.001927  -0.013016  -0.010897   0.000042   0.000013
    11  N    0.229438  -0.499252  -0.589785   0.372567   0.002490   0.001199
    12  O    0.095652   0.033222  -0.127521   0.277572   0.000293  -0.006469
    13  O    0.304223  -0.115811   0.010398   0.104331  -0.004891   0.000494
    14  C   -0.584035  -0.134585  -0.015039   0.516691  -0.021163   0.014430
    15  H   -0.007096  -0.002675   0.009539   0.002349   0.000733   0.000022
    16  C    0.439127   0.041566  -0.000328  -0.486994   0.013555  -0.022595
    17  H    0.000407   0.008845   0.003340  -0.006648  -0.000009   0.000518
    18  C   -0.129986  -0.232767  -0.252538   0.414418  -0.015408   0.006997
    19  H   -0.014888  -0.058245  -0.026950   0.033022   0.002817  -0.000045
    20  C   -0.183990   0.061298   0.102544   0.030306  -0.006984   0.000843
    21  H    0.084067  -0.027536  -0.007188  -0.013840  -0.000606  -0.000002
    22  H   -0.026564  -0.020424   0.002083   0.006401   0.001156   0.000006
    23  H   -0.024328   0.022373   0.007175   0.001669  -0.000307   0.000004
    24  C    0.736068  -0.224652  -0.089656  -0.558989   0.015555  -0.033882
    25  H    0.009930  -0.021294  -0.031409  -0.003228  -0.000052   0.001733
    26  C    0.026740  -0.159562  -0.507511   0.218322   0.000185   0.011206
    27  H    0.003234   0.009979   0.005403  -0.031097   0.000003  -0.000188
    28  H   -0.008293  -0.021810  -0.035034   0.085187   0.000007   0.001463
    29  C   -0.013422  -0.003191   0.021034   0.026189   0.000039  -0.000957
    30  C    0.004439   0.012665   0.028743  -0.049260  -0.000024   0.000775
    31  H   -0.000527   0.000080   0.000929  -0.005485   0.000000   0.000000
    32  H    0.000057  -0.000021  -0.000760   0.001049   0.000000  -0.000006
    33  H    0.000586   0.000137   0.000221   0.007731   0.000000  -0.000115
    34  O   -0.000565   0.014142   0.041369  -0.020757  -0.000267   0.002139
    35  O    0.000644  -0.001370  -0.008521   0.002722  -0.000006  -0.000485
               7          8          9         10         11         12
     1  C   -0.153488   0.063471  -0.016470  -0.034208   0.229438   0.095652
     2  C    0.008185  -0.007518   0.008907   0.001927  -0.499252   0.033222
     3  C   -0.046552   0.002603   0.022232  -0.013016  -0.589785  -0.127521
     4  C   -0.110592  -0.053035   0.044937  -0.010897   0.372567   0.277572
     5  H   -0.001565  -0.000045   0.000000   0.000042   0.002490   0.000293
     6  H   -0.002120   0.000008  -0.000033   0.000013   0.001199  -0.006469
     7  C    5.068913   0.415616   0.395348   0.442661   0.345290  -0.025078
     8  H    0.415616   0.501440  -0.020551  -0.026137  -0.044117   0.001837
     9  H    0.395348  -0.020551   0.486995  -0.017421  -0.077812   0.003160
    10  H    0.442661  -0.026137  -0.017421   0.506463  -0.015852  -0.001425
    11  N    0.345290  -0.044117  -0.077812  -0.015852   7.365346  -0.135873
    12  O   -0.025078   0.001837   0.003160  -0.001425  -0.135873   8.357194
    13  O   -0.010417  -0.004788   0.001398  -0.000446  -0.112359  -0.005720
    14  C    0.028186  -0.002008  -0.000753   0.001272   0.082652  -0.007057
    15  H   -0.000013   0.000000   0.000000   0.000000  -0.000167  -0.000010
    16  C   -0.005325   0.003197   0.000139  -0.000602  -0.019123   0.001828
    17  H   -0.000085   0.000000   0.000000   0.000000  -0.000468   0.000311
    18  C   -0.016214  -0.005205   0.001567   0.000098  -0.002532  -0.022533
    19  H   -0.002315  -0.000098   0.000027  -0.000019   0.004228  -0.000189
    20  C    0.002017  -0.003405  -0.000241   0.001639   0.001590  -0.003062
    21  H   -0.000383  -0.000047   0.000002   0.000009   0.005939   0.000084
    22  H    0.000291   0.000001   0.000000   0.000000   0.000026  -0.000042
    23  H   -0.000145   0.000002   0.000000   0.000000  -0.001543  -0.000002
    24  C   -0.025061   0.008316  -0.000686  -0.003657  -0.032244  -0.006187
    25  H   -0.002929  -0.000083   0.000098  -0.000030  -0.000434   0.004002
    26  C    0.043168   0.000049  -0.006916   0.002518   0.143154   0.055135
    27  H    0.000586  -0.000001  -0.000002   0.000000  -0.000827   0.005253
    28  H   -0.001264   0.000005  -0.000020   0.000006   0.006275  -0.014030
    29  C   -0.002717  -0.000091   0.000133   0.000075  -0.001589  -0.012705
    30  C   -0.000285   0.000062   0.000046  -0.000083  -0.005211   0.006692
    31  H    0.000058   0.000000   0.000000   0.000000  -0.000118   0.000783
    32  H    0.000006   0.000000   0.000000   0.000000   0.000019  -0.000153
    33  H   -0.000022   0.000000   0.000000   0.000000   0.000193   0.000725
    34  O   -0.000823   0.000001   0.000034   0.000001  -0.004566   0.001732
    35  O    0.000003   0.000000   0.000000   0.000000   0.000078  -0.000602
              13         14         15         16         17         18
     1  C    0.304223  -0.584035  -0.007096   0.439127   0.000407  -0.129986
     2  C   -0.115811  -0.134585  -0.002675   0.041566   0.008845  -0.232767
     3  C    0.010398  -0.015039   0.009539  -0.000328   0.003340  -0.252538
     4  C    0.104331   0.516691   0.002349  -0.486994  -0.006648   0.414418
     5  H   -0.004891  -0.021163   0.000733   0.013555  -0.000009  -0.015408
     6  H    0.000494   0.014430   0.000022  -0.022595   0.000518   0.006997
     7  C   -0.010417   0.028186  -0.000013  -0.005325  -0.000085  -0.016214
     8  H   -0.004788  -0.002008   0.000000   0.003197   0.000000  -0.005205
     9  H    0.001398  -0.000753   0.000000   0.000139   0.000000   0.001567
    10  H   -0.000446   0.001272   0.000000  -0.000602   0.000000   0.000098
    11  N   -0.112359   0.082652  -0.000167  -0.019123  -0.000468  -0.002532
    12  O   -0.005720  -0.007057  -0.000010   0.001828   0.000311  -0.022533
    13  O    8.313174   0.025087   0.000160  -0.008078  -0.000019   0.008437
    14  C    0.025087   6.281452   0.414864  -0.382488  -0.014892   0.726498
    15  H    0.000160   0.414864   0.481461  -0.008785  -0.003434  -0.062104
    16  C   -0.008078  -0.382488  -0.008785   6.129619   0.407882  -0.815327
    17  H   -0.000019  -0.014892  -0.003434   0.407882   0.454026   0.008600
    18  C    0.008437   0.726498  -0.062104  -0.815327   0.008600   6.968411
    19  H    0.001777  -0.029920   0.002548   0.003891  -0.000155   0.427888
    20  C   -0.007337   0.110030   0.005183  -0.068912   0.002212  -0.112855
    21  H   -0.004263  -0.031164  -0.000069   0.034979   0.000005  -0.081306
    22  H    0.004052   0.070411   0.001769  -0.004483  -0.000021  -0.105688
    23  H    0.000921  -0.027898   0.000338  -0.029213  -0.000008  -0.036325
    24  C   -0.029937  -0.782652   0.001462   1.086890  -0.047504  -0.110194
    25  H   -0.000186   0.012031  -0.000041  -0.042005   0.001950   0.031029
    26  C   -0.000064  -0.132718   0.000401  -0.176706   0.001319  -0.599090
    27  H   -0.000030  -0.002921  -0.000005  -0.007898   0.000746  -0.002873
    28  H    0.000120   0.007598   0.000007  -0.003484  -0.000385   0.007157
    29  C    0.000128   0.000346   0.000241  -0.002167  -0.001408   0.033567
    30  C    0.000007  -0.004218  -0.000019   0.011214   0.000461   0.001329
    31  H    0.000000  -0.001697   0.000000  -0.004510   0.000013  -0.001754
    32  H    0.000000  -0.000120   0.000000  -0.001542   0.000000  -0.000111
    33  H    0.000000   0.001672   0.000000   0.008060  -0.000002   0.002458
    34  O    0.000065   0.050013   0.000223  -0.003094  -0.007128   0.007342
    35  O    0.000001  -0.001940  -0.000009  -0.010542  -0.000431  -0.000508
              19         20         21         22         23         24
     1  C   -0.014888  -0.183990   0.084067  -0.026564  -0.024328   0.736068
     2  C   -0.058245   0.061298  -0.027536  -0.020424   0.022373  -0.224652
     3  C   -0.026950   0.102544  -0.007188   0.002083   0.007175  -0.089656
     4  C    0.033022   0.030306  -0.013840   0.006401   0.001669  -0.558989
     5  H    0.002817  -0.006984  -0.000606   0.001156  -0.000307   0.015555
     6  H   -0.000045   0.000843  -0.000002   0.000006   0.000004  -0.033882
     7  C   -0.002315   0.002017  -0.000383   0.000291  -0.000145  -0.025061
     8  H   -0.000098  -0.003405  -0.000047   0.000001   0.000002   0.008316
     9  H    0.000027  -0.000241   0.000002   0.000000   0.000000  -0.000686
    10  H   -0.000019   0.001639   0.000009   0.000000   0.000000  -0.003657
    11  N    0.004228   0.001590   0.005939   0.000026  -0.001543  -0.032244
    12  O   -0.000189  -0.003062   0.000084  -0.000042  -0.000002  -0.006187
    13  O    0.001777  -0.007337  -0.004263   0.004052   0.000921  -0.029937
    14  C   -0.029920   0.110030  -0.031164   0.070411  -0.027898  -0.782652
    15  H    0.002548   0.005183  -0.000069   0.001769   0.000338   0.001462
    16  C    0.003891  -0.068912   0.034979  -0.004483  -0.029213   1.086890
    17  H   -0.000155   0.002212   0.000005  -0.000021  -0.000008  -0.047504
    18  C    0.427888  -0.112855  -0.081306  -0.105688  -0.036325  -0.110194
    19  H    0.519769   0.001345  -0.003600   0.003957  -0.002810  -0.020541
    20  C    0.001345   5.353947   0.403335   0.463801   0.466943  -0.145842
    21  H   -0.003600   0.403335   0.483863  -0.023966  -0.022087   0.024441
    22  H    0.003957   0.463801  -0.023966   0.522370  -0.017830  -0.020751
    23  H   -0.002810   0.466943  -0.022087  -0.017830   0.520049  -0.013186
    24  C   -0.020541  -0.145842   0.024441  -0.020751  -0.013186   6.395930
    25  H    0.005876   0.000326  -0.000023   0.000026  -0.000014   0.421921
    26  C   -0.014270  -0.020201   0.001258  -0.000537  -0.001787  -0.314565
    27  H   -0.000025  -0.000518   0.000000   0.000000  -0.000001  -0.016148
    28  H    0.000068   0.000430  -0.000001   0.000000   0.000001  -0.044303
    29  C    0.000465   0.001510  -0.000022  -0.000005   0.000031   0.068046
    30  C   -0.000118  -0.000533   0.000000   0.000004  -0.000001   0.060972
    31  H    0.000000  -0.000038   0.000000   0.000000   0.000000  -0.024628
    32  H    0.000000   0.000000   0.000000   0.000000   0.000000  -0.006348
    33  H    0.000000   0.000033   0.000000   0.000000   0.000000   0.037064
    34  O   -0.000409   0.002086  -0.000011   0.000030   0.000005  -0.090220
    35  O   -0.000004  -0.000149   0.000000   0.000000   0.000000   0.010077
              25         26         27         28         29         30
     1  C    0.009930   0.026740   0.003234  -0.008293  -0.013422   0.004439
     2  C   -0.021294  -0.159562   0.009979  -0.021810  -0.003191   0.012665
     3  C   -0.031409  -0.507511   0.005403  -0.035034   0.021034   0.028743
     4  C   -0.003228   0.218322  -0.031097   0.085187   0.026189  -0.049260
     5  H   -0.000052   0.000185   0.000003   0.000007   0.000039  -0.000024
     6  H    0.001733   0.011206  -0.000188   0.001463  -0.000957   0.000775
     7  C   -0.002929   0.043168   0.000586  -0.001264  -0.002717  -0.000285
     8  H   -0.000083   0.000049  -0.000001   0.000005  -0.000091   0.000062
     9  H    0.000098  -0.006916  -0.000002  -0.000020   0.000133   0.000046
    10  H   -0.000030   0.002518   0.000000   0.000006   0.000075  -0.000083
    11  N   -0.000434   0.143154  -0.000827   0.006275  -0.001589  -0.005211
    12  O    0.004002   0.055135   0.005253  -0.014030  -0.012705   0.006692
    13  O   -0.000186  -0.000064  -0.000030   0.000120   0.000128   0.000007
    14  C    0.012031  -0.132718  -0.002921   0.007598   0.000346  -0.004218
    15  H   -0.000041   0.000401  -0.000005   0.000007   0.000241  -0.000019
    16  C   -0.042005  -0.176706  -0.007898  -0.003484  -0.002167   0.011214
    17  H    0.001950   0.001319   0.000746  -0.000385  -0.001408   0.000461
    18  C    0.031029  -0.599090  -0.002873   0.007157   0.033567   0.001329
    19  H    0.005876  -0.014270  -0.000025   0.000068   0.000465  -0.000118
[...]
    17  H    0.000016   0.008141   0.002361  -0.005424   0.000000   0.000522
    18  C   -0.141546  -0.359038  -0.305920   0.523680  -0.013521   0.005393
    19  H   -0.004800  -0.049132  -0.031362   0.029151   0.002938  -0.000095
    20  C   -0.093375   0.058439   0.083854  -0.012747  -0.007729   0.001143
    21  H    0.085999  -0.029120  -0.009098  -0.014084  -0.000640  -0.000003
    22  H   -0.026445  -0.020219   0.002740   0.006024   0.001274   0.000006
    23  H   -0.024347   0.022648   0.007498   0.001559  -0.000302   0.000005
    24  C    0.624509  -0.229922  -0.100947  -0.432401   0.018321  -0.039511
    25  H    0.016233  -0.021870  -0.043810  -0.010066  -0.000036   0.001947
    26  C   -0.004561  -0.100723  -0.349805   0.104774  -0.000817   0.016482
    27  H    0.002835   0.011568   0.009709  -0.033483   0.000002  -0.000130
    28  H   -0.007744  -0.022240  -0.036250   0.081616   0.000011   0.001001
    29  C   -0.000149   0.005282   0.022088  -0.007881   0.000034  -0.001236
    30  C   -0.001513   0.009280   0.024312  -0.030976   0.000004   0.001165
    31  H   -0.000552   0.000162   0.001490  -0.006234   0.000000   0.000002
    32  H    0.000060  -0.000041  -0.000904   0.001170   0.000000  -0.000005
    33  H    0.000653   0.000101  -0.000509   0.008693   0.000000  -0.000121
    34  O    0.000204   0.004959   0.016292   0.000854  -0.000253   0.001942
    35  O    0.000592  -0.001627  -0.008449   0.003276  -0.000005  -0.000553
               7          8          9         10         11         12
     1  C   -0.141148  -0.043181  -0.015050   0.038056   0.354793   0.082771
     2  C   -0.030468  -0.004609  -0.002416   0.021953  -0.646086   0.033229
     3  C   -0.003630  -0.015183   0.006394   0.012343  -0.444135  -0.121006
     4  C   -0.121645   0.058751  -0.031494  -0.011832   0.249708   0.309598
     5  H   -0.002413   0.000005   0.000018  -0.000034   0.000208   0.000325
     6  H   -0.001296  -0.000033   0.000032  -0.000005   0.004223  -0.006506
     7  C    5.067796   0.418728   0.437830   0.397092   0.343518  -0.016299
     8  H    0.418728   0.504864  -0.027797  -0.020145  -0.037668  -0.004862
     9  H    0.437830  -0.027797   0.508529  -0.016716  -0.024932  -0.001379
    10  H    0.397092  -0.020145  -0.016716   0.483616  -0.079269   0.002018
    11  N    0.343518  -0.037668  -0.024932  -0.079269   7.355525  -0.129445
    12  O   -0.016299  -0.004862  -0.001379   0.002018  -0.129445   8.333043
    13  O   -0.022745   0.001761  -0.000540   0.002345  -0.118916  -0.005194
    14  C    0.030960   0.002543   0.000119  -0.000688   0.061140  -0.000636
    15  H   -0.000040   0.000000   0.000000   0.000000  -0.000461  -0.000019
    16  C   -0.005116  -0.000705  -0.000196   0.000260   0.001525  -0.006386
    17  H   -0.000048   0.000000   0.000000   0.000000  -0.000149   0.000256
    18  C   -0.010336   0.009918  -0.002973  -0.006756  -0.007839  -0.024298
    19  H   -0.003568  -0.000060  -0.000033   0.000073  -0.003076  -0.000619
    20  C    0.000064  -0.001079   0.000727  -0.000850  -0.007329  -0.002525
    21  H   -0.000688   0.000001   0.000001  -0.000010   0.005566   0.000094
    22  H    0.000344   0.000000   0.000000   0.000000  -0.000133  -0.000045
    23  H   -0.000042   0.000000   0.000000   0.000000  -0.001360  -0.000005
    24  C   -0.028719   0.000737  -0.001227  -0.000211  -0.012605  -0.022138
    25  H   -0.001389  -0.000106  -0.000023   0.000005   0.007110   0.001544
    26  C    0.037119  -0.010282   0.005246   0.000791   0.139325   0.060754
    27  H    0.000525   0.000000   0.000000   0.000000  -0.000680   0.005008
    28  H   -0.001121  -0.000070   0.000024   0.000004   0.006116  -0.011004
    29  C   -0.002005  -0.000040   0.000020  -0.000029  -0.002204  -0.013300
    30  C   -0.000434   0.000076  -0.000060   0.000026  -0.004055   0.006378
    31  H    0.000033   0.000000   0.000000   0.000000  -0.000118   0.000867
    32  H    0.000006   0.000000   0.000000   0.000000   0.000019  -0.000143
    33  H    0.000020   0.000000   0.000000   0.000000   0.000140   0.000652
    34  O   -0.000156   0.000070  -0.000030  -0.000001  -0.004157   0.001017
    35  O    0.000032   0.000000   0.000000   0.000000   0.000066  -0.000265
              13         14         15         16         17         18
     1  C    0.304709  -0.527241  -0.006532   0.380612   0.000016  -0.141546
     2  C   -0.135653  -0.209831  -0.002919   0.076563   0.008141  -0.359038
     3  C    0.011681  -0.041174   0.009071   0.050329   0.002361  -0.305920
     4  C    0.102543   0.548136   0.002729  -0.501609  -0.005424   0.523680
     5  H   -0.005469  -0.025500   0.000731   0.016289   0.000000  -0.013521
     6  H    0.000496   0.014714   0.000010  -0.023679   0.000522   0.005393
     7  C   -0.022745   0.030960  -0.000040  -0.005116  -0.000048  -0.010336
     8  H    0.001761   0.002543   0.000000  -0.000705   0.000000   0.009918
     9  H   -0.000540   0.000119   0.000000  -0.000196   0.000000  -0.002973
    10  H    0.002345  -0.000688   0.000000   0.000260   0.000000  -0.006756
    11  N   -0.118916   0.061140  -0.000461   0.001525  -0.000149  -0.007839
    12  O   -0.005194  -0.000636  -0.000019  -0.006386   0.000256  -0.024298
    13  O    8.334138   0.026066   0.000193  -0.010386  -0.000012   0.023183
    14  C    0.026066   6.309230   0.413839  -0.411982  -0.013725   0.752084
    15  H    0.000193   0.413839   0.482289  -0.010804  -0.003674  -0.058617
    16  C   -0.010386  -0.411982  -0.010804   6.155730   0.405342  -0.825032
    17  H   -0.000012  -0.013725  -0.003674   0.405342   0.451932   0.008277
    18  C    0.023183   0.752084  -0.058617  -0.825032   0.008277   6.983067
    19  H    0.002774  -0.031954   0.002772  -0.001115  -0.000201   0.429633
    20  C   -0.008955   0.053438   0.004032  -0.027177   0.002325  -0.126083
    21  H   -0.004961  -0.031458  -0.000087   0.034741   0.000005  -0.078783
    22  H    0.003814   0.066816   0.001659  -0.005245  -0.000021  -0.100336
    23  H    0.000886  -0.027246   0.000323  -0.029146  -0.000009  -0.037581
    24  C   -0.027473  -0.758921   0.003162   1.080840  -0.046295  -0.055558
    25  H    0.000247   0.014525  -0.000046  -0.042169   0.001834   0.021289
    26  C   -0.003699  -0.117732  -0.000541  -0.201881   0.003320  -0.636168
    27  H   -0.000025  -0.000254  -0.000003  -0.012093   0.000654  -0.003580
    28  H    0.000082   0.004851   0.000007  -0.002217  -0.000384   0.007373
    29  C    0.000126  -0.008810   0.000250   0.016495  -0.001026   0.034930
    30  C    0.000033  -0.001190  -0.000002   0.006193   0.000223   0.001364
    31  H    0.000000  -0.001379   0.000000  -0.003690   0.000011  -0.001695
    32  H    0.000000  -0.000130   0.000000  -0.001601   0.000001  -0.000121
    33  H    0.000000   0.001695   0.000000   0.007666  -0.000003   0.002439
    34  O    0.000052   0.053855   0.000203  -0.004996  -0.007398   0.008075
    35  O    0.000000  -0.002307  -0.000010  -0.010270  -0.000438  -0.000381
              19         20         21         22         23         24
     1  C   -0.004800  -0.093375   0.085999  -0.026445  -0.024347   0.624509
     2  C   -0.049132   0.058439  -0.029120  -0.020219   0.022648  -0.229922
     3  C   -0.031362   0.083854  -0.009098   0.002740   0.007498  -0.100947
     4  C    0.029151  -0.012747  -0.014084   0.006024   0.001559  -0.432401
     5  H    0.002938  -0.007729  -0.000640   0.001274  -0.000302   0.018321
     6  H   -0.000095   0.001143  -0.000003   0.000006   0.000005  -0.039511
     7  C   -0.003568   0.000064  -0.000688   0.000344  -0.000042  -0.028719
     8  H   -0.000060  -0.001079   0.000001   0.000000   0.000000   0.000737
     9  H   -0.000033   0.000727   0.000001   0.000000   0.000000  -0.001227
    10  H    0.000073  -0.000850  -0.000010   0.000000   0.000000  -0.000211
    11  N   -0.003076  -0.007329   0.005566  -0.000133  -0.001360  -0.012605
    12  O   -0.000619  -0.002525   0.000094  -0.000045  -0.000005  -0.022138
    13  O    0.002774  -0.008955  -0.004961   0.003814   0.000886  -0.027473
    14  C   -0.031954   0.053438  -0.031458   0.066816  -0.027246  -0.758921
    15  H    0.002772   0.004032  -0.000087   0.001659   0.000323   0.003162
    16  C   -0.001115  -0.027177   0.034741  -0.005245  -0.029146   1.080840
    17  H   -0.000201   0.002325   0.000005  -0.000021  -0.000009  -0.046295
    18  C    0.429633  -0.126083  -0.078783  -0.100336  -0.037581  -0.055558
    19  H    0.524131  -0.001462  -0.004226   0.004205  -0.002725  -0.017753
    20  C   -0.001462   5.334685   0.405588   0.463731   0.465995  -0.122733
    21  H   -0.004226   0.405588   0.485283  -0.024216  -0.022271   0.023958
    22  H    0.004205   0.463731  -0.024216   0.521780  -0.018181  -0.020790
    23  H   -0.002725   0.465995  -0.022271  -0.018181   0.519792  -0.012367
    24  C   -0.017753  -0.122733   0.023958  -0.020790  -0.012367   6.447505
    25  H    0.005707  -0.000469  -0.000019   0.000023  -0.000021   0.421296
    26  C   -0.015614  -0.009802   0.001139  -0.000867  -0.001427  -0.468602
    27  H   -0.000031  -0.000444   0.000000   0.000000  -0.000001  -0.027323
    28  H    0.000088   0.000502  -0.000001   0.000000   0.000001  -0.039121
    29  C    0.000536   0.000994  -0.000028   0.000010   0.000028   0.101317
    30  C   -0.000102  -0.000151   0.000002   0.000003  -0.000002   0.050151
    31  H    0.000000  -0.000040   0.000000   0.000000   0.000000  -0.023940
    32  H    0.000000   0.000000   0.000000   0.000000   0.000000  -0.006696
    33  H    0.000000   0.000031   0.000000   0.000000   0.000000   0.036147
    34  O   -0.000399   0.000741  -0.000009   0.000026   0.000002  -0.081183
    35  O   -0.000005  -0.000163   0.000000   0.000000   0.000000   0.012948
              25         26         27         28         29         30
     1  C    0.016233  -0.004561   0.002835  -0.007744  -0.000149  -0.001513
     2  C   -0.021870  -0.100723   0.011568  -0.022240   0.005282   0.009280
     3  C   -0.043810  -0.349805   0.009709  -0.036250   0.022088   0.024312
     4  C   -0.010066   0.104774  -0.033483   0.081616  -0.007881  -0.030976
     5  H   -0.000036  -0.000817   0.000002   0.000011   0.000034   0.000004
     6  H    0.001947   0.016482  -0.000130   0.001001  -0.001236   0.001165
     7  C   -0.001389   0.037119   0.000525  -0.001121  -0.002005  -0.000434
     8  H   -0.000106  -0.010282   0.000000  -0.000070  -0.000040   0.000076
     9  H   -0.000023   0.005246   0.000000   0.000024   0.000020  -0.000060
    10  H    0.000005   0.000791   0.000000   0.000004  -0.000029   0.000026
    11  N    0.007110   0.139325  -0.000680   0.006116  -0.002204  -0.004055
    12  O    0.001544   0.060754   0.005008  -0.011004  -0.013300   0.006378
    13  O    0.000247  -0.003699  -0.000025   0.000082   0.000126   0.000033
    14  C    0.014525  -0.117732  -0.000254   0.004851  -0.008810  -0.001190
    15  H   -0.000046  -0.000541  -0.000003   0.000007   0.000250  -0.000002
    16  C   -0.042169  -0.201881  -0.012093  -0.002217   0.016495   0.006193
    17  H    0.001834   0.003320   0.000654  -0.000384  -0.001026   0.000223
    18  C    0.021289  -0.636168  -0.003580   0.007373   0.034930   0.001364
    19  H    0.005707  -0.015614  -0.000031   0.000088   0.000536  -0.000102
    20  C   -0.000469  -0.009802  -0.000444   0.000502   0.000994  -0.000151
    21  H   -0.000019   0.001139   0.000000  -0.000001  -0.000028   0.000002
    22  H    0.000023  -0.000867   0.000000   0.000000   0.000010   0.000003
    23  H   -0.000021  -0.001427  -0.000001   0.000001   0.000028  -0.000002
    24  C    0.421296  -0.468602  -0.027323  -0.039121   0.101317   0.050151
    25  H    0.496107  -0.055198   0.001104  -0.004622   0.002965  -0.000454
    26  C   -0.055198   7.097211   0.435965   0.402474  -0.245962  -0.093183
    27  H    0.001104   0.435965   0.533934  -0.043965  -0.007199   0.000693
    28  H   -0.004622   0.402474  -0.043965   0.523460  -0.002181  -0.002123
    29  C    0.002965  -0.245962  -0.007199  -0.002181   5.170566   0.063264
    30  C   -0.000454  -0.093183   0.000693  -0.002123   0.063264   5.268051
    31  H   -0.000098   0.044068  -0.001421  -0.006352  -0.074484   0.442462
    32  H    0.000001   0.024333   0.000058   0.000519  -0.038972   0.401909
    33  H    0.000040  -0.097764   0.000611  -0.000899  -0.026897   0.428021
    34  O    0.003243   0.124023  -0.041393  -0.033267   0.117843  -0.003789
    35  O   -0.000036   0.014595   0.001104   0.000135   0.417091  -0.047363
              31         32         33         34         35
     1  C   -0.000552   0.000060   0.000653   0.000204   0.000592
     2  C    0.000162  -0.000041   0.000101   0.004959  -0.001627
     3  C    0.001490  -0.000904  -0.000509   0.016292  -0.008449
     4  C   -0.006234   0.001170   0.008693   0.000854   0.003276
     5  H    0.000000   0.000000   0.000000  -0.000253  -0.000005
     6  H    0.000002  -0.000005  -0.000121   0.001942  -0.000553
     7  C    0.000033   0.000006   0.000020  -0.000156   0.000032
     8  H    0.000000   0.000000   0.000000   0.000070   0.000000
     9  H    0.000000   0.000000   0.000000  -0.000030   0.000000
    10  H    0.000000   0.000000   0.000000  -0.000001   0.000000
    11  N   -0.000118   0.000019   0.000140  -0.004157   0.000066
    12  O    0.000867  -0.000143   0.000652   0.001017  -0.000265
    13  O    0.000000   0.000000   0.000000   0.000052   0.000000
    14  C   -0.001379  -0.000130   0.001695   0.053855  -0.002307
    15  H    0.000000   0.000000   0.000000   0.000203  -0.000010
    16  C   -0.003690  -0.001601   0.007666  -0.004996  -0.010270
    17  H    0.000011   0.000001  -0.000003  -0.007398  -0.000438
    18  C   -0.001695  -0.000121   0.002439   0.008075  -0.000381
    19  H    0.000000   0.000000   0.000000  -0.000399  -0.000005
    20  C   -0.000040   0.000000   0.000031   0.000741  -0.000163
    21  H    0.000000   0.000000   0.000000  -0.000009   0.000000
    22  H    0.000000   0.000000   0.000000   0.000026   0.000000
    23  H    0.000000   0.000000   0.000000   0.000002   0.000000
    24  C   -0.023940  -0.006696   0.036147  -0.081183   0.012948
    25  H   -0.000098   0.000001   0.000040   0.003243  -0.000036
    26  C    0.044068   0.024333  -0.097764   0.124023   0.014595
    27  H   -0.001421   0.000058   0.000611  -0.041393   0.001104
    28  H   -0.006352   0.000519  -0.000899  -0.033267   0.000135
    29  C   -0.074484  -0.038972  -0.026897   0.117843   0.417091
    30  C    0.442462   0.401909   0.428021  -0.003789  -0.047363
    31  H    0.503813  -0.014099  -0.028325  -0.000281  -0.000201
    32  H   -0.014099   0.465139  -0.009896  -0.000719   0.000487
    33  H   -0.028325  -0.009896   0.461751   0.020618  -0.002715
    34  O   -0.000281  -0.000719   0.020618   8.227923  -0.079901
    35  O   -0.000201   0.000487  -0.002715  -0.079901   8.142885
 Mulliken charges:
               1
     1  C    0.242832
     2  C   -0.189294
     3  C   -0.201704
     4  C    0.257738
     5  H    0.207009
     6  H    0.218861
     7  C   -0.340764
     8  H    0.168363
     9  H    0.165926
    10  H    0.177962
    11  N   -0.004368
    12  O   -0.471478
    13  O   -0.471098
    14  C   -0.141853
    15  H    0.162484
    16  C   -0.095090
    17  H    0.193590
    18  C   -0.014541
    19  H    0.166323
    20  C   -0.453175
    21  H    0.177325
    22  H    0.144044
    23  H    0.158296
    24  C   -0.244455
    25  H    0.185216
    26  C   -0.096993
    27  H    0.168253
    28  H    0.185296
    29  C    0.478565
    30  C   -0.518211
    31  H    0.169999
    32  H    0.179625
    33  H    0.197852
    34  O   -0.324013
    35  O   -0.438522
 Sum of Mulliken charges =   0.00000
 Mulliken charges with hydrogens summed into heavy atoms:
               1
     1  C    0.242832
     2  C    0.017715
     3  C    0.017158
     4  C    0.257738
     7  C    0.171487
    11  N   -0.004368
    12  O   -0.471478
    13  O   -0.471098
    14  C    0.020631
    16  C    0.098500
    18  C    0.151781
    20  C    0.026490
    24  C   -0.059240
    26  C    0.256556
    29  C    0.478565
    30  C    0.029265
    34  O   -0.324013
    35  O   -0.438522
 Electronic spatial extent (au):  <R**2>=           5244.0023
 Charge=              0.0000 electrons
 Dipole moment (field-independent basis, Debye):
    X=             -1.6549    Y=              0.0122    Z=             -3.7588  Tot=              4.1070
 Quadrupole moment (field-independent basis, Debye-Ang):
   XX=           -129.5381   YY=           -104.1427   ZZ=           -104.6072
   XY=            -10.5650   XZ=             -9.2873   YZ=              1.7110
 Traceless Quadrupole moment (field-independent basis, Debye-Ang):
   XX=            -16.7754   YY=              8.6200   ZZ=              8.1555
   XY=            -10.5650   XZ=             -9.2873   YZ=              1.7110
 Octapole moment (field-independent basis, Debye-Ang**2):
  XXX=              2.1062  YYY=              5.1871  ZZZ=             -1.9537  XYY=            -27.4923
  XXY=            -47.6776  XXZ=            -82.1100  XZZ=             -6.3293  YZZ=             -9.5040
  YYZ=              4.5994  XYZ=            -15.1455
 Hexadecapole moment (field-independent basis, Debye-Ang**3):
 XXXX=          -5299.3572 YYYY=          -1783.3843 ZZZZ=           -406.6731 XXXY=           -271.5932
 XXXZ=           -196.5050 YYYX=             60.8882 YYYZ=             34.7770 ZZZX=            -18.3407
 ZZZY=             15.2523 XXYY=           -999.7081 XXZZ=           -877.5973 YYZZ=           -377.3991
 XXYZ=            -22.6687 YYXZ=              4.6271 ZZXY=             -5.5883
 N-N= 1.363414710464D+03 E-N=-4.737165810742D+03  KE= 8.573157375567D+02
 1\1\GINC-D12S4B1\FTS\RwB97XD\Gen\C13H17N1O4\PMMASS\10-Feb-2022\0\\#n w
 B97XD/Gen scrf(smd,solvent=toluene) opt=(calcfc,ts,noeigentest)\\ts di
 els alder toluene - opt\\0,1\C,-2.63798183,0.7786672455,-0.5930863674\
 C,-1.6655618316,-0.2052906935,-1.1303677378\C,-0.3936340764,0.29948461
 42,-0.9168980022\C,-0.5445543464,1.6160514124,-0.2411102436\H,-1.96064
 76558,-0.8748451238,-1.9206933133\H,0.4726268594,0.1065920157,-1.52863
 79395\C,-2.4496593295,2.933913106,0.6849335903\H,-1.9682362176,3.08884
 52534,1.649856685\H,-2.3135606345,3.8291054672,0.0764598363\H,-3.51340
 47127,2.7613915232,0.8330122517\N,-1.8917191547,1.775618504,0.03218577
 36\O,0.3095652069,2.4267681116,0.0376580075\O,-3.8430272148,0.77077097
 66,-0.6638709764\C,-0.9420723027,-2.5696891561,0.2062268627\H,-1.02643
 15454,-3.5315273611,-0.2900272795\C,0.3375218904,-2.0528282056,0.40005
 61676\H,1.1796374036,-2.6279546158,0.0334987296\C,-2.0953021068,-1.842
 5148089,0.4037022883\H,-2.0785977045,-1.0347276147,1.1278209087\C,-3.4
 487181856,-2.3915417728,0.0931284638\H,-4.1247568301,-1.6037315538,-0.
 2419823154\H,-3.4020237994,-3.165752017,-0.6739675311\H,-3.8888393079,
 -2.8296269395,0.9941096591\C,0.5615817957,-0.7547612003,0.802437717\H,
 -0.1631417815,-0.2676945729,1.4455438848\C,1.931126057,-0.1680971446,0
 .9245124011\H,2.3312187122,-0.3794986493,1.9224335977\H,1.8698702443,0
 .9140726331,0.8014902406\C,3.9980320319,-0.244786961,-0.3268862619\C,4
 .4312439393,0.9856148437,0.4180074129\H,4.3345281237,0.857293411,1.496
 8303808\H,5.4672520979,1.1945941103,0.167473179\H,3.8131128287,1.83794
 56857,0.1275150583\O,2.7783044652,-0.7481041384,-0.0626621772\O,4.6708
 889118,-0.7972363844,-1.1525829508\\Version=ES64L-G09RevD.01\State=1-A
 \HF=-861.2937406\RMSD=2.632e-09\RMSF=5.062e-06\Dipole=-0.6616051,-0.01
 19443,1.4741007\Quadrupole=-11.9856941,5.7772106,6.2084835,8.3603844,6
 .988697,1.0779282\PG=C01 [X(C13H17N1O4)]\\@


 THE MORE POWERFUL THE METHOD, THE MORE CATASTROPHIC THE ERRORS.
     -- M.D. KAMEN
 Job cpu time:       9 days 14 hours 16 minutes 41.7 seconds.
 File lengths (MBytes):  RWF=   2442 Int=      0 D2E=      0 Chk=     45 Scr=      1
 Normal termination of Gaussian 09 at Thu Feb 10 17:48:37 2022.
