 Entering Gaussian System, Link 0=g09
 Input=diene_freq.com
 Output=diene_freq.log
 Initial command:
 /apps/applications/gaussian/G09.D01/2/default/g09/l1.exe "/nobackup/pmmass/Temp/Gau-109907.inp" -scrdir="/nobackup/pmmass/Temp/"
 Entering Link 1 = /apps/applications/gaussian/G09.D01/2/default/g09/l1.exe PID=    109908.
  
 Copyright (c) 1988,1990,1992,1993,1995,1998,2003,2009,2013,
            Gaussian, Inc.  All Rights Reserved.
  
 This is part of the Gaussian(R) 09 program.  It is based on
 the Gaussian(R) 03 system (copyright 2003, Gaussian, Inc.),
 the Gaussian(R) 98 system (copyright 1998, Gaussian, Inc.),
 the Gaussian(R) 94 system (copyright 1995, Gaussian, Inc.),
 the Gaussian 92(TM) system (copyright 1992, Gaussian, Inc.),
 the Gaussian 90(TM) system (copyright 1990, Gaussian, Inc.),
 the Gaussian 88(TM) system (copyright 1988, Gaussian, Inc.),
 the Gaussian 86(TM) system (copyright 1986, Carnegie Mellon
 University), and the Gaussian 82(TM) system (copyright 1983,
 Carnegie Mellon University). Gaussian is a federally registered
 trademark of Gaussian, Inc.
  
 This software contains proprietary and confidential information,
 including trade secrets, belonging to Gaussian, Inc.
  
 This software is provided under written license and may be
 used, copied, transmitted, or stored only in accord with that
 written license.
  
 The following legend is applicable only to US Government
 contracts under FAR:
  
                    RESTRICTED RIGHTS LEGEND
  
 Use, reproduction and disclosure by the US Government is
 subject to restrictions as set forth in subparagraphs (a)
 and (c) of the Commercial Computer Software - Restricted
 Rights clause in FAR 52.227-19.
  
 Gaussian, Inc.
 340 Quinnipiac St., Bldg. 40, Wallingford CT 06492
  
  
 ---------------------------------------------------------------
 Warning -- This program may not be used in any manner that
 competes with the business of Gaussian, Inc. or will provide
 assistance to any competitor of Gaussian, Inc.  The licensee
 of this program is prohibited from giving any competitor of
 Gaussian, Inc. access to this program.  By using this program,
 the user acknowledges that Gaussian, Inc. is engaged in the
 business of creating and licensing software in the field of
 computational chemistry and represents and warrants to the
 licensee that it is not a competitor of Gaussian, Inc. and that
 it will not use this program in any manner prohibited above.
 ---------------------------------------------------------------
  

 Cite this work as:
 Gaussian 09, Revision D.01,
 M. J. Frisch, G. W. Trucks, H. B. Schlegel, G. E. Scuseria, 
 M. A. Robb, J. R. Cheeseman, G. Scalmani, V. Barone, B. Mennucci, 
 G. A. Petersson, H. Nakatsuji, M. Caricato, X. Li, H. P. Hratchian, 
 A. F. Izmaylov, J. Bloino, G. Zheng, J. L. Sonnenberg, M. Hada, 
 M. Ehara, K. Toyota, R. Fukuda, J. Hasegawa, M. Ishida, T. Nakajima, 
 Y. Honda, O. Kitao, H. Nakai, T. Vreven, J. A. Montgomery, Jr., 
 J. E. Peralta, F. Ogliaro, M. Bearpark, J. J. Heyd, E. Brothers, 
 K. N. Kudin, V. N. Staroverov, T. Keith, R. Kobayashi, J. Normand, 
 K. Raghavachari, A. Rendell, J. C. Burant, S. S. Iyengar, J. Tomasi, 
 M. Cossi, N. Rega, J. M. Millam, M. Klene, J. E. Knox, J. B. Cross, 
 V. Bakken, C. Adamo, J. Jaramillo, R. Gomperts, R. E. Stratmann, 
 O. Yazyev, A. J. Austin, R. Cammi, C. Pomelli, J. W. Ochterski, 
 R. L. Martin, K. Morokuma, V. G. Zakrzewski, G. A. Voth, 
 P. Salvador, J. J. Dannenberg, S. Dapprich, A. D. Daniels, 
 O. Farkas, J. B. Foresman, J. V. Ortiz, J. Cioslowski, 
 and D. J. Fox, Gaussian, Inc., Wallingford CT, 2013.
 
 ******************************************
 Gaussian 09:  ES64L-G09RevD.01 24-Apr-2013
                24-Feb-2022 
 ******************************************
 %nprocshared=8
 Will use up to    8 processors via shared memory.
 %mem=4GB
 %NoSave
 %chk="diene_freq.chk"
 -------------------------------------------------
 #n wB97XD/Def2TZVP scrf(smd,solvent=toluene) freq
 -------------------------------------------------
 1/10=4,30=1,38=1/1,3;
 2/12=2,17=6,18=5,40=1/2;
 3/5=44,7=101,11=2,16=1,25=1,30=1,70=32201,71=2,72=13,74=-58,140=1/1,2,3;
 4//1;
 5/5=2,38=5,53=13,98=1/2;
 8/6=4,10=90,11=11/1;
 11/6=1,8=1,9=11,15=111,16=1/1,2,10;
 10/6=1/2;
 6/7=2,8=2,9=2,10=2,18=1,28=1/1;
 7/8=1,10=1,25=1/1,2,3,16;
 1/10=4,30=1/3;
 99//99;
 --------------------------------
 diene diels-alder toluene - freq
 --------------------------------
 Symbolic Z-matrix:
 Charge =  0 Multiplicity = 1
 C                    -2.60069   0.61774  -0.29311 
 H                    -2.94202   1.49379  -0.83991 
 C                    -1.14814   0.43418  -0.22455 
 H                    -0.54836   1.338    -0.1933 
 C                    -3.5072   -0.16878   0.28137 
 H                    -3.16634  -1.01102   0.8793 
 C                    -4.9841    0.02195   0.18991 
 H                    -5.4267    0.14278   1.18277 
 H                    -5.24123   0.89709  -0.40893 
 H                    -5.46198  -0.8526   -0.26122 
 C                    -0.52889  -0.74101  -0.21932 
 H                    -1.09973  -1.66152  -0.30454 
 C                     0.94402  -0.95309  -0.11682 
 H                     1.29912  -1.49269  -1.00107 
 H                     1.15993  -1.57486   0.75901 
 C                     2.94737   0.38296   0.08857 
 C                     3.74163  -0.89339   0.05904 
 H                     3.59395  -1.4181   -0.88671 
 H                     4.79415  -0.65027   0.17229 
 H                     3.43861  -1.56607   0.86294 
 O                     1.60944   0.29795  -0.00536 
 O                     3.44264   1.47107   0.18647 
 

 GradGradGradGradGradGradGradGradGradGradGradGradGradGradGradGradGradGrad
 Berny optimization.
 Initialization pass.
 Trust Radius=3.00D-01 FncErr=1.00D-07 GrdErr=1.00D-07
 Number of steps in this run=      2 maximum allowed number of steps=      2.
 GradGradGradGradGradGradGradGradGradGradGradGradGradGradGradGradGradGrad

                          Input orientation:                          
 ---------------------------------------------------------------------
 Center     Atomic      Atomic             Coordinates (Angstroms)
 Number     Number       Type             X           Y           Z
 ---------------------------------------------------------------------
      1          6           0       -2.600690    0.617740   -0.293110
      2          1           0       -2.942020    1.493790   -0.839910
      3          6           0       -1.148140    0.434180   -0.224550
      4          1           0       -0.548360    1.338000   -0.193300
      5          6           0       -3.507200   -0.168780    0.281370
      6          1           0       -3.166340   -1.011020    0.879300
      7          6           0       -4.984100    0.021950    0.189910
      8          1           0       -5.426700    0.142780    1.182770
      9          1           0       -5.241230    0.897090   -0.408930
     10          1           0       -5.461980   -0.852600   -0.261220
     11          6           0       -0.528890   -0.741010   -0.219320
     12          1           0       -1.099730   -1.661520   -0.304540
     13          6           0        0.944020   -0.953090   -0.116820
     14          1           0        1.299120   -1.492690   -1.001070
     15          1           0        1.159930   -1.574860    0.759010
     16          6           0        2.947370    0.382960    0.088570
     17          6           0        3.741630   -0.893390    0.059040
     18          1           0        3.593950   -1.418100   -0.886710
     19          1           0        4.794150   -0.650270    0.172290
     20          1           0        3.438610   -1.566070    0.862940
     21          8           0        1.609440    0.297950   -0.005360
     22          8           0        3.442640    1.471070    0.186470
 ---------------------------------------------------------------------
                    Distance matrix (angstroms):
                    1          2          3          4          5
     1  C    0.000000
     2  H    1.087640   0.000000
     3  C    1.465707   2.172429   0.000000
     4  H    2.177337   2.484348   1.085174   0.000000
     5  C    1.330564   2.083467   2.486902   3.354166   0.000000
     6  H    2.085033   3.046322   2.716656   3.677252   1.087692
     7  C    2.503781   2.719730   3.880245   4.642696   1.491971
     8  H    3.223374   3.477082   4.513484   5.207717   2.143379
     9  H    2.657800   2.414159   4.123308   4.718467   2.149291
    10  H    3.217126   3.491508   4.501818   5.380242   2.140836
    11  C    2.478710   3.347037   1.328371   2.079264   3.073836
    12  H    2.729109   3.692781   2.097785   3.051803   2.892659
    13  C    3.881179   4.648805   2.512620   2.735350   4.537296
    14  H    4.490394   5.189634   3.210123   3.475411   5.147631
    15  H    4.478472   5.366484   3.214159   3.508547   4.897683
    16  C    5.566127   6.064729   4.107782   3.634788   6.480977
    17  C    6.529360   7.153874   5.074713   4.842189   7.288349
    18  H    6.547562   7.155431   5.133889   5.023508   7.304214
    19  H    7.517187   8.091345   6.053456   5.712205   8.316017
    20  H    6.525230   7.278384   5.120733   5.044323   7.108792
    21  O    4.232052   4.779361   2.769630   2.402733   5.145878
    22  O    6.122092   6.466673   4.724335   4.011236   7.141316
                    6          7          8          9         10
     6  H    0.000000
     7  C    2.201485   0.000000
     8  H    2.555890   1.093739   0.000000
     9  H    3.099288   1.091144   1.771127   0.000000
    10  H    2.568238   1.093949   1.754176   1.769736   0.000000
    11  C    2.869846   4.538554   5.170637   4.992542   4.934530
    12  H    2.468908   4.262263   4.918359   4.869230   4.436829
    13  C    4.229736   6.015596   6.593629   6.462647   6.408415
    14  H    4.869100   6.572018   7.258138   6.988409   6.831513
    15  H    4.364516   6.373600   6.820085   6.960565   6.738859
    16  C    6.320276   7.940328   8.448669   8.219794   8.506828
    17  C    6.957493   8.774585   9.294875   9.171510   9.209271
    18  H    6.999002   8.764462   9.385692   9.145971   9.095103
    19  H    7.999963   9.801345  10.301251  10.170594  10.267282
    20  H    6.628251   8.597489   9.034167   9.111774   8.999627
    21  O    5.030318   6.602202   7.137436   6.888651   7.168976
    22  O    7.093617   8.550433   9.023423   8.723162   9.213692
                   11         12         13         14         15
    11  C    0.000000
    12  H    1.086489   0.000000
    13  C    1.491626   2.171181   0.000000
    14  H    2.125506   2.503625   1.095063   0.000000
    15  H    2.122392   2.498942   1.095579   1.767486   0.000000
    16  C    3.666400   4.551203   2.416739   2.724354   2.734500
    17  C    4.282294   4.915382   2.803768   2.729258   2.760350
    18  H    4.231037   4.735906   2.798409   2.298888   2.942350
    19  H    5.338197   5.998984   3.872827   3.781756   3.795611
    20  H    4.194409   4.687073   2.749301   2.838545   2.281066
    21  O    2.386980   3.356879   1.421375   2.072228   2.072134
    22  O    4.564101   5.539615   3.494515   3.845621   3.849189
                   16         17         18         19         20
    16  C    0.000000
    17  C    1.503592   0.000000
    18  H    2.147802   1.091592   0.000000
    19  H    2.117822   1.086154   1.775253   0.000000
    20  H    2.153992   1.091135   1.762754   1.775718   0.000000
    21  O    1.343915   2.443291   2.767650   3.327621   2.752159
    22  O    1.199525   2.386693   3.085760   2.515326   3.111567
                   21         22
    21  O    0.000000
    22  O    2.184864   0.000000
 Stoichiometry    C8H12O2
 Framework group  C1[X(C8H12O2)]
 Deg. of freedom    60
 Full point group                 C1      NOp   1
 Largest Abelian subgroup         C1      NOp   1
 Largest concise Abelian subgroup C1      NOp   1
                         Standard orientation:                         
 ---------------------------------------------------------------------
 Center     Atomic      Atomic             Coordinates (Angstroms)
 Number     Number       Type             X           Y           Z
 ---------------------------------------------------------------------
      1          6           0       -2.600690    0.617740   -0.293111
      2          1           0       -2.942020    1.493791   -0.839911
      3          6           0       -1.148140    0.434180   -0.224551
      4          1           0       -0.548360    1.338000   -0.193301
      5          6           0       -3.507201   -0.168779    0.281369
      6          1           0       -3.166341   -1.011019    0.879299
      7          6           0       -4.984101    0.021951    0.189909
      8          1           0       -5.426700    0.142782    1.182769
      9          1           0       -5.241230    0.897091   -0.408931
     10          1           0       -5.461981   -0.852598   -0.261221
     11          6           0       -0.528891   -0.741010   -0.219321
     12          1           0       -1.099731   -1.661520   -0.304541
     13          6           0        0.944019   -0.953091   -0.116821
     14          1           0        1.299119   -1.492691   -1.001071
     15          1           0        1.159929   -1.574861    0.759009
     16          6           0        2.947370    0.382958    0.088569
     17          6           0        3.741629   -0.893392    0.059039
     18          1           0        3.593949   -1.418102   -0.886711
     19          1           0        4.794149   -0.650273    0.172289
     20          1           0        3.438609   -1.566072    0.862939
     21          8           0        1.609440    0.297949   -0.005361
     22          8           0        3.442640    1.471068    0.186469
 ---------------------------------------------------------------------
 Rotational constants (GHZ):      4.9806572      0.4110812      0.3860287
 Standard basis: def2TZVP (5D, 7F)
 There are   432 symmetry adapted cartesian basis functions of A   symmetry.
 There are   382 symmetry adapted basis functions of A   symmetry.
   382 basis functions,   606 primitive gaussians,   432 cartesian basis functions
    38 alpha electrons       38 beta electrons
       nuclear repulsion energy       487.3881659899 Hartrees.
 NAtoms=   22 NActive=   22 NUniq=   22 SFac= 1.00D+00 NAtFMM=   60 NAOKFM=F Big=F
 Integral buffers will be    131072 words long.
 Raffenetti 2 integral format.
 Two-electron integral symmetry is turned on.
 Nuclear repulsion after empirical dispersion term =      487.3775172036 Hartrees.
 Force inversion solution in PCM.
 ------------------------------------------------------------------------------
 Polarizable Continuum Model (PCM)
 =================================
 Model                : PCM (using non-symmetric T matrix).
 Atomic radii         : SMD-Coulomb.
 Polarization charges : Total charges.
 Charge compensation  : None.
 Solution method      : Matrix inversion.
 Cavity type          : VdW (van der Waals Surface) (Alpha=1.000).
 Cavity algorithm     : GePol (No added spheres)
                        Default sphere list used, NSphG=   22.
                        Lebedev-Laikov grids with approx.  5.0 points / Ang**2.
                        Smoothing algorithm: Karplus/York (Gamma=1.0000).
                        Polarization charges: spherical gaussians, with
                                              point-specific exponents (IZeta= 3).
                        Self-potential: point-specific (ISelfS= 7).
                        Self-field    : sphere-specific E.n sum rule (ISelfD= 2).
 1st derivatives      : Analytical E(r).r(x)/FMM algorithm (CHGder, D1EAlg=3).
                        Cavity 1st derivative terms included.
 2nd derivatives      : Analytical E(r).r(xy)/FMM algorithm (CHGder, D2EAlg=3).
                        Cavity 2nd derivative terms included.
 Solvent              : Toluene, Eps=   2.374100 Eps(inf)=   2.238315
 ------------------------------------------------------------------------------
 ------------------------------------------------------------------------------
 Atomic radii for non-electrostatic terms: SMD-CDS.
 ------------------------------------------------------------------------------
 Nuclear repulsion after PCM non-electrostatic terms =      487.3710909952 Hartrees.
 One-electron integrals computed using PRISM.
   1 Symmetry operations used in ECPInt.
 ECPInt:  NShTT=   12561 NPrTT=   37384 LenC2=   11266 LenP2D=   25536.
 LDataN:  DoStor=T MaxTD1= 6 Len=  172
 NBasis=   382 RedAO= T EigKep=  1.04D-04  NBF=   382
 NBsUse=   382 1.00D-06 EigRej= -1.00D+00 NBFU=   382
 ExpMin= 9.52D-02 ExpMax= 2.70D+04 ExpMxC= 9.22D+02 IAcc=2 IRadAn=         4 AccDes= 0.00D+00
 Harris functional with IExCor= 4639 and IRadAn=       4 diagonalized for initial guess.
 HarFok:  IExCor= 4639 AccDes= 0.00D+00 IRadAn=         4 IDoV= 1 UseB2=F ITyADJ=14
 ICtDFT=  3500011 ScaDFX=  1.000000  1.000000  1.000000  1.000000
 FoFCou: FMM=F IPFlag=           0 FMFlag=      100000 FMFlg1=           0
         NFxFlg=           0 DoJE=T BraDBF=F KetDBF=T FulRan=T
         wScrn=  0.000000 ICntrl=     500 IOpCl=  0 I1Cent=   200000004 NGrid=           0
         NMat0=    1 NMatS0=      1 NMatT0=    0 NMatD0=    1 NMtDS0=    0 NMtDT0=    0
 Petite list used in FoFCou.
 Requested convergence on RMS density matrix=1.00D-08 within 128 cycles.
 Requested convergence on MAX density matrix=1.00D-06.
 Requested convergence on             energy=1.00D-06.
 No special actions if energy rises.
 Inv3:  Mode=1 IEnd=     9991875.
 Iteration    1 A*A^-1 deviation from unit magnitude is 3.77D-15 for   1824.
 Iteration    1 A*A^-1 deviation from orthogonality  is 3.27D-15 for    730    248.
 Iteration    1 A^-1*A deviation from unit magnitude is 4.00D-15 for   1824.
 Iteration    1 A^-1*A deviation from orthogonality  is 3.73D-15 for    798    774.
 Error on total polarization charges =  0.02372
 SCF Done:  E(RwB97XD) =  -462.530038821     A.U. after   13 cycles
            NFock= 13  Conv=0.51D-08     -V/T= 2.0048
 SMD-CDS (non-electrostatic) energy       (kcal/mol) =      -4.03
 (included in total energy above)
 DoSCS=F DFT=T ScalE2(SS,OS)=  1.000000  1.000000
 Range of M.O.s used for correlation:     1   382
 NBasis=   382 NAE=    38 NBE=    38 NFC=     0 NFV=     0
 NROrb=    382 NOA=    38 NOB=    38 NVA=   344 NVB=   344

 **** Warning!!: The largest alpha MO coefficient is  0.20410761D+02

   1 Symmetry operations used in ECPInt.
 ECPInt:  NShTT=   12561 NPrTT=   37384 LenC2=   11266 LenP2D=   25536.
 LDataN:  DoStor=T MaxTD1= 7 Len=  274
 Symmetrizing basis deriv contribution to polar:
 IMax=3 JMax=2 DiffMx= 0.00D+00
 G2DrvN: will do    23 centers at a time, making    1 passes.
 Calling FoFCou, ICntrl=  3107 FMM=F I1Cent=   0 AccDes= 0.00D+00.
 NEqPCM:  Using equilibrium solvation (IEInf=0, Eps=   2.3741, EpsInf=   2.2383)
 G2PCM: DoFxE=T DoFxN=T DoGrad=T DoDP/DQ/DG/TGxP=FFFF NFrqRd=   0 IEInf=0 SqF1=F DoCFld=F IF1Alg=4.
 End of G2Drv F.D. properties file   721 does not exist.
 End of G2Drv F.D. properties file   722 does not exist.
 End of G2Drv F.D. properties file   788 does not exist.
          IDoAtm=1111111111111111111111
 NEqPCM:  Using equilibrium solvation (IEInf=0, Eps=   2.3741, EpsInf=   2.2383)
          Differentiating once with respect to electric field.
                with respect to dipole field.
          Differentiating once with respect to nuclear coordinates.
          There are    69 degrees of freedom in the 1st order CPHF.  IDoFFX=6 NUNeed=     3.
     66 vectors produced by pass  0 Test12= 1.89D-14 1.45D-09 XBig12= 5.38D+01 4.55D+00.
 AX will form    66 AO Fock derivatives at one time.
     66 vectors produced by pass  1 Test12= 1.89D-14 1.45D-09 XBig12= 4.04D+00 2.71D-01.
     66 vectors produced by pass  2 Test12= 1.89D-14 1.45D-09 XBig12= 1.19D-01 6.35D-02.
     66 vectors produced by pass  3 Test12= 1.89D-14 1.45D-09 XBig12= 1.38D-03 7.08D-03.
     66 vectors produced by pass  4 Test12= 1.89D-14 1.45D-09 XBig12= 1.26D-05 4.79D-04.
     66 vectors produced by pass  5 Test12= 1.89D-14 1.45D-09 XBig12= 8.50D-08 3.13D-05.
     64 vectors produced by pass  6 Test12= 1.89D-14 1.45D-09 XBig12= 5.19D-10 1.86D-06.
     16 vectors produced by pass  7 Test12= 1.89D-14 1.45D-09 XBig12= 3.14D-12 2.03D-07.
      3 vectors produced by pass  8 Test12= 1.89D-14 1.45D-09 XBig12= 1.94D-14 1.83D-08.
 InvSVY:  IOpt=1 It=  1 EMax= 5.33D-15
 Solved reduced A of dimension   479 with    69 vectors.
 Isotropic polarizability for W=    0.000000      121.08 Bohr**3.
 End of Minotr F.D. properties file   721 does not exist.
 End of Minotr F.D. properties file   722 does not exist.
 End of Minotr F.D. properties file   788 does not exist.

 **********************************************************************

            Population analysis using the SCF density.

 **********************************************************************

 Orbital symmetries:
       Occupied  (A) (A) (A) (A) (A) (A) (A) (A) (A) (A) (A) (A)
                 (A) (A) (A) (A) (A) (A) (A) (A) (A) (A) (A) (A)
                 (A) (A) (A) (A) (A) (A) (A) (A) (A) (A) (A) (A)
                 (A) (A)
       Virtual   (A) (A) (A) (A) (A) (A) (A) (A) (A) (A) (A) (A)
                 (A) (A) (A) (A) (A) (A) (A) (A) (A) (A) (A) (A)
                 (A) (A) (A) (A) (A) (A) (A) (A) (A) (A) (A) (A)
                 (A) (A) (A) (A) (A) (A) (A) (A) (A) (A) (A) (A)
                 (A) (A) (A) (A) (A) (A) (A) (A) (A) (A) (A) (A)
                 (A) (A) (A) (A) (A) (A) (A) (A) (A) (A) (A) (A)
                 (A) (A) (A) (A) (A) (A) (A) (A) (A) (A) (A) (A)
                 (A) (A) (A) (A) (A) (A) (A) (A) (A) (A) (A) (A)
                 (A) (A) (A) (A) (A) (A) (A) (A) (A) (A) (A) (A)
                 (A) (A) (A) (A) (A) (A) (A) (A) (A) (A) (A) (A)
                 (A) (A) (A) (A) (A) (A) (A) (A) (A) (A) (A) (A)
                 (A) (A) (A) (A) (A) (A) (A) (A) (A) (A) (A) (A)
                 (A) (A) (A) (A) (A) (A) (A) (A) (A) (A) (A) (A)
                 (A) (A) (A) (A) (A) (A) (A) (A) (A) (A) (A) (A)
                 (A) (A) (A) (A) (A) (A) (A) (A) (A) (A) (A) (A)
                 (A) (A) (A) (A) (A) (A) (A) (A) (A) (A) (A) (A)
                 (A) (A) (A) (A) (A) (A) (A) (A) (A) (A) (A) (A)
                 (A) (A) (A) (A) (A) (A) (A) (A) (A) (A) (A) (A)
                 (A) (A) (A) (A) (A) (A) (A) (A) (A) (A) (A) (A)
                 (A) (A) (A) (A) (A) (A) (A) (A) (A) (A) (A) (A)
                 (A) (A) (A) (A) (A) (A) (A) (A) (A) (A) (A) (A)
                 (A) (A) (A) (A) (A) (A) (A) (A) (A) (A) (A) (A)
                 (A) (A) (A) (A) (A) (A) (A) (A) (A) (A) (A) (A)
                 (A) (A) (A) (A) (A) (A) (A) (A) (A) (A) (A) (A)
                 (A) (A) (A) (A) (A) (A) (A) (A) (A) (A) (A) (A)
                 (A) (A) (A) (A) (A) (A) (A) (A) (A) (A) (A) (A)
                 (A) (A) (A) (A) (A) (A) (A) (A) (A) (A) (A) (A)
                 (A) (A) (A) (A) (A) (A) (A) (A) (A) (A) (A) (A)
                 (A) (A) (A) (A) (A) (A) (A) (A)
 The electronic state is 1-A.
 Alpha  occ. eigenvalues --  -19.29395 -19.22640 -10.41490 -10.35110 -10.29289
 Alpha  occ. eigenvalues --  -10.28831 -10.28425 -10.28363 -10.27937 -10.27391
 Alpha  occ. eigenvalues --   -1.20912  -1.12267  -0.92034  -0.88159  -0.84944
 Alpha  occ. eigenvalues --   -0.82254  -0.75907  -0.69771  -0.66401  -0.61347
 Alpha  occ. eigenvalues --   -0.59375  -0.59148  -0.57617  -0.54846  -0.52452
 Alpha  occ. eigenvalues --   -0.52248  -0.49907  -0.49514  -0.48999  -0.47315
 Alpha  occ. eigenvalues --   -0.47180  -0.43826  -0.43366  -0.42347  -0.39124
 Alpha  occ. eigenvalues --   -0.37654  -0.35855  -0.30328
 Alpha virt. eigenvalues --    0.04661   0.08580   0.10726   0.13000   0.13398
 Alpha virt. eigenvalues --    0.14312   0.16059   0.16570   0.16691   0.17985
 Alpha virt. eigenvalues --    0.19141   0.19603   0.20249   0.21496   0.21779
 Alpha virt. eigenvalues --    0.23225   0.24535   0.24993   0.25600   0.26749
 Alpha virt. eigenvalues --    0.27678   0.28119   0.29302   0.30266   0.30722
 Alpha virt. eigenvalues --    0.31576   0.32424   0.33858   0.34724   0.35478
 Alpha virt. eigenvalues --    0.36878   0.38145   0.39314   0.40245   0.40940
 Alpha virt. eigenvalues --    0.43179   0.43815   0.44321   0.44650   0.45393
 Alpha virt. eigenvalues --    0.46562   0.47093   0.48075   0.48585   0.49218
 Alpha virt. eigenvalues --    0.49957   0.50767   0.51700   0.51797   0.52755
 Alpha virt. eigenvalues --    0.53490   0.53994   0.54762   0.55094   0.55575
 Alpha virt. eigenvalues --    0.56854   0.58302   0.58857   0.60566   0.62332
 Alpha virt. eigenvalues --    0.64008   0.65009   0.66397   0.67073   0.67889
 Alpha virt. eigenvalues --    0.68602   0.69112   0.70871   0.72889   0.73917
 Alpha virt. eigenvalues --    0.75311   0.77794   0.79905   0.81980   0.82373
 Alpha virt. eigenvalues --    0.83676   0.84036   0.84398   0.85442   0.86769
 Alpha virt. eigenvalues --    0.87328   0.90291   0.92042   0.93702   0.95354
 Alpha virt. eigenvalues --    0.96817   0.98277   1.01974   1.02914   1.04930
 Alpha virt. eigenvalues --    1.05458   1.07215   1.08679   1.09525   1.12444
 Alpha virt. eigenvalues --    1.13973   1.14740   1.16148   1.17931   1.19479
 Alpha virt. eigenvalues --    1.21872   1.22509   1.23862   1.25010   1.26458
 Alpha virt. eigenvalues --    1.28386   1.29451   1.32106   1.34253   1.35507
 Alpha virt. eigenvalues --    1.38301   1.42156   1.45620   1.46536   1.49289
 Alpha virt. eigenvalues --    1.51051   1.51770   1.54880   1.55981   1.58457
 Alpha virt. eigenvalues --    1.59729   1.60562   1.60736   1.61653   1.62019
 Alpha virt. eigenvalues --    1.62751   1.62877   1.63994   1.65037   1.65913
 Alpha virt. eigenvalues --    1.66866   1.67668   1.68487   1.71260   1.72171
 Alpha virt. eigenvalues --    1.74659   1.75821   1.77008   1.79437   1.80877
 Alpha virt. eigenvalues --    1.82749   1.84306   1.87733   1.90195   1.91544
 Alpha virt. eigenvalues --    1.93774   1.95736   1.96576   1.98500   2.00142
 Alpha virt. eigenvalues --    2.01304   2.02248   2.03585   2.05016   2.08881
 Alpha virt. eigenvalues --    2.09752   2.13491   2.15034   2.16693   2.19034
 Alpha virt. eigenvalues --    2.20040   2.23034   2.25643   2.26015   2.27097
 Alpha virt. eigenvalues --    2.29852   2.32278   2.33766   2.35117   2.37097
 Alpha virt. eigenvalues --    2.37598   2.40389   2.40909   2.41594   2.42881
 Alpha virt. eigenvalues --    2.44035   2.44850   2.46903   2.47913   2.48975
 Alpha virt. eigenvalues --    2.50204   2.52980   2.55237   2.57828   2.60679
 Alpha virt. eigenvalues --    2.61132   2.62305   2.62718   2.64608   2.66431
 Alpha virt. eigenvalues --    2.68057   2.68716   2.69154   2.70170   2.73440
 Alpha virt. eigenvalues --    2.75977   2.76679   2.79456   2.79884   2.80640
 Alpha virt. eigenvalues --    2.81766   2.83261   2.86519   2.89089   2.90964
 Alpha virt. eigenvalues --    2.92352   2.94092   2.94919   2.97243   2.97796
 Alpha virt. eigenvalues --    2.99261   3.00636   3.01127   3.02331   3.03399
 Alpha virt. eigenvalues --    3.05881   3.07201   3.09713   3.10442   3.11333
 Alpha virt. eigenvalues --    3.12825   3.14490   3.16210   3.17210   3.17573
 Alpha virt. eigenvalues --    3.18406   3.19118   3.19549   3.20855   3.22319
 Alpha virt. eigenvalues --    3.23866   3.25558   3.27191   3.27462   3.28348
 Alpha virt. eigenvalues --    3.29138   3.29954   3.32624   3.33093   3.35129
 Alpha virt. eigenvalues --    3.35527   3.36432   3.37294   3.38401   3.42056
 Alpha virt. eigenvalues --    3.42503   3.43031   3.45332   3.48411   3.50211
 Alpha virt. eigenvalues --    3.52047   3.53274   3.54488   3.55547   3.57623
 Alpha virt. eigenvalues --    3.61601   3.64170   3.65170   3.65591   3.68210
 Alpha virt. eigenvalues --    3.68858   3.70266   3.73276   3.76194   3.78344
 Alpha virt. eigenvalues --    3.79285   3.82779   3.83934   3.86830   3.88011
 Alpha virt. eigenvalues --    3.90757   3.93599   3.95973   3.96783   3.99267
 Alpha virt. eigenvalues --    4.03201   4.08263   4.09386   4.13575   4.15117
 Alpha virt. eigenvalues --    4.18389   4.22391   4.26914   4.31606   4.33591
 Alpha virt. eigenvalues --    4.42973   4.43869   4.44666   4.46044   4.47511
 Alpha virt. eigenvalues --    4.49275   4.53145   4.54974   4.57155   4.60041
 Alpha virt. eigenvalues --    4.64400   4.64716   4.72748   4.74646   4.77129
 Alpha virt. eigenvalues --    4.80420   4.82049   4.87685   4.91373   4.96704
 Alpha virt. eigenvalues --    5.06231   5.11996   5.19442   5.25836   5.27639
 Alpha virt. eigenvalues --    5.30820   5.33667   5.35534   5.52311   5.57106
 Alpha virt. eigenvalues --    5.72871   5.94216   5.99034   5.99562   6.15182
 Alpha virt. eigenvalues --    6.30262   6.36872   6.47034   6.54579   6.59576
 Alpha virt. eigenvalues --    6.73858   6.90458   6.90552   6.96315   6.97889
 Alpha virt. eigenvalues --    7.16133   7.17763   7.31554   7.50164  22.32993
 Alpha virt. eigenvalues --   22.42256  22.47186  22.47543  22.58686  22.94475
 Alpha virt. eigenvalues --   23.02363  23.44696  43.97317  44.38262
          Condensed to atoms (all electrons):
               1          2          3          4          5          6
     1  C    4.995928   0.402199   0.322946  -0.036722   0.635315  -0.045185
     2  H    0.402199   0.522054  -0.027237  -0.001467  -0.036758   0.004988
     3  C    0.322946  -0.027237   4.917278   0.408173  -0.060542  -0.002591
     4  H   -0.036722  -0.001467   0.408173   0.488617   0.004052   0.000143
     5  C    0.635315  -0.036758  -0.060542   0.004052   5.015816   0.405119
     6  H   -0.045185   0.004988  -0.002591   0.000143   0.405119   0.525443
     7  C   -0.034029  -0.004881   0.008422  -0.000255   0.287095  -0.027007
     8  H   -0.001704   0.000390  -0.000983   0.000012  -0.041352  -0.001660
     9  H    0.013100   0.003419   0.001997  -0.000026  -0.066321   0.004064
    10  H   -0.007269  -0.000182  -0.000052   0.000008  -0.024450  -0.001860
    11  C   -0.053525   0.004222   0.629929  -0.027471  -0.001132   0.004949
    12  H   -0.006346   0.000280  -0.033933   0.004524   0.004578   0.000769
    13  C    0.006848  -0.000298  -0.063144  -0.011674   0.001024   0.000235
    14  H   -0.000693   0.000003   0.005077   0.000859   0.000436   0.000041
    15  H    0.001319   0.000014  -0.003623   0.000243  -0.000478  -0.000038
    16  C   -0.000110   0.000000  -0.003864   0.001698   0.000005   0.000000
    17  C    0.000029   0.000000   0.001305   0.000924   0.000005   0.000001
    18  H    0.000003   0.000000  -0.000076  -0.000056  -0.000001   0.000000
    19  H    0.000000   0.000000  -0.000005  -0.000012   0.000000   0.000000
    20  H   -0.000001   0.000000  -0.000047  -0.000048   0.000001   0.000000
    21  O    0.001087   0.000016   0.023284   0.010643   0.000145   0.000019
    22  O   -0.000014   0.000000  -0.001206   0.001215   0.000000   0.000000
               7          8          9         10         11         12
     1  C   -0.034029  -0.001704   0.013100  -0.007269  -0.053525  -0.006346
     2  H   -0.004881   0.000390   0.003419  -0.000182   0.004222   0.000280
     3  C    0.008422  -0.000983   0.001997  -0.000052   0.629929  -0.033933
     4  H   -0.000255   0.000012  -0.000026   0.000008  -0.027471   0.004524
     5  C    0.287095  -0.041352  -0.066321  -0.024450  -0.001132   0.004578
     6  H   -0.027007  -0.001660   0.004064  -0.001860   0.004949   0.000769
     7  C    4.861968   0.415897   0.425760   0.402444   0.000425   0.000045
     8  H    0.415897   0.552719  -0.022175  -0.032517   0.000302   0.000030
     9  H    0.425760  -0.022175   0.536998  -0.020787   0.000059  -0.000002
    10  H    0.402444  -0.032517  -0.020787   0.557023  -0.000290  -0.000044
    11  C    0.000425   0.000302   0.000059  -0.000290   5.024331   0.406975
    12  H    0.000045   0.000030  -0.000002  -0.000044   0.406975   0.506833
    13  C   -0.000021   0.000002   0.000003  -0.000007   0.383002  -0.030264
    14  H    0.000000   0.000000   0.000000  -0.000001  -0.050223  -0.000887
    15  H   -0.000002  -0.000001   0.000000   0.000001  -0.013409  -0.001100
    16  C    0.000000   0.000000   0.000000   0.000000   0.011380   0.000032
    17  C    0.000000   0.000000   0.000000   0.000000  -0.001885   0.000191
    18  H    0.000000   0.000000   0.000000   0.000000  -0.000100  -0.000024
    19  H    0.000000   0.000000   0.000000   0.000000  -0.000052  -0.000002
    20  H    0.000000   0.000000   0.000000   0.000000   0.000690  -0.000032
    21  O    0.000001   0.000000   0.000000   0.000000  -0.092058   0.002709
    22  O    0.000000   0.000000   0.000000   0.000000   0.001249   0.000019
              13         14         15         16         17         18
     1  C    0.006848  -0.000693   0.001319  -0.000110   0.000029   0.000003
     2  H   -0.000298   0.000003   0.000014   0.000000   0.000000   0.000000
     3  C   -0.063144   0.005077  -0.003623  -0.003864   0.001305  -0.000076
     4  H   -0.011674   0.000859   0.000243   0.001698   0.000924  -0.000056
     5  C    0.001024   0.000436  -0.000478   0.000005   0.000005  -0.000001
     6  H    0.000235   0.000041  -0.000038   0.000000   0.000001   0.000000
     7  C   -0.000021   0.000000  -0.000002   0.000000   0.000000   0.000000
     8  H    0.000002   0.000000  -0.000001   0.000000   0.000000   0.000000
     9  H    0.000003   0.000000   0.000000   0.000000   0.000000   0.000000
    10  H   -0.000007  -0.000001   0.000001   0.000000   0.000000   0.000000
    11  C    0.383002  -0.050223  -0.013409   0.011380  -0.001885  -0.000100
    12  H   -0.030264  -0.000887  -0.001100   0.000032   0.000191  -0.000024
    13  C    4.696066   0.418261   0.392102  -0.038892  -0.011466  -0.002568
    14  H    0.418261   0.599355  -0.056469  -0.009666   0.009232  -0.002824
    15  H    0.392102  -0.056469   0.598822  -0.006460   0.001763  -0.000361
    16  C   -0.038892  -0.009666  -0.006460   4.437247   0.308277  -0.017432
    17  C   -0.011466   0.009232   0.001763   0.308277   5.150856   0.378814
    18  H   -0.002568  -0.002824  -0.000361  -0.017432   0.378814   0.519969
    19  H    0.001125   0.000031  -0.000120  -0.021634   0.387285  -0.010295
    20  H   -0.000105  -0.001532  -0.002146  -0.016518   0.373581  -0.023951
    21  O    0.257266  -0.037186  -0.036716   0.348045  -0.112810   0.004709
    22  O    0.000126   0.000292   0.000317   0.696666  -0.101736   0.002396
              19         20         21         22
     1  C    0.000000  -0.000001   0.001087  -0.000014
     2  H    0.000000   0.000000   0.000016   0.000000
     3  C   -0.000005  -0.000047   0.023284  -0.001206
     4  H   -0.000012  -0.000048   0.010643   0.001215
     5  C    0.000000   0.000001   0.000145   0.000000
     6  H    0.000000   0.000000   0.000019   0.000000
     7  C    0.000000   0.000000   0.000001   0.000000
     8  H    0.000000   0.000000   0.000000   0.000000
     9  H    0.000000   0.000000   0.000000   0.000000
    10  H    0.000000   0.000000   0.000000   0.000000
    11  C   -0.000052   0.000690  -0.092058   0.001249
    12  H   -0.000002  -0.000032   0.002709   0.000019
    13  C    0.001125  -0.000105   0.257266   0.000126
    14  H    0.000031  -0.001532  -0.037186   0.000292
    15  H   -0.000120  -0.002146  -0.036716   0.000317
    16  C   -0.021634  -0.016518   0.348045   0.696666
    17  C    0.387285   0.373581  -0.112810  -0.101736
    18  H   -0.010295  -0.023951   0.004709   0.002396
    19  H    0.482137  -0.011936   0.004820   0.007325
    20  H   -0.011936   0.528275   0.004461   0.002740
    21  O    0.004820   0.004461   7.963144  -0.108510
    22  O    0.007325   0.002740  -0.108510   7.858152
 Mulliken charges:
               1
     1  C   -0.193176
     2  H    0.133239
     3  C   -0.121111
     4  H    0.156618
     5  C   -0.122556
     6  H    0.132568
     7  C   -0.335862
     8  H    0.131040
     9  H    0.123911
    10  H    0.127982
    11  C   -0.227368
    12  H    0.145650
    13  C    0.002379
    14  H    0.125891
    15  H    0.126339
    16  C    0.311225
    17  C   -0.384367
    18  H    0.151795
    19  H    0.161334
    20  H    0.146568
    21  O   -0.233070
    22  O   -0.359031
 Sum of Mulliken charges =   0.00000
 Mulliken charges with hydrogens summed into heavy atoms:
               1
     1  C   -0.059937
     3  C    0.035507
     5  C    0.010012
     7  C    0.047072
    11  C   -0.081718
    13  C    0.254610
    16  C    0.311225
    17  C    0.075329
    21  O   -0.233070
    22  O   -0.359031
 APT charges:
               1
     1  C   -0.045489
     2  H    0.013486
     3  C    0.014920
     4  H    0.060966
     5  C    0.040274
     6  H    0.016298
     7  C    0.034602
     8  H   -0.021908
     9  H   -0.013060
    10  H   -0.027718
    11  C   -0.049004
    12  H    0.028700
    13  C    0.561706
    14  H   -0.052357
    15  H   -0.061077
    16  C    1.486071
    17  C   -0.139716
    18  H    0.044380
    19  H    0.041080
    20  H    0.047528
    21  O   -1.057885
    22  O   -0.921796
 Sum of APT charges =   0.00000
 APT charges with hydrogens summed into heavy atoms:
               1
     1  C   -0.032004
     3  C    0.075886
     5  C    0.056571
     7  C   -0.028084
    11  C   -0.020304
    13  C    0.448272
    16  C    1.486071
    17  C   -0.006729
    21  O   -1.057885
    22  O   -0.921796
 Electronic spatial extent (au):  <R**2>=           2817.6314
 Charge=              0.0000 electrons
 Dipole moment (field-independent basis, Debye):
    X=             -1.5552    Y=             -4.9025    Z=             -0.2606  Tot=              5.1498
 Quadrupole moment (field-independent basis, Debye-Ang):
   XX=            -58.8562   YY=            -61.2975   ZZ=            -60.9342
   XY=            -13.4839   XZ=             -1.4549   YZ=             -1.8359
 Traceless Quadrupole moment (field-independent basis, Debye-Ang):
   XX=              1.5064   YY=             -0.9349   ZZ=             -0.5716
   XY=            -13.4839   XZ=             -1.4549   YZ=             -1.8359
 Octapole moment (field-independent basis, Debye-Ang**2):
  XXX=            -18.0217  YYY=             -6.8014  ZZZ=              2.3390  XYY=            -10.2015
  XXY=            -44.7735  XXZ=             -1.1083  XZZ=             12.3584  YZZ=             -0.6658
  YYZ=             -2.4535  XYZ=              1.9266
 Hexadecapole moment (field-independent basis, Debye-Ang**3):
 XXXX=          -3246.2492 YYYY=           -316.2358 ZZZZ=           -102.5811 XXXY=           -136.0320
 XXXZ=            -21.0015 YYYX=            -15.8523 YYYZ=             -4.2237 ZZZX=             -4.8371
 ZZZY=             -0.2957 XXYY=           -651.4144 XXZZ=           -568.3012 YYZZ=            -65.0942
 XXYZ=            -18.4496 YYXZ=              3.1915 ZZXY=             -1.0738
 N-N= 4.873710909952D+02 E-N=-2.053390759218D+03  KE= 4.603255376068D+02
  Exact polarizability: 165.968  -1.354 114.528  -5.201  -3.841  82.758
 Approx polarizability: 124.684   2.647 115.842  -4.366  -3.721  86.037
   1 Symmetry operations used in ECPInt.
 ECPInt:  NShTT=   12561 NPrTT=   37384 LenC2=   11266 LenP2D=   25536.
 LDataN:  DoStor=T MaxTD1= 8 Len=  415
 D2PCM: PCM CHGder 2nd derivatives, FixD1E=F FixD2E=F DoIter=F DoCFld=F I1PDM=0
 Calling FoFJK, ICntrl=    100127 FMM=F ISym2X=0 I1Cent= 0 IOpClX= 0 NMat=1 NMatS=1 NMatT=0.
 Full mass-weighted force constant matrix:
 Low frequencies ---  -24.0812   -5.7855   -0.0005   -0.0004    0.0005   14.9564
 Low frequencies ---   47.0793   56.0411   87.2852
 Diagonal vibrational polarizability:
       29.9029007       7.8968963      38.7637340
 Harmonic frequencies (cm**-1), IR intensities (KM/Mole), Raman scattering
 activities (A**4/AMU), depolarization ratios for plane and unpolarized
 incident light, reduced masses (AMU), force constants (mDyne/A),
 and normal coordinates:
                      1                      2                      3
                      A                      A                      A
 Frequencies --     36.8419                55.9706                87.2579
 Red. masses --      3.1847                 2.9088                 3.6326
 Frc consts  --      0.0025                 0.0054                 0.0163
 IR Inten    --      0.8820                 1.1706                 2.0383
  Atom  AN      X      Y      Z        X      Y      Z        X      Y      Z
     1   6    -0.01   0.01   0.03     0.00   0.06   0.18     0.08  -0.03   0.06
     2   1    -0.04   0.03   0.08     0.04   0.21   0.39     0.17   0.08   0.18
     3   6    -0.01   0.02  -0.04     0.00   0.04   0.20     0.06  -0.16   0.04
     4   1    -0.01   0.02  -0.02     0.00   0.03   0.31     0.10  -0.19   0.07
     5   6     0.02  -0.02   0.04    -0.04  -0.08  -0.10    -0.02   0.01  -0.04
     6   1     0.06  -0.04  -0.01    -0.10  -0.26  -0.31    -0.13  -0.12  -0.16
     7   6     0.02  -0.02   0.12    -0.04  -0.04  -0.15     0.01   0.24   0.00
     8   1     0.06  -0.06   0.15    -0.10  -0.28  -0.15     0.04   0.15   0.03
     9   1    -0.01   0.00   0.16     0.03   0.12   0.06     0.14   0.38   0.16
    10   1     0.00  -0.01   0.11    -0.02   0.09  -0.41    -0.13   0.39  -0.14
    11   6     0.00   0.02  -0.13     0.00   0.04   0.05     0.03  -0.17  -0.01
    12   1     0.00   0.02  -0.16     0.00   0.05  -0.07     0.03  -0.17  -0.04
    13   6     0.01   0.02  -0.22     0.00   0.02   0.02     0.05  -0.13  -0.05
    14   1    -0.02   0.12  -0.29    -0.04   0.02   0.00     0.06  -0.06  -0.08
    15   1     0.06  -0.07  -0.30     0.02   0.01   0.01     0.10  -0.15  -0.08
    16   6    -0.01   0.00   0.03     0.02  -0.01  -0.05    -0.05   0.05   0.00
    17   6    -0.04  -0.03   0.29    -0.01  -0.03   0.06     0.06   0.12   0.02
    18   1    -0.05  -0.23   0.40    -0.04  -0.13   0.12     0.06   0.05   0.06
    19   1    -0.04  -0.04   0.26     0.00  -0.04   0.00     0.05   0.22  -0.04
    20   1    -0.08   0.15   0.43     0.00   0.07   0.14     0.16   0.14   0.07
    21   8     0.00   0.02  -0.13     0.02   0.01   0.00    -0.04  -0.09  -0.01
    22   8     0.01  -0.01  -0.01     0.05  -0.01  -0.17    -0.17   0.10   0.00
                      4                      5                      6
                      A                      A                      A
 Frequencies --    129.3686               137.9982               162.8265
 Red. masses --      5.2991                 1.6704                 4.3538
 Frc consts  --      0.0523                 0.0187                 0.0680
 IR Inten    --      0.0745                 4.8705                 1.0388
  Atom  AN      X      Y      Z        X      Y      Z        X      Y      Z
     1   6    -0.02  -0.03   0.07     0.00  -0.04   0.02     0.13   0.17   0.05
     2   1     0.00  -0.06   0.00     0.03  -0.15  -0.19     0.10   0.12   0.00
     3   6    -0.02  -0.02   0.07     0.00  -0.02   0.10     0.11   0.11   0.06
     4   1    -0.02  -0.01  -0.13    -0.01  -0.01   0.15     0.19   0.05   0.12
     5   6    -0.06   0.01   0.05    -0.03   0.06   0.10     0.19   0.10   0.06
     6   1    -0.12   0.03   0.11    -0.06   0.20   0.31     0.27   0.18   0.11
     7   6    -0.06   0.02  -0.09    -0.03   0.00  -0.11     0.17  -0.15  -0.07
     8   1    -0.15   0.06  -0.14    -0.14   0.32  -0.20     0.06  -0.16  -0.12
     9   1     0.01  -0.01  -0.16     0.01  -0.21  -0.43     0.06  -0.25  -0.16
    10   1    -0.02   0.00  -0.10     0.05  -0.17   0.13     0.38  -0.28  -0.05
    11   6     0.00  -0.01   0.19     0.01  -0.01   0.01    -0.05   0.03  -0.02
    12   1     0.01  -0.04   0.39     0.01  -0.01  -0.06    -0.16   0.11  -0.11
    13   6     0.02   0.01   0.02     0.02   0.00  -0.11    -0.08  -0.11   0.04
    14   1    -0.14  -0.22   0.10    -0.04   0.18  -0.24    -0.07  -0.23   0.11
    15   1     0.16   0.25   0.14     0.11  -0.17  -0.25    -0.14   0.00   0.13
    16   6     0.03   0.00  -0.04     0.01   0.00  -0.01    -0.11  -0.02  -0.02
    17   6     0.03   0.00  -0.03     0.01   0.01  -0.01    -0.04   0.02   0.01
    18   1    -0.16  -0.17   0.09    -0.10  -0.09   0.06     0.02   0.03   0.00
    19   1     0.05   0.02  -0.27     0.02   0.02  -0.16    -0.05   0.07   0.05
    20   1     0.20   0.14   0.15     0.11   0.09   0.10    -0.04   0.00  -0.01
    21   8     0.05   0.03  -0.41     0.00  -0.01   0.07    -0.08  -0.11  -0.09
    22   8     0.02  -0.02   0.24     0.00   0.01  -0.02    -0.20   0.02   0.00
                      7                      8                      9
                      A                      A                      A
 Frequencies --    173.9095               209.5998               228.4528
 Red. masses --      1.2790                 1.3120                 1.4380
 Frc consts  --      0.0228                 0.0340                 0.0442
 IR Inten    --      0.8963                 4.6179                 0.3957
  Atom  AN      X      Y      Z        X      Y      Z        X      Y      Z
     1   6    -0.01  -0.03   0.02     0.00   0.01  -0.01    -0.02  -0.04  -0.04
     2   1     0.01  -0.04  -0.01     0.00   0.06   0.07    -0.02  -0.13  -0.19
     3   6    -0.01  -0.02   0.07     0.00   0.01   0.05    -0.02  -0.01   0.03
     4   1    -0.02  -0.01   0.21    -0.02   0.01   0.25    -0.04   0.00   0.22
     5   6    -0.03   0.00   0.03     0.00  -0.04  -0.07    -0.02   0.06   0.09
     6   1    -0.05   0.03   0.08     0.00  -0.09  -0.14    -0.01   0.17   0.24
     7   6    -0.03   0.02  -0.02     0.00   0.01   0.04    -0.03   0.00  -0.01
     8   1    -0.04   0.18  -0.04     0.14   0.37   0.07    -0.16  -0.39  -0.02
     9   1     0.00  -0.06  -0.15    -0.03  -0.17  -0.21    -0.01   0.19   0.27
    10   1    -0.04  -0.03   0.11    -0.12  -0.11   0.40     0.09   0.13  -0.39
    11   6     0.01  -0.01  -0.08     0.00   0.01  -0.10     0.01   0.00  -0.12
    12   1     0.03  -0.01  -0.22     0.02   0.03  -0.31     0.03   0.01  -0.33
    13   6     0.01   0.00   0.02    -0.01   0.00   0.07     0.00  -0.01   0.05
    14   1     0.07  -0.11   0.11     0.06  -0.12   0.17     0.08  -0.11   0.15
    15   1    -0.07   0.10   0.11    -0.10   0.11   0.17    -0.10   0.09   0.15
    16   6     0.01   0.00   0.01     0.00   0.00  -0.01     0.02   0.00   0.00
    17   6     0.01   0.00   0.03     0.01   0.00  -0.01     0.03   0.01   0.00
    18   1     0.37   0.29  -0.19    -0.19  -0.17   0.12    -0.09  -0.11   0.08
    19   1    -0.03  -0.03   0.50     0.03   0.03  -0.29     0.04   0.04  -0.17
    20   1    -0.30  -0.24  -0.29     0.20   0.15   0.18     0.15   0.10   0.12
    21   8     0.01   0.01  -0.07     0.00   0.00  -0.01     0.02  -0.01   0.00
    22   8     0.01   0.01  -0.01     0.00   0.00   0.02     0.01   0.00   0.00
                     10                     11                     12
                      A                      A                      A
 Frequencies --    255.5690               342.4426               373.6065
 Red. masses --      3.8819                 2.6251                 3.0783
 Frc consts  --      0.1494                 0.1814                 0.2532
 IR Inten    --      0.7412                 1.0789                 4.1738
  Atom  AN      X      Y      Z        X      Y      Z        X      Y      Z
     1   6     0.10  -0.10   0.01    -0.03  -0.01   0.20     0.02   0.18   0.08
     2   1     0.11  -0.12  -0.03    -0.16   0.04   0.37     0.18   0.32   0.21
     3   6     0.07  -0.09   0.04    -0.02   0.02  -0.20     0.01  -0.16  -0.07
     4   1     0.07  -0.10   0.12    -0.02   0.03  -0.44     0.14  -0.24  -0.14
     5   6     0.09  -0.05   0.04     0.01  -0.08   0.16    -0.06   0.20  -0.01
     6   1     0.04  -0.03   0.09    -0.07  -0.20   0.05    -0.02   0.09  -0.19
     7   6     0.12   0.06  -0.04     0.03   0.04  -0.09    -0.11  -0.10   0.01
     8   1     0.06   0.06  -0.07    -0.19   0.22  -0.22    -0.13  -0.17   0.01
     9   1     0.24   0.11  -0.02     0.27  -0.02  -0.28    -0.39  -0.23  -0.06
    10   1     0.07   0.12  -0.12     0.05   0.04  -0.10     0.15  -0.29   0.10
    11   6     0.06  -0.08  -0.02    -0.01   0.02  -0.13     0.00  -0.17  -0.06
    12   1     0.11  -0.10  -0.11    -0.03   0.01   0.13     0.08  -0.23   0.04
    13   6     0.04   0.08   0.04    -0.02   0.01   0.03     0.05  -0.01   0.02
    14   1     0.14   0.08   0.08     0.11  -0.10   0.15     0.17  -0.02   0.07
    15   1     0.09   0.16   0.08    -0.19   0.10   0.14     0.05   0.06   0.07
    16   6    -0.10   0.06  -0.01     0.01  -0.01   0.01     0.01   0.04   0.00
    17   6    -0.31  -0.07  -0.04     0.03   0.01   0.00    -0.03   0.01   0.00
    18   1    -0.43  -0.07  -0.02    -0.01  -0.03   0.03    -0.06   0.00   0.01
    19   1    -0.26  -0.25  -0.10     0.03   0.03  -0.07    -0.02  -0.02  -0.03
    20   1    -0.37  -0.01  -0.01     0.09   0.03   0.04    -0.04   0.03   0.01
    21   8    -0.10   0.17  -0.01     0.00   0.00   0.03     0.00   0.05   0.01
    22   8     0.05  -0.02   0.01     0.01   0.00   0.00     0.08   0.01   0.00
                     13                     14                     15
                      A                      A                      A
 Frequencies --    469.7684               536.9730               598.1982
 Red. masses --      3.7305                 4.1919                 2.5714
 Frc consts  --      0.4851                 0.7121                 0.5421
 IR Inten    --      4.1197                 7.6630                 6.7251
  Atom  AN      X      Y      Z        X      Y      Z        X      Y      Z
     1   6    -0.01   0.03  -0.03     0.07  -0.06   0.04     0.01  -0.01   0.00
     2   1    -0.01   0.04  -0.02     0.12  -0.06   0.00     0.01  -0.03  -0.01
     3   6    -0.09  -0.09   0.04     0.14   0.06  -0.02     0.03   0.02   0.00
     4   1     0.01  -0.16   0.12     0.03   0.13  -0.13     0.02   0.03  -0.03
     5   6     0.08  -0.01   0.00    -0.07   0.03  -0.02    -0.01   0.00   0.00
     6   1     0.14   0.01  -0.01    -0.16   0.00   0.01    -0.03   0.00   0.02
     7   6     0.13   0.02  -0.01    -0.13  -0.01   0.01    -0.02   0.00   0.00
     8   1     0.10   0.05  -0.03    -0.08  -0.07   0.04     0.00   0.00   0.01
     9   1     0.20   0.03  -0.03    -0.25  -0.03   0.04    -0.03   0.00   0.01
    10   1     0.10   0.04  -0.03    -0.08  -0.06   0.05    -0.02   0.00   0.01
    11   6    -0.17  -0.11   0.02     0.20   0.09  -0.02     0.01   0.01   0.00
    12   1    -0.10  -0.14  -0.08     0.18   0.09   0.11    -0.04   0.04   0.01
    13   6    -0.14   0.09  -0.01     0.14   0.10   0.01     0.00  -0.04  -0.02
    14   1    -0.10   0.16  -0.04     0.24   0.11   0.05    -0.03  -0.06  -0.02
    15   1    -0.01   0.09  -0.04     0.15   0.16   0.05     0.02  -0.01  -0.01
    16   6    -0.08  -0.05   0.00    -0.16  -0.14  -0.01    -0.04   0.00   0.32
    17   6     0.17   0.09   0.02     0.08  -0.04   0.00    -0.03   0.05   0.02
    18   1     0.39   0.03   0.02     0.32  -0.11   0.01    -0.37   0.48  -0.17
    19   1     0.08   0.49   0.04    -0.01   0.37   0.01     0.01   0.09  -0.39
    20   1     0.40  -0.01   0.03     0.35  -0.14   0.02     0.37  -0.36  -0.18
    21   8    -0.13   0.13  -0.01    -0.11   0.12   0.01    -0.01  -0.01  -0.08
    22   8     0.12  -0.14   0.00    -0.15  -0.16  -0.02     0.06  -0.01  -0.11
                     16                     17                     18
                      A                      A                      A
 Frequencies --    603.8720               711.2667               790.1115
 Red. masses --      4.6193                 2.7969                 1.7483
 Frc consts  --      0.9925                 0.8337                 0.6430
 IR Inten    --     11.2221                 8.9533                 2.4635
  Atom  AN      X      Y      Z        X      Y      Z        X      Y      Z
     1   6     0.07  -0.07   0.03     0.16  -0.08   0.08    -0.07   0.10   0.06
     2   1     0.05  -0.14  -0.08     0.21  -0.25  -0.22    -0.03  -0.14  -0.35
     3   6     0.14   0.12   0.00     0.14   0.03   0.04    -0.08  -0.03   0.11
     4   1     0.09   0.15  -0.12     0.26  -0.05  -0.26    -0.04  -0.04  -0.33
     5   6    -0.04  -0.02  -0.02    -0.01  -0.02  -0.07     0.00  -0.03  -0.07
     6   1    -0.14   0.02   0.10    -0.17   0.12   0.23     0.09   0.25   0.26
     7   6    -0.10  -0.01   0.01    -0.08  -0.01  -0.01     0.06  -0.02  -0.02
     8   1    -0.01  -0.03   0.05     0.14  -0.06   0.10     0.25   0.03   0.06
     9   1    -0.17   0.01   0.06    -0.22   0.03   0.11     0.11   0.07   0.09
    10   1    -0.14   0.00   0.04    -0.17   0.00   0.08    -0.17   0.08   0.03
    11   6     0.02   0.05  -0.02    -0.13  -0.06  -0.07     0.03   0.00  -0.08
    12   1    -0.22   0.18   0.10    -0.26   0.00   0.26     0.06  -0.07   0.50
    13   6    -0.03  -0.21  -0.01    -0.17   0.07  -0.04     0.07   0.00  -0.05
    14   1     0.02  -0.21   0.01    -0.05   0.00   0.06     0.26  -0.14   0.11
    15   1    -0.09  -0.18   0.02    -0.29   0.14   0.04    -0.13   0.13   0.10
    16   6    -0.09   0.08  -0.11     0.08   0.02   0.01    -0.02  -0.01   0.00
    17   6    -0.10   0.24   0.00     0.07  -0.09   0.00    -0.03   0.03   0.00
    18   1     0.10   0.06   0.07    -0.02  -0.07   0.00    -0.01   0.02   0.00
    19   1    -0.16   0.39   0.15     0.11  -0.23  -0.03    -0.04   0.07  -0.02
    20   1    -0.15   0.35   0.08     0.00  -0.06   0.00     0.00   0.03   0.01
    21   8    -0.10  -0.08   0.02     0.00   0.06   0.01     0.02  -0.02   0.02
    22   8     0.26  -0.09   0.05    -0.02   0.07   0.00    -0.01  -0.02   0.00
                     19                     20                     21
                      A                      A                      A
 Frequencies --    848.8776               866.9754               931.6373
 Red. masses --      2.3807                 2.4805                 1.7370
 Frc consts  --      1.0108                 1.0985                 0.8883
 IR Inten    --      3.3053                 0.4311                 9.4046
  Atom  AN      X      Y      Z        X      Y      Z        X      Y      Z
     1   6    -0.06   0.12   0.06     0.04   0.06   0.11     0.02  -0.05   0.10
     2   1    -0.20  -0.11  -0.23    -0.01  -0.14  -0.19     0.02  -0.10   0.02
     3   6     0.04   0.05  -0.08     0.03  -0.02  -0.11    -0.09  -0.02  -0.05
     4   1     0.11   0.00   0.14     0.14  -0.11   0.14    -0.23   0.07  -0.04
     5   6     0.01  -0.08  -0.02     0.01  -0.05  -0.04    -0.06   0.04  -0.06
     6   1     0.13   0.22   0.33     0.01   0.23   0.36    -0.36   0.10   0.20
     7   6    -0.05  -0.03  -0.01    -0.04  -0.02  -0.03     0.13   0.05  -0.06
     8   1     0.06   0.11   0.02     0.15   0.03   0.06     0.46  -0.24   0.13
     9   1     0.17   0.08   0.06    -0.02   0.06   0.08    -0.39  -0.02   0.08
    10   1    -0.35   0.14  -0.02    -0.26   0.07   0.03     0.30  -0.17   0.18
    11   6    -0.02  -0.05   0.05    -0.02  -0.03   0.06     0.03   0.05   0.02
    12   1    -0.12   0.05  -0.37     0.17  -0.09  -0.47     0.06   0.05  -0.23
    13   6     0.08  -0.13   0.04    -0.03   0.14   0.06     0.00  -0.03   0.02
    14   1     0.06   0.03  -0.07    -0.23   0.20  -0.07    -0.08   0.01  -0.04
    15   1     0.32  -0.16  -0.04     0.09  -0.02  -0.08     0.05  -0.09  -0.03
    16   6    -0.01   0.06   0.00     0.02  -0.08  -0.01    -0.01   0.03   0.00
    17   6     0.06  -0.12   0.00    -0.08   0.14   0.00     0.02  -0.03   0.00
    18   1     0.11  -0.13  -0.01    -0.12   0.16   0.00     0.04  -0.04   0.00
    19   1     0.06  -0.12   0.01    -0.09   0.15   0.02     0.01  -0.02   0.01
    20   1     0.11  -0.14   0.00    -0.12   0.15   0.00     0.04  -0.04   0.00
    21   8    -0.09   0.08  -0.01     0.12  -0.06  -0.01    -0.04   0.00  -0.01
    22   8     0.03   0.06   0.01    -0.05  -0.08  -0.01     0.02   0.02   0.00
                     22                     23                     24
                      A                      A                      A
 Frequencies --    998.1932              1005.4234              1018.0323
 Red. masses --      1.4858                 1.5403                 1.1236
 Frc consts  --      0.8722                 0.9174                 0.6861
 IR Inten    --     24.3350                26.6695                80.0440
  Atom  AN      X      Y      Z        X      Y      Z        X      Y      Z
     1   6     0.05  -0.01  -0.03    -0.01  -0.05  -0.07     0.00   0.00  -0.01
     2   1     0.22   0.32   0.39    -0.10   0.33   0.59    -0.03   0.12   0.20
     3   6    -0.05  -0.05   0.03     0.01   0.05   0.03     0.01  -0.02  -0.08
     4   1    -0.12   0.00  -0.32     0.04   0.04  -0.14    -0.04  -0.01   0.72
     5   6     0.03  -0.01  -0.03    -0.01  -0.02  -0.01     0.00  -0.01  -0.01
     6   1     0.20   0.32   0.34    -0.09   0.26   0.42    -0.01   0.16   0.22
     7   6    -0.04  -0.04   0.01     0.01   0.01  -0.02     0.00  -0.01  -0.01
     8   1    -0.05   0.09  -0.01     0.10  -0.06   0.03     0.07   0.00   0.02
     9   1     0.15   0.02   0.00    -0.09  -0.01   0.00    -0.01   0.01   0.02
    10   1    -0.22   0.09  -0.06     0.02  -0.02   0.03    -0.06   0.01   0.01
    11   6     0.09   0.05   0.03    -0.10  -0.05  -0.01     0.03   0.01  -0.03
    12   1     0.27  -0.03  -0.22    -0.30   0.07  -0.04     0.03  -0.04   0.56
    13   6    -0.07   0.03  -0.01     0.08  -0.04   0.00    -0.02   0.01   0.00
    14   1    -0.16  -0.06   0.00     0.21   0.01   0.03    -0.05   0.02  -0.02
    15   1    -0.18   0.00   0.00     0.17   0.05   0.03    -0.06  -0.03  -0.02
    16   6    -0.02   0.03   0.00     0.01  -0.03   0.00     0.00   0.01   0.00
    17   6     0.03  -0.02   0.00    -0.04   0.02   0.00     0.01   0.00   0.00
    18   1     0.00  -0.03   0.01     0.01   0.03  -0.01    -0.02   0.01   0.00
    19   1     0.05  -0.08   0.00    -0.06   0.10   0.00     0.02  -0.05  -0.01
    20   1     0.00  -0.02  -0.01     0.02   0.01   0.01    -0.02   0.00  -0.01
    21   8    -0.06  -0.04   0.00     0.07   0.05   0.01    -0.02  -0.01  -0.01
    22   8     0.03   0.02   0.00    -0.03  -0.02   0.00     0.01   0.00   0.00
                     25                     26                     27
                      A                      A                      A
 Frequencies --   1037.5991              1044.5610              1074.4892
 Red. masses --      1.6259                 1.7992                 1.8268
 Frc consts  --      1.0313                 1.1566                 1.2426
 IR Inten    --     46.4172                 3.7409                11.1656
  Atom  AN      X      Y      Z        X      Y      Z        X      Y      Z
     1   6    -0.02   0.00  -0.01     0.01  -0.01  -0.01     0.00   0.00   0.00
     2   1    -0.06   0.01   0.02     0.06   0.02   0.01     0.00   0.00   0.00
     3   6     0.01   0.01   0.02    -0.01   0.00   0.06     0.00   0.00   0.00
     4   1    -0.01   0.03  -0.10    -0.01   0.01  -0.26     0.00   0.00   0.00
     5   6    -0.01   0.00   0.00     0.00   0.01   0.00     0.00   0.00   0.00
     6   1    -0.03   0.00   0.01     0.03   0.01  -0.02     0.00   0.00   0.00
     7   6     0.02   0.00   0.00     0.00  -0.01   0.01     0.00   0.00   0.00
     8   1     0.03  -0.01   0.01    -0.02   0.02  -0.01     0.00   0.00   0.00
     9   1     0.00   0.00   0.00     0.04   0.00   0.00     0.00   0.00   0.00
    10   1     0.03  -0.01   0.01    -0.02   0.01  -0.01     0.00   0.00   0.00
    11   6     0.02  -0.01  -0.01     0.01   0.01  -0.15     0.00   0.00   0.01
    12   1    -0.04   0.03  -0.02    -0.03  -0.01   0.26     0.00   0.00  -0.03
    13   6     0.02  -0.02   0.02    -0.02  -0.01   0.20     0.00   0.00  -0.01
    14   1     0.02   0.04  -0.02    -0.30   0.48  -0.22     0.01  -0.04   0.02
    15   1     0.08  -0.06  -0.02     0.33  -0.48  -0.23    -0.02   0.04   0.02
    16   6     0.05  -0.05   0.01     0.00   0.01  -0.02     0.02   0.01  -0.20
    17   6     0.12   0.11   0.01    -0.01  -0.01   0.01    -0.01   0.00   0.17
    18   1    -0.41   0.16   0.06     0.02   0.03  -0.02    -0.28   0.55  -0.12
    19   1     0.28  -0.62  -0.01    -0.03   0.07   0.00     0.06  -0.03  -0.40
    20   1    -0.44   0.24  -0.09     0.07  -0.07  -0.01     0.24  -0.52  -0.19
    21   8    -0.09   0.04  -0.01     0.01   0.00  -0.05    -0.01   0.00   0.03
    22   8    -0.03  -0.07  -0.01     0.00   0.01   0.01     0.00   0.00   0.04
                     28                     29                     30
                      A                      A                      A
 Frequencies --   1083.1820              1098.0689              1137.4668
 Red. masses --      1.5638                 1.8671                 2.7708
 Frc consts  --      1.0810                 1.3264                 2.1122
 IR Inten    --      1.0456                 4.4389                12.0110
  Atom  AN      X      Y      Z        X      Y      Z        X      Y      Z
     1   6    -0.01  -0.02  -0.04     0.12  -0.05   0.07     0.08   0.02  -0.01
     2   1    -0.02   0.06   0.10     0.55  -0.01  -0.14    -0.09  -0.07  -0.03
     3   6     0.01   0.00   0.01    -0.13  -0.03  -0.06    -0.12   0.00   0.01
     4   1     0.02   0.00  -0.02    -0.47   0.19   0.15    -0.16   0.02   0.01
     5   6     0.00   0.09   0.13     0.02   0.05  -0.03     0.25  -0.09   0.06
     6   1    -0.02  -0.20  -0.26     0.20   0.05  -0.13     0.27  -0.13   0.01
     7   6     0.00  -0.09  -0.13    -0.03  -0.05   0.02    -0.15   0.11  -0.08
     8   1     0.59   0.10   0.12    -0.09   0.12  -0.03    -0.03  -0.16   0.02
     9   1     0.00   0.19   0.27     0.22   0.02   0.01    -0.77   0.01   0.04
    10   1    -0.56   0.08   0.17    -0.16   0.08  -0.07    -0.04  -0.07   0.15
    11   6     0.00   0.00   0.00    -0.05   0.05   0.01    -0.06   0.01  -0.01
    12   1     0.00   0.00  -0.01    -0.31   0.20   0.03     0.00  -0.03   0.08
    13   6     0.00   0.00   0.00     0.03  -0.09   0.00     0.09   0.04   0.01
    14   1     0.00   0.00   0.00     0.10  -0.04   0.00     0.13   0.05   0.02
    15   1     0.00   0.00   0.00     0.07  -0.04   0.01     0.12   0.05   0.01
    16   6     0.00   0.00   0.00     0.02  -0.03   0.00    -0.03   0.02   0.00
    17   6     0.00   0.00   0.00    -0.01   0.02   0.00     0.02   0.00   0.00
    18   1     0.00   0.00   0.00    -0.03   0.03   0.00    -0.02  -0.02   0.01
    19   1     0.00   0.01   0.00    -0.01   0.01   0.00     0.04  -0.10  -0.01
    20   1     0.00   0.00   0.00    -0.03   0.04   0.00    -0.02  -0.01  -0.02
    21   8     0.00   0.00   0.00     0.04   0.08   0.01    -0.04  -0.07  -0.01
    22   8     0.00   0.00   0.00    -0.03  -0.02   0.00     0.02   0.00   0.00
                     31                     32                     33
                      A                      A                      A
 Frequencies --   1154.4832              1285.4900              1291.2746
 Red. masses --      3.9401                 1.0977                 2.7567
 Frc consts  --      3.0941                 1.0688                 2.7081
 IR Inten    --     75.6107                26.2302               513.6931
  Atom  AN      X      Y      Z        X      Y      Z        X      Y      Z
     1   6     0.05  -0.06   0.02     0.00   0.00   0.00    -0.04   0.01   0.01
     2   1     0.23   0.01   0.00     0.02   0.00   0.00    -0.04   0.01   0.00
     3   6    -0.01   0.06  -0.02     0.00   0.01  -0.01     0.04  -0.04   0.00
     4   1    -0.07   0.10   0.05     0.04  -0.02   0.02    -0.20   0.12  -0.02
     5   6    -0.09   0.06  -0.04     0.00   0.00   0.00     0.00  -0.01   0.00
     6   1    -0.12   0.04  -0.06    -0.01  -0.01   0.00     0.17   0.04  -0.02
     7   6     0.05  -0.07   0.05     0.00   0.00   0.00     0.00   0.02  -0.01
     8   1    -0.03   0.11  -0.02     0.00   0.00   0.00     0.02  -0.03   0.00
     9   1     0.40   0.00  -0.01     0.00   0.00   0.00    -0.07   0.00   0.00
    10   1    -0.03   0.05  -0.10     0.00   0.00   0.00     0.01  -0.01   0.03
    11   6    -0.15  -0.04  -0.01    -0.01   0.00   0.04     0.06  -0.03   0.02
    12   1    -0.29   0.06  -0.02     0.08  -0.04  -0.05    -0.38   0.25  -0.05
    13   6     0.19   0.23   0.02    -0.01  -0.01   0.02     0.02   0.07   0.01
    14   1     0.33   0.24   0.07     0.61   0.40   0.04     0.16   0.08   0.05
    15   1     0.33   0.25   0.01    -0.53  -0.37  -0.09    -0.26  -0.19  -0.07
    16   6    -0.08   0.07   0.00    -0.04   0.01   0.00     0.30  -0.09   0.01
    17   6     0.04  -0.02   0.00     0.01   0.00   0.01    -0.07  -0.03   0.00
    18   1    -0.02  -0.07   0.03     0.02  -0.04   0.02     0.07   0.23  -0.16
    19   1     0.08  -0.18  -0.01     0.03  -0.06  -0.07    -0.19   0.46  -0.01
    20   1    -0.01  -0.06  -0.04    -0.03  -0.03  -0.03     0.02   0.18   0.19
    21   8    -0.11  -0.25  -0.02     0.03   0.00  -0.04    -0.17  -0.03  -0.03
    22   8     0.07   0.03   0.01     0.00   0.00   0.00    -0.01   0.03   0.00
                     34                     35                     36
                      A                      A                      A
 Frequencies --   1313.6829              1324.2717              1343.0084
 Red. masses --      1.6723                 1.2845                 1.3268
 Frc consts  --      1.7004                 1.3272                 1.4100
 IR Inten    --    110.3317                10.0022                 8.3613
  Atom  AN      X      Y      Z        X      Y      Z        X      Y      Z
     1   6     0.10  -0.02   0.00    -0.01  -0.06   0.05    -0.06  -0.05   0.02
     2   1    -0.24  -0.11   0.06    -0.40  -0.17   0.11     0.57   0.14  -0.07
     3   6    -0.08   0.09   0.00     0.06   0.05   0.01     0.00   0.07  -0.02
     4   1     0.11  -0.04   0.03    -0.43   0.37  -0.03     0.32  -0.14   0.04
     5   6     0.03   0.05  -0.03    -0.02   0.06  -0.04    -0.07  -0.04   0.03
     6   1    -0.35  -0.07   0.03     0.54   0.20  -0.16     0.52   0.11  -0.09
     7   6    -0.01  -0.04   0.03     0.00   0.01  -0.01     0.01   0.05  -0.03
     8   1    -0.07   0.11  -0.02     0.04   0.01   0.01     0.11  -0.13   0.04
     9   1     0.12  -0.02   0.00    -0.02   0.01  -0.01    -0.04   0.03  -0.01
    10   1    -0.07   0.06  -0.09     0.03   0.00  -0.01     0.12  -0.09   0.11
    11   6    -0.09   0.01  -0.01    -0.01  -0.08   0.00    -0.06   0.03   0.00
    12   1     0.63  -0.45   0.05     0.19  -0.21   0.00     0.29  -0.20   0.01
    13   6     0.06  -0.04   0.00    -0.03   0.00   0.00     0.03  -0.02   0.00
    14   1    -0.01  -0.10   0.00     0.03   0.01   0.02     0.00  -0.04   0.00
    15   1    -0.02  -0.11  -0.02     0.04   0.02  -0.01     0.05  -0.01   0.00
    16   6     0.10  -0.03   0.00    -0.02   0.00   0.00     0.03  -0.01   0.00
    17   6    -0.02  -0.01   0.00     0.00   0.00   0.00     0.00  -0.01   0.00
    18   1     0.00   0.10  -0.06     0.00  -0.02   0.01    -0.01   0.04  -0.02
    19   1    -0.05   0.14   0.00     0.01  -0.03   0.00    -0.02   0.04   0.01
    20   1    -0.01   0.08   0.07     0.00  -0.01  -0.01    -0.01   0.03   0.03
    21   8    -0.06   0.02   0.00     0.02   0.00   0.00    -0.02   0.00   0.00
    22   8    -0.01   0.00   0.00     0.00   0.00   0.00     0.00   0.00   0.00
                     37                     38                     39
                      A                      A                      A
 Frequencies --   1355.4070              1418.6484              1423.5083
 Red. masses --      1.3431                 1.4132                 1.3384
 Frc consts  --      1.4537                 1.6757                 1.5979
 IR Inten    --      6.7941               115.0847                 7.0940
  Atom  AN      X      Y      Z        X      Y      Z        X      Y      Z
     1   6     0.04  -0.07   0.04     0.00   0.00   0.00     0.01   0.01   0.00
     2   1    -0.44  -0.20   0.15     0.01   0.00   0.00    -0.06  -0.02   0.00
     3   6    -0.06  -0.05   0.00    -0.01   0.00   0.00    -0.02  -0.01   0.00
     4   1     0.48  -0.42   0.02     0.02  -0.01   0.00     0.05  -0.06   0.00
     5   6    -0.01   0.07  -0.05     0.00   0.00   0.00     0.02   0.00   0.00
     6   1     0.37   0.16  -0.13     0.00   0.00   0.00    -0.04  -0.02   0.02
     7   6    -0.01   0.00   0.00     0.00   0.00   0.00    -0.11   0.01   0.00
     8   1     0.03   0.05   0.01    -0.01   0.00  -0.01     0.35   0.05   0.18
     9   1     0.03   0.00  -0.01    -0.01   0.00   0.00     0.34   0.10  -0.04
    10   1     0.03   0.01  -0.06    -0.01   0.01   0.00     0.36  -0.19  -0.10
    11   6     0.00   0.08   0.00     0.00   0.00   0.00     0.03   0.03   0.00
    12   1    -0.21   0.22  -0.01     0.03  -0.01   0.00     0.05   0.02   0.01
    13   6     0.04   0.00   0.00    -0.01   0.00   0.00    -0.12  -0.02  -0.01
    14   1    -0.07  -0.01  -0.03     0.02   0.00   0.01     0.42   0.11   0.12
    15   1    -0.09  -0.03   0.02     0.04   0.00   0.00     0.47   0.15  -0.03
    16   6    -0.01   0.01   0.00     0.09  -0.03   0.00     0.02  -0.01   0.00
    17   6     0.00   0.00   0.00    -0.09   0.13   0.00    -0.02   0.00   0.00
    18   1     0.00  -0.01   0.01     0.30  -0.49   0.28     0.06   0.10  -0.07
    19   1     0.00  -0.01   0.00     0.03  -0.39   0.00     0.00  -0.07   0.01
    20   1     0.00  -0.01  -0.01     0.37  -0.43  -0.29     0.06   0.08   0.10
    21   8    -0.01   0.00   0.00    -0.04   0.00   0.00     0.00  -0.02   0.00
    22   8     0.00   0.00   0.00    -0.01   0.00   0.00     0.00   0.01   0.00
                     40                     41                     42
                      A                      A                      A
 Frequencies --   1426.3073              1471.0617              1471.7225
 Red. masses --      1.3025                 1.0799                 1.0424
 Frc consts  --      1.5612                 1.3768                 1.3303
 IR Inten    --     10.3386                31.8824                11.3881
  Atom  AN      X      Y      Z        X      Y      Z        X      Y      Z
     1   6     0.00  -0.02   0.01     0.00   0.00   0.00     0.01   0.00   0.00
     2   1    -0.01  -0.02   0.01    -0.01   0.00   0.00    -0.03   0.00   0.01
     3   6    -0.02   0.00   0.00    -0.01   0.00   0.00     0.00   0.00   0.00
     4   1     0.11  -0.09   0.01     0.02  -0.02   0.00     0.00   0.00   0.00
     5   6    -0.02   0.02  -0.01     0.00   0.00   0.00     0.00  -0.01  -0.02
     6   1     0.04   0.03  -0.02     0.00   0.00   0.00     0.00   0.03   0.03
     7   6     0.11  -0.01   0.01     0.00   0.00   0.00     0.00  -0.02  -0.05
     8   1    -0.38  -0.02  -0.20    -0.01   0.02  -0.01    -0.33   0.25  -0.21
     9   1    -0.36  -0.11   0.05    -0.01   0.01   0.02     0.08   0.41   0.55
    10   1    -0.39   0.21   0.08     0.00  -0.01   0.00     0.20  -0.33   0.38
    11   6     0.03   0.03   0.00     0.01   0.01   0.00     0.00   0.00   0.00
    12   1     0.06   0.01   0.00     0.03   0.00   0.00     0.00   0.00   0.00
    13   6    -0.10  -0.02  -0.01    -0.03  -0.02   0.00     0.00   0.00   0.00
    14   1     0.37   0.10   0.11     0.11   0.14  -0.05     0.00   0.00   0.00
    15   1     0.43   0.14  -0.03     0.13   0.15   0.08    -0.01  -0.01   0.00
    16   6     0.01  -0.01   0.00     0.02  -0.02   0.00     0.00   0.00   0.00
    17   6    -0.01  -0.01   0.00     0.05   0.00   0.01     0.00   0.00   0.00
    18   1     0.05   0.12  -0.08    -0.34  -0.33   0.25     0.01   0.01  -0.01
    19   1     0.00  -0.06   0.01    -0.07   0.50  -0.05     0.00  -0.02   0.00
    20   1     0.05   0.09   0.10    -0.41  -0.26  -0.37     0.01   0.01   0.01
    21   8     0.00  -0.02   0.00    -0.01  -0.01   0.00     0.00   0.00   0.00
    22   8     0.00   0.00   0.00     0.01   0.02   0.00     0.00   0.00   0.00
                     43                     44                     45
                      A                      A                      A
 Frequencies --   1487.7208              1491.4792              1491.7693
 Red. masses --      1.0556                 1.0608                 1.0622
 Frc consts  --      1.3765                 1.3904                 1.3927
 IR Inten    --     12.2375                17.4486                 7.6438
  Atom  AN      X      Y      Z        X      Y      Z        X      Y      Z
     1   6     0.00   0.00   0.00    -0.02  -0.01   0.00    -0.02  -0.01   0.00
     2   1     0.00   0.00   0.00     0.07   0.02  -0.01     0.08   0.02  -0.01
     3   6     0.00   0.00   0.00     0.01   0.00   0.00     0.01   0.00   0.00
     4   1     0.01  -0.01   0.00     0.00   0.01   0.00     0.03  -0.01   0.00
     5   6     0.00   0.00   0.00     0.00  -0.01   0.00     0.00  -0.01   0.00
     6   1     0.00   0.00   0.00     0.01   0.00   0.01     0.02   0.00   0.01
     7   6     0.00   0.00   0.00     0.01  -0.03   0.01     0.01  -0.03   0.01
     8   1    -0.01  -0.03   0.00     0.10   0.44  -0.01     0.11   0.48  -0.01
     9   1     0.02   0.00  -0.01    -0.28  -0.02   0.13    -0.31  -0.02   0.15
    10   1    -0.01  -0.01   0.03     0.16   0.08  -0.34     0.18   0.08  -0.37
    11   6     0.00   0.00   0.00     0.00   0.00   0.00     0.00   0.00   0.00
    12   1    -0.02   0.01   0.00     0.02  -0.02   0.00    -0.02   0.01  -0.01
    13   6    -0.01   0.04   0.00     0.01  -0.04   0.00    -0.01   0.04   0.00
    14   1     0.02  -0.33   0.23    -0.10   0.31  -0.24     0.08  -0.31   0.23
    15   1     0.13  -0.27  -0.24    -0.08   0.29   0.24     0.08  -0.29  -0.24
    16   6    -0.01   0.01   0.02     0.01   0.00   0.01    -0.01   0.01  -0.01
    17   6     0.00   0.00   0.04    -0.02   0.00   0.02     0.01   0.00  -0.02
    18   1     0.42  -0.07   0.00     0.30   0.04  -0.06    -0.24  -0.04   0.05
    19   1     0.05   0.04  -0.57     0.04  -0.06  -0.31    -0.03   0.05   0.24
    20   1    -0.40   0.04  -0.09    -0.15   0.09   0.03     0.11  -0.07  -0.03
    21   8     0.01   0.01   0.00     0.00  -0.01   0.00     0.00   0.01   0.00
    22   8     0.00   0.00   0.00     0.00   0.00   0.00     0.00   0.00   0.00
                     46                     47                     48
                      A                      A                      A
 Frequencies --   1745.5696              1755.8565              1843.2819
 Red. masses --      6.3969                 5.7722                11.4653
 Frc consts  --     11.4840                10.4851                22.9520
 IR Inten    --     11.0194                 0.7910               494.0779
  Atom  AN      X      Y      Z        X      Y      Z        X      Y      Z
     1   6     0.39   0.21  -0.15    -0.06  -0.10   0.05     0.00   0.00   0.00
     2   1    -0.40   0.01  -0.07     0.27  -0.03   0.01     0.00   0.00   0.00
     3   6    -0.15   0.08   0.01    -0.26   0.35  -0.02     0.00   0.00   0.00
     4   1    -0.02   0.01   0.03     0.47  -0.08   0.07    -0.03   0.01   0.00
     5   6    -0.38  -0.21   0.17     0.11   0.07  -0.05     0.00   0.00   0.00
     6   1     0.47  -0.07  -0.02    -0.13   0.00  -0.04     0.00   0.00   0.00
     7   6     0.06   0.01  -0.01    -0.02   0.00   0.01     0.00   0.00   0.00
     8   1     0.14   0.08   0.02    -0.06  -0.02  -0.01     0.00   0.00   0.00
     9   1    -0.18  -0.04   0.04     0.05   0.01  -0.01     0.00   0.00   0.00
    10   1     0.14   0.00  -0.08    -0.04   0.00   0.02     0.00   0.00   0.00
    11   6     0.09  -0.10   0.00     0.28  -0.35   0.01     0.00   0.00   0.00
    12   1    -0.14   0.03   0.04    -0.43   0.04  -0.02     0.02  -0.01   0.00
    13   6    -0.02   0.01   0.00    -0.05   0.04   0.00    -0.05  -0.02   0.00
    14   1    -0.03   0.01  -0.01    -0.15   0.03  -0.04     0.07   0.08  -0.02
    15   1    -0.05   0.01   0.01    -0.14   0.03   0.02     0.07   0.07   0.04
    16   6     0.00   0.00   0.00    -0.01   0.01   0.00     0.26   0.73   0.06
    17   6     0.00   0.00   0.00     0.00   0.00   0.00     0.01  -0.07   0.00
    18   1     0.00   0.00   0.00     0.01   0.00   0.00    -0.02  -0.13   0.05
    19   1     0.00   0.00   0.00     0.00  -0.01   0.00    -0.05   0.26   0.02
    20   1     0.00   0.00   0.00     0.01   0.00   0.00     0.00  -0.13  -0.07
    21   8     0.00   0.00   0.00     0.01   0.00   0.00     0.02  -0.03   0.00
    22   8     0.00   0.00   0.00     0.00   0.00   0.00    -0.19  -0.46  -0.04
                     49                     50                     51
                      A                      A                      A
 Frequencies --   3034.6086              3042.2475              3074.3089
 Red. masses --      1.0566                 1.0368                 1.1056
 Frc consts  --      5.7328                 5.6539                 6.1567
 IR Inten    --     34.8290                36.3559                18.4532
  Atom  AN      X      Y      Z        X      Y      Z        X      Y      Z
     1   6     0.00   0.00   0.00     0.00   0.00   0.00     0.00   0.00   0.00
     2   1     0.00   0.00   0.00     0.00  -0.01   0.00     0.00   0.00   0.00
     3   6     0.00   0.00   0.00     0.00   0.00   0.00     0.00   0.00   0.00
     4   1     0.00  -0.01   0.00     0.00   0.00   0.00     0.00   0.00   0.00
     5   6     0.00   0.00   0.00     0.00   0.00   0.00     0.00   0.00   0.00
     6   1     0.00   0.00   0.00     0.00   0.02  -0.01     0.00   0.00   0.00
     7   6     0.00   0.00   0.00     0.05   0.00  -0.01     0.00   0.00   0.00
     8   1     0.00   0.00  -0.01    -0.25   0.07   0.59     0.00   0.00   0.00
     9   1     0.00  -0.01   0.00    -0.10   0.39  -0.27     0.00   0.00   0.00
    10   1     0.00   0.01   0.00    -0.25  -0.48  -0.25     0.00   0.00   0.00
    11   6     0.00   0.00   0.00     0.00   0.00   0.00     0.00   0.00   0.00
    12   1     0.01   0.03   0.00     0.00   0.00   0.00     0.00   0.00   0.00
    13   6    -0.03   0.06  -0.01     0.00   0.00   0.00     0.01   0.00  -0.09
    14   1     0.20  -0.30  -0.53     0.00   0.00  -0.01    -0.26   0.37   0.62
    15   1     0.15  -0.42   0.62     0.00  -0.01   0.01     0.14  -0.36   0.50
    16   6     0.00   0.00   0.00     0.00   0.00   0.00     0.00   0.00   0.00
    17   6     0.00   0.00   0.00     0.00   0.00   0.00     0.00   0.00   0.00
    18   1     0.01   0.01   0.02     0.00   0.00   0.00     0.00   0.01   0.02
    19   1    -0.01  -0.01   0.00     0.00   0.00   0.00    -0.03  -0.01   0.00
    20   1     0.01   0.02  -0.03     0.00   0.00   0.00     0.02   0.04  -0.04
    21   8     0.00   0.00   0.00     0.00   0.00   0.00     0.00   0.00   0.00
    22   8     0.00   0.00   0.00     0.00   0.00   0.00     0.00   0.00   0.00
                     52                     53                     54
                      A                      A                      A
 Frequencies --   3080.2800              3098.9095              3127.1617
 Red. masses --      1.0388                 1.0997                 1.1011
 Frc consts  --      5.8074                 6.2222                 6.3440
 IR Inten    --      1.7962                18.9984                14.0857
  Atom  AN      X      Y      Z        X      Y      Z        X      Y      Z
     1   6     0.00   0.00   0.00     0.00   0.00   0.00     0.00   0.00   0.00
     2   1     0.00   0.00   0.00     0.00   0.00   0.00     0.00   0.00   0.00
     3   6     0.00   0.00   0.00     0.00   0.00   0.00     0.00   0.00   0.00
     4   1     0.00   0.00   0.00     0.00   0.00   0.00     0.00   0.00   0.00
     5   6     0.00   0.00   0.00     0.00   0.00   0.00    -0.01   0.02  -0.01
     6   1     0.00   0.00   0.00     0.00   0.01   0.00     0.08  -0.21   0.15
     7   6     0.00   0.00   0.00     0.00  -0.05  -0.08     0.00  -0.07   0.05
     8   1     0.00   0.00   0.00    -0.28   0.07   0.63     0.12  -0.05  -0.27
     9   1     0.00   0.00   0.00     0.01  -0.04   0.01    -0.19   0.68  -0.46
[...]
 001318,-0.00001101,0.00004918,-0.00002468,0.00000134,-0.12265783,-0.25
 257322,-0.01988462,0.13314131,0.27055573,0.00344299,0.00101580,-0.0080
 8305,-0.00051935,0.00036664,0.00030841,-0.00366350,0.00128253,0.007210
 47,-0.00029517,0.00032488,0.01060278,0.00040043,-0.00206392,0.00041686
 ,0.00053310,0.00015363,0.00000595,0.00000494,0.00054617,0.00009117,-0.
 00001393,-0.00004192,0.00000053,-0.00009666,-0.00001844,-0.00003652,0.
 00014000,-0.00000003,0.00000723,-0.01403926,-0.02141791,-0.04021909,0.
 01533343,0.02189259,0.02646404,0.00257373,0.00022294,-0.00154794,0.000
 11311,0.00013092,0.00051429,-0.01818785,0.00984995,-0.00195656,-0.0003
 7651,-0.00212005,0.00034192,-0.00012300,-0.00059238,-0.00014705,-0.000
 04430,-0.00024096,0.00003083,0.00008206,0.00018599,0.00012763,0.000079
 36,-0.00004740,-0.00002548,0.00008440,-0.00005797,0.00005182,0.0001480
 9,-0.00003036,0.00006075,-0.22340166,0.03451572,-0.00906842,-0.0093908
 1,0.00311143,-0.00042059,0.51608273,-0.00128425,-0.00411438,-0.0008676
 5,0.00139275,-0.00017081,0.00018834,0.03143497,0.00009188,0.00174084,0
 .00019757,-0.00084091,0.00042925,0.00017887,-0.00027946,0.00026926,0.0
 0006378,0.00005876,-0.00038671,0.00025625,0.00076685,0.00015804,0.0001
 3159,-0.00007454,-0.00003475,-0.00001785,-0.00004404,0.00002398,0.0003
 8024,-0.00006719,0.00006996,0.01860679,-0.09355796,0.00074653,-0.02557
 782,0.00425292,-0.00195422,-0.04388298,0.50971608,-0.00182362,-0.00230
 198,0.01356252,0.00171481,-0.00019201,-0.00025875,0.00060990,0.0012382
 9,0.00537416,0.00028574,-0.00040946,-0.00699823,-0.00098929,0.00118998
 ,-0.00056710,-0.00014720,0.00014245,0.00027286,-0.00010631,-0.00087476
 ,-0.00060486,0.00006385,0.00010929,-0.00003496,-0.00001616,0.00009283,
 0.00001466,-0.00034635,0.00000623,0.00000669,-0.01040539,0.00224705,-0
 .07450058,-0.00155234,0.00046727,0.00148288,-0.00861685,-0.00677941,0.
 57570090,-0.00000838,0.00083761,-0.00232950,-0.00070024,0.00003787,-0.
 00006910,-0.00264375,-0.00198389,-0.00002164,0.00002635,0.00002516,0.0
 0111176,0.00021003,0.00018252,-0.00000404,0.00004203,-0.00005046,-0.00
 000418,-0.00008868,-0.00007422,0.00013287,-0.00009382,0.00001606,0.000
 01570,-0.00001198,0.00000882,-0.00001564,-0.00009534,0.00002250,-0.000
 04347,-0.01380706,0.01859340,0.02605570,0.00050842,-0.00063688,-0.0008
 2457,-0.07654327,0.04234746,0.07600204,0.08806735,0.00017326,-0.000133
 31,0.00045070,0.00002967,-0.00000632,-0.00001449,0.00006963,0.00117116
 ,-0.00011382,-0.00027911,0.00003561,-0.00055248,-0.00008723,0.00003431
 ,0.00001179,-0.00002877,-0.00002577,-0.00001245,-0.00000219,-0.0000594
 1,-0.00000399,-0.00001691,0.00000866,0.00000564,0.00000028,0.00000747,
 -0.00000443,-0.00003533,0.00000754,-0.00001133,0.00627268,-0.00182776,
 -0.00451538,0.00032197,0.00022009,0.00026926,0.03659889,-0.10003317,-0
 .09167293,-0.03955317,0.12069623,0.00016180,0.00011278,-0.00047091,-0.
 00007582,0.00004234,0.00002062,-0.00074556,0.00073033,-0.00003787,-0.0
 0006343,0.00004429,0.00012433,-0.00003987,-0.00006563,0.00001680,-0.00
 000579,-0.00000924,0.00000008,0.00001156,0.00002309,0.00000518,0.00000
 447,-0.00000768,0.00000166,0.00000505,-0.00000480,0.00000150,0.0000175
 8,0.00000144,0.00000454,-0.00069859,0.00252763,0.00563709,0.00086138,-
 0.00018233,0.00013673,0.07013753,-0.09641303,-0.22344384,-0.07596986,0
 .10946308,0.23528235,-0.00050284,-0.00018127,0.00305977,0.00000772,0.0
 0000010,-0.00014938,-0.00246082,-0.00139846,-0.00059880,0.00015259,-0.
 00006715,-0.00107444,-0.00021919,0.00064781,-0.00026785,-0.00003376,0.
 00005473,0.00015893,-0.00016669,-0.00050382,-0.00014936,-0.00008022,0.
 00007207,0.00000885,-0.00001409,0.00002917,-0.00001119,-0.00024566,0.0
 0004464,-0.00005322,-0.00977265,0.02151027,-0.02669215,0.00055652,-0.0
 0073519,0.00079693,-0.05911555,0.03011260,-0.04732846,0.00360283,-0.00
 493561,0.00984251,0.06959365,0.00058405,-0.00005788,-0.00034096,-0.000
 02492,0.00003031,0.00002998,-0.00024159,0.00145040,0.00008572,-0.00033
 159,0.00008031,0.00039595,-0.00007379,-0.00020999,0.00005115,0.0000048
 0,0.00003220,0.00001069,0.00000596,-0.00000528,-0.00001076,-0.00000290
 ,-0.00000047,0.00000481,-0.00000753,0.00000470,-0.00000552,-0.00001619
 ,0.00000309,-0.00000654,0.00559710,-0.00240054,0.00500983,0.00027926,0
 .00019708,-0.00024053,0.02463650,-0.11846524,0.10758275,-0.00216665,0.
 00965156,-0.01127691,-0.02576310,0.14117934,-0.00023330,-0.00007467,0.
 00002232,-0.00006070,0.00001503,-0.00000884,0.00038576,-0.00106391,-0.
 00012969,0.00003419,-0.00002700,0.00005431,0.00003264,0.00016435,-0.00
 006935,0.00001013,0.00003856,0.00003314,-0.00003190,-0.00005969,-0.000
 01550,-0.00001624,0.00001053,0.00000651,-0.00000591,0.00000108,-0.0000
 0526,-0.00003579,0.00001011,-0.00001435,-0.00107896,0.00019739,0.00148
 118,-0.00077680,0.00007959,0.00014434,-0.04195704,0.11298330,-0.221515
 10,-0.00619828,0.01368657,-0.02171043,0.04848193,-0.12415553,0.2316827
 2,-0.00062200,0.00112249,-0.00071507,0.00065400,-0.00020298,0.00022757
 ,0.00057574,-0.00122851,0.00024344,-0.00153225,0.00131362,-0.00006836,
 0.00039113,-0.00059738,0.00009358,-0.00009061,-0.00008601,0.00010361,0
 .00024779,0.00050352,-0.00014252,0.00032551,-0.00011512,-0.00008060,0.
 00009723,-0.00010878,0.00008240,0.00038268,-0.00002833,0.00013799,-0.0
 0059471,0.00463220,0.00014400,0.00273082,0.00003653,0.00023435,-0.0324
 5959,-0.03604938,-0.00325754,0.00407047,0.00799946,0.00321475,0.004208
 42,0.00810437,-0.00202240,0.60663215,-0.00019106,0.00052720,-0.0002904
 5,0.00026666,-0.00006425,0.00010885,0.00154960,-0.00010715,0.00025921,
 -0.00043546,0.00110757,-0.00000076,0.00026318,-0.00022905,0.00001271,-
 0.00002058,-0.00001342,0.00004358,0.00007701,0.00016629,-0.00005630,0.
 00010260,-0.00001799,-0.00002225,0.00003307,-0.00003627,0.00003838,0.0
 0010178,-0.00002276,0.00002954,-0.00117491,-0.00525647,-0.00031203,-0.
 00070492,0.00049998,-0.00003256,-0.03739095,-0.00692566,-0.00221467,-0
 .00015556,0.00021725,-0.00103611,-0.00060167,0.00002483,0.00065300,0.1
 4793130,0.96874779,-0.00005422,0.00006991,0.00002623,0.00005708,-0.000
 00183,0.00003454,0.00010529,-0.00010002,-0.00015421,-0.00009665,0.0001
 3882,-0.00005235,0.00002042,-0.00008183,-0.00000382,-0.00000384,0.0000
 2058,0.00001410,0.00002582,0.00004808,-0.00002151,0.00003870,-0.000008
 97,-0.00001010,0.00000329,-0.00000246,0.00000804,0.00002864,-0.0000084
 6,0.00001439,-0.00011224,0.00003202,-0.00036302,0.00007550,-0.00000117
 ,0.00071982,-0.00343824,-0.00203038,-0.01204118,-0.00141924,-0.0009343
 0,0.00077008,0.00197823,0.00192044,0.00106313,0.03293807,0.05374248,0.
 24244338,0.00003680,-0.00016253,0.00006201,-0.00008192,0.00002607,-0.0
 0002165,-0.00049452,0.00012527,-0.00006165,0.00009329,-0.00029115,0.00
 000236,-0.00006507,0.00008702,-0.00002694,0.00001240,0.00000356,-0.000
 00781,-0.00003204,-0.00005937,0.00002838,-0.00004059,0.00001361,0.0000
 0738,-0.00000836,0.00001002,-0.00000739,-0.00004471,0.00000298,-0.0000
 1544,0.00012097,0.00063993,0.00008774,-0.00016922,-0.00004242,-0.00003
 002,-0.00303253,0.00487415,0.00003264,-0.00041976,-0.00008092,0.000675
 30,-0.00083954,-0.00016176,-0.00067881,-0.12492707,0.05589550,0.001978
 72,0.58782418,-0.00001952,0.00000717,-0.00001220,-0.00000482,-0.000001
 96,-0.00000447,-0.00014184,0.00009740,-0.00000410,-0.00004304,-0.00004
 193,-0.00000020,-0.00001104,-0.00000124,0.00000866,-0.00000204,-0.0000
 0575,-0.00000671,0.00000444,0.00000690,-0.00000121,0.00000391,-0.00000
 507,-0.00000110,0.00000052,-0.00000107,-0.00000113,0.00000969,0.000001
 59,0.00000468,0.00027300,0.00008781,0.00010901,0.00004938,0.00000418,0
 .00000220,0.00019102,-0.00122747,-0.00014180,-0.00067889,0.00051676,0.
 00040455,-0.00079902,0.00048028,-0.00042867,0.05271906,-0.15555933,0.0
 0024955,0.05516999,0.51909848,-0.00000132,-0.00001461,0.00006540,0.000
 00143,0.00000448,0.00000110,-0.00006342,0.00003287,-0.00005924,-0.0000
 1310,-0.00001527,0.00005023,-0.00000592,-0.00000125,-0.00001010,-0.000
 00075,0.00000352,0.00000104,-0.00000064,-0.00000501,0.00000239,-0.0000
 0114,0.00000141,-0.00000104,-0.00000085,0.00000261,-0.00000024,-0.0000
 0344,-0.00000048,0.00000031,0.00010840,0.00011567,-0.00072142,0.000001
 71,-0.00000287,-0.00003134,-0.00032806,0.00013459,0.00041588,-0.000497
 60,-0.00027492,-0.00002504,0.00036758,0.00032369,-0.00014726,0.0016072
 5,0.00054462,-0.09690727,0.00739139,-0.00034425,0.54236652,-0.00000208
 ,-0.00000277,-0.00000870,0.00002275,-0.00000291,0.00000800,0.00007814,
 -0.00002367,0.00000152,0.00002117,-0.00000013,-0.00000646,-0.00000040,
 -0.00002243,-0.00000012,-0.00000081,0.00000081,0.00000422,0.00000671,0
 .00001601,-0.00000156,0.00000765,-0.00000259,-0.00000227,0.00000233,-0
 .00000314,0.00000248,0.00000971,-0.00000180,0.00000363,-0.00020580,-0.
 00021636,-0.00003809,-0.00002018,0.00000421,0.00001141,-0.00126247,0.0
 0160431,0.00117502,-0.00212744,-0.00048427,-0.00093173,0.00023581,-0.0
 0017117,-0.00001433,0.00429420,0.00345563,0.02009842,-0.05403124,-0.01
 397415,-0.03247424,0.05501340,0.00000228,0.00000341,-0.00003348,-0.000
 00309,-0.00000247,-0.00000187,-0.00004421,-0.00001835,0.00000293,-0.00
 002980,-0.00000719,0.00001638,0.00000393,0.00000388,-0.00000099,-0.000
 00016,-0.00000191,0.00000132,-0.00000139,-0.00000101,0.00000311,-0.000
 00162,0.00000047,0.00000037,0.00000051,-0.00000157,-0.00000005,-0.0000
 0154,0.00000118,-0.00000146,0.00001917,0.00009863,0.00017337,0.0000090
 1,0.00000167,-0.00001643,0.00006165,0.00044663,-0.00024631,-0.00026406
 ,0.00047193,-0.00025963,0.00016475,0.00002047,0.00022064,-0.00832195,-
 0.01257532,-0.02786690,-0.01473896,-0.10684742,-0.11759203,0.01744474,
 0.11627889,0.00001278,0.00003379,-0.00001936,-0.00002906,0.00000472,-0
 .00000579,-0.00014583,-0.00003883,-0.00001029,-0.00000162,0.00001499,0
 .00000789,-0.00000118,0.00001430,0.00000184,0.00000225,-0.00000141,-0.
 00000390,-0.00000520,-0.00001181,0.,-0.00000636,0.00000140,0.00000163,
 -0.00000185,0.00000188,-0.00000179,-0.00000698,0.00000170,-0.00000211,
 0.00003665,0.00036696,0.00028641,0.00001665,-0.00001463,-0.00001178,-0
 .00099477,-0.00006431,-0.00010993,-0.00048613,-0.00011938,0.00051974,-
 0.00005618,-0.00013377,-0.00042372,-0.00034990,0.00000903,0.00136703,-
 0.03263012,-0.11500059,-0.24991836,0.03675660,0.12596333,0.26995250,0.
 00002145,-0.00004500,0.00002637,-0.00002140,0.00000661,-0.00000730,-0.
 00011065,0.00006245,-0.00001723,0.00002236,-0.00007124,-0.00000032,-0.
 00001781,0.00002153,-0.00000552,0.00000269,0.00000139,-0.00000265,-0.0
 0000816,-0.00001732,0.00000615,-0.00001112,0.00000368,0.00000263,-0.00
 000266,0.00000341,-0.00000262,-0.00001259,0.00000086,-0.00000437,0.000
 14175,0.00001175,-0.00000942,-0.00005098,-0.00000485,-0.00000710,0.000
 96952,0.00118843,0.00015491,0.00008620,-0.00004527,0.00004616,0.000119
 86,-0.00001668,-0.00004855,-0.01884281,-0.00797985,-0.00202208,-0.3153
 8956,-0.06069653,-0.02896585,-0.00111500,0.00004292,0.00004921,0.33814
 637,0.00000039,0.00006753,0.00001076,-0.00001002,0.00000008,-0.0000016
 5,-0.00007389,-0.00008805,-0.00000207,-0.00002983,0.00007919,-0.000008
 90,0.00001309,0.00000289,0.00000320,0.00000069,0.00000050,0.00000107,-
 0.00000087,-0.00000537,-0.00000833,0.00000134,0.00000015,0.00000068,-0
 .00000067,0.00000046,-0.00000043,-0.00000244,0.00000077,-0.00000055,0.
 00009370,0.00043498,0.00001713,0.00005935,-0.00001148,0.00000721,-0.00
 181897,-0.00184928,-0.00020377,-0.00005711,0.00014996,0.00043331,0.000
 06121,0.00018508,-0.00038583,0.03026958,0.00752643,0.00355662,-0.06851
 729,-0.06290443,-0.00728230,-0.01387679,-0.00347206,0.00034519,0.06680
 661,0.06737801,0.00000537,0.00000796,-0.00007191,-0.00001020,0.0000004
 9,0.00000082,-0.00000473,-0.00001632,0.00001796,-0.00000247,0.00000305
 ,0.00004211,0.00000726,0.00000055,0.00000297,0.00000023,-0.00000173,-0
 .00000221,0.00000012,0.00000365,0.00000510,-0.00000110,-0.00000018,-0.
 00000005,-0.00000013,0.00000017,-0.00000014,0.00000082,-0.00000027,-0.
 00000045,-0.00002916,-0.00000167,0.00031703,0.00000243,0.00000163,-0.0
 0001744,0.00003997,-0.00001189,-0.00068990,0.00011096,0.00022105,0.000
 28079,-0.00014685,-0.00018893,0.00017804,0.00113254,-0.00008707,-0.002
 38249,-0.02957847,-0.00658655,-0.05034022,-0.02707011,-0.00506986,-0.0
 0128986,0.03158996,0.00773682,0.04869720,0.00000322,0.00000659,-0.0000
 4964,0.00002198,-0.00000508,0.00001082,0.00006424,-0.00001673,0.000023
 10,0.00001683,0.00000556,0.00001076,0.00000221,-0.00002340,0.00000340,
 -0.00000333,-0.00000298,0.00000110,0.00000956,0.00002072,0.00000316,0.
 00000847,-0.00000320,-0.00000301,0.00000379,-0.00000368,0.00000345,0.0
 0001355,-0.00000214,0.00000451,-0.00021024,-0.00020846,0.00000773,-0.0
 0000662,0.00000670,-0.00001225,-0.00101073,0.00185624,-0.00126919,0.00
 014702,-0.00019466,0.00009312,-0.00203973,-0.00020158,-0.00073855,0.00
 786578,0.00662024,-0.01852181,-0.06937824,-0.04378859,0.05667231,0.000
 31361,0.00285535,-0.00351637,-0.00547408,-0.01768685,0.02354619,0.0715
 5245,0.00000052,-0.00000570,0.00005875,-0.00000424,0.00000292,-0.00000
 153,-0.00009737,-0.00000961,-0.00002205,-0.00002390,-0.00000966,-0.000
 02806,-0.00000650,0.00000552,-0.00000612,0.00000125,0.00000642,0.00000
 553,-0.00000303,-0.00001004,-0.00000399,-0.00000028,0.00000127,-0.0000
 0005,-0.00000137,0.00000135,-0.00000050,-0.00000689,0.00000053,-0.0000
 0125,0.00010315,0.00023631,-0.00024222,0.00000540,-0.00000557,0.000021
 82,-0.00025536,0.00038782,0.00038306,0.00018181,0.00001026,-0.00012290
 ,0.00025127,0.00077970,-0.00008277,-0.01318403,-0.01617624,0.02290404,
 -0.04460430,-0.14812276,0.12905538,0.00462241,0.01082134,-0.01215412,-
 0.00072498,-0.00387632,0.00412463,0.04942055,0.16031026,-0.00001169,-0
 .00002035,-0.00007260,0.00003061,-0.00000819,0.00001025,0.00019396,0.0
 0002572,0.00003167,-0.00000098,-0.00001358,0.00001307,0.00000961,-0.00
 002712,0.00000189,-0.00000263,-0.00000245,0.00000236,0.00000999,0.0000
 2646,0.00000459,0.00000975,-0.00000369,-0.00000267,0.00000356,-0.00000
 469,0.00000320,0.00001517,-0.00000228,0.00000398,-0.00015139,-0.000502
 38,0.00023379,-0.00001075,0.00002145,-0.00001050,0.00105296,0.00045367
 ,-0.00002262,0.00013791,0.00016305,-0.00049827,-0.00109348,-0.00017097
 ,0.00059509,-0.00044049,-0.00196134,0.00222216,0.05633705,0.12702417,-
 0.19132884,0.00776066,0.01800818,-0.01940268,-0.00093198,-0.00404835,0
 .00364652,-0.06210165,-0.13760326,0.20622041,0.00050073,-0.00193021,0.
 00069083,-0.00049368,0.00018801,-0.00021219,0.00078553,0.00107856,-0.0
 0017428,-0.00306328,-0.00095510,-0.00034479,-0.00048134,0.00064872,-0.
 00002664,0.00010289,0.00009374,-0.00030313,-0.00018106,-0.00032721,0.0
 0020991,-0.00033589,0.00010349,0.00007207,-0.00011583,0.00011239,-0.00
 008470,-0.00031034,0.00001738,-0.00012316,-0.02549916,-0.05063280,-0.0
 0441619,-0.00873752,0.00254580,-0.00085125,-0.09539528,-0.03956826,-0.
 00426893,0.00114973,-0.00332100,-0.00560462,-0.00157637,-0.00768783,0.
 00438122,-0.26526747,0.06023239,-0.01071519,-0.03287623,0.00127558,-0.
 00319100,-0.00142439,-0.00004719,0.00071014,-0.00217660,0.00588375,0.0
 0017436,-0.00169674,0.00061863,-0.00082967,0.51082583,0.00026123,0.000
 78645,0.00018874,-0.00023543,0.00001293,-0.00007800,0.00261056,-0.0016
 1705,0.00027217,0.00215222,0.00102473,0.00014929,0.00008681,0.00004072
 ,0.00010367,0.00001071,0.00003154,-0.00007249,-0.00000997,-0.00007559,
 -0.00008435,-0.00002563,0.00000906,0.00001508,-0.00003503,0.00002623,-
 0.00002209,-0.00005277,0.00001656,-0.00001458,-0.00892907,-0.00170260,
 -0.00080930,0.00106594,0.00083625,0.00000525,-0.02640259,-0.19948962,-
 0.00885864,-0.01562259,-0.02979173,-0.00427764,-0.01700043,-0.03171209
 ,-0.00177182,0.01178825,-0.11273450,-0.00255088,0.02608821,0.00791607,
 0.00121993,-0.00115970,-0.00022547,-0.00075713,0.00293396,-0.00502605,
 -0.00034658,-0.00163158,0.00031276,0.00047082,0.10718911,0.38791017,-0
 .00014411,-0.00008560,0.00021441,-0.00006081,-0.00001602,-0.00005681,0
 .00029176,0.00002660,0.00022969,-0.00018346,-0.00013896,-0.00099947,-0
 .00007507,0.00016359,0.00001517,-0.00001045,-0.00003708,-0.00005873,-0
 .00001788,-0.00004249,0.00000112,-0.00002878,0.00000185,0.00001407,0.0
 0000273,-0.00000231,-0.00000603,-0.00001930,0.00000630,-0.00000999,-0.
 00257803,-0.00383208,0.00221943,-0.00059998,0.00018647,0.00102862,-0.0
 0358728,-0.00966393,-0.06329541,-0.01615182,-0.02672523,0.00364304,0.0
 1368868,0.02224647,0.00913490,-0.01350846,0.00088929,-0.05334615,-0.00
 150810,-0.00058341,0.01793954,-0.00282898,0.00241396,-0.00019486,-0.00
 009727,-0.00017254,0.00192899,0.00282457,-0.00230069,-0.00052803,0.035
 28431,0.02489393,0.06843534,0.00019639,-0.00031620,0.00025460,-0.00023
 762,0.00007525,-0.00007839,0.00000606,0.00035523,-0.00007031,0.0004982
 0,-0.00028218,0.00003817,-0.00011264,0.00021823,-0.00002928,0.00003333
 ,0.00003205,-0.00004801,-0.00008697,-0.00017957,0.00004458,-0.00011681
 ,0.00004202,0.00002966,-0.00003597,0.00004072,-0.00002959,-0.00013852,
 0.00000942,-0.00004997,0.00024995,-0.00386260,-0.00016038,-0.00143907,
 0.00027133,-0.00012391,0.00021056,0.01175455,0.00008870,-0.00137075,-0
 .00240139,-0.00093594,-0.00141030,-0.00234475,0.00057170,-0.18813943,-
 0.22787401,-0.02096469,0.01374294,0.01046286,-0.00060275,0.00018435,0.
 00284966,0.00064729,0.00372323,-0.00111498,0.00023300,-0.00020299,0.00
 370726,0.00001349,-0.07373353,-0.08308222,-0.01069227,0.24817958,0.000
 19556,-0.00022415,0.00032566,-0.00029823,0.00007157,-0.00011406,-0.000
 45086,0.00005491,-0.00012292,0.00033854,-0.00046208,-0.00001210,-0.000
 15802,0.00023765,0.00000965,0.00003174,0.00002944,-0.00006727,-0.00007
 881,-0.00018514,0.00002016,-0.00010667,0.00002576,0.00002851,-0.000041
 92,0.00004184,-0.00004021,-0.00012404,0.00002199,-0.00003899,0.0006986
 1,-0.00226384,-0.00006049,-0.00100296,0.00013956,-0.00010203,0.0033349
 8,0.01141877,0.00043654,-0.00100975,-0.00132133,-0.00012696,-0.0009628
 9,-0.00126786,-0.00001026,-0.20649793,-0.66909893,-0.04909534,-0.01427
 761,-0.05349822,-0.00590579,0.00279376,-0.00499574,0.00153868,-0.00148
 188,0.00140702,0.00021107,0.00297700,-0.00466059,-0.00182486,-0.075517
 97,-0.01654877,-0.00722815,0.29163934,0.74107813,0.00002610,-0.0000207
 3,0.00004331,-0.00002030,-0.00000220,-0.00002565,-0.00003248,0.0000432
 3,0.00012113,0.00006789,-0.00004769,-0.00011780,-0.00001974,0.00004227
 ,0.00001196,0.00000319,-0.00001161,-0.00001077,-0.00001461,-0.00002816
 ,0.00000163,-0.00002163,0.00000374,0.00000714,-0.00000245,0.00000026,-
 0.00000540,-0.00001639,0.00000604,-0.00000754,0.00004466,-0.00038425,0
 .00020346,-0.00013708,0.00003305,-0.00021009,-0.00026940,0.00100851,0.
 00725193,0.00046811,0.00068399,-0.00025820,-0.00076204,-0.00113108,-0.
 00035620,-0.01957420,-0.05031716,-0.08340081,-0.00203658,-0.00468644,0
 .02864796,-0.00244537,0.00428541,-0.00074263,0.00024685,0.00000274,-0.
 00032289,0.00300825,-0.00398371,-0.00112278,-0.01037709,-0.00767537,0.
 01369115,0.03186429,0.06217916,0.03660107\\-0.00000582,-0.00000490,-0.
 00000003,-0.00000084,-0.00000273,-0.00001161,0.00000245,-0.00000385,-0
 .00000660,0.00000318,-0.00000459,-0.00001312,0.00000098,0.00000605,0.0
 0000882,0.00000056,0.00001587,0.00001487,0.00000477,0.00000395,0.00001
 677,0.00000347,0.00001867,0.00001200,-0.00000013,0.00000538,0.00000339
 ,-0.00000144,0.00000519,0.00002358,-0.00001110,-0.00000550,0.00000202,
 -0.00000796,0.00000399,0.00001984,0.00000393,0.00001151,0.00000310,-0.
 00000697,-0.00001287,0.00000441,0.00000379,0.00000162,0.00000511,0.000
 05090,0.00009487,-0.00001589,0.00000442,-0.00001913,-0.00001512,0.0000
 0129,-0.00001963,0.00000291,-0.00000104,-0.00000025,-0.00001440,0.0000
 0572,-0.00000117,0.00000331,-0.00002098,-0.00001205,-0.00001194,-0.000
 02920,-0.00008042,-0.00003145\\\@


 IMAGINATION WILL OFTEN CARRY US TO WORLDS THAT NEVER WERE.
 BUT WITHOUT IT, WE GO NOWHERE. -- CARL SAGAN (COSMOS)
 Job cpu time:       0 days  2 hours 22 minutes 59.0 seconds.
 File lengths (MBytes):  RWF=    324 Int=      0 D2E=      0 Chk=     15 Scr=      1
 Normal termination of Gaussian 09 at Thu Feb 24 23:34:48 2022.
