 Entering Gaussian System, Link 0=g09
 Input=dieneophile.com
 Output=dieneophile.log
 Initial command:
 /apps/applications/gaussian/G09.D01/2/default/g09/l1.exe "/nobackup/pmmass/Temp/Gau-16416.inp" -scrdir="/nobackup/pmmass/Temp/"
 Entering Link 1 = /apps/applications/gaussian/G09.D01/2/default/g09/l1.exe PID=     16417.
  
 Copyright (c) 1988,1990,1992,1993,1995,1998,2003,2009,2013,
            Gaussian, Inc.  All Rights Reserved.
  
 This is part of the Gaussian(R) 09 program.  It is based on
 the Gaussian(R) 03 system (copyright 2003, Gaussian, Inc.),
 the Gaussian(R) 98 system (copyright 1998, Gaussian, Inc.),
 the Gaussian(R) 94 system (copyright 1995, Gaussian, Inc.),
 the Gaussian 92(TM) system (copyright 1992, Gaussian, Inc.),
 the Gaussian 90(TM) system (copyright 1990, Gaussian, Inc.),
 the Gaussian 88(TM) system (copyright 1988, Gaussian, Inc.),
 the Gaussian 86(TM) system (copyright 1986, Carnegie Mellon
 University), and the Gaussian 82(TM) system (copyright 1983,
 Carnegie Mellon University). Gaussian is a federally registered
 trademark of Gaussian, Inc.
  
 This software contains proprietary and confidential information,
 including trade secrets, belonging to Gaussian, Inc.
  
 This software is provided under written license and may be
 used, copied, transmitted, or stored only in accord with that
 written license.
  
 The following legend is applicable only to US Government
 contracts under FAR:
  
                    RESTRICTED RIGHTS LEGEND
  
 Use, reproduction and disclosure by the US Government is
 subject to restrictions as set forth in subparagraphs (a)
 and (c) of the Commercial Computer Software - Restricted
 Rights clause in FAR 52.227-19.
  
 Gaussian, Inc.
 340 Quinnipiac St., Bldg. 40, Wallingford CT 06492
  
  
 ---------------------------------------------------------------
 Warning -- This program may not be used in any manner that
 competes with the business of Gaussian, Inc. or will provide
 assistance to any competitor of Gaussian, Inc.  The licensee
 of this program is prohibited from giving any competitor of
 Gaussian, Inc. access to this program.  By using this program,
 the user acknowledges that Gaussian, Inc. is engaged in the
 business of creating and licensing software in the field of
 computational chemistry and represents and warrants to the
 licensee that it is not a competitor of Gaussian, Inc. and that
 it will not use this program in any manner prohibited above.
 ---------------------------------------------------------------
  

 Cite this work as:
 Gaussian 09, Revision D.01,
 M. J. Frisch, G. W. Trucks, H. B. Schlegel, G. E. Scuseria, 
 M. A. Robb, J. R. Cheeseman, G. Scalmani, V. Barone, B. Mennucci, 
 G. A. Petersson, H. Nakatsuji, M. Caricato, X. Li, H. P. Hratchian, 
 A. F. Izmaylov, J. Bloino, G. Zheng, J. L. Sonnenberg, M. Hada, 
 M. Ehara, K. Toyota, R. Fukuda, J. Hasegawa, M. Ishida, T. Nakajima, 
 Y. Honda, O. Kitao, H. Nakai, T. Vreven, J. A. Montgomery, Jr., 
 J. E. Peralta, F. Ogliaro, M. Bearpark, J. J. Heyd, E. Brothers, 
 K. N. Kudin, V. N. Staroverov, T. Keith, R. Kobayashi, J. Normand, 
 K. Raghavachari, A. Rendell, J. C. Burant, S. S. Iyengar, J. Tomasi, 
 M. Cossi, N. Rega, J. M. Millam, M. Klene, J. E. Knox, J. B. Cross, 
 V. Bakken, C. Adamo, J. Jaramillo, R. Gomperts, R. E. Stratmann, 
 O. Yazyev, A. J. Austin, R. Cammi, C. Pomelli, J. W. Ochterski, 
 R. L. Martin, K. Morokuma, V. G. Zakrzewski, G. A. Voth, 
 P. Salvador, J. J. Dannenberg, S. Dapprich, A. D. Daniels, 
 O. Farkas, J. B. Foresman, J. V. Ortiz, J. Cioslowski, 
 and D. J. Fox, Gaussian, Inc., Wallingford CT, 2013.
 
 ******************************************
 Gaussian 09:  ES64L-G09RevD.01 24-Apr-2013
                23-Feb-2022 
 ******************************************
 %nprocshared=8
 Will use up to    8 processors via shared memory.
 %mem=4GB
 %NoSave
 %chk="dieneophile.chk"
 ------------------------------------------------
 #n wB97XD/Def2TZVP scrf(smd,solvent=toluene) opt
 ------------------------------------------------
 1/14=-1,18=20,19=15,26=3,38=1/1,3;
 2/9=110,12=2,17=6,18=5,40=1/2;
 3/5=44,7=101,11=2,16=1,25=1,30=1,70=32201,71=1,72=13,74=-58/1,2,3;
 4//1;
 5/5=2,38=5,53=13/2;
 6/7=2,8=2,9=2,10=2,28=1/1;
 7//1,2,3,16;
 1/14=-1,18=20,19=15,26=3/3(2);
 2/9=110/2;
 99//99;
 2/9=110/2;
 3/5=44,7=101,11=2,16=1,25=1,30=1,70=32205,71=1,72=13,74=-58/1,2,3;
 4/5=5,16=3,69=1/1;
 5/5=2,38=5,53=13/2;
 7//1,2,3,16;
 1/14=-1,18=20,19=15,26=3/3(-5);
 2/9=110/2;
 6/7=2,8=2,9=2,10=2,19=2,28=1/1;
 99/9=1/99;
 -------------------------------------
 dieneophile diels-alder toluene - opt
 -------------------------------------
 Symbolic Z-matrix:
 Charge =  0 Multiplicity = 1
 C                    -1.13173  -0.22162  -0.00024 
 C                    -0.63019  -1.63364  -0.00017 
 C                     0.69375  -1.6079    0.00018 
 C                     1.14312  -0.17822  -0.00016 
 H                    -1.2998   -2.48009  -0.00032 
 H                     1.39568  -2.42771   0.00044 
 C                    -0.05033   2.03249   0.00036 
 H                     0.9695    2.39904  -0.09564 
 H                    -0.64571   2.39521  -0.83709 
 H                    -0.481     2.40544   0.93013 
 N                    -0.01047   0.59028  -0.00291 
 O                     2.27019   0.24135   0.00134 
 O                    -2.27183   0.16234   0.00153 
 

 GradGradGradGradGradGradGradGradGradGradGradGradGradGradGradGradGradGrad
 Berny optimization.
 Initialization pass.
                           ----------------------------
                           !    Initial Parameters    !
                           ! (Angstroms and Degrees)  !
 --------------------------                            --------------------------
 ! Name  Definition              Value          Derivative Info.                !
 --------------------------------------------------------------------------------
 ! R1    R(1,2)                  1.4984         estimate D2E/DX2                !
 ! R2    R(1,11)                 1.3843         estimate D2E/DX2                !
 ! R3    R(1,13)                 1.203          estimate D2E/DX2                !
 ! R4    R(2,3)                  1.3242         estimate D2E/DX2                !
 ! R5    R(2,5)                  1.0793         estimate D2E/DX2                !
 ! R6    R(3,4)                  1.4986         estimate D2E/DX2                !
 ! R7    R(3,6)                  1.0793         estimate D2E/DX2                !
 ! R8    R(4,11)                 1.3861         estimate D2E/DX2                !
 ! R9    R(4,12)                 1.2026         estimate D2E/DX2                !
 ! R10   R(7,8)                  1.0879         estimate D2E/DX2                !
 ! R11   R(7,9)                  1.0897         estimate D2E/DX2                !
 ! R12   R(7,10)                 1.0904         estimate D2E/DX2                !
 ! R13   R(7,11)                 1.4428         estimate D2E/DX2                !
 ! A1    A(2,1,11)             106.3534         estimate D2E/DX2                !
 ! A2    A(2,1,13)             128.167          estimate D2E/DX2                !
 ! A3    A(11,1,13)            125.4796         estimate D2E/DX2                !
 ! A4    A(1,2,3)              108.4409         estimate D2E/DX2                !
 ! A5    A(1,2,5)              122.0985         estimate D2E/DX2                !
 ! A6    A(3,2,5)              129.4606         estimate D2E/DX2                !
 ! A7    A(2,3,4)              108.5625         estimate D2E/DX2                !
 ! A8    A(2,3,6)              129.4567         estimate D2E/DX2                !
 ! A9    A(4,3,6)              121.9808         estimate D2E/DX2                !
 ! A10   A(3,4,11)             106.2221         estimate D2E/DX2                !
 ! A11   A(3,4,12)             127.8673         estimate D2E/DX2                !
 ! A12   A(11,4,12)            125.9107         estimate D2E/DX2                !
 ! A13   A(8,7,9)              109.4031         estimate D2E/DX2                !
 ! A14   A(8,7,10)             109.2828         estimate D2E/DX2                !
 ! A15   A(8,7,11)             108.1009         estimate D2E/DX2                !
 ! A16   A(9,7,10)             109.0054         estimate D2E/DX2                !
 ! A17   A(9,7,11)             110.2489         estimate D2E/DX2                !
 ! A18   A(10,7,11)            110.7771         estimate D2E/DX2                !
 ! A19   A(1,11,4)             110.4207         estimate D2E/DX2                !
 ! A20   A(1,11,7)             124.3245         estimate D2E/DX2                !
 ! A21   A(4,11,7)             125.2535         estimate D2E/DX2                !
 ! D1    D(11,1,2,3)             0.1295         estimate D2E/DX2                !
 ! D2    D(11,1,2,5)          -179.8745         estimate D2E/DX2                !
 ! D3    D(13,1,2,3)          -179.8756         estimate D2E/DX2                !
 ! D4    D(13,1,2,5)             0.1204         estimate D2E/DX2                !
 ! D5    D(2,1,11,4)            -0.1921         estimate D2E/DX2                !
 ! D6    D(2,1,11,7)          -179.7969         estimate D2E/DX2                !
 ! D7    D(13,1,11,4)          179.8128         estimate D2E/DX2                !
 ! D8    D(13,1,11,7)            0.2079         estimate D2E/DX2                !
 ! D9    D(1,2,3,4)             -0.021          estimate D2E/DX2                !
 ! D10   D(1,2,3,6)            179.9924         estimate D2E/DX2                !
 ! D11   D(5,2,3,4)            179.9834         estimate D2E/DX2                !
 ! D12   D(5,2,3,6)             -0.0033         estimate D2E/DX2                !
 ! D13   D(2,3,4,11)            -0.0943         estimate D2E/DX2                !
 ! D14   D(2,3,4,12)           179.9197         estimate D2E/DX2                !
 ! D15   D(6,3,4,11)           179.8936         estimate D2E/DX2                !
 ! D16   D(6,3,4,12)            -0.0925         estimate D2E/DX2                !
 ! D17   D(3,4,11,1)             0.1798         estimate D2E/DX2                !
 ! D18   D(3,4,11,7)           179.7802         estimate D2E/DX2                !
 ! D19   D(12,4,11,1)         -179.8338         estimate D2E/DX2                !
 ! D20   D(12,4,11,7)           -0.2335         estimate D2E/DX2                !
 ! D21   D(8,7,11,1)          -174.8532         estimate D2E/DX2                !
 ! D22   D(8,7,11,4)             5.6003         estimate D2E/DX2                !
 ! D23   D(9,7,11,1)           -55.3077         estimate D2E/DX2                !
 ! D24   D(9,7,11,4)           125.1457         estimate D2E/DX2                !
 ! D25   D(10,7,11,1)           65.4371         estimate D2E/DX2                !
 ! D26   D(10,7,11,4)         -114.1094         estimate D2E/DX2                !
 --------------------------------------------------------------------------------
 Trust Radius=3.00D-01 FncErr=1.00D-07 GrdErr=1.00D-06
 Number of steps in this run=     70 maximum allowed number of steps=    100.
 GradGradGradGradGradGradGradGradGradGradGradGradGradGradGradGradGradGrad

                          Input orientation:                          
 ---------------------------------------------------------------------
 Center     Atomic      Atomic             Coordinates (Angstroms)
 Number     Number       Type             X           Y           Z
 ---------------------------------------------------------------------
      1          6           0       -1.131730   -0.221620   -0.000240
      2          6           0       -0.630190   -1.633640   -0.000170
      3          6           0        0.693750   -1.607900    0.000180
      4          6           0        1.143120   -0.178220   -0.000160
      5          1           0       -1.299800   -2.480090   -0.000320
      6          1           0        1.395680   -2.427710    0.000440
      7          6           0       -0.050330    2.032490    0.000360
      8          1           0        0.969500    2.399040   -0.095640
      9          1           0       -0.645710    2.395210   -0.837090
     10          1           0       -0.481000    2.405440    0.930130
     11          7           0       -0.010470    0.590280   -0.002910
     12          8           0        2.270190    0.241350    0.001340
     13          8           0       -2.271830    0.162340    0.001530
 ---------------------------------------------------------------------
                    Distance matrix (angstroms):
                    1          2          3          4          5
     1  C    0.000000
     2  C    1.498447   0.000000
     3  C    2.292193   1.324190   0.000000
     4  C    2.275264   2.294096   1.498639   0.000000
     5  H    2.264715   1.079285   2.175996   3.356555   0.000000
     6  H    3.354793   2.175936   1.079256   2.263624   2.695989
     7  C    2.500088   3.711704   3.715655   2.512282   4.682366
     8  H    3.360376   4.339427   4.017560   2.584865   5.381888
     9  H    2.790042   4.114889   4.303494   3.243903   4.989646
    10  H    2.861902   4.147515   4.283893   3.190377   5.040295
    11  N    1.384346   2.308653   2.308231   1.386135   3.330098
    12  O    3.433279   3.453664   2.429998   1.202634   4.488994
    13  O    1.203020   2.433214   3.453754   3.431890   2.815543
                    6          7          8          9         10
     6  H    0.000000
     7  C    4.688745   0.000000
     8  H    4.846481   1.087947   0.000000
     9  H    5.303705   1.089663   1.777264   0.000000
    10  H    5.267408   1.090431   1.776568   1.774909   0.000000
    11  N    3.329494   1.442764   2.059260   2.087381   2.094461
    12  O    2.808674   2.931381   2.521275   3.720827   3.621461
    13  O    4.489876   2.903881   3.939351   2.886738   3.016764
                   11         12         13
    11  N    0.000000
    12  O    2.307202   0.000000
    13  O    2.301500   4.542707   0.000000
 Stoichiometry    C5H5NO2
 Framework group  C1[X(C5H5NO2)]
 Deg. of freedom    33
 Full point group                 C1      NOp   1
 Largest Abelian subgroup         C1      NOp   1
 Largest concise Abelian subgroup C1      NOp   1
                         Standard orientation:                         
 ---------------------------------------------------------------------
 Center     Atomic      Atomic             Coordinates (Angstroms)
 Number     Number       Type             X           Y           Z
 ---------------------------------------------------------------------
      1          6           0       -1.131730   -0.221621   -0.000239
      2          6           0       -0.630189   -1.633641   -0.000169
      3          6           0        0.693751   -1.607900    0.000181
      4          6           0        1.143120   -0.178220   -0.000159
      5          1           0       -1.299799   -2.480091   -0.000319
      6          1           0        1.395681   -2.427710    0.000441
      7          6           0       -0.050330    2.032489    0.000361
      8          1           0        0.969500    2.399040   -0.095639
      9          1           0       -0.645710    2.395209   -0.837089
     10          1           0       -0.481000    2.405439    0.930131
     11          7           0       -0.010470    0.590279   -0.002909
     12          8           0        2.270190    0.241350    0.001341
     13          8           0       -2.271830    0.162339    0.001531
 ---------------------------------------------------------------------
 Rotational constants (GHZ):      3.3487999      2.3674553      1.3991368
 Standard basis: def2TZVP (5D, 7F)
 There are   318 symmetry adapted cartesian basis functions of A   symmetry.
 There are   278 symmetry adapted basis functions of A   symmetry.
   278 basis functions,   448 primitive gaussians,   318 cartesian basis functions
    29 alpha electrons       29 beta electrons
       nuclear repulsion energy       356.8679322827 Hartrees.
 NAtoms=   13 NActive=   13 NUniq=   13 SFac= 1.00D+00 NAtFMM=   60 NAOKFM=F Big=F
 Integral buffers will be    131072 words long.
 Raffenetti 2 integral format.
 Two-electron integral symmetry is turned on.
 Nuclear repulsion after empirical dispersion term =      356.8626949258 Hartrees.
 ------------------------------------------------------------------------------
 Polarizable Continuum Model (PCM)
 =================================
 Model                : PCM (using non-symmetric T matrix).
 Atomic radii         : SMD-Coulomb.
 Polarization charges : Total charges.
 Charge compensation  : None.
 Solution method      : On-the-fly selection.
 Cavity type          : VdW (van der Waals Surface) (Alpha=1.000).
 Cavity algorithm     : GePol (No added spheres)
                        Default sphere list used, NSphG=   13.
                        Lebedev-Laikov grids with approx.  5.0 points / Ang**2.
                        Smoothing algorithm: Karplus/York (Gamma=1.0000).
                        Polarization charges: spherical gaussians, with
                                              point-specific exponents (IZeta= 3).
                        Self-potential: point-specific (ISelfS= 7).
                        Self-field    : sphere-specific E.n sum rule (ISelfD= 2).
 1st derivatives      : Analytical E(r).r(x)/FMM algorithm (CHGder, D1EAlg=3).
                        Cavity 1st derivative terms included.
 Solvent              : Toluene, Eps=   2.374100 Eps(inf)=   2.238315
 ------------------------------------------------------------------------------
 Spheres list:
 ISph  on   Nord     Re0    Alpha      Xe            Ye            Ze
    1   C      1    1.8500  1.000     -1.131730     -0.221621     -0.000239
    2   C      2    1.8500  1.000     -0.630189     -1.633641     -0.000169
    3   C      3    1.8500  1.000      0.693751     -1.607900      0.000181
    4   C      4    1.8500  1.000      1.143120     -0.178220     -0.000159
    5   H      5    1.2000  1.000     -1.299799     -2.480091     -0.000319
    6   H      6    1.2000  1.000      1.395681     -2.427710      0.000441
    7   C      7    1.8500  1.000     -0.050330      2.032489      0.000361
    8   H      8    1.2000  1.000      0.969500      2.399040     -0.095639
    9   H      9    1.2000  1.000     -0.645710      2.395209     -0.837089
   10   H     10    1.2000  1.000     -0.481000      2.405439      0.930131
   11   N     11    1.8900  1.000     -0.010470      0.590279     -0.002909
   12   O     12    2.2940  1.000      2.270190      0.241350      0.001341
   13   O     13    2.2940  1.000     -2.271830      0.162339      0.001531
 ------------------------------------------------------------------------------
 ------------------------------------------------------------------------------
 Atomic radii for non-electrostatic terms: SMD-CDS.
 ------------------------------------------------------------------------------
 Nuclear repulsion after PCM non-electrostatic terms =      356.8568685572 Hartrees.
 One-electron integrals computed using PRISM.
   1 Symmetry operations used in ECPInt.
 ECPInt:  NShTT=    5886 NPrTT=   18336 LenC2=    5784 LenP2D=   14535.
 LDataN:  DoStor=T MaxTD1= 6 Len=  172
 NBasis=   278 RedAO= T EigKep=  4.55D-05  NBF=   278
 NBsUse=   278 1.00D-06 EigRej= -1.00D+00 NBFU=   278
 ExpMin= 9.52D-02 ExpMax= 2.70D+04 ExpMxC= 9.22D+02 IAcc=2 IRadAn=         4 AccDes= 0.00D+00
 Harris functional with IExCor= 4639 and IRadAn=       4 diagonalized for initial guess.
 HarFok:  IExCor= 4639 AccDes= 0.00D+00 IRadAn=         4 IDoV= 1 UseB2=F ITyADJ=14
 ICtDFT=  3500011 ScaDFX=  1.000000  1.000000  1.000000  1.000000
 FoFCou: FMM=F IPFlag=           0 FMFlag=      100000 FMFlg1=           0
         NFxFlg=           0 DoJE=T BraDBF=F KetDBF=T FulRan=T
         wScrn=  0.000000 ICntrl=     500 IOpCl=  0 I1Cent=   200000004 NGrid=           0
         NMat0=    1 NMatS0=      1 NMatT0=    0 NMatD0=    1 NMtDS0=    0 NMtDT0=    0
 Petite list used in FoFCou.
 Requested convergence on RMS density matrix=1.00D-08 within 128 cycles.
 Requested convergence on MAX density matrix=1.00D-06.
 Requested convergence on             energy=1.00D-06.
 No special actions if energy rises.
 Inv3:  Mode=1 IEnd=     5023308.
 Iteration    1 A*A^-1 deviation from unit magnitude is 3.55D-15 for    444.
 Iteration    1 A*A^-1 deviation from orthogonality  is 1.53D-15 for    223    180.
 Iteration    1 A^-1*A deviation from unit magnitude is 4.00D-15 for    470.
 Iteration    1 A^-1*A deviation from orthogonality  is 7.34D-14 for    257    217.
 Error on total polarization charges =  0.01053
 SCF Done:  E(RwB97XD) =  -398.780912976     A.U. after   13 cycles
            NFock= 13  Conv=0.40D-08     -V/T= 2.0044
 SMD-CDS (non-electrostatic) energy       (kcal/mol) =      -3.66
 (included in total energy above)

 **********************************************************************

            Population analysis using the SCF density.

 **********************************************************************

 Orbital symmetries:
       Occupied  (A) (A) (A) (A) (A) (A) (A) (A) (A) (A) (A) (A)
                 (A) (A) (A) (A) (A) (A) (A) (A) (A) (A) (A) (A)
                 (A) (A) (A) (A) (A)
       Virtual   (A) (A) (A) (A) (A) (A) (A) (A) (A) (A) (A) (A)
                 (A) (A) (A) (A) (A) (A) (A) (A) (A) (A) (A) (A)
                 (A) (A) (A) (A) (A) (A) (A) (A) (A) (A) (A) (A)
                 (A) (A) (A) (A) (A) (A) (A) (A) (A) (A) (A) (A)
                 (A) (A) (A) (A) (A) (A) (A) (A) (A) (A) (A) (A)
                 (A) (A) (A) (A) (A) (A) (A) (A) (A) (A) (A) (A)
                 (A) (A) (A) (A) (A) (A) (A) (A) (A) (A) (A) (A)
                 (A) (A) (A) (A) (A) (A) (A) (A) (A) (A) (A) (A)
                 (A) (A) (A) (A) (A) (A) (A) (A) (A) (A) (A) (A)
                 (A) (A) (A) (A) (A) (A) (A) (A) (A) (A) (A) (A)
                 (A) (A) (A) (A) (A) (A) (A) (A) (A) (A) (A) (A)
                 (A) (A) (A) (A) (A) (A) (A) (A) (A) (A) (A) (A)
                 (A) (A) (A) (A) (A) (A) (A) (A) (A) (A) (A) (A)
                 (A) (A) (A) (A) (A) (A) (A) (A) (A) (A) (A) (A)
                 (A) (A) (A) (A) (A) (A) (A) (A) (A) (A) (A) (A)
                 (A) (A) (A) (A) (A) (A) (A) (A) (A) (A) (A) (A)
                 (A) (A) (A) (A) (A) (A) (A) (A) (A) (A) (A) (A)
                 (A) (A) (A) (A) (A) (A) (A) (A) (A) (A) (A) (A)
                 (A) (A) (A) (A) (A) (A) (A) (A) (A) (A) (A) (A)
                 (A) (A) (A) (A) (A) (A) (A) (A) (A) (A) (A) (A)
                 (A) (A) (A) (A) (A) (A) (A) (A) (A)
 The electronic state is 1-A.
 Alpha  occ. eigenvalues --  -19.25161 -19.25113 -14.48571 -10.41437 -10.41308
 Alpha  occ. eigenvalues --  -10.32323 -10.32225 -10.31997  -1.18704  -1.16692
 Alpha  occ. eigenvalues --   -1.07337  -0.93834  -0.81539  -0.77562  -0.70789
 Alpha  occ. eigenvalues --   -0.65798  -0.59473  -0.58799  -0.56119  -0.54299
 Alpha  occ. eigenvalues --   -0.53759  -0.51489  -0.50561  -0.49539  -0.48665
 Alpha  occ. eigenvalues --   -0.39052  -0.38957  -0.35959  -0.35905
 Alpha virt. eigenvalues --   -0.02624   0.12473   0.12761   0.13663   0.14776
 Alpha virt. eigenvalues --    0.16860   0.17596   0.19811   0.21004   0.21351
 Alpha virt. eigenvalues --    0.22373   0.23000   0.24776   0.27353   0.29408
 Alpha virt. eigenvalues --    0.29828   0.31679   0.34243   0.34879   0.37103
 Alpha virt. eigenvalues --    0.37411   0.37939   0.38545   0.39464   0.41410
 Alpha virt. eigenvalues --    0.42196   0.43811   0.45824   0.47644   0.48696
 Alpha virt. eigenvalues --    0.50269   0.52111   0.52888   0.53769   0.55517
 Alpha virt. eigenvalues --    0.55772   0.57831   0.58148   0.59676   0.60661
 Alpha virt. eigenvalues --    0.62391   0.63796   0.66896   0.67651   0.68525
 Alpha virt. eigenvalues --    0.70327   0.71297   0.73599   0.77635   0.78230
 Alpha virt. eigenvalues --    0.78508   0.82694   0.84718   0.86461   0.90780
 Alpha virt. eigenvalues --    0.91894   0.94153   0.96953   0.99027   1.00822
 Alpha virt. eigenvalues --    1.02921   1.04946   1.07895   1.09249   1.10606
 Alpha virt. eigenvalues --    1.12348   1.13057   1.15973   1.18053   1.22215
 Alpha virt. eigenvalues --    1.23104   1.25969   1.28506   1.33390   1.36029
 Alpha virt. eigenvalues --    1.42641   1.43871   1.45859   1.46436   1.47908
 Alpha virt. eigenvalues --    1.52158   1.54996   1.56332   1.56848   1.58681
 Alpha virt. eigenvalues --    1.59944   1.61836   1.63328   1.64716   1.68894
 Alpha virt. eigenvalues --    1.70565   1.71645   1.74263   1.75740   1.79842
 Alpha virt. eigenvalues --    1.81189   1.82472   1.85562   1.87758   1.97938
 Alpha virt. eigenvalues --    1.98373   1.99432   2.00386   2.03003   2.05478
 Alpha virt. eigenvalues --    2.09372   2.13168   2.14166   2.18660   2.21068
 Alpha virt. eigenvalues --    2.24174   2.25382   2.26954   2.27696   2.35265
 Alpha virt. eigenvalues --    2.35944   2.38681   2.39849   2.41248   2.46207
 Alpha virt. eigenvalues --    2.46792   2.50744   2.54355   2.56138   2.56692
 Alpha virt. eigenvalues --    2.59012   2.61927   2.64652   2.65676   2.66185
 Alpha virt. eigenvalues --    2.67865   2.70719   2.73255   2.75236   2.80765
 Alpha virt. eigenvalues --    2.84159   2.85628   2.86886   2.90575   2.91934
 Alpha virt. eigenvalues --    2.95182   2.95967   3.00211   3.00885   3.05343
 Alpha virt. eigenvalues --    3.07327   3.08024   3.08698   3.09269   3.13043
 Alpha virt. eigenvalues --    3.14013   3.17887   3.19460   3.21470   3.21481
 Alpha virt. eigenvalues --    3.24387   3.24955   3.26786   3.29535   3.30773
 Alpha virt. eigenvalues --    3.35564   3.37810   3.39100   3.40800   3.41747
 Alpha virt. eigenvalues --    3.43836   3.44222   3.45981   3.54575   3.55215
 Alpha virt. eigenvalues --    3.55970   3.58621   3.59882   3.61009   3.66386
 Alpha virt. eigenvalues --    3.67422   3.69180   3.72410   3.76405   3.82144
 Alpha virt. eigenvalues --    3.85205   3.94089   3.96907   3.98594   4.08033
 Alpha virt. eigenvalues --    4.12513   4.13147   4.16777   4.17109   4.25538
 Alpha virt. eigenvalues --    4.26222   4.29144   4.31016   4.41390   4.43694
 Alpha virt. eigenvalues --    4.45533   4.49619   4.52464   4.63479   4.71849
 Alpha virt. eigenvalues --    4.77874   4.82069   4.83996   4.87876   4.95563
 Alpha virt. eigenvalues --    5.02368   5.09076   5.16472   5.18144   5.19650
 Alpha virt. eigenvalues --    5.20864   5.25042   5.32150   5.32639   5.33477
 Alpha virt. eigenvalues --    5.40445   5.45693   5.64576   5.72494   5.73276
 Alpha virt. eigenvalues --    5.81011   5.81477   5.85184   5.98766   6.12796
 Alpha virt. eigenvalues --    6.26425   6.27470   6.44211   6.45079   6.46920
 Alpha virt. eigenvalues --    6.58611   6.63622   6.63905   6.85192   6.87515
 Alpha virt. eigenvalues --    6.89345   7.00063   7.13323   7.18810   7.19151
 Alpha virt. eigenvalues --    7.23941  22.27916  22.57502  22.90328  23.27233
 Alpha virt. eigenvalues --   23.70722  32.97056  44.03834  44.04457
          Condensed to atoms (all electrons):
               1          2          3          4          5          6
     1  C    4.525525   0.306716   0.015864  -0.071356  -0.028153   0.004192
     2  C    0.306716   5.301519   0.337720   0.005835   0.403485  -0.020362
     3  C    0.015864   0.337720   5.307529   0.301853  -0.019352   0.406148
     4  C   -0.071356   0.005835   0.301853   4.534392   0.004143  -0.030276
     5  H   -0.028153   0.403485  -0.019352   0.004143   0.451918  -0.003396
     6  H    0.004192  -0.020362   0.406148  -0.030276  -0.003396   0.452380
     7  C   -0.046823   0.008688   0.003053  -0.051199  -0.000110  -0.000009
     8  H    0.007992  -0.001544   0.004352  -0.016904   0.000011  -0.000017
     9  H   -0.008025   0.000915  -0.000449   0.005137  -0.000005   0.000003
    10  H   -0.005205   0.000421  -0.000338   0.003573  -0.000005   0.000001
    11  N    0.335760  -0.100915  -0.128731   0.367020   0.004351   0.004134
    12  O    0.000534   0.007692  -0.072313   0.660571  -0.000050   0.002948
    13  O    0.662967  -0.070238   0.006311   0.000468   0.003667  -0.000076
               7          8          9         10         11         12
     1  C   -0.046823   0.007992  -0.008025  -0.005205   0.335760   0.000534
     2  C    0.008688  -0.001544   0.000915   0.000421  -0.100915   0.007692
     3  C    0.003053   0.004352  -0.000449  -0.000338  -0.128731  -0.072313
     4  C   -0.051199  -0.016904   0.005137   0.003573   0.367020   0.660571
     5  H   -0.000110   0.000011  -0.000005  -0.000005   0.004351  -0.000050
     6  H   -0.000009  -0.000017   0.000003   0.000001   0.004134   0.002948
     7  C    4.882160   0.406240   0.410118   0.413707   0.251150  -0.005753
     8  H    0.406240   0.492755  -0.019551  -0.021501  -0.032755   0.016647
     9  H    0.410118  -0.019551   0.522249  -0.029623  -0.035468   0.000388
    10  H    0.413707  -0.021501  -0.029623   0.524643  -0.036568   0.000210
    11  N    0.251150  -0.032755  -0.035468  -0.036568   6.672520  -0.101325
    12  O   -0.005753   0.016647   0.000388   0.000210  -0.101325   7.843538
    13  O    0.014694   0.000711   0.002642   0.000865  -0.109757  -0.000164
              13
     1  C    0.662967
     2  C   -0.070238
     3  C    0.006311
     4  C    0.000468
     5  H    0.003667
     6  H   -0.000076
     7  C    0.014694
     8  H    0.000711
     9  H    0.002642
    10  H    0.000865
    11  N   -0.109757
    12  O   -0.000164
    13  O    7.837711
 Mulliken charges:
               1
     1  C    0.300011
     2  C   -0.179932
     3  C   -0.161646
     4  C    0.286743
     5  H    0.183495
     6  H    0.184329
     7  C   -0.285914
     8  H    0.163564
     9  H    0.151669
    10  H    0.149822
    11  N   -0.089416
    12  O   -0.352923
    13  O   -0.349802
 Sum of Mulliken charges =   0.00000
 Mulliken charges with hydrogens summed into heavy atoms:
               1
     1  C    0.300011
     2  C    0.003562
     3  C    0.022683
     4  C    0.286743
     7  C    0.179141
    11  N   -0.089416
    12  O   -0.352923
    13  O   -0.349802
 Electronic spatial extent (au):  <R**2>=            816.5990
 Charge=              0.0000 electrons
 Dipole moment (field-independent basis, Debye):
    X=              0.0593    Y=             -1.3686    Z=             -0.0116  Tot=              1.3699
 Quadrupole moment (field-independent basis, Debye-Ang):
   XX=            -60.5161   YY=            -35.3050   ZZ=            -44.9300
   XY=             -0.3398   XZ=              0.0040   YZ=             -0.0269
 Traceless Quadrupole moment (field-independent basis, Debye-Ang):
   XX=            -13.5991   YY=             11.6121   ZZ=              1.9870
   XY=             -0.3398   XZ=              0.0040   YZ=             -0.0269
 Octapole moment (field-independent basis, Debye-Ang**2):
  XXX=              1.1583  YYY=             -1.6718  ZZZ=              0.1940  XYY=             -0.0324
  XXY=             -8.8861  XXZ=             -0.2528  XZZ=             -0.7837  YZZ=              4.2071
  YYZ=             -0.0679  XYZ=             -0.0040
 Hexadecapole moment (field-independent basis, Debye-Ang**3):
 XXXX=           -631.0556 YYYY=           -406.0245 ZZZZ=            -49.8235 XXXY=             -0.5538
 XXXZ=              0.0369 YYYX=              0.8802 YYYZ=             -0.1547 ZZZX=             -0.0010
 ZZZY=              0.4696 XXYY=           -146.4443 XXZZ=            -92.6775 YYZZ=            -87.7722
 XXYZ=             -0.5681 YYXZ=             -0.0121 ZZXY=             -1.6010
 N-N= 3.568568685572D+02 E-N=-1.646034201816D+03  KE= 3.970520670884D+02
   1 Symmetry operations used in ECPInt.
 ECPInt:  NShTT=    5886 NPrTT=   18336 LenC2=    5784 LenP2D=   14535.
 LDataN:  DoStor=T MaxTD1= 7 Len=  274
 D1PCM: PCM CHGder 1st derivatives, ID1Alg=3 FixD1E=F DoIter=F DoCFld=F I1PDM=0.
 Calling FoFJK, ICntrl=      2127 FMM=F ISym2X=0 I1Cent= 0 IOpClX= 0 NMat=1 NMatS=1 NMatT=0.
 ***** Axes restored to original set *****
 -------------------------------------------------------------------
 Center     Atomic                   Forces (Hartrees/Bohr)
 Number     Number              X              Y              Z
 -------------------------------------------------------------------
      1        6          -0.000438087    0.000223130    0.000018694
      2        6           0.000085404   -0.000014181    0.000010128
      3        6          -0.000048640   -0.000009193   -0.000025810
      4        6           0.000345408    0.000270845    0.000040540
      5        1           0.000023360    0.000001273    0.000006663
      6        1           0.000015564    0.000018389   -0.000000021
      7        6          -0.000040609   -0.000031111   -0.000005368
      8        1           0.000019233   -0.000045320    0.000001932
      9        1          -0.000027399   -0.000003451   -0.000009567
     10        1          -0.000021122    0.000001708   -0.000002053
     11        7           0.000031870   -0.000210429   -0.000002744
     12        8          -0.000274581   -0.000078793   -0.000030003
     13        8           0.000329601   -0.000122867   -0.000002393
 -------------------------------------------------------------------
 Cartesian Forces:  Max     0.000438087 RMS     0.000134563

 GradGradGradGradGradGradGradGradGradGradGradGradGradGradGradGradGradGrad
 Berny optimization.
 FormGI is forming the generalized inverse of G from B-inverse, IUseBI=4.
 Internal  Forces:  Max     0.000346653 RMS     0.000070086
 Search for a local minimum.
 Step number   1 out of a maximum of   70
 All quantities printed in internal units (Hartrees-Bohrs-Radians)
 Mixed Optimization -- En-DIIS/RFO-DIIS
 Second derivative matrix not updated -- first step.
 ITU=  0
     Eigenvalues ---    0.01126   0.01201   0.01289   0.01390   0.01653
     Eigenvalues ---    0.01769   0.01968   0.02381   0.07554   0.07821
     Eigenvalues ---    0.16000   0.16000   0.16000   0.16000   0.16000
     Eigenvalues ---    0.22718   0.24800   0.24999   0.25000   0.25000
     Eigenvalues ---    0.31046   0.32308   0.34763   0.34852   0.35051
     Eigenvalues ---    0.36081   0.36084   0.39209   0.44633   0.46842
     Eigenvalues ---    0.58396   1.03320   1.03511
 RFO step:  Lambda=-6.50146716D-07 EMin= 1.12608890D-02
 Linear search not attempted -- first point.
 Iteration  1 RMS(Cart)=  0.00049277 RMS(Int)=  0.00000022
 Iteration  2 RMS(Cart)=  0.00000023 RMS(Int)=  0.00000008
 Variable       Old X    -DE/DX   Delta X   Delta X   Delta X     New X
                                 (Linear)    (Quad)   (Total)
    R1        2.83165   0.00003   0.00000   0.00009   0.00009   2.83175
    R2        2.61603  -0.00004   0.00000  -0.00009  -0.00009   2.61595
    R3        2.27338  -0.00035   0.00000  -0.00034  -0.00034   2.27304
    R4        2.50236   0.00000   0.00000   0.00000   0.00000   2.50235
    R5        2.03955  -0.00001   0.00000  -0.00003  -0.00003   2.03952
    R6        2.83202   0.00002   0.00000   0.00006   0.00006   2.83208
    R7        2.03950  -0.00001   0.00000  -0.00002  -0.00002   2.03948
    R8        2.61942  -0.00008   0.00000  -0.00018  -0.00018   2.61923
    R9        2.27265  -0.00029   0.00000  -0.00028  -0.00028   2.27237
   R10        2.05592   0.00002   0.00000   0.00004   0.00004   2.05596
   R11        2.05916   0.00001   0.00000   0.00003   0.00003   2.05920
   R12        2.06062   0.00000   0.00000   0.00001   0.00001   2.06063
   R13        2.72643  -0.00008   0.00000  -0.00020  -0.00020   2.72623
    A1        1.85622  -0.00010   0.00000  -0.00041  -0.00041   1.85581
    A2        2.23694   0.00005   0.00000   0.00022   0.00022   2.23716
    A3        2.19003   0.00005   0.00000   0.00018   0.00018   2.19022
    A4        1.89265   0.00002   0.00000   0.00012   0.00012   1.89277
    A5        2.13102  -0.00001   0.00000  -0.00008  -0.00008   2.13094
    A6        2.25951  -0.00001   0.00000  -0.00004  -0.00004   2.25947
    A7        1.89477   0.00002   0.00000   0.00008   0.00008   1.89486
    A8        2.25945   0.00000   0.00000  -0.00002  -0.00002   2.25943
    A9        2.12897  -0.00001   0.00000  -0.00006  -0.00006   2.12890
   A10        1.85393  -0.00008   0.00000  -0.00035  -0.00035   1.85358
   A11        2.23170   0.00005   0.00000   0.00020   0.00020   2.23191
   A12        2.19756   0.00003   0.00000   0.00014   0.00014   2.19770
   A13        1.90944   0.00004   0.00000   0.00020   0.00020   1.90964
   A14        1.90734   0.00003   0.00000   0.00012   0.00012   1.90746
   A15        1.88672  -0.00009   0.00000  -0.00062  -0.00062   1.88609
   A16        1.90250   0.00000   0.00000   0.00007   0.00007   1.90257
   A17        1.92421   0.00001   0.00000   0.00011   0.00011   1.92432
   A18        1.93343   0.00002   0.00000   0.00013   0.00013   1.93355
   A19        1.92721   0.00014   0.00000   0.00055   0.00055   1.92775
   A20        2.16987  -0.00003   0.00000  -0.00009  -0.00009   2.16978
   A21        2.18609  -0.00012   0.00000  -0.00046  -0.00046   2.18563
    D1        0.00226   0.00000   0.00000  -0.00007  -0.00007   0.00218
    D2       -3.13940   0.00000   0.00000   0.00024   0.00024  -3.13916
    D3       -3.13942  -0.00001   0.00000  -0.00072  -0.00072  -3.14014
    D4        0.00210   0.00000   0.00000  -0.00040  -0.00040   0.00170
    D5       -0.00335   0.00000   0.00000  -0.00030  -0.00030  -0.00365
    D6       -3.13805  -0.00001   0.00000  -0.00056  -0.00056  -3.13860
    D7        3.13833   0.00000   0.00000   0.00032   0.00032   3.13864
    D8        0.00363   0.00000   0.00000   0.00006   0.00006   0.00369
    D9       -0.00037   0.00001   0.00000   0.00039   0.00039   0.00002
   D10        3.14146   0.00000   0.00000   0.00022   0.00022  -3.14150
   D11        3.14130   0.00000   0.00000   0.00004   0.00004   3.14134
   D12       -0.00006   0.00000   0.00000  -0.00013  -0.00013  -0.00018
   D13       -0.00165  -0.00001   0.00000  -0.00057  -0.00057  -0.00221
   D14        3.14019   0.00001   0.00000   0.00083   0.00083   3.14102
   D15        3.13973  -0.00001   0.00000  -0.00042  -0.00042   3.13932
   D16       -0.00161   0.00001   0.00000   0.00098   0.00098  -0.00063
   D17        0.00314   0.00001   0.00000   0.00052   0.00052   0.00366
   D18        3.13776   0.00001   0.00000   0.00078   0.00078   3.13854
   D19       -3.13869  -0.00001   0.00000  -0.00084  -0.00084  -3.13954
   D20       -0.00407  -0.00001   0.00000  -0.00058  -0.00058  -0.00466
   D21       -3.05176  -0.00001   0.00000  -0.00035  -0.00035  -3.05212
   D22        0.09774  -0.00001   0.00000  -0.00065  -0.00065   0.09710
   D23       -0.96530  -0.00001   0.00000  -0.00043  -0.00043  -0.96573
   D24        2.18420  -0.00002   0.00000  -0.00072  -0.00072   2.18348
   D25        1.14209   0.00001   0.00000  -0.00018  -0.00018   1.14191
   D26       -1.99159   0.00000   0.00000  -0.00048  -0.00048  -1.99206
         Item               Value     Threshold  Converged?
 Maximum Force            0.000347     0.000450     YES
 RMS     Force            0.000070     0.000300     YES
 Maximum Displacement     0.001967     0.001800     NO 
 RMS     Displacement     0.000493     0.001200     YES
 Predicted change in Energy=-3.250767D-07
 GradGradGradGradGradGradGradGradGradGradGradGradGradGradGradGradGradGrad

                          Input orientation:                          
 ---------------------------------------------------------------------
 Center     Atomic      Atomic             Coordinates (Angstroms)
 Number     Number       Type             X           Y           Z
 ---------------------------------------------------------------------
      1          6           0       -1.132026   -0.221541    0.000201
      2          6           0       -0.630177   -1.633503   -0.000020
      3          6           0        0.693760   -1.607648    0.000050
      4          6           0        1.143135   -0.177936    0.000350
      5          1           0       -1.299667   -2.480026   -0.000425
      6          1           0        1.395737   -2.427402   -0.000130
      7          6           0       -0.050341    2.032220    0.000332
      8          1           0        0.969829    2.397999   -0.095251
      9          1           0       -0.645161    2.394888   -0.837562
     10          1           0       -0.481294    2.405621    0.929797
     11          7           0       -0.010643    0.590108   -0.002505
     12          8           0        2.269982    0.241812    0.001026
     13          8           0       -2.271953    0.162379    0.001588
 ---------------------------------------------------------------------
                    Distance matrix (angstroms):
                    1          2          3          4          5
     1  C    0.000000
     2  C    1.498495   0.000000
     3  C    2.292332   1.324189   0.000000
     4  C    2.275580   2.294190   1.498670   0.000000
     5  H    2.264698   1.079268   2.175959   3.356621   0.000000
     6  H    3.354908   2.175914   1.079244   2.263604   2.695918
     7  C    2.499896   3.711298   3.715148   2.511808   4.682006
     8  H    3.359896   4.338444   4.016280   2.583529   5.380961
     9  H    2.790087   4.114563   4.302859   3.243382   4.989385
    10  H    2.861744   4.147438   4.283865   3.190205   5.040297
    11  N    1.384299   2.308305   2.307882   1.386039   3.329762
    12  O    3.433417   3.453654   2.430016   1.202486   4.488964
    13  O    1.202842   2.433232   3.453759   3.432003   2.815608
                    6          7          8          9         10
     6  H    0.000000
     7  C    4.688216   0.000000
     8  H    4.845095   1.087970   0.000000
     9  H    5.302927   1.089681   1.777422   0.000000
    10  H    5.267458   1.090438   1.776665   1.774972   0.000000
    11  N    3.329155   1.442661   2.058737   2.087382   2.094466
    12  O    2.808738   2.930778   2.519684   3.719815   3.621353
    13  O    4.489868   2.903768   3.939103   2.886992   3.016648
                   11         12         13
    11  N    0.000000
    12  O    2.307069   0.000000
    13  O    2.301411   4.542629   0.000000
 Stoichiometry    C5H5NO2
 Framework group  C1[X(C5H5NO2)]
 Deg. of freedom    33
 Full point group                 C1      NOp   1
 Largest Abelian subgroup         C1      NOp   1
 Largest concise Abelian subgroup C1      NOp   1
                         Standard orientation:                         
 ---------------------------------------------------------------------
 Center     Atomic      Atomic             Coordinates (Angstroms)
 Number     Number       Type             X           Y           Z
 ---------------------------------------------------------------------
      1          6           0       -1.132046   -0.221108    0.000110
      2          6           0       -0.630843   -1.633299   -0.000111
      3          6           0        0.693105   -1.608050   -0.000041
      4          6           0        1.143135   -0.178544    0.000259
      5          1           0       -1.300721   -2.479516   -0.000517
      6          1           0        1.394707   -2.428125   -0.000222
      7          6           0       -0.049330    2.032158    0.000241
      8          1           0        0.971008    2.397470   -0.095342
      9          1           0       -0.643984    2.395098   -0.837653
     10          1           0       -0.480111    2.405756    0.929706
     11          7           0       -0.010291    0.590028   -0.002596
     12          8           0        2.270174    0.240688    0.000935
     13          8           0       -2.271797    0.163334    0.001497
 ---------------------------------------------------------------------
 Rotational constants (GHZ):      3.3496068      2.3674252      1.3992675
 Standard basis: def2TZVP (5D, 7F)
 There are   318 symmetry adapted cartesian basis functions of A   symmetry.
 There are   278 symmetry adapted basis functions of A   symmetry.
   278 basis functions,   448 primitive gaussians,   318 cartesian basis functions
    29 alpha electrons       29 beta electrons
       nuclear repulsion energy       356.8864684711 Hartrees.
 NAtoms=   13 NActive=   13 NUniq=   13 SFac= 1.00D+00 NAtFMM=   60 NAOKFM=F Big=F
 Integral buffers will be    131072 words long.
 Raffenetti 2 integral format.
 Two-electron integral symmetry is turned on.
 Nuclear repulsion after empirical dispersion term =      356.8812312115 Hartrees.
 ------------------------------------------------------------------------------
 Polarizable Continuum Model (PCM)
 =================================
 Model                : PCM (using non-symmetric T matrix).
 Atomic radii         : SMD-Coulomb.
 Polarization charges : Total charges.
 Charge compensation  : None.
 Solution method      : On-the-fly selection.
 Cavity type          : VdW (van der Waals Surface) (Alpha=1.000).
 Cavity algorithm     : GePol (No added spheres)
                        Default sphere list used, NSphG=   13.
                        Lebedev-Laikov grids with approx.  5.0 points / Ang**2.
                        Smoothing algorithm: Karplus/York (Gamma=1.0000).
                        Polarization charges: spherical gaussians, with
                                              point-specific exponents (IZeta= 3).
                        Self-potential: point-specific (ISelfS= 7).
                        Self-field    : sphere-specific E.n sum rule (ISelfD= 2).
 1st derivatives      : Analytical E(r).r(x)/FMM algorithm (CHGder, D1EAlg=3).
                        Cavity 1st derivative terms included.
 Solvent              : Toluene, Eps=   2.374100 Eps(inf)=   2.238315
 ------------------------------------------------------------------------------
 Spheres list:
 ISph  on   Nord     Re0    Alpha      Xe            Ye            Ze
    1   C      1    1.8500  1.000     -1.132046     -0.221108      0.000110
    2   C      2    1.8500  1.000     -0.630843     -1.633299     -0.000111
    3   C      3    1.8500  1.000      0.693105     -1.608050     -0.000041
    4   C      4    1.8500  1.000      1.143135     -0.178544      0.000259
    5   H      5    1.2000  1.000     -1.300721     -2.479516     -0.000517
    6   H      6    1.2000  1.000      1.394707     -2.428125     -0.000222
    7   C      7    1.8500  1.000     -0.049330      2.032158      0.000241
    8   H      8    1.2000  1.000      0.971008      2.397470     -0.095342
    9   H      9    1.2000  1.000     -0.643984      2.395098     -0.837653
   10   H     10    1.2000  1.000     -0.480111      2.405756      0.929706
   11   N     11    1.8900  1.000     -0.010291      0.590028     -0.002596
   12   O     12    2.2940  1.000      2.270174      0.240688      0.000935
   13   O     13    2.2940  1.000     -2.271797      0.163334      0.001497
 ------------------------------------------------------------------------------
 ------------------------------------------------------------------------------
 Atomic radii for non-electrostatic terms: SMD-CDS.
 ------------------------------------------------------------------------------
 Nuclear repulsion after PCM non-electrostatic terms =      356.8754047887 Hartrees.
 One-electron integrals computed using PRISM.
   1 Symmetry operations used in ECPInt.
 ECPInt:  NShTT=    5886 NPrTT=   18336 LenC2=    5784 LenP2D=   14535.
 LDataN:  DoStor=T MaxTD1= 6 Len=  172
 NBasis=   278 RedAO= T EigKep=  4.55D-05  NBF=   278
 NBsUse=   278 1.00D-06 EigRej= -1.00D+00 NBFU=   278
 Initial guess from the checkpoint file:  ""dieneophile.chk""
 B after Tr=     0.000000    0.000000    0.000000
         Rot=    1.000000    0.000002   -0.000029    0.000205 Ang=   0.02 deg.
 Requested convergence on RMS density matrix=1.00D-08 within 128 cycles.
 Requested convergence on MAX density matrix=1.00D-06.
 Requested convergence on             energy=1.00D-06.
 No special actions if energy rises.
 Inv3:  Mode=1 IEnd=     5023308.
 Iteration    1 A*A^-1 deviation from unit magnitude is 3.77D-15 for    468.
 Iteration    1 A*A^-1 deviation from orthogonality  is 2.17D-15 for    603    480.
 Iteration    1 A^-1*A deviation from unit magnitude is 4.11D-15 for    460.
 Iteration    1 A^-1*A deviation from orthogonality  is 4.74D-14 for    257    217.
 Error on total polarization charges =  0.01053
 SCF Done:  E(RwB97XD) =  -398.780912896     A.U. after    8 cycles
            NFock=  8  Conv=0.38D-08     -V/T= 2.0043
 SMD-CDS (non-electrostatic) energy       (kcal/mol) =      -3.66
 (included in total energy above)
   1 Symmetry operations used in ECPInt.
 ECPInt:  NShTT=    5886 NPrTT=   18336 LenC2=    5784 LenP2D=   14535.
 LDataN:  DoStor=T MaxTD1= 7 Len=  274
 D1PCM: PCM CHGder 1st derivatives, ID1Alg=3 FixD1E=F DoIter=F DoCFld=F I1PDM=0.
 Calling FoFJK, ICntrl=      2127 FMM=F ISym2X=0 I1Cent= 0 IOpClX= 0 NMat=1 NMatS=1 NMatT=0.
 ***** Axes restored to original set *****
 -------------------------------------------------------------------
 Center     Atomic                   Forces (Hartrees/Bohr)
 Number     Number              X              Y              Z
 -------------------------------------------------------------------
      1        6          -0.000100339    0.000037962   -0.000036106
      2        6           0.000054325   -0.000045419    0.000011567
      3        6          -0.000023080   -0.000036506    0.000051711
      4        6           0.000071152    0.000071006   -0.000158150
      5        1           0.000021949   -0.000016876    0.000003972
      6        1           0.000014363    0.000002585    0.000001947
      7        6           0.000002039    0.000014269   -0.000003680
      8        1          -0.000011899    0.000015431   -0.000000488
      9        1          -0.000014566   -0.000001456   -0.000002351
     10        1          -0.000017441    0.000003785   -0.000008231
     11        7          -0.000022139   -0.000010888    0.000078601
     12        8          -0.000062344   -0.000000355    0.000039830
     13        8           0.000087980   -0.000033538    0.000021378
 -------------------------------------------------------------------
 Cartesian Forces:  Max     0.000158150 RMS     0.000045687

 GradGradGradGradGradGradGradGradGradGradGradGradGradGradGradGradGradGrad
 Berny optimization.
 Using GEDIIS/GDIIS optimizer.
 FormGI is forming the generalized inverse of G from B-inverse, IUseBI=4.
 Internal  Forces:  Max     0.000089259 RMS     0.000021401
 Search for a local minimum.
 Step number   2 out of a maximum of   70
 All quantities printed in internal units (Hartrees-Bohrs-Radians)
 Mixed Optimization -- En-DIIS/RFO-DIIS
 Swapping is turned off.
 Update second derivatives using D2CorX and points    1    2
 DE=  8.00D-08 DEPred=-3.25D-07 R=-2.46D-01
 Trust test=-2.46D-01 RLast= 2.97D-03 DXMaxT set to 1.50D-01
 ITU= -1  0
     Eigenvalues ---    0.01057   0.01242   0.01295   0.01568   0.01692
     Eigenvalues ---    0.01961   0.02212   0.02431   0.07566   0.07824
     Eigenvalues ---    0.15562   0.16000   0.16000   0.16000   0.16314
     Eigenvalues ---    0.22028   0.22750   0.24998   0.25000   0.25762
     Eigenvalues ---    0.31034   0.32515   0.34765   0.34853   0.35033
     Eigenvalues ---    0.36083   0.36104   0.40056   0.45091   0.46786
     Eigenvalues ---    0.58320   0.88720   1.03459
 En-DIIS/RFO-DIIS IScMMF=        0 using points:     2    1
 RFO step:  Lambda=-7.38808040D-08.
 DidBck=F Rises=F RFO-DIIS coefs:    0.86135    0.13865
 Iteration  1 RMS(Cart)=  0.00046342 RMS(Int)=  0.00000024
 Iteration  2 RMS(Cart)=  0.00000028 RMS(Int)=  0.00000017
 Variable       Old X    -DE/DX   Delta X   Delta X   Delta X     New X
                                 (Linear)    (Quad)   (Total)
    R1        2.83175   0.00005  -0.00001   0.00020   0.00019   2.83193
    R2        2.61595   0.00001   0.00001  -0.00004  -0.00003   2.61592
    R3        2.27304  -0.00009   0.00005  -0.00030  -0.00025   2.27279
    R4        2.50235  -0.00003   0.00000  -0.00004  -0.00004   2.50231
    R5        2.03952   0.00000   0.00000  -0.00001  -0.00001   2.03951
    R6        2.83208   0.00005  -0.00001   0.00017   0.00016   2.83223
    R7        2.03948   0.00000   0.00000  -0.00001   0.00000   2.03947
    R8        2.61923   0.00000   0.00003  -0.00012  -0.00010   2.61914
    R9        2.27237  -0.00006   0.00004  -0.00024  -0.00020   2.27217
   R10        2.05596   0.00001  -0.00001   0.00004   0.00004   2.05600
   R11        2.05920   0.00000   0.00000   0.00002   0.00002   2.05922
   R12        2.06063   0.00000   0.00000   0.00000   0.00000   2.06063
   R13        2.72623   0.00003   0.00003  -0.00006  -0.00003   2.72620
    A1        1.85581   0.00000   0.00006  -0.00026  -0.00020   1.85561
    A2        2.23716   0.00001  -0.00003   0.00019   0.00015   2.23731
    A3        2.19022  -0.00001  -0.00003   0.00007   0.00005   2.19026
    A4        1.89277   0.00000  -0.00002   0.00007   0.00006   1.89283
    A5        2.13094   0.00001   0.00001   0.00000   0.00001   2.13095
    A6        2.25947  -0.00001   0.00001  -0.00007  -0.00006   2.25941
    A7        1.89486   0.00000  -0.00001   0.00004   0.00003   1.89489
    A8        2.25943  -0.00001   0.00000  -0.00005  -0.00004   2.25938
    A9        2.12890   0.00001   0.00001   0.00000   0.00001   2.12891
   A10        1.85358   0.00001   0.00005  -0.00020  -0.00015   1.85342
   A11        2.23191   0.00000  -0.00003   0.00015   0.00012   2.23203
   A12        2.19770  -0.00001  -0.00002   0.00006   0.00004   2.19774
   A13        1.90964   0.00000  -0.00003   0.00011   0.00008   1.90972
   A14        1.90746  -0.00001  -0.00002   0.00004   0.00003   1.90749
   A15        1.88609   0.00001   0.00009  -0.00036  -0.00028   1.88582
   A16        1.90257  -0.00001  -0.00001   0.00000  -0.00001   1.90256
   A17        1.92432   0.00000  -0.00002   0.00009   0.00007   1.92439
   A18        1.93355   0.00001  -0.00002   0.00012   0.00010   1.93366
   A19        1.92775  -0.00001  -0.00008   0.00035   0.00027   1.92802
   A20        2.16978   0.00003   0.00001   0.00003   0.00005   2.16983
   A21        2.18563  -0.00002   0.00006  -0.00038  -0.00031   2.18531
    D1        0.00218   0.00000   0.00001  -0.00042  -0.00041   0.00177
    D2       -3.13916  -0.00001  -0.00003  -0.00057  -0.00060  -3.13976
    D3       -3.14014   0.00002   0.00010   0.00055   0.00065  -3.13949
    D4        0.00170   0.00001   0.00006   0.00040   0.00046   0.00216
    D5       -0.00365   0.00002   0.00004   0.00113   0.00118  -0.00248
    D6       -3.13860   0.00001   0.00008   0.00052   0.00060  -3.13801
    D7        3.13864   0.00000  -0.00004   0.00020   0.00015   3.13880
    D8        0.00369   0.00000  -0.00001  -0.00042  -0.00043   0.00327
    D9        0.00002  -0.00001  -0.00005  -0.00040  -0.00045  -0.00043
   D10       -3.14150  -0.00001  -0.00003  -0.00017  -0.00020   3.14148
   D11        3.14134  -0.00001  -0.00001  -0.00024  -0.00024   3.14110
   D12       -0.00018   0.00000   0.00002  -0.00001   0.00001  -0.00018
   D13       -0.00221   0.00003   0.00008   0.00108   0.00116  -0.00106
   D14        3.14102  -0.00002  -0.00012  -0.00087  -0.00098   3.14004
   D15        3.13932   0.00002   0.00006   0.00088   0.00093   3.14025
   D16       -0.00063  -0.00003  -0.00014  -0.00107  -0.00121  -0.00184
   D17        0.00366  -0.00003  -0.00007  -0.00136  -0.00143   0.00223
   D18        3.13854  -0.00002  -0.00011  -0.00074  -0.00085   3.13769
   D19       -3.13954   0.00002   0.00012   0.00054   0.00066  -3.13888
   D20       -0.00466   0.00002   0.00008   0.00116   0.00124  -0.00342
   D21       -3.05212   0.00000   0.00005  -0.00039  -0.00035  -3.05246
   D22        0.09710  -0.00001   0.00009  -0.00110  -0.00101   0.09608
   D23       -0.96573   0.00000   0.00006  -0.00043  -0.00037  -0.96610
   D24        2.18348  -0.00001   0.00010  -0.00114  -0.00104   2.18244
   D25        1.14191   0.00000   0.00003  -0.00029  -0.00027   1.14164
   D26       -1.99206  -0.00001   0.00007  -0.00100  -0.00093  -1.99300
         Item               Value     Threshold  Converged?
 Maximum Force            0.000089     0.000450     YES
 RMS     Force            0.000021     0.000300     YES
 Maximum Displacement     0.001991     0.001800     NO 
 RMS     Displacement     0.000463     0.001200     YES
 Predicted change in Energy=-1.778549D-07
 GradGradGradGradGradGradGradGradGradGradGradGradGradGradGradGradGradGrad

                          Input orientation:                          
 ---------------------------------------------------------------------
 Center     Atomic      Atomic             Coordinates (Angstroms)
 Number     Number       Type             X           Y           Z
 ---------------------------------------------------------------------
      1          6           0       -1.132221   -0.221530   -0.000289
      2          6           0       -0.630160   -1.633522    0.000018
      3          6           0        0.693752   -1.607573    0.000132
      4          6           0        1.143098   -0.177765   -0.000704
      5          1           0       -1.299535   -2.480132    0.000064
      6          1           0        1.395750   -2.427307    0.000444
      7          6           0       -0.050313    2.032127    0.000515
      8          1           0        0.970062    2.397533   -0.094548
      9          1           0       -0.644703    2.395170   -0.837534
     10          1           0       -0.481529    2.405437    0.929896
     11          7           0       -0.010787    0.590027   -0.002695
     12          8           0        2.269779    0.242124    0.000622
     13          8           0       -2.272011    0.162380    0.001528
 ---------------------------------------------------------------------
                    Distance matrix (angstroms):
                    1          2          3          4          5
     1  C    0.000000
     2  C    1.498594   0.000000
     3  C    2.292443   1.324167   0.000000
     4  C    2.275740   2.294269   1.498754   0.000000
     5  H    2.264790   1.079264   2.175903   3.356687   0.000000
     6  H    3.355009   2.175869   1.079242   2.263685   2.695803
     7  C    2.499900   3.711227   3.714976   2.511545   4.681991
     8  H    3.359757   4.338093   4.015742   2.582810   5.380672
     9  H    2.790300   4.114859   4.302918   3.242918   4.989884
    10  H    2.861748   4.147283   4.283690   3.190355   5.040090
    11  N    1.384285   2.308203   2.307776   1.385988   3.329678
    12  O    3.433450   3.453649   2.430070   1.202380   4.488951
    13  O    1.202710   2.433298   3.453764   3.432007   2.815773
                    6          7          8          9         10
     6  H    0.000000
     7  C    4.688032   0.000000
     8  H    4.844513   1.087990   0.000000
     9  H    5.303012   1.089691   1.777498   0.000000
    10  H    5.267207   1.090439   1.776700   1.774976   0.000000
    11  N    3.329063   1.442645   2.058538   2.087426   2.094525
    12  O    2.808876   2.930348   2.518752   3.719183   3.621211
    13  O    4.489871   2.903773   3.939057   2.887474   3.016455
                   11         12         13
    11  N    0.000000
    12  O    2.306952   0.000000
    13  O    2.301311   4.542490   0.000000
 Stoichiometry    C5H5NO2
 Framework group  C1[X(C5H5NO2)]
 Deg. of freedom    33
 Full point group                 C1      NOp   1
 Largest Abelian subgroup         C1      NOp   1
 Largest concise Abelian subgroup C1      NOp   1
                         Standard orientation:                         
 ---------------------------------------------------------------------
 Center     Atomic      Atomic             Coordinates (Angstroms)
 Number     Number       Type             X           Y           Z
 ---------------------------------------------------------------------
      1          6           0       -1.132259   -0.220723   -0.000197
      2          6           0       -0.631362   -1.633128    0.000110
      3          6           0        0.692571   -1.608271    0.000224
      4          6           0        1.143096   -0.178835   -0.000612
      5          1           0       -1.301435   -2.479186    0.000155
      6          1           0        1.393892   -2.428583    0.000535
      7          6           0       -0.048493    2.032041    0.000607
      8          1           0        0.972183    2.396605   -0.094457
      9          1           0       -0.642583    2.395574   -0.837442
     10          1           0       -0.479401    2.405707    0.929987
     11          7           0       -0.010156    0.589909   -0.002603
     12          8           0        2.270122    0.240125    0.000713
     13          8           0       -2.271732    0.164126    0.001619
 ---------------------------------------------------------------------
 Rotational constants (GHZ):      3.3497865      2.3674984      1.3993245
 Standard basis: def2TZVP (5D, 7F)
 There are   318 symmetry adapted cartesian basis functions of A   symmetry.
 There are   278 symmetry adapted basis functions of A   symmetry.
   278 basis functions,   448 primitive gaussians,   318 cartesian basis functions
    29 alpha electrons       29 beta electrons
       nuclear repulsion energy       356.8942174538 Hartrees.
 NAtoms=   13 NActive=   13 NUniq=   13 SFac= 1.00D+00 NAtFMM=   60 NAOKFM=F Big=F
 Integral buffers will be    131072 words long.
 Raffenetti 2 integral format.
 Two-electron integral symmetry is turned on.
 Nuclear repulsion after empirical dispersion term =      356.8889803236 Hartrees.
 ------------------------------------------------------------------------------
 Polarizable Continuum Model (PCM)
 =================================
 Model                : PCM (using non-symmetric T matrix).
 Atomic radii         : SMD-Coulomb.
 Polarization charges : Total charges.
 Charge compensation  : None.
 Solution method      : On-the-fly selection.
 Cavity type          : VdW (van der Waals Surface) (Alpha=1.000).
 Cavity algorithm     : GePol (No added spheres)
                        Default sphere list used, NSphG=   13.
                        Lebedev-Laikov grids with approx.  5.0 points / Ang**2.
                        Smoothing algorithm: Karplus/York (Gamma=1.0000).
                        Polarization charges: spherical gaussians, with
                                              point-specific exponents (IZeta= 3).
                        Self-potential: point-specific (ISelfS= 7).
                        Self-field    : sphere-specific E.n sum rule (ISelfD= 2).
 1st derivatives      : Analytical E(r).r(x)/FMM algorithm (CHGder, D1EAlg=3).
                        Cavity 1st derivative terms included.
 Solvent              : Toluene, Eps=   2.374100 Eps(inf)=   2.238315
 ------------------------------------------------------------------------------
 Spheres list:
 ISph  on   Nord     Re0    Alpha      Xe            Ye            Ze
    1   C      1    1.8500  1.000     -1.132259     -0.220723     -0.000197
    2   C      2    1.8500  1.000     -0.631362     -1.633128      0.000110
    3   C      3    1.8500  1.000      0.692571     -1.608271      0.000224
    4   C      4    1.8500  1.000      1.143096     -0.178835     -0.000612
    5   H      5    1.2000  1.000     -1.301435     -2.479186      0.000155
    6   H      6    1.2000  1.000      1.393892     -2.428583      0.000535
    7   C      7    1.8500  1.000     -0.048493      2.032041      0.000607
    8   H      8    1.2000  1.000      0.972183      2.396605     -0.094457
    9   H      9    1.2000  1.000     -0.642583      2.395574     -0.837442
   10   H     10    1.2000  1.000     -0.479401      2.405707      0.929987
   11   N     11    1.8900  1.000     -0.010156      0.589909     -0.002603
   12   O     12    2.2940  1.000      2.270122      0.240125      0.000713
   13   O     13    2.2940  1.000     -2.271732      0.164126      0.001619
 ------------------------------------------------------------------------------
 ------------------------------------------------------------------------------
 Atomic radii for non-electrostatic terms: SMD-CDS.
 ------------------------------------------------------------------------------
 Nuclear repulsion after PCM non-electrostatic terms =      356.8831539329 Hartrees.
 One-electron integrals computed using PRISM.
   1 Symmetry operations used in ECPInt.
 ECPInt:  NShTT=    5886 NPrTT=   18336 LenC2=    5784 LenP2D=   14535.
 LDataN:  DoStor=T MaxTD1= 6 Len=  172
 NBasis=   278 RedAO= T EigKep=  4.55D-05  NBF=   278
 NBsUse=   278 1.00D-06 EigRej= -1.00D+00 NBFU=   278
 Initial guess from the checkpoint file:  ""dieneophile.chk""
 B after Tr=     0.000000    0.000000    0.000000
         Rot=    1.000000   -0.000005   -0.000039    0.000167 Ang=  -0.02 deg.
 Requested convergence on RMS density matrix=1.00D-08 within 128 cycles.
 Requested convergence on MAX density matrix=1.00D-06.
 Requested convergence on             energy=1.00D-06.
 No special actions if energy rises.
 Inv3:  Mode=1 IEnd=     5023308.
 Iteration    1 A*A^-1 deviation from unit magnitude is 4.22D-15 for   1283.
 Iteration    1 A*A^-1 deviation from orthogonality  is 1.70D-15 for    271    204.
 Iteration    1 A^-1*A deviation from unit magnitude is 4.44D-15 for    471.
 Iteration    1 A^-1*A deviation from orthogonality  is 1.10D-13 for    257    217.
 Error on total polarization charges =  0.01053
 SCF Done:  E(RwB97XD) =  -398.780912575     A.U. after    8 cycles
            NFock=  8  Conv=0.70D-08     -V/T= 2.0043
 SMD-CDS (non-electrostatic) energy       (kcal/mol) =      -3.66
 (included in total energy above)
   1 Symmetry operations used in ECPInt.
 ECPInt:  NShTT=    5886 NPrTT=   18336 LenC2=    5784 LenP2D=   14535.
 LDataN:  DoStor=T MaxTD1= 7 Len=  274
 D1PCM: PCM CHGder 1st derivatives, ID1Alg=3 FixD1E=F DoIter=F DoCFld=F I1PDM=0.
 Calling FoFJK, ICntrl=      2127 FMM=F ISym2X=0 I1Cent= 0 IOpClX= 0 NMat=1 NMatS=1 NMatT=0.
 ***** Axes restored to original set *****
 -------------------------------------------------------------------
 Center     Atomic                   Forces (Hartrees/Bohr)
 Number     Number              X              Y              Z
 -------------------------------------------------------------------
      1        6           0.000131983   -0.000081611    0.000085091
      2        6           0.000009825   -0.000029148   -0.000018659
      3        6           0.000014924   -0.000018377   -0.000063911
      4        6          -0.000108994   -0.000066935    0.000162304
      5        1           0.000018307   -0.000019886    0.000012814
      6        1           0.000016005   -0.000000074   -0.000001550
      7        6           0.000015486    0.000026702   -0.000032991
      8        1          -0.000031930    0.000036427   -0.000001090
      9        1          -0.000007378    0.000003939    0.000000691
     10        1          -0.000016744   -0.000010627   -0.000005986
     11        7          -0.000036563    0.000089352   -0.000055928
     12        8           0.000093846    0.000048247   -0.000064806
     13        8          -0.000098767    0.000021992   -0.000015979
 -------------------------------------------------------------------
 Cartesian Forces:  Max     0.000162304 RMS     0.000056451

 GradGradGradGradGradGradGradGradGradGradGradGradGradGradGradGradGradGrad
 Berny optimization.
 Using GEDIIS/GDIIS optimizer.
 FormGI is forming the generalized inverse of G from B-inverse, IUseBI=4.
 Internal  Forces:  Max     0.000105299 RMS     0.000030657
 Search for a local minimum.
 Step number   3 out of a maximum of   70
 All quantities printed in internal units (Hartrees-Bohrs-Radians)
 Mixed Optimization -- En-DIIS/RFO-DIIS
 Swapping is turned off.
 Update second derivatives using D2CorX and points    1    2    3
 DE=  3.21D-07 DEPred=-1.78D-07 R=-1.81D+00
 Trust test=-1.81D+00 RLast= 4.08D-03 DXMaxT set to 7.50D-02
 ITU= -1 -1  0
     Eigenvalues ---    0.00889   0.01237   0.01295   0.01600   0.01726
     Eigenvalues ---    0.01963   0.02358   0.04545   0.07583   0.07824
     Eigenvalues ---    0.15466   0.16000   0.16000   0.16078   0.16703
     Eigenvalues ---    0.21411   0.22741   0.24999   0.25006   0.26415
     Eigenvalues ---    0.31026   0.32505   0.34769   0.34860   0.35041
     Eigenvalues ---    0.36083   0.36124   0.40661   0.46736   0.46821
     Eigenvalues ---    0.58114   0.88136   1.03528
 En-DIIS/RFO-DIIS IScMMF=        0 using points:     3    2    1
 RFO step:  Lambda=-1.09637040D-07.
 DidBck=T Rises=F RFO-DIIS coefs:    0.44046    0.53446    0.02508
 Iteration  1 RMS(Cart)=  0.00030285 RMS(Int)=  0.00000008
 Iteration  2 RMS(Cart)=  0.00000010 RMS(Int)=  0.00000004
 Variable       Old X    -DE/DX   Delta X   Delta X   Delta X     New X
                                 (Linear)    (Quad)   (Total)
    R1        2.83193   0.00003  -0.00011   0.00014   0.00004   2.83197
    R2        2.61592   0.00003   0.00002   0.00003   0.00004   2.61596
    R3        2.27279   0.00011   0.00015  -0.00007   0.00008   2.27287
    R4        2.50231  -0.00002   0.00002  -0.00004  -0.00002   2.50229
    R5        2.03951   0.00001   0.00000   0.00001   0.00002   2.03953
    R6        2.83223   0.00003  -0.00009   0.00013   0.00004   2.83227
    R7        2.03947   0.00001   0.00000   0.00001   0.00001   2.03948
    R8        2.61914   0.00004   0.00006   0.00001   0.00007   2.61920
    R9        2.27217   0.00010   0.00012  -0.00004   0.00007   2.27224
   R10        2.05600  -0.00001  -0.00002   0.00001  -0.00001   2.05599
   R11        2.05922   0.00000  -0.00001   0.00000  -0.00001   2.05921
   R12        2.06063   0.00000   0.00000  -0.00001  -0.00001   2.06062
   R13        2.72620   0.00006   0.00002   0.00008   0.00010   2.72630
    A1        1.85561   0.00004   0.00012   0.00001   0.00014   1.85575
    A2        2.23731  -0.00002  -0.00009   0.00003  -0.00006   2.23726
    A3        2.19026  -0.00003  -0.00003  -0.00005  -0.00008   2.19018
    A4        1.89283  -0.00001  -0.00003  -0.00001  -0.00004   1.89279
    A5        2.13095   0.00001   0.00000   0.00005   0.00005   2.13100
    A6        2.25941   0.00000   0.00004  -0.00004  -0.00001   2.25940
    A7        1.89489  -0.00001  -0.00002  -0.00001  -0.00003   1.89486
    A8        2.25938   0.00000   0.00003  -0.00004  -0.00001   2.25937
    A9        2.12891   0.00001   0.00000   0.00005   0.00004   2.12896
   A10        1.85342   0.00004   0.00010   0.00003   0.00012   1.85355
   A11        2.23203  -0.00002  -0.00007   0.00000  -0.00007   2.23196
   A12        2.19774  -0.00002  -0.00002  -0.00003  -0.00006   2.19768
   A13        1.90972  -0.00002  -0.00005  -0.00002  -0.00008   1.90965
   A14        1.90749  -0.00001  -0.00002  -0.00003  -0.00005   1.90744
   A15        1.88582   0.00005   0.00017   0.00007   0.00024   1.88606
   A16        1.90256   0.00000   0.00000  -0.00005  -0.00004   1.90252
   A17        1.92439   0.00001  -0.00004   0.00005   0.00001   1.92440
   A18        1.93366  -0.00002  -0.00006  -0.00002  -0.00008   1.93358
   A19        1.92802  -0.00007  -0.00017  -0.00002  -0.00019   1.92784
   A20        2.16983   0.00003  -0.00002   0.00010   0.00007   2.16990
   A21        2.18531   0.00004   0.00019  -0.00007   0.00011   2.18543
    D1        0.00177   0.00001   0.00023   0.00007   0.00030   0.00207
    D2       -3.13976   0.00002   0.00033   0.00004   0.00037  -3.13940
    D3       -3.13949  -0.00002  -0.00035  -0.00014  -0.00049  -3.13997
    D4        0.00216  -0.00002  -0.00025  -0.00017  -0.00042   0.00174
    D5       -0.00248  -0.00003  -0.00065  -0.00001  -0.00066  -0.00314
    D6       -3.13801  -0.00003  -0.00032  -0.00028  -0.00060  -3.13860
    D7        3.13880   0.00000  -0.00009   0.00019   0.00010   3.13889
    D8        0.00327   0.00000   0.00024  -0.00007   0.00016   0.00343
    D9       -0.00043   0.00001   0.00024  -0.00009   0.00015  -0.00028
   D10        3.14148   0.00001   0.00011  -0.00004   0.00007   3.14155
   D11        3.14110   0.00001   0.00013  -0.00006   0.00008   3.14118
   D12       -0.00018   0.00000   0.00000   0.00000   0.00000  -0.00018
   D13       -0.00106  -0.00003  -0.00063   0.00008  -0.00055  -0.00161
   D14        3.14004   0.00003   0.00053   0.00012   0.00065   3.14069
   D15        3.14025  -0.00003  -0.00051   0.00003  -0.00048   3.13977
   D16       -0.00184   0.00003   0.00065   0.00007   0.00072  -0.00112
   D17        0.00223   0.00004   0.00079  -0.00004   0.00075   0.00298
   D18        3.13769   0.00003   0.00045   0.00023   0.00068   3.13837
   D19       -3.13888  -0.00002  -0.00035  -0.00008  -0.00042  -3.13930
   D20       -0.00342  -0.00002  -0.00068   0.00019  -0.00049  -0.00391
   D21       -3.05246  -0.00001   0.00020  -0.00044  -0.00023  -3.05270
   D22        0.09608  -0.00001   0.00058  -0.00074  -0.00016   0.09593
   D23       -0.96610   0.00000   0.00022  -0.00039  -0.00017  -0.96627
   D24        2.18244   0.00000   0.00060  -0.00069  -0.00009   2.18235
   D25        1.14164  -0.00001   0.00015  -0.00043  -0.00027   1.14137
   D26       -1.99300  -0.00001   0.00054  -0.00073  -0.00019  -1.99319
         Item               Value     Threshold  Converged?
 Maximum Force            0.000105     0.000450     YES
 RMS     Force            0.000031     0.000300     YES
 Maximum Displacement     0.001027     0.001800     YES
 RMS     Displacement     0.000303     0.001200     YES
 Predicted change in Energy=-1.496355D-07
 Optimization completed.
    -- Stationary point found.
                           ----------------------------
                           !   Optimized Parameters   !
                           ! (Angstroms and Degrees)  !
 --------------------------                            --------------------------
 ! Name  Definition              Value          Derivative Info.                !
 --------------------------------------------------------------------------------
 ! R1    R(1,2)                  1.4986         -DE/DX =    0.0                 !
 ! R2    R(1,11)                 1.3843         -DE/DX =    0.0                 !
 ! R3    R(1,13)                 1.2027         -DE/DX =    0.0001              !
 ! R4    R(2,3)                  1.3242         -DE/DX =    0.0                 !
 ! R5    R(2,5)                  1.0793         -DE/DX =    0.0                 !
 ! R6    R(3,4)                  1.4988         -DE/DX =    0.0                 !
 ! R7    R(3,6)                  1.0792         -DE/DX =    0.0                 !
 ! R8    R(4,11)                 1.386          -DE/DX =    0.0                 !
 ! R9    R(4,12)                 1.2024         -DE/DX =    0.0001              !
 ! R10   R(7,8)                  1.088          -DE/DX =    0.0                 !
 ! R11   R(7,9)                  1.0897         -DE/DX =    0.0                 !
 ! R12   R(7,10)                 1.0904         -DE/DX =    0.0                 !
 ! R13   R(7,11)                 1.4426         -DE/DX =    0.0001              !
 ! A1    A(2,1,11)             106.3186         -DE/DX =    0.0                 !
 ! A2    A(2,1,13)             128.1886         -DE/DX =    0.0                 !
 ! A3    A(11,1,13)            125.4928         -DE/DX =    0.0                 !
 ! A4    A(1,2,3)              108.451          -DE/DX =    0.0                 !
 ! A5    A(1,2,5)              122.0944         -DE/DX =    0.0                 !
 ! A6    A(3,2,5)              129.4546         -DE/DX =    0.0                 !
 ! A7    A(2,3,4)              108.5692         -DE/DX =    0.0                 !
 ! A8    A(2,3,6)              129.453          -DE/DX =    0.0                 !
 ! A9    A(4,3,6)              121.9778         -DE/DX =    0.0                 !
 ! A10   A(3,4,11)             106.1933         -DE/DX =    0.0                 !
 ! A11   A(3,4,12)             127.8856         -DE/DX =    0.0                 !
 ! A12   A(11,4,12)            125.921          -DE/DX =    0.0                 !
 ! A13   A(8,7,9)              109.4192         -DE/DX =    0.0                 !
 ! A14   A(8,7,10)             109.291          -DE/DX =    0.0                 !
 ! A15   A(8,7,11)             108.0494         -DE/DX =    0.0001              !
 ! A16   A(9,7,10)             109.0089         -DE/DX =    0.0                 !
 ! A17   A(9,7,11)             110.2593         -DE/DX =    0.0                 !
 ! A18   A(10,7,11)            110.7904         -DE/DX =    0.0                 !
 ! A19   A(1,11,4)             110.4676         -DE/DX =   -0.0001              !
 ! A20   A(1,11,7)             124.322          -DE/DX =    0.0                 !
 ! A21   A(4,11,7)             125.2093         -DE/DX =    0.0                 !
 ! D1    D(11,1,2,3)             0.1016         -DE/DX =    0.0                 !
 ! D2    D(11,1,2,5)          -179.8952         -DE/DX =    0.0                 !
 ! D3    D(13,1,2,3)          -179.8794         -DE/DX =    0.0                 !
 ! D4    D(13,1,2,5)             0.1238         -DE/DX =    0.0                 !
 ! D5    D(2,1,11,4)            -0.142          -DE/DX =    0.0                 !
 ! D6    D(2,1,11,7)          -179.7946         -DE/DX =    0.0                 !
 ! D7    D(13,1,11,4)          179.8397         -DE/DX =    0.0                 !
 ! D8    D(13,1,11,7)            0.1871         -DE/DX =    0.0                 !
 ! D9    D(1,2,3,4)             -0.0246         -DE/DX =    0.0                 !
 ! D10   D(1,2,3,6)            179.9934         -DE/DX =    0.0                 !
 ! D11   D(5,2,3,4)            179.9718         -DE/DX =    0.0                 !
 ! D12   D(5,2,3,6)             -0.0102         -DE/DX =    0.0                 !
 ! D13   D(2,3,4,11)            -0.0605         -DE/DX =    0.0                 !
 ! D14   D(2,3,4,12)           179.911          -DE/DX =    0.0                 !
 ! D15   D(6,3,4,11)           179.9231         -DE/DX =    0.0                 !
 ! D16   D(6,3,4,12)            -0.1054         -DE/DX =    0.0                 !
 ! D17   D(3,4,11,1)             0.1276         -DE/DX =    0.0                 !
 ! D18   D(3,4,11,7)           179.7765         -DE/DX =    0.0                 !
 ! D19   D(12,4,11,1)         -179.8446         -DE/DX =    0.0                 !
 ! D20   D(12,4,11,7)           -0.1957         -DE/DX =    0.0                 !
 ! D21   D(8,7,11,1)          -174.8931         -DE/DX =    0.0                 !
 ! D22   D(8,7,11,4)             5.5052         -DE/DX =    0.0                 !
 ! D23   D(9,7,11,1)           -55.3535         -DE/DX =    0.0                 !
 ! D24   D(9,7,11,4)           125.0448         -DE/DX =    0.0                 !
 ! D25   D(10,7,11,1)           65.4113         -DE/DX =    0.0                 !
 ! D26   D(10,7,11,4)         -114.1904         -DE/DX =    0.0                 !
 --------------------------------------------------------------------------------
 GradGradGradGradGradGradGradGradGradGradGradGradGradGradGradGradGradGrad

                          Input orientation:                          
 ---------------------------------------------------------------------
 Center     Atomic      Atomic             Coordinates (Angstroms)
 Number     Number       Type             X           Y           Z
 ---------------------------------------------------------------------
      1          6           0       -1.132221   -0.221530   -0.000289
      2          6           0       -0.630160   -1.633522    0.000018
      3          6           0        0.693752   -1.607573    0.000132
      4          6           0        1.143098   -0.177765   -0.000704
      5          1           0       -1.299535   -2.480132    0.000064
      6          1           0        1.395750   -2.427307    0.000444
      7          6           0       -0.050313    2.032127    0.000515
      8          1           0        0.970062    2.397533   -0.094548
      9          1           0       -0.644703    2.395170   -0.837534
     10          1           0       -0.481529    2.405437    0.929896
     11          7           0       -0.010787    0.590027   -0.002695
     12          8           0        2.269779    0.242124    0.000622
     13          8           0       -2.272011    0.162380    0.001528
 ---------------------------------------------------------------------
                    Distance matrix (angstroms):
                    1          2          3          4          5
     1  C    0.000000
     2  C    1.498594   0.000000
     3  C    2.292443   1.324167   0.000000
     4  C    2.275740   2.294269   1.498754   0.000000
     5  H    2.264790   1.079264   2.175903   3.356687   0.000000
     6  H    3.355009   2.175869   1.079242   2.263685   2.695803
     7  C    2.499900   3.711227   3.714976   2.511545   4.681991
     8  H    3.359757   4.338093   4.015742   2.582810   5.380672
     9  H    2.790300   4.114859   4.302918   3.242918   4.989884
    10  H    2.861748   4.147283   4.283690   3.190355   5.040090
    11  N    1.384285   2.308203   2.307776   1.385988   3.329678
    12  O    3.433450   3.453649   2.430070   1.202380   4.488951
    13  O    1.202710   2.433298   3.453764   3.432007   2.815773
                    6          7          8          9         10
     6  H    0.000000
     7  C    4.688032   0.000000
     8  H    4.844513   1.087990   0.000000
     9  H    5.303012   1.089691   1.777498   0.000000
    10  H    5.267207   1.090439   1.776700   1.774976   0.000000
    11  N    3.329063   1.442645   2.058538   2.087426   2.094525
    12  O    2.808876   2.930348   2.518752   3.719183   3.621211
    13  O    4.489871   2.903773   3.939057   2.887474   3.016455
                   11         12         13
    11  N    0.000000
    12  O    2.306952   0.000000
    13  O    2.301311   4.542490   0.000000
 Stoichiometry    C5H5NO2
 Framework group  C1[X(C5H5NO2)]
 Deg. of freedom    33
 Full point group                 C1      NOp   1
 Largest Abelian subgroup         C1      NOp   1
 Largest concise Abelian subgroup C1      NOp   1
                         Standard orientation:                         
 ---------------------------------------------------------------------
 Center     Atomic      Atomic             Coordinates (Angstroms)
 Number     Number       Type             X           Y           Z
 ---------------------------------------------------------------------
      1          6           0       -1.132259   -0.220723   -0.000197
      2          6           0       -0.631362   -1.633128    0.000110
      3          6           0        0.692571   -1.608271    0.000224
      4          6           0        1.143096   -0.178835   -0.000612
      5          1           0       -1.301435   -2.479186    0.000155
      6          1           0        1.393892   -2.428583    0.000535
      7          6           0       -0.048493    2.032041    0.000607
      8          1           0        0.972183    2.396605   -0.094457
      9          1           0       -0.642583    2.395574   -0.837442
     10          1           0       -0.479401    2.405707    0.929987
     11          7           0       -0.010156    0.589909   -0.002603
     12          8           0        2.270122    0.240125    0.000713
     13          8           0       -2.271732    0.164126    0.001619
 ---------------------------------------------------------------------
 Rotational constants (GHZ):      3.3497865      2.3674984      1.3993245

 **********************************************************************

            Population analysis using the SCF density.

 **********************************************************************

 Orbital symmetries:
       Occupied  (A) (A) (A) (A) (A) (A) (A) (A) (A) (A) (A) (A)
                 (A) (A) (A) (A) (A) (A) (A) (A) (A) (A) (A) (A)
                 (A) (A) (A) (A) (A)
       Virtual   (A) (A) (A) (A) (A) (A) (A) (A) (A) (A) (A) (A)
                 (A) (A) (A) (A) (A) (A) (A) (A) (A) (A) (A) (A)
                 (A) (A) (A) (A) (A) (A) (A) (A) (A) (A) (A) (A)
                 (A) (A) (A) (A) (A) (A) (A) (A) (A) (A) (A) (A)
                 (A) (A) (A) (A) (A) (A) (A) (A) (A) (A) (A) (A)
                 (A) (A) (A) (A) (A) (A) (A) (A) (A) (A) (A) (A)
                 (A) (A) (A) (A) (A) (A) (A) (A) (A) (A) (A) (A)
                 (A) (A) (A) (A) (A) (A) (A) (A) (A) (A) (A) (A)
                 (A) (A) (A) (A) (A) (A) (A) (A) (A) (A) (A) (A)
                 (A) (A) (A) (A) (A) (A) (A) (A) (A) (A) (A) (A)
                 (A) (A) (A) (A) (A) (A) (A) (A) (A) (A) (A) (A)
                 (A) (A) (A) (A) (A) (A) (A) (A) (A) (A) (A) (A)
                 (A) (A) (A) (A) (A) (A) (A) (A) (A) (A) (A) (A)
                 (A) (A) (A) (A) (A) (A) (A) (A) (A) (A) (A) (A)
                 (A) (A) (A) (A) (A) (A) (A) (A) (A) (A) (A) (A)
                 (A) (A) (A) (A) (A) (A) (A) (A) (A) (A) (A) (A)
                 (A) (A) (A) (A) (A) (A) (A) (A) (A) (A) (A) (A)
                 (A) (A) (A) (A) (A) (A) (A) (A) (A) (A) (A) (A)
                 (A) (A) (A) (A) (A) (A) (A) (A) (A) (A) (A) (A)
                 (A) (A) (A) (A) (A) (A) (A) (A) (A) (A) (A) (A)
                 (A) (A) (A) (A) (A) (A) (A) (A) (A)
 The electronic state is 1-A.
 Alpha  occ. eigenvalues --  -19.25163 -19.25117 -14.48564 -10.41433 -10.41305
 Alpha  occ. eigenvalues --  -10.32319 -10.32220 -10.31992  -1.18718  -1.16710
 Alpha  occ. eigenvalues --   -1.07344  -0.93830  -0.81534  -0.77566  -0.70793
 Alpha  occ. eigenvalues --   -0.65792  -0.59474  -0.58803  -0.56123  -0.54291
 Alpha  occ. eigenvalues --   -0.53764  -0.51495  -0.50561  -0.49550  -0.48662
 Alpha  occ. eigenvalues --   -0.39055  -0.38961  -0.35961  -0.35904
 Alpha virt. eigenvalues --   -0.02619   0.12480   0.12764   0.13667   0.14779
 Alpha virt. eigenvalues --    0.16861   0.17599   0.19815   0.21006   0.21354
 Alpha virt. eigenvalues --    0.22373   0.23003   0.24776   0.27350   0.29412
 Alpha virt. eigenvalues --    0.29828   0.31679   0.34247   0.34877   0.37115
 Alpha virt. eigenvalues --    0.37420   0.37945   0.38546   0.39463   0.41409
 Alpha virt. eigenvalues --    0.42189   0.43810   0.45823   0.47645   0.48698
 Alpha virt. eigenvalues --    0.50268   0.52118   0.52893   0.53768   0.55515
 Alpha virt. eigenvalues --    0.55772   0.57829   0.58161   0.59687   0.60668
 Alpha virt. eigenvalues --    0.62388   0.63801   0.66899   0.67654   0.68526
 Alpha virt. eigenvalues --    0.70333   0.71308   0.73595   0.77648   0.78236
 Alpha virt. eigenvalues --    0.78517   0.82704   0.84726   0.86464   0.90781
 Alpha virt. eigenvalues --    0.91899   0.94155   0.96956   0.99033   1.00820
 Alpha virt. eigenvalues --    1.02924   1.04954   1.07891   1.09239   1.10604
 Alpha virt. eigenvalues --    1.12361   1.13059   1.15995   1.18054   1.22209
 Alpha virt. eigenvalues --    1.23104   1.25977   1.28506   1.33391   1.36035
 Alpha virt. eigenvalues --    1.42634   1.43880   1.45856   1.46425   1.47912
 Alpha virt. eigenvalues --    1.52170   1.55004   1.56334   1.56854   1.58682
 Alpha virt. eigenvalues --    1.59948   1.61836   1.63321   1.64711   1.68893
 Alpha virt. eigenvalues --    1.70570   1.71636   1.74255   1.75741   1.79856
 Alpha virt. eigenvalues --    1.81196   1.82478   1.85573   1.87749   1.97955
 Alpha virt. eigenvalues --    1.98387   1.99433   2.00385   2.03007   2.05504
 Alpha virt. eigenvalues --    2.09374   2.13175   2.14163   2.18656   2.21078
 Alpha virt. eigenvalues --    2.24189   2.25383   2.26936   2.27699   2.35273
 Alpha virt. eigenvalues --    2.35966   2.38681   2.39866   2.41263   2.46233
 Alpha virt. eigenvalues --    2.46790   2.50726   2.54337   2.56135   2.56697
 Alpha virt. eigenvalues --    2.59046   2.61922   2.64660   2.65675   2.66189
 Alpha virt. eigenvalues --    2.67862   2.70732   2.73267   2.75237   2.80783
 Alpha virt. eigenvalues --    2.84180   2.85630   2.86884   2.90581   2.91949
 Alpha virt. eigenvalues --    2.95186   2.95962   3.00209   3.00903   3.05361
 Alpha virt. eigenvalues --    3.07328   3.08029   3.08701   3.09282   3.13048
 Alpha virt. eigenvalues --    3.14011   3.17893   3.19466   3.21473   3.21476
 Alpha virt. eigenvalues --    3.24390   3.24967   3.26783   3.29549   3.30781
 Alpha virt. eigenvalues --    3.35568   3.37828   3.39120   3.40800   3.41767
 Alpha virt. eigenvalues --    3.43856   3.44247   3.45991   3.54588   3.55221
 Alpha virt. eigenvalues --    3.55959   3.58629   3.59886   3.61020   3.66398
 Alpha virt. eigenvalues --    3.67427   3.69176   3.72429   3.76415   3.82172
 Alpha virt. eigenvalues --    3.85262   3.94087   3.96874   3.98593   4.08047
 Alpha virt. eigenvalues --    4.12509   4.13155   4.16757   4.17128   4.25534
 Alpha virt. eigenvalues --    4.26203   4.29134   4.30997   4.41400   4.43706
 Alpha virt. eigenvalues --    4.45535   4.49634   4.52503   4.63548   4.71842
 Alpha virt. eigenvalues --    4.77883   4.82076   4.84027   4.87908   4.95586
 Alpha virt. eigenvalues --    5.02378   5.09080   5.16469   5.18144   5.19654
 Alpha virt. eigenvalues --    5.20861   5.25053   5.32147   5.32654   5.33490
 Alpha virt. eigenvalues --    5.40485   5.45698   5.64606   5.72548   5.73320
 Alpha virt. eigenvalues --    5.81073   5.81488   5.85233   5.98789   6.12858
 Alpha virt. eigenvalues --    6.26526   6.27529   6.44215   6.45180   6.46925
 Alpha virt. eigenvalues --    6.58662   6.63647   6.63915   6.85241   6.87517
 Alpha virt. eigenvalues --    6.89340   7.00139   7.13338   7.18855   7.19190
 Alpha virt. eigenvalues --    7.23986  22.27897  22.57514  22.90343  23.27408
 Alpha virt. eigenvalues --   23.70751  32.97082  44.03852  44.04486
          Condensed to atoms (all electrons):
               1          2          3          4          5          6
     1  C    4.525411   0.306756   0.015757  -0.071245  -0.028150   0.004192
     2  C    0.306756   5.301438   0.338254   0.005683   0.403476  -0.020358
     3  C    0.015757   0.338254   5.306900   0.302176  -0.019357   0.406132
     4  C   -0.071245   0.005683   0.302176   4.534186   0.004146  -0.030274
     5  H   -0.028150   0.403476  -0.019357   0.004146   0.451974  -0.003400
     6  H    0.004192  -0.020358   0.406132  -0.030274  -0.003400   0.452425
     7  C   -0.046853   0.008726   0.003007  -0.051246  -0.000111  -0.000010
     8  H    0.007993  -0.001549   0.004368  -0.016965   0.000011  -0.000017
     9  H   -0.008005   0.000913  -0.000448   0.005123  -0.000004   0.000003
    10  H   -0.005210   0.000419  -0.000336   0.003598  -0.000005   0.000001
    11  N    0.335805  -0.101169  -0.128776   0.367058   0.004355   0.004142
    12  O    0.000533   0.007664  -0.072209   0.660587  -0.000050   0.002955
    13  O    0.663178  -0.070225   0.006307   0.000459   0.003669  -0.000076
               7          8          9         10         11         12
     1  C   -0.046853   0.007993  -0.008005  -0.005210   0.335805   0.000533
     2  C    0.008726  -0.001549   0.000913   0.000419  -0.101169   0.007664
     3  C    0.003007   0.004368  -0.000448  -0.000336  -0.128776  -0.072209
     4  C   -0.051246  -0.016965   0.005123   0.003598   0.367058   0.660587
     5  H   -0.000111   0.000011  -0.000004  -0.000005   0.004355  -0.000050
     6  H   -0.000010  -0.000017   0.000003   0.000001   0.004142   0.002955
     7  C    4.882271   0.406261   0.410142   0.413672   0.251159  -0.005848
     8  H    0.406261   0.492828  -0.019552  -0.021484  -0.032803   0.016712
     9  H    0.410142  -0.019552   0.522322  -0.029628  -0.035486   0.000389
    10  H    0.413672  -0.021484  -0.029628   0.524663  -0.036566   0.000213
    11  N    0.251159  -0.032803  -0.035486  -0.036566   6.672743  -0.101301
    12  O   -0.005848   0.016712   0.000389   0.000213  -0.101301   7.843203
    13  O    0.014694   0.000709   0.002627   0.000869  -0.109725  -0.000163
              13
     1  C    0.663178
     2  C   -0.070225
     3  C    0.006307
     4  C    0.000459
     5  H    0.003669
     6  H   -0.000076
     7  C    0.014694
     8  H    0.000709
     9  H    0.002627
    10  H    0.000869
    11  N   -0.109725
    12  O   -0.000163
    13  O    7.837056
 Mulliken charges:
               1
     1  C    0.299837
     2  C   -0.180027
     3  C   -0.161776
     4  C    0.286716
     5  H    0.183446
     6  H    0.184284
     7  C   -0.285867
     8  H    0.163487
     9  H    0.151604
    10  H    0.149795
    11  N   -0.089435
    12  O   -0.352684
    13  O   -0.349379
 Sum of Mulliken charges =   0.00000
 Mulliken charges with hydrogens summed into heavy atoms:
               1
     1  C    0.299837
     2  C    0.003419
     3  C    0.022508
     4  C    0.286716
     7  C    0.179018
    11  N   -0.089435
    12  O   -0.352684
    13  O   -0.349379
 Electronic spatial extent (au):  <R**2>=            816.4956
 Charge=              0.0000 electrons
 Dipole moment (field-independent basis, Debye):
    X=              0.0583    Y=             -1.3692    Z=             -0.0108  Tot=              1.3705
 Quadrupole moment (field-independent basis, Debye-Ang):
   XX=            -60.5050   YY=            -35.3183   ZZ=            -44.9287
   XY=             -0.3221   XZ=              0.0063   YZ=             -0.0262
 Traceless Quadrupole moment (field-independent basis, Debye-Ang):
   XX=            -13.5876   YY=             11.5990   ZZ=              1.9886
   XY=             -0.3221   XZ=              0.0063   YZ=             -0.0262
 Octapole moment (field-independent basis, Debye-Ang**2):
  XXX=              1.1427  YYY=             -1.6844  ZZZ=              0.1904  XYY=             -0.0245
  XXY=             -8.8892  XXZ=             -0.2431  XZZ=             -0.7815  YZZ=              4.2090
  YYZ=             -0.0608  XYZ=             -0.0017
 Hexadecapole moment (field-independent basis, Debye-Ang**3):
 XXXX=           -630.9598 YYYY=           -406.0344 ZZZZ=            -49.8221 XXXY=             -0.4482
 XXXZ=              0.0940 YYYX=              0.8575 YYYZ=             -0.1533 ZZZX=              0.0375
 ZZZY=              0.4651 XXYY=           -146.4337 XXZZ=            -92.6710 YYZZ=            -87.7528
 XXYZ=             -0.5630 YYXZ=              0.0007 ZZXY=             -1.6081
 N-N= 3.568831539329D+02 E-N=-1.646088472078D+03  KE= 3.970547753099D+02
 1\1\GINC-D10S7B1\FOpt\RwB97XD\def2TZVP\C5H5N1O2\PMMASS\23-Feb-2022\0\\
 #n wB97XD/Def2TZVP scrf(smd,solvent=toluene) opt\\dieneophile diels-al
 der toluene - opt\\0,1\C,-1.1322213247,-0.2215302476,-0.0002886239\C,-
 0.6301601354,-1.6335217213,0.0000182868\C,0.6937520881,-1.6075729924,0
 .0001322254\C,1.143098181,-0.1777653342,-0.0007037766\H,-1.2995354112,
 -2.4801315533,0.0000639531\H,1.3957495529,-2.4273066482,0.0004438411\C
 ,-0.0503127673,2.0321272033,0.0005150558\H,0.9700616485,2.3975327198,-
 0.0945480252\H,-0.6447031461,2.3951703915,-0.837533839\H,-0.4815291434
 ,2.405437183,0.9298958258\N,-0.0107874263,0.5900272957,-0.0026947731\O
 ,2.2697787296,0.2421238695,0.0006220125\O,-2.2720108456,0.1623798343,0
 .0015278372\\Version=ES64L-G09RevD.01\State=1-A\HF=-398.7809126\RMSD=7
 .041e-09\RMSF=5.645e-05\Dipole=0.0233826,-0.5386752,-0.00424\Quadrupol
 e=-10.1016706,8.62317,1.4785006,-0.2549241,0.004709,-0.0194662\PG=C01 
 [X(C5H5N1O2)]\\@


 EXPERIENCE IS THE FRUIT OF THE TREE OF ERRORS.
 Job cpu time:       0 days  0 hours 29 minutes 30.2 seconds.
 File lengths (MBytes):  RWF=     76 Int=      0 D2E=      0 Chk=      8 Scr=      1
 Normal termination of Gaussian 09 at Wed Feb 23 16:56:41 2022.
