 Entering Gaussian System, Link 0=g09
 Input=diene.com
 Output=diene.log
 Initial command:
 /apps/applications/gaussian/G09.D01/2/default/g09/l1.exe "/nobackup/pmmass/Temp/Gau-188154.inp" -scrdir="/nobackup/pmmass/Temp/"
 Entering Link 1 = /apps/applications/gaussian/G09.D01/2/default/g09/l1.exe PID=    188155.
  
 Copyright (c) 1988,1990,1992,1993,1995,1998,2003,2009,2013,
            Gaussian, Inc.  All Rights Reserved.
  
 This is part of the Gaussian(R) 09 program.  It is based on
 the Gaussian(R) 03 system (copyright 2003, Gaussian, Inc.),
 the Gaussian(R) 98 system (copyright 1998, Gaussian, Inc.),
 the Gaussian(R) 94 system (copyright 1995, Gaussian, Inc.),
 the Gaussian 92(TM) system (copyright 1992, Gaussian, Inc.),
 the Gaussian 90(TM) system (copyright 1990, Gaussian, Inc.),
 the Gaussian 88(TM) system (copyright 1988, Gaussian, Inc.),
 the Gaussian 86(TM) system (copyright 1986, Carnegie Mellon
 University), and the Gaussian 82(TM) system (copyright 1983,
 Carnegie Mellon University). Gaussian is a federally registered
 trademark of Gaussian, Inc.
  
 This software contains proprietary and confidential information,
 including trade secrets, belonging to Gaussian, Inc.
  
 This software is provided under written license and may be
 used, copied, transmitted, or stored only in accord with that
 written license.
  
 The following legend is applicable only to US Government
 contracts under FAR:
  
                    RESTRICTED RIGHTS LEGEND
  
 Use, reproduction and disclosure by the US Government is
 subject to restrictions as set forth in subparagraphs (a)
 and (c) of the Commercial Computer Software - Restricted
 Rights clause in FAR 52.227-19.
  
 Gaussian, Inc.
 340 Quinnipiac St., Bldg. 40, Wallingford CT 06492
  
  
 ---------------------------------------------------------------
 Warning -- This program may not be used in any manner that
 competes with the business of Gaussian, Inc. or will provide
 assistance to any competitor of Gaussian, Inc.  The licensee
 of this program is prohibited from giving any competitor of
 Gaussian, Inc. access to this program.  By using this program,
 the user acknowledges that Gaussian, Inc. is engaged in the
 business of creating and licensing software in the field of
 computational chemistry and represents and warrants to the
 licensee that it is not a competitor of Gaussian, Inc. and that
 it will not use this program in any manner prohibited above.
 ---------------------------------------------------------------
  

 Cite this work as:
 Gaussian 09, Revision D.01,
 M. J. Frisch, G. W. Trucks, H. B. Schlegel, G. E. Scuseria, 
 M. A. Robb, J. R. Cheeseman, G. Scalmani, V. Barone, B. Mennucci, 
 G. A. Petersson, H. Nakatsuji, M. Caricato, X. Li, H. P. Hratchian, 
 A. F. Izmaylov, J. Bloino, G. Zheng, J. L. Sonnenberg, M. Hada, 
 M. Ehara, K. Toyota, R. Fukuda, J. Hasegawa, M. Ishida, T. Nakajima, 
 Y. Honda, O. Kitao, H. Nakai, T. Vreven, J. A. Montgomery, Jr., 
 J. E. Peralta, F. Ogliaro, M. Bearpark, J. J. Heyd, E. Brothers, 
 K. N. Kudin, V. N. Staroverov, T. Keith, R. Kobayashi, J. Normand, 
 K. Raghavachari, A. Rendell, J. C. Burant, S. S. Iyengar, J. Tomasi, 
 M. Cossi, N. Rega, J. M. Millam, M. Klene, J. E. Knox, J. B. Cross, 
 V. Bakken, C. Adamo, J. Jaramillo, R. Gomperts, R. E. Stratmann, 
 O. Yazyev, A. J. Austin, R. Cammi, C. Pomelli, J. W. Ochterski, 
 R. L. Martin, K. Morokuma, V. G. Zakrzewski, G. A. Voth, 
 P. Salvador, J. J. Dannenberg, S. Dapprich, A. D. Daniels, 
 O. Farkas, J. B. Foresman, J. V. Ortiz, J. Cioslowski, 
 and D. J. Fox, Gaussian, Inc., Wallingford CT, 2013.
 
 ******************************************
 Gaussian 09:  ES64L-G09RevD.01 24-Apr-2013
                23-Feb-2022 
 ******************************************
 %nprocshared=8
 Will use up to    8 processors via shared memory.
 %mem=4GB
 %NoSave
 %chk="diene.chk"
 ------------------------------------------------
 #n wB97XD/Def2TZVP scrf(smd,solvent=toluene) opt
 ------------------------------------------------
 1/14=-1,18=20,19=15,26=3,38=1/1,3;
 2/9=110,12=2,17=6,18=5,40=1/2;
 3/5=44,7=101,11=2,16=1,25=1,30=1,70=32201,71=1,72=13,74=-58/1,2,3;
 4//1;
 5/5=2,38=5,53=13/2;
 6/7=2,8=2,9=2,10=2,28=1/1;
 7//1,2,3,16;
 1/14=-1,18=20,19=15,26=3/3(2);
 2/9=110/2;
 99//99;
 2/9=110/2;
 3/5=44,7=101,11=2,16=1,25=1,30=1,70=32205,71=1,72=13,74=-58/1,2,3;
 4/5=5,16=3,69=1/1;
 5/5=2,38=5,53=13/2;
 7//1,2,3,16;
 1/14=-1,18=20,19=15,26=3/3(-5);
 2/9=110/2;
 6/7=2,8=2,9=2,10=2,19=2,28=1/1;
 99/9=1/99;
 -------------------------------
 diene diels-alder toluene - opt
 -------------------------------
 Symbolic Z-matrix:
 Charge =  0 Multiplicity = 1
 C                    -2.60148   0.61788  -0.29358 
 H                    -2.94362   1.49326  -0.8409 
 C                    -1.14876   0.43525  -0.22562 
 H                    -0.54966   1.33953  -0.19478 
 C                    -3.50715  -0.16875   0.28221 
 H                    -3.16536  -1.01002   0.88098 
 C                    -4.98423   0.02085   0.19132 
 H                    -5.42635   0.14244   1.18429 
 H                    -5.24237   0.8951   -0.40837 
 H                    -5.46163  -0.85458  -0.25857 
 C                    -0.52906  -0.73978  -0.22076 
 H                    -1.09956  -1.66048  -0.30608 
 C                     0.94383  -0.95216  -0.11928 
 H                     1.29882  -1.49008  -1.00452 
 H                     1.16037  -1.575     0.75551 
 C                     2.9477    0.38222   0.08913 
 C                     3.74105  -0.89448   0.06146 
 H                     3.59302  -1.41966  -0.88399 
 H                     4.79389  -0.65317   0.17534 
 H                     3.4361   -1.56602   0.86558 
 O                     1.61026   0.29864  -0.00632 
 O                     3.44411   1.47042   0.1871 
 

 GradGradGradGradGradGradGradGradGradGradGradGradGradGradGradGradGradGrad
 Berny optimization.
 Initialization pass.
                           ----------------------------
                           !    Initial Parameters    !
                           ! (Angstroms and Degrees)  !
 --------------------------                            --------------------------
 ! Name  Definition              Value          Derivative Info.                !
 --------------------------------------------------------------------------------
 ! R1    R(1,2)                  1.0876         estimate D2E/DX2                !
 ! R2    R(1,3)                  1.4657         estimate D2E/DX2                !
 ! R3    R(1,5)                  1.3306         estimate D2E/DX2                !
 ! R4    R(3,4)                  1.0852         estimate D2E/DX2                !
 ! R5    R(3,11)                 1.3284         estimate D2E/DX2                !
 ! R6    R(5,6)                  1.0877         estimate D2E/DX2                !
 ! R7    R(5,7)                  1.492          estimate D2E/DX2                !
 ! R8    R(7,8)                  1.0937         estimate D2E/DX2                !
 ! R9    R(7,9)                  1.0911         estimate D2E/DX2                !
 ! R10   R(7,10)                 1.0939         estimate D2E/DX2                !
 ! R11   R(11,12)                1.0865         estimate D2E/DX2                !
 ! R12   R(11,13)                1.4916         estimate D2E/DX2                !
 ! R13   R(13,14)                1.095          estimate D2E/DX2                !
 ! R14   R(13,15)                1.0955         estimate D2E/DX2                !
 ! R15   R(13,21)                1.4218         estimate D2E/DX2                !
 ! R16   R(16,17)                1.5034         estimate D2E/DX2                !
 ! R17   R(16,21)                1.3434         estimate D2E/DX2                !
 ! R18   R(16,22)                1.2001         estimate D2E/DX2                !
 ! R19   R(17,18)                1.0916         estimate D2E/DX2                !
 ! R20   R(17,19)                1.0861         estimate D2E/DX2                !
 ! R21   R(17,20)                1.0911         estimate D2E/DX2                !
 ! A1    A(2,1,3)              115.811          estimate D2E/DX2                !
 ! A2    A(2,1,5)              118.65           estimate D2E/DX2                !
 ! A3    A(3,1,5)              125.5118         estimate D2E/DX2                !
 ! A4    A(1,3,4)              116.402          estimate D2E/DX2                !
 ! A5    A(1,3,11)             124.9406         estimate D2E/DX2                !
 ! A6    A(4,3,11)             118.6485         estimate D2E/DX2                !
 ! A7    A(1,5,6)              118.7881         estimate D2E/DX2                !
 ! A8    A(1,5,7)              124.9146         estimate D2E/DX2                !
 ! A9    A(6,5,7)              116.2905         estimate D2E/DX2                !
 ! A10   A(5,7,8)              111.0399         estimate D2E/DX2                !
 ! A11   A(5,7,9)              111.686          estimate D2E/DX2                !
 ! A12   A(5,7,10)             110.8185         estimate D2E/DX2                !
 ! A13   A(8,7,9)              108.3164         estimate D2E/DX2                !
 ! A14   A(8,7,10)             106.6143         estimate D2E/DX2                !
 ! A15   A(9,7,10)             108.1748         estimate D2E/DX2                !
 ! A16   A(3,11,12)            120.2863         estimate D2E/DX2                !
 ! A17   A(3,11,13)            125.9327         estimate D2E/DX2                !
 ! A18   A(12,11,13)           113.778          estimate D2E/DX2                !
 ! A19   A(11,13,14)           109.5771         estimate D2E/DX2                !
 ! A20   A(11,13,15)           109.2975         estimate D2E/DX2                !
 ! A21   A(11,13,21)           110.06           estimate D2E/DX2                !
 ! A22   A(14,13,15)           107.5891         estimate D2E/DX2                !
 ! A23   A(14,13,21)           110.1484         estimate D2E/DX2                !
 ! A24   A(15,13,21)           110.1263         estimate D2E/DX2                !
 ! A25   A(17,16,21)           118.1131         estimate D2E/DX2                !
 ! A26   A(17,16,22)           123.5914         estimate D2E/DX2                !
 ! A27   A(21,16,22)           118.295          estimate D2E/DX2                !
 ! A28   A(16,17,18)           110.6677         estimate D2E/DX2                !
 ! A29   A(16,17,19)           108.7194         estimate D2E/DX2                !
 ! A30   A(16,17,20)           111.1989         estimate D2E/DX2                !
 ! A31   A(18,17,19)           109.2174         estimate D2E/DX2                !
 ! A32   A(18,17,20)           107.7154         estimate D2E/DX2                !
 ! A33   A(19,17,20)           109.292          estimate D2E/DX2                !
 ! A34   A(13,21,16)           121.8043         estimate D2E/DX2                !
 ! D1    D(2,1,3,4)             32.9894         estimate D2E/DX2                !
 ! D2    D(2,1,3,11)          -145.9079         estimate D2E/DX2                !
 ! D3    D(5,1,3,4)           -145.0775         estimate D2E/DX2                !
 ! D4    D(5,1,3,11)            36.0252         estimate D2E/DX2                !
 ! D5    D(2,1,5,6)           -176.2947         estimate D2E/DX2                !
 ! D6    D(2,1,5,7)              2.7204         estimate D2E/DX2                !
 ! D7    D(3,1,5,6)              1.7223         estimate D2E/DX2                !
 ! D8    D(3,1,5,7)           -179.2626         estimate D2E/DX2                !
 ! D9    D(1,3,11,12)            2.2449         estimate D2E/DX2                !
 ! D10   D(1,3,11,13)         -178.4283         estimate D2E/DX2                !
 ! D11   D(4,3,11,12)         -176.6297         estimate D2E/DX2                !
 ! D12   D(4,3,11,13)            2.6971         estimate D2E/DX2                !
 ! D13   D(1,5,7,8)           -121.2281         estimate D2E/DX2                !
 ! D14   D(1,5,7,9)             -0.2088         estimate D2E/DX2                !
 ! D15   D(1,5,7,10)           120.4769         estimate D2E/DX2                !
 ! D16   D(6,5,7,8)             57.8092         estimate D2E/DX2                !
 ! D17   D(6,5,7,9)            178.8285         estimate D2E/DX2                !
 ! D18   D(6,5,7,10)           -60.4858         estimate D2E/DX2                !
 ! D19   D(3,11,13,14)        -120.4095         estimate D2E/DX2                !
 ! D20   D(3,11,13,15)         121.9225         estimate D2E/DX2                !
 ! D21   D(3,11,13,21)           0.8597         estimate D2E/DX2                !
 ! D22   D(12,11,13,14)         58.9553         estimate D2E/DX2                !
 ! D23   D(12,11,13,15)        -58.7127         estimate D2E/DX2                !
 ! D24   D(12,11,13,21)       -179.7756         estimate D2E/DX2                !
 ! D25   D(11,13,21,16)       -179.4774         estimate D2E/DX2                !
 ! D26   D(14,13,21,16)        -58.5503         estimate D2E/DX2                !
 ! D27   D(15,13,21,16)         59.9576         estimate D2E/DX2                !
 ! D28   D(21,16,17,18)         61.5786         estimate D2E/DX2                !
 ! D29   D(21,16,17,19)       -178.4698         estimate D2E/DX2                !
 ! D30   D(21,16,17,20)        -58.0998         estimate D2E/DX2                !
 ! D31   D(22,16,17,18)       -118.1563         estimate D2E/DX2                !
 ! D32   D(22,16,17,19)          1.7953         estimate D2E/DX2                !
 ! D33   D(22,16,17,20)        122.1653         estimate D2E/DX2                !
 ! D34   D(17,16,21,13)          0.5405         estimate D2E/DX2                !
 ! D35   D(22,16,21,13)       -179.7103         estimate D2E/DX2                !
 --------------------------------------------------------------------------------
 Trust Radius=3.00D-01 FncErr=1.00D-07 GrdErr=1.00D-06
 Number of steps in this run=    100 maximum allowed number of steps=    132.
 GradGradGradGradGradGradGradGradGradGradGradGradGradGradGradGradGradGrad

                          Input orientation:                          
 ---------------------------------------------------------------------
 Center     Atomic      Atomic             Coordinates (Angstroms)
 Number     Number       Type             X           Y           Z
 ---------------------------------------------------------------------
      1          6           0       -2.601480    0.617880   -0.293580
      2          1           0       -2.943620    1.493260   -0.840900
      3          6           0       -1.148760    0.435250   -0.225620
      4          1           0       -0.549660    1.339530   -0.194780
      5          6           0       -3.507150   -0.168750    0.282210
      6          1           0       -3.165360   -1.010020    0.880980
      7          6           0       -4.984230    0.020850    0.191320
      8          1           0       -5.426350    0.142440    1.184290
      9          1           0       -5.242370    0.895100   -0.408370
     10          1           0       -5.461630   -0.854580   -0.258570
     11          6           0       -0.529060   -0.739780   -0.220760
     12          1           0       -1.099560   -1.660480   -0.306080
     13          6           0        0.943830   -0.952160   -0.119280
     14          1           0        1.298820   -1.490080   -1.004520
     15          1           0        1.160370   -1.575000    0.755510
     16          6           0        2.947700    0.382220    0.089130
     17          6           0        3.741050   -0.894480    0.061460
     18          1           0        3.593020   -1.419660   -0.883990
     19          1           0        4.793890   -0.653170    0.175340
     20          1           0        3.436100   -1.566020    0.865580
     21          8           0        1.610260    0.298640   -0.006320
     22          8           0        3.444110    1.470420    0.187100
 ---------------------------------------------------------------------
                    Distance matrix (angstroms):
                    1          2          3          4          5
     1  C    0.000000
     2  H    1.087616   0.000000
     3  C    1.465731   2.172436   0.000000
     4  H    2.177270   2.484381   1.085170   0.000000
     5  C    1.330624   2.083559   2.486908   3.353979   0.000000
     6  H    2.085092   3.046383   2.716624   3.676892   1.087695
     7  C    2.503811   2.719845   3.880257   4.642564   1.491970
     8  H    3.223357   3.477076   4.513464   5.207395   2.143342
     9  H    2.657880   2.414359   4.123409   4.718545   2.149341
    10  H    3.217114   3.491681   4.501732   5.380115   2.140747
    11  C    2.478602   3.346811   1.328438   2.079574   3.073772
    12  H    2.728891   3.692244   2.097851   3.052022   2.892721
    13  C    3.881318   4.648987   2.512996   2.736431   4.537196
    14  H    4.490130   5.188968   3.210020   3.475522   5.147712
    15  H    4.478932   5.367074   3.214934   3.510233   4.897683
    16  C    5.567351   6.066879   4.108876   3.637111   6.481199
    17  C    6.530006   7.155443   5.075514   4.844239   7.287786
    18  H    6.547670   7.156439   5.134065   5.024932   7.303233
    19  H    7.518441   8.093761   6.054793   5.715013   8.315849
    20  H    6.524220   7.278193   5.120229   5.045083   7.106434
    21  O    4.233578   4.781366   2.771091   2.405041   5.146804
    22  O    6.124299   6.469961   4.726137   4.014120   7.142544
                    6          7          8          9         10
     6  H    0.000000
     7  C    2.201502   0.000000
     8  H    2.555824   1.093729   0.000000
     9  H    3.099335   1.091136   1.771133   0.000000
    10  H    2.568188   1.093933   1.754177   1.769716   0.000000
    11  C    2.870007   4.538382   5.170680   4.992326   4.934051
    12  H    2.469765   4.262035   4.918621   4.868709   4.436145
    13  C    4.229576   6.015407   6.593682   6.462586   6.407717
    14  H    4.869751   6.571884   7.258369   6.987964   6.831104
    15  H    4.364274   6.373473   6.820435   6.960682   6.737822
    16  C    6.319404   7.940815   8.448762   8.221180   8.506903
    17  C    6.955822   8.774121   9.293932   9.171978   9.208329
    18  H    6.997044   8.763594   9.384401   9.145952   9.093797
    19  H    7.998433   9.801336  10.300693  10.171744  10.266671
    20  H    6.624851   8.595042   9.031248   9.110209   8.996636
    21  O    5.030551   6.603297   7.138335   6.890279   7.169740
    22  O    7.093599   8.552087   9.024576   8.725853   9.215012
                   11         12         13         14         15
    11  C    0.000000
    12  H    1.086480   0.000000
    13  C    1.491579   2.170727   0.000000
    14  H    2.125647   2.503813   1.095000   0.000000
    15  H    2.122468   2.498312   1.095480   1.767508   0.000000
    16  C    3.666439   4.550728   2.416506   2.724038   2.733006
    17  C    4.282221   4.914605   2.803646   2.730483   2.757666
    18  H    4.230089   4.734161   2.796703   2.298443   2.937665
    19  H    5.338370   5.998266   3.872875   3.782592   3.793262
    20  H    4.193483   4.685501   2.749215   2.840952   2.278408
    21  O    2.387675   3.357251   1.421756   2.071936   2.072031
    22  O    4.564802   5.539919   3.494877   3.845359   3.848784
                   16         17         18         19         20
    16  C    0.000000
    17  C    1.503374   0.000000
    18  H    2.147131   1.091606   0.000000
    19  H    2.118462   1.086127   1.775324   0.000000
    20  H    2.153381   1.091132   1.762680   1.775759   0.000000
    21  O    1.343444   2.443030   2.766622   3.327829   2.751519
    22  O    1.200083   2.386778   3.085769   2.516283   3.111329
                   21         22
    21  O    0.000000
    22  O    2.184831   0.000000
 Stoichiometry    C8H12O2
 Framework group  C1[X(C8H12O2)]
 Deg. of freedom    60
 Full point group                 C1      NOp   1
 Largest Abelian subgroup         C1      NOp   1
 Largest concise Abelian subgroup C1      NOp   1
                         Standard orientation:                         
 ---------------------------------------------------------------------
 Center     Atomic      Atomic             Coordinates (Angstroms)
 Number     Number       Type             X           Y           Z
 ---------------------------------------------------------------------
      1          6           0       -2.601480    0.617880   -0.293580
      2          1           0       -2.943620    1.493260   -0.840900
      3          6           0       -1.148760    0.435250   -0.225620
      4          1           0       -0.549660    1.339530   -0.194780
      5          6           0       -3.507150   -0.168750    0.282210
      6          1           0       -3.165360   -1.010020    0.880980
      7          6           0       -4.984230    0.020850    0.191320
      8          1           0       -5.426350    0.142440    1.184290
      9          1           0       -5.242370    0.895100   -0.408370
     10          1           0       -5.461630   -0.854580   -0.258570
     11          6           0       -0.529060   -0.739780   -0.220760
     12          1           0       -1.099560   -1.660480   -0.306080
     13          6           0        0.943830   -0.952160   -0.119280
     14          1           0        1.298820   -1.490080   -1.004520
     15          1           0        1.160370   -1.575000    0.755510
     16          6           0        2.947700    0.382220    0.089130
     17          6           0        3.741050   -0.894480    0.061460
     18          1           0        3.593020   -1.419660   -0.883990
     19          1           0        4.793890   -0.653170    0.175340
     20          1           0        3.436100   -1.566020    0.865580
     21          8           0        1.610260    0.298640   -0.006320
     22          8           0        3.444110    1.470420    0.187100
 ---------------------------------------------------------------------
 Rotational constants (GHZ):      4.9799691      0.4109852      0.3859722
 Standard basis: def2TZVP (5D, 7F)
 There are   432 symmetry adapted cartesian basis functions of A   symmetry.
 There are   382 symmetry adapted basis functions of A   symmetry.
   382 basis functions,   606 primitive gaussians,   432 cartesian basis functions
    38 alpha electrons       38 beta electrons
       nuclear repulsion energy       487.3613615545 Hartrees.
 NAtoms=   22 NActive=   22 NUniq=   22 SFac= 1.00D+00 NAtFMM=   60 NAOKFM=F Big=F
 Integral buffers will be    131072 words long.
 Raffenetti 2 integral format.
 Two-electron integral symmetry is turned on.
 Nuclear repulsion after empirical dispersion term =      487.3507131615 Hartrees.
 ------------------------------------------------------------------------------
 Polarizable Continuum Model (PCM)
 =================================
 Model                : PCM (using non-symmetric T matrix).
 Atomic radii         : SMD-Coulomb.
 Polarization charges : Total charges.
 Charge compensation  : None.
 Solution method      : On-the-fly selection.
 Cavity type          : VdW (van der Waals Surface) (Alpha=1.000).
 Cavity algorithm     : GePol (No added spheres)
                        Default sphere list used, NSphG=   22.
                        Lebedev-Laikov grids with approx.  5.0 points / Ang**2.
                        Smoothing algorithm: Karplus/York (Gamma=1.0000).
                        Polarization charges: spherical gaussians, with
                                              point-specific exponents (IZeta= 3).
                        Self-potential: point-specific (ISelfS= 7).
                        Self-field    : sphere-specific E.n sum rule (ISelfD= 2).
 1st derivatives      : Analytical E(r).r(x)/FMM algorithm (CHGder, D1EAlg=3).
                        Cavity 1st derivative terms included.
 Solvent              : Toluene, Eps=   2.374100 Eps(inf)=   2.238315
 ------------------------------------------------------------------------------
 ------------------------------------------------------------------------------
 Atomic radii for non-electrostatic terms: SMD-CDS.
 ------------------------------------------------------------------------------
 Nuclear repulsion after PCM non-electrostatic terms =      487.3442875557 Hartrees.
 One-electron integrals computed using PRISM.
   1 Symmetry operations used in ECPInt.
 ECPInt:  NShTT=   12561 NPrTT=   37384 LenC2=   11266 LenP2D=   25535.
 LDataN:  DoStor=T MaxTD1= 6 Len=  172
 NBasis=   382 RedAO= T EigKep=  1.04D-04  NBF=   382
 NBsUse=   382 1.00D-06 EigRej= -1.00D+00 NBFU=   382
 ExpMin= 9.52D-02 ExpMax= 2.70D+04 ExpMxC= 9.22D+02 IAcc=2 IRadAn=         4 AccDes= 0.00D+00
 Harris functional with IExCor= 4639 and IRadAn=       4 diagonalized for initial guess.
 HarFok:  IExCor= 4639 AccDes= 0.00D+00 IRadAn=         4 IDoV= 1 UseB2=F ITyADJ=14
 ICtDFT=  3500011 ScaDFX=  1.000000  1.000000  1.000000  1.000000
 FoFCou: FMM=F IPFlag=           0 FMFlag=      100000 FMFlg1=           0
         NFxFlg=           0 DoJE=T BraDBF=F KetDBF=T FulRan=T
         wScrn=  0.000000 ICntrl=     500 IOpCl=  0 I1Cent=   200000004 NGrid=           0
         NMat0=    1 NMatS0=      1 NMatT0=    0 NMatD0=    1 NMtDS0=    0 NMtDT0=    0
 Petite list used in FoFCou.
 Requested convergence on RMS density matrix=1.00D-08 within 128 cycles.
 Requested convergence on MAX density matrix=1.00D-06.
 Requested convergence on             energy=1.00D-06.
 No special actions if energy rises.
 Inv3:  Mode=1 IEnd=     9980928.
 Iteration    1 A*A^-1 deviation from unit magnitude is 4.44D-15 for   1813.
 Iteration    1 A*A^-1 deviation from orthogonality  is 3.01D-15 for    968    813.
 Iteration    1 A^-1*A deviation from unit magnitude is 4.00D-15 for   1813.
 Iteration    1 A^-1*A deviation from orthogonality  is 4.80D-15 for    973    969.
 Error on total polarization charges =  0.02371
 SCF Done:  E(RwB97XD) =  -462.530037881     A.U. after   13 cycles
            NFock= 13  Conv=0.51D-08     -V/T= 2.0048
 SMD-CDS (non-electrostatic) energy       (kcal/mol) =      -4.03
 (included in total energy above)

 **********************************************************************

            Population analysis using the SCF density.

 **********************************************************************

 Orbital symmetries:
       Occupied  (A) (A) (A) (A) (A) (A) (A) (A) (A) (A) (A) (A)
                 (A) (A) (A) (A) (A) (A) (A) (A) (A) (A) (A) (A)
                 (A) (A) (A) (A) (A) (A) (A) (A) (A) (A) (A) (A)
                 (A) (A)
       Virtual   (A) (A) (A) (A) (A) (A) (A) (A) (A) (A) (A) (A)
                 (A) (A) (A) (A) (A) (A) (A) (A) (A) (A) (A) (A)
                 (A) (A) (A) (A) (A) (A) (A) (A) (A) (A) (A) (A)
                 (A) (A) (A) (A) (A) (A) (A) (A) (A) (A) (A) (A)
                 (A) (A) (A) (A) (A) (A) (A) (A) (A) (A) (A) (A)
                 (A) (A) (A) (A) (A) (A) (A) (A) (A) (A) (A) (A)
                 (A) (A) (A) (A) (A) (A) (A) (A) (A) (A) (A) (A)
                 (A) (A) (A) (A) (A) (A) (A) (A) (A) (A) (A) (A)
                 (A) (A) (A) (A) (A) (A) (A) (A) (A) (A) (A) (A)
                 (A) (A) (A) (A) (A) (A) (A) (A) (A) (A) (A) (A)
                 (A) (A) (A) (A) (A) (A) (A) (A) (A) (A) (A) (A)
                 (A) (A) (A) (A) (A) (A) (A) (A) (A) (A) (A) (A)
                 (A) (A) (A) (A) (A) (A) (A) (A) (A) (A) (A) (A)
                 (A) (A) (A) (A) (A) (A) (A) (A) (A) (A) (A) (A)
                 (A) (A) (A) (A) (A) (A) (A) (A) (A) (A) (A) (A)
                 (A) (A) (A) (A) (A) (A) (A) (A) (A) (A) (A) (A)
                 (A) (A) (A) (A) (A) (A) (A) (A) (A) (A) (A) (A)
                 (A) (A) (A) (A) (A) (A) (A) (A) (A) (A) (A) (A)
                 (A) (A) (A) (A) (A) (A) (A) (A) (A) (A) (A) (A)
                 (A) (A) (A) (A) (A) (A) (A) (A) (A) (A) (A) (A)
                 (A) (A) (A) (A) (A) (A) (A) (A) (A) (A) (A) (A)
                 (A) (A) (A) (A) (A) (A) (A) (A) (A) (A) (A) (A)
                 (A) (A) (A) (A) (A) (A) (A) (A) (A) (A) (A) (A)
                 (A) (A) (A) (A) (A) (A) (A) (A) (A) (A) (A) (A)
                 (A) (A) (A) (A) (A) (A) (A) (A) (A) (A) (A) (A)
                 (A) (A) (A) (A) (A) (A) (A) (A) (A) (A) (A) (A)
                 (A) (A) (A) (A) (A) (A) (A) (A) (A) (A) (A) (A)
                 (A) (A) (A) (A) (A) (A) (A) (A) (A) (A) (A) (A)
                 (A) (A) (A) (A) (A) (A) (A) (A)
 The electronic state is 1-A.
 Alpha  occ. eigenvalues --  -19.29404 -19.22625 -10.41488 -10.35116 -10.29288
 Alpha  occ. eigenvalues --  -10.28838 -10.28428 -10.28371 -10.27940 -10.27392
 Alpha  occ. eigenvalues --   -1.20912  -1.12235  -0.92037  -0.88162  -0.84948
 Alpha  occ. eigenvalues --   -0.82260  -0.75910  -0.69773  -0.66403  -0.61353
 Alpha  occ. eigenvalues --   -0.59370  -0.59154  -0.57616  -0.54847  -0.52448
 Alpha  occ. eigenvalues --   -0.52247  -0.49905  -0.49510  -0.49004  -0.47319
 Alpha  occ. eigenvalues --   -0.47176  -0.43829  -0.43371  -0.42349  -0.39119
 Alpha  occ. eigenvalues --   -0.37652  -0.35840  -0.30332
 Alpha virt. eigenvalues --    0.04659   0.08580   0.10725   0.12992   0.13395
 Alpha virt. eigenvalues --    0.14310   0.16054   0.16569   0.16686   0.17983
 Alpha virt. eigenvalues --    0.19137   0.19605   0.20246   0.21491   0.21777
 Alpha virt. eigenvalues --    0.23227   0.24540   0.24993   0.25595   0.26749
 Alpha virt. eigenvalues --    0.27676   0.28123   0.29302   0.30263   0.30714
 Alpha virt. eigenvalues --    0.31575   0.32422   0.33857   0.34731   0.35475
 Alpha virt. eigenvalues --    0.36879   0.38130   0.39315   0.40243   0.40937
 Alpha virt. eigenvalues --    0.43178   0.43822   0.44318   0.44650   0.45394
 Alpha virt. eigenvalues --    0.46571   0.47102   0.48075   0.48583   0.49223
 Alpha virt. eigenvalues --    0.49962   0.50769   0.51697   0.51801   0.52755
 Alpha virt. eigenvalues --    0.53495   0.53995   0.54763   0.55096   0.55580
 Alpha virt. eigenvalues --    0.56852   0.58296   0.58859   0.60557   0.62324
 Alpha virt. eigenvalues --    0.64021   0.64999   0.66390   0.67077   0.67861
 Alpha virt. eigenvalues --    0.68597   0.69101   0.70877   0.72869   0.73908
 Alpha virt. eigenvalues --    0.75297   0.77817   0.79903   0.81979   0.82374
 Alpha virt. eigenvalues --    0.83672   0.84028   0.84387   0.85445   0.86764
 Alpha virt. eigenvalues --    0.87333   0.90285   0.92054   0.93703   0.95332
 Alpha virt. eigenvalues --    0.96804   0.98263   1.01979   1.02910   1.04928
 Alpha virt. eigenvalues --    1.05454   1.07213   1.08686   1.09521   1.12452
 Alpha virt. eigenvalues --    1.13972   1.14739   1.16143   1.17918   1.19496
 Alpha virt. eigenvalues --    1.21875   1.22510   1.23873   1.25012   1.26436
 Alpha virt. eigenvalues --    1.28400   1.29459   1.32095   1.34249   1.35497
 Alpha virt. eigenvalues --    1.38295   1.42156   1.45625   1.46531   1.49292
 Alpha virt. eigenvalues --    1.51037   1.51754   1.54889   1.55982   1.58454
 Alpha virt. eigenvalues --    1.59733   1.60559   1.60727   1.61658   1.62019
 Alpha virt. eigenvalues --    1.62751   1.62877   1.63995   1.65042   1.65907
 Alpha virt. eigenvalues --    1.66848   1.67665   1.68484   1.71260   1.72179
 Alpha virt. eigenvalues --    1.74666   1.75816   1.76996   1.79427   1.80876
 Alpha virt. eigenvalues --    1.82747   1.84301   1.87738   1.90186   1.91540
 Alpha virt. eigenvalues --    1.93769   1.95717   1.96568   1.98496   2.00138
 Alpha virt. eigenvalues --    2.01306   2.02255   2.03580   2.05031   2.08869
 Alpha virt. eigenvalues --    2.09750   2.13474   2.15034   2.16692   2.19019
 Alpha virt. eigenvalues --    2.20028   2.23037   2.25653   2.26024   2.27094
 Alpha virt. eigenvalues --    2.29832   2.32256   2.33763   2.35167   2.37069
 Alpha virt. eigenvalues --    2.37575   2.40391   2.40902   2.41581   2.42887
 Alpha virt. eigenvalues --    2.44037   2.44855   2.46918   2.47888   2.48956
 Alpha virt. eigenvalues --    2.50188   2.52980   2.55232   2.57879   2.60682
 Alpha virt. eigenvalues --    2.61129   2.62291   2.62713   2.64605   2.66422
 Alpha virt. eigenvalues --    2.68052   2.68726   2.69149   2.70165   2.73444
 Alpha virt. eigenvalues --    2.75967   2.76680   2.79468   2.79873   2.80636
 Alpha virt. eigenvalues --    2.81768   2.83247   2.86529   2.89091   2.90970
 Alpha virt. eigenvalues --    2.92345   2.94094   2.94922   2.97237   2.97791
 Alpha virt. eigenvalues --    2.99233   3.00618   3.01126   3.02322   3.03401
 Alpha virt. eigenvalues --    3.05887   3.07207   3.09702   3.10448   3.11343
 Alpha virt. eigenvalues --    3.12811   3.14485   3.16243   3.17206   3.17580
 Alpha virt. eigenvalues --    3.18407   3.19109   3.19556   3.20829   3.22325
 Alpha virt. eigenvalues --    3.23865   3.25554   3.27176   3.27463   3.28343
 Alpha virt. eigenvalues --    3.29135   3.29961   3.32616   3.33080   3.35130
 Alpha virt. eigenvalues --    3.35523   3.36424   3.37291   3.38386   3.42055
 Alpha virt. eigenvalues --    3.42506   3.43016   3.45339   3.48405   3.50221
 Alpha virt. eigenvalues --    3.52036   3.53263   3.54503   3.55538   3.57593
 Alpha virt. eigenvalues --    3.61592   3.64149   3.65163   3.65590   3.68225
 Alpha virt. eigenvalues --    3.68836   3.70270   3.73305   3.76183   3.78341
 Alpha virt. eigenvalues --    3.79277   3.82772   3.83937   3.86824   3.88022
 Alpha virt. eigenvalues --    3.90750   3.93603   3.95977   3.96784   3.99255
 Alpha virt. eigenvalues --    4.03221   4.08263   4.09408   4.13574   4.15122
 Alpha virt. eigenvalues --    4.18410   4.22361   4.26902   4.31594   4.33585
 Alpha virt. eigenvalues --    4.42988   4.43901   4.44684   4.46036   4.47534
 Alpha virt. eigenvalues --    4.49251   4.53132   4.54979   4.57167   4.60041
 Alpha virt. eigenvalues --    4.64387   4.64700   4.72730   4.74646   4.77116
 Alpha virt. eigenvalues --    4.80425   4.82030   4.87657   4.91381   4.96685
 Alpha virt. eigenvalues --    5.06232   5.11978   5.19453   5.25824   5.27651
 Alpha virt. eigenvalues --    5.30821   5.33671   5.35505   5.52305   5.57064
 Alpha virt. eigenvalues --    5.72821   5.94182   5.99044   5.99535   6.15138
 Alpha virt. eigenvalues --    6.30178   6.36768   6.47037   6.54506   6.59567
 Alpha virt. eigenvalues --    6.73867   6.90474   6.90536   6.96278   6.97877
 Alpha virt. eigenvalues --    7.16094   7.17756   7.31539   7.50161  22.32998
 Alpha virt. eigenvalues --   22.42245  22.47187  22.47557  22.58634  22.94452
 Alpha virt. eigenvalues --   23.02308  23.44764  43.97292  44.38224
          Condensed to atoms (all electrons):
               1          2          3          4          5          6
     1  C    4.995734   0.402218   0.323026  -0.036705   0.635399  -0.045153
     2  H    0.402218   0.522013  -0.027256  -0.001461  -0.036746   0.004985
     3  C    0.323026  -0.027256   4.917019   0.408135  -0.060611  -0.002611
     4  H   -0.036705  -0.001461   0.408135   0.488551   0.004039   0.000142
     5  C    0.635399  -0.036746  -0.060611   0.004039   5.015762   0.405117
     6  H   -0.045153   0.004985  -0.002611   0.000142   0.405117   0.525361
     7  C   -0.034072  -0.004877   0.008426  -0.000255   0.287121  -0.027004
     8  H   -0.001701   0.000390  -0.000984   0.000012  -0.041361  -0.001659
     9  H    0.013092   0.003416   0.001994  -0.000026  -0.066297   0.004062
    10  H   -0.007264  -0.000182  -0.000051   0.000008  -0.024453  -0.001862
    11  C   -0.053624   0.004212   0.630151  -0.027409  -0.001006   0.004954
    12  H   -0.006360   0.000280  -0.033933   0.004519   0.004585   0.000761
    13  C    0.006843  -0.000298  -0.063175  -0.011645   0.001030   0.000237
    14  H   -0.000692   0.000003   0.004945   0.000856   0.000435   0.000041
    15  H    0.001316   0.000014  -0.003494   0.000243  -0.000477  -0.000038
    16  C   -0.000110   0.000000  -0.003857   0.001698   0.000005   0.000000
    17  C    0.000029   0.000000   0.001305   0.000920   0.000005   0.000001
    18  H    0.000003   0.000000  -0.000076  -0.000056  -0.000001   0.000000
    19  H    0.000000   0.000000  -0.000005  -0.000012   0.000000   0.000000
    20  H   -0.000001   0.000000  -0.000045  -0.000048   0.000001   0.000000
    21  O    0.001085   0.000016   0.023311   0.010619   0.000145   0.000019
    22  O   -0.000014   0.000000  -0.001202   0.001207   0.000000   0.000000
               7          8          9         10         11         12
     1  C   -0.034072  -0.001701   0.013092  -0.007264  -0.053624  -0.006360
     2  H   -0.004877   0.000390   0.003416  -0.000182   0.004212   0.000280
     3  C    0.008426  -0.000984   0.001994  -0.000051   0.630151  -0.033933
     4  H   -0.000255   0.000012  -0.000026   0.000008  -0.027409   0.004519
     5  C    0.287121  -0.041361  -0.066297  -0.024453  -0.001006   0.004585
     6  H   -0.027004  -0.001659   0.004062  -0.001862   0.004954   0.000761
     7  C    4.861959   0.415905   0.425757   0.402444   0.000424   0.000044
     8  H    0.415905   0.552694  -0.022171  -0.032508   0.000302   0.000030
     9  H    0.425757  -0.022171   0.536984  -0.020791   0.000059  -0.000002
    10  H    0.402444  -0.032508  -0.020791   0.557014  -0.000290  -0.000044
    11  C    0.000424   0.000302   0.000059  -0.000290   5.023763   0.406969
    12  H    0.000044   0.000030  -0.000002  -0.000044   0.406969   0.506787
    13  C   -0.000021   0.000002   0.000003  -0.000007   0.383196  -0.030246
    14  H    0.000000   0.000000   0.000000  -0.000001  -0.049863  -0.000860
    15  H   -0.000002  -0.000001   0.000000   0.000001  -0.013688  -0.001135
    16  C    0.000000   0.000000   0.000000   0.000000   0.011359   0.000033
    17  C    0.000000   0.000000   0.000000   0.000000  -0.001847   0.000191
    18  H    0.000000   0.000000   0.000000   0.000000  -0.000081  -0.000024
    19  H    0.000000   0.000000   0.000000   0.000000  -0.000052  -0.000002
    20  H    0.000000   0.000000   0.000000   0.000000   0.000663  -0.000033
    21  O    0.000001   0.000000   0.000000   0.000000  -0.091899   0.002707
    22  O    0.000000   0.000000   0.000000   0.000000   0.001251   0.000019
              13         14         15         16         17         18
     1  C    0.006843  -0.000692   0.001316  -0.000110   0.000029   0.000003
     2  H   -0.000298   0.000003   0.000014   0.000000   0.000000   0.000000
     3  C   -0.063175   0.004945  -0.003494  -0.003857   0.001305  -0.000076
     4  H   -0.011645   0.000856   0.000243   0.001698   0.000920  -0.000056
     5  C    0.001030   0.000435  -0.000477   0.000005   0.000005  -0.000001
     6  H    0.000237   0.000041  -0.000038   0.000000   0.000001   0.000000
     7  C   -0.000021   0.000000  -0.000002   0.000000   0.000000   0.000000
     8  H    0.000002   0.000000  -0.000001   0.000000   0.000000   0.000000
     9  H    0.000003   0.000000   0.000000   0.000000   0.000000   0.000000
    10  H   -0.000007  -0.000001   0.000001   0.000000   0.000000   0.000000
    11  C    0.383196  -0.049863  -0.013688   0.011359  -0.001847  -0.000081
    12  H   -0.030246  -0.000860  -0.001135   0.000033   0.000191  -0.000024
    13  C    4.696012   0.418170   0.392188  -0.038896  -0.011551  -0.002469
    14  H    0.418170   0.599052  -0.056448  -0.009544   0.009046  -0.002804
    15  H    0.392188  -0.056448   0.598927  -0.006578   0.001938  -0.000400
    16  C   -0.038896  -0.009544  -0.006578   4.437210   0.308200  -0.017390
    17  C   -0.011551   0.009046   0.001938   0.308200   5.150828   0.378560
    18  H   -0.002469  -0.002804  -0.000400  -0.017390   0.378560   0.520358
    19  H    0.001127   0.000029  -0.000118  -0.021558   0.387281  -0.010324
    20  H   -0.000198  -0.001492  -0.002171  -0.016657   0.373787  -0.023983
    21  O    0.257215  -0.037228  -0.036689   0.348130  -0.112803   0.004706
    22  O    0.000123   0.000294   0.000315   0.696492  -0.101833   0.002402
              19         20         21         22
     1  C    0.000000  -0.000001   0.001085  -0.000014
     2  H    0.000000   0.000000   0.000016   0.000000
     3  C   -0.000005  -0.000045   0.023311  -0.001202
     4  H   -0.000012  -0.000048   0.010619   0.001207
     5  C    0.000000   0.000001   0.000145   0.000000
     6  H    0.000000   0.000000   0.000019   0.000000
     7  C    0.000000   0.000000   0.000001   0.000000
     8  H    0.000000   0.000000   0.000000   0.000000
     9  H    0.000000   0.000000   0.000000   0.000000
    10  H    0.000000   0.000000   0.000000   0.000000
    11  C   -0.000052   0.000663  -0.091899   0.001251
    12  H   -0.000002  -0.000033   0.002707   0.000019
    13  C    0.001127  -0.000198   0.257215   0.000123
    14  H    0.000029  -0.001492  -0.037228   0.000294
    15  H   -0.000118  -0.002171  -0.036689   0.000315
    16  C   -0.021558  -0.016657   0.348130   0.696492
    17  C    0.387281   0.373787  -0.112803  -0.101833
    18  H   -0.010324  -0.023983   0.004706   0.002402
    19  H    0.481999  -0.011891   0.004813   0.007321
    20  H   -0.011891   0.528254   0.004488   0.002743
    21  O    0.004813   0.004488   7.962823  -0.108606
    22  O    0.007321   0.002743  -0.108606   7.859420
 Mulliken charges:
               1
     1  C   -0.193048
     2  H    0.133274
     3  C   -0.121010
     4  H    0.156667
     5  C   -0.122692
     6  H    0.132645
     7  C   -0.335852
     8  H    0.131050
     9  H    0.123919
    10  H    0.127985
    11  C   -0.227542
    12  H    0.145712
    13  C    0.002360
    14  H    0.126059
    15  H    0.126297
    16  C    0.311462
    17  C   -0.384058
    18  H    0.151581
    19  H    0.161392
    20  H    0.146583
    21  O   -0.232854
    22  O   -0.359930
 Sum of Mulliken charges =   0.00000
 Mulliken charges with hydrogens summed into heavy atoms:
               1
     1  C   -0.059774
     3  C    0.035657
     5  C    0.009952
     7  C    0.047102
    11  C   -0.081830
    13  C    0.254716
    16  C    0.311462
    17  C    0.075498
    21  O   -0.232854
    22  O   -0.359930
 Electronic spatial extent (au):  <R**2>=           2818.0905
 Charge=              0.0000 electrons
 Dipole moment (field-independent basis, Debye):
    X=             -1.5673    Y=             -4.9079    Z=             -0.2617  Tot=              5.1588
 Quadrupole moment (field-independent basis, Debye-Ang):
   XX=            -58.9015   YY=            -61.3022   ZZ=            -60.9304
   XY=            -13.5085   XZ=             -1.4568   YZ=             -1.8377
 Traceless Quadrupole moment (field-independent basis, Debye-Ang):
   XX=              1.4765   YY=             -0.9242   ZZ=             -0.5524
   XY=            -13.5085   XZ=             -1.4568   YZ=             -1.8377
 Octapole moment (field-independent basis, Debye-Ang**2):
  XXX=            -18.2476  YYY=             -6.8009  ZZZ=              2.3396  XYY=            -10.2186
  XXY=            -44.8668  XXZ=             -1.0949  XZZ=             12.3429  YZZ=             -0.6723
  YYZ=             -2.4603  XYZ=              1.9211
 Hexadecapole moment (field-independent basis, Debye-Ang**3):
 XXXX=          -3247.4773 YYYY=           -316.1635 ZZZZ=           -102.7297 XXXY=           -136.5121
 XXXZ=            -21.0520 YYYX=            -15.8559 YYYZ=             -4.2197 ZZZX=             -4.9010
 ZZZY=             -0.2912 XXYY=           -651.5676 XXZZ=           -568.4070 YYZZ=            -65.1067
 XXYZ=            -18.5300 YYXZ=              3.1712 ZZXY=             -1.0955
 N-N= 4.873442875557D+02 E-N=-2.053334652809D+03  KE= 4.603239860283D+02
   1 Symmetry operations used in ECPInt.
 ECPInt:  NShTT=   12561 NPrTT=   37384 LenC2=   11266 LenP2D=   25535.
 LDataN:  DoStor=T MaxTD1= 7 Len=  274
 D1PCM: PCM CHGder 1st derivatives, ID1Alg=3 FixD1E=F DoIter=F DoCFld=F I1PDM=0.
 Calling FoFJK, ICntrl=      2127 FMM=F ISym2X=0 I1Cent= 0 IOpClX= 0 NMat=1 NMatS=1 NMatT=0.
 ***** Axes restored to original set *****
 -------------------------------------------------------------------
 Center     Atomic                   Forces (Hartrees/Bohr)
 Number     Number              X              Y              Z
 -------------------------------------------------------------------
      1        6          -0.000012266   -0.000046839    0.000054740
      2        1          -0.000009839    0.000007625   -0.000001608
      3        6           0.000014034   -0.000073101   -0.000005542
      4        1           0.000039629   -0.000009797    0.000028390
      5        6           0.000042433    0.000052708   -0.000036857
      6        1          -0.000000211   -0.000019699   -0.000028149
      7        6           0.000006977   -0.000008960   -0.000010177
      8        1          -0.000010988   -0.000019798   -0.000008894
      9        1           0.000004596   -0.000001340   -0.000005890
     10        1          -0.000010511   -0.000010431   -0.000025889
     11        6           0.000032031    0.000066223   -0.000024919
     12        1          -0.000028090    0.000005202   -0.000011049
     13        6           0.000147741    0.000195109    0.000025477
     14        1          -0.000027918   -0.000043263   -0.000024502
     15        1          -0.000033587   -0.000056742    0.000007886
     16        6           0.000537435    0.000817146    0.000118706
     17        6          -0.000111822   -0.000116765   -0.000031242
     18        1           0.000042701   -0.000021742    0.000005420
     19        1          -0.000022599    0.000076404    0.000018082
     20        1           0.000028978   -0.000036297    0.000002654
     21        8          -0.000348758   -0.000141168   -0.000021118
     22        8          -0.000279967   -0.000614474   -0.000025519
 -------------------------------------------------------------------
 Cartesian Forces:  Max     0.000817146 RMS     0.000160735

 GradGradGradGradGradGradGradGradGradGradGradGradGradGradGradGradGradGrad
 Berny optimization.
 FormGI is forming the generalized inverse of G from B-inverse, IUseBI=4.
 Internal  Forces:  Max     0.000679449 RMS     0.000088382
 Search for a local minimum.
 Step number   1 out of a maximum of  100
 All quantities printed in internal units (Hartrees-Bohrs-Radians)
 Mixed Optimization -- En-DIIS/RFO-DIIS
 Second derivative matrix not updated -- first step.
 ITU=  0
     Eigenvalues ---    0.00721   0.00872   0.00877   0.01116   0.01219
     Eigenvalues ---    0.01404   0.01750   0.01801   0.02138   0.02147
     Eigenvalues ---    0.02440   0.03006   0.03035   0.06396   0.07169
     Eigenvalues ---    0.07271   0.07352   0.07465   0.07565   0.11464
     Eigenvalues ---    0.13985   0.15996   0.15999   0.15999   0.15999
     Eigenvalues ---    0.16000   0.16000   0.16000   0.16000   0.16000
     Eigenvalues ---    0.16000   0.22000   0.22000   0.22000   0.22001
     Eigenvalues ---    0.22051   0.25000   0.25000   0.25000   0.32026
     Eigenvalues ---    0.33235   0.33277   0.34187   0.34241   0.34362
     Eigenvalues ---    0.34385   0.34628   0.34682   0.34682   0.35080
     Eigenvalues ---    0.35090   0.35223   0.35264   0.35377   0.36256
     Eigenvalues ---    0.42197   0.56440   0.59359   0.59876   1.04781
 RFO step:  Lambda=-1.52932649D-06 EMin= 7.21318713D-03
 Linear search not attempted -- first point.
 Iteration  1 RMS(Cart)=  0.00180043 RMS(Int)=  0.00000081
 Iteration  2 RMS(Cart)=  0.00000139 RMS(Int)=  0.00000008
 Iteration  3 RMS(Cart)=  0.00000000 RMS(Int)=  0.00000008
 Variable       Old X    -DE/DX   Delta X   Delta X   Delta X     New X
                                 (Linear)    (Quad)   (Total)
    R1        2.05530   0.00001   0.00000   0.00003   0.00003   2.05533
    R2        2.76983  -0.00002   0.00000  -0.00005  -0.00005   2.76978
    R3        2.51451  -0.00007   0.00000  -0.00012  -0.00012   2.51440
    R4        2.05067   0.00001   0.00000   0.00004   0.00004   2.05071
    R5        2.51038  -0.00011   0.00000  -0.00018  -0.00018   2.51020
    R6        2.05545   0.00000   0.00000   0.00000   0.00000   2.05545
    R7        2.81941   0.00000   0.00000   0.00001   0.00001   2.81943
    R8        2.06685   0.00001   0.00000   0.00002   0.00002   2.06687
    R9        2.06195   0.00000   0.00000   0.00000   0.00000   2.06195
   R10        2.06723   0.00001   0.00000   0.00003   0.00003   2.06727
   R11        2.05315   0.00001   0.00000   0.00004   0.00004   2.05319
   R12        2.81868  -0.00007   0.00000  -0.00022  -0.00022   2.81846
   R13        2.06925   0.00003   0.00000   0.00009   0.00009   2.06934
   R14        2.07016   0.00004   0.00000   0.00010   0.00010   2.07026
   R15        2.68673  -0.00013   0.00000  -0.00032  -0.00032   2.68641
   R16        2.84096   0.00007   0.00000   0.00021   0.00021   2.84117
   R17        2.53874   0.00020   0.00000   0.00035   0.00035   2.53910
   R18        2.26783  -0.00068   0.00000  -0.00065  -0.00065   2.26718
   R19        2.06284   0.00001   0.00000   0.00003   0.00003   2.06286
   R20        2.05248  -0.00001   0.00000  -0.00002  -0.00002   2.05247
   R21        2.06194   0.00001   0.00000   0.00004   0.00004   2.06198
    A1        2.02128   0.00000   0.00000   0.00002   0.00002   2.02130
    A2        2.07083  -0.00001   0.00000  -0.00007  -0.00007   2.07077
    A3        2.19059   0.00001   0.00000   0.00005   0.00005   2.19065
    A4        2.03160   0.00002   0.00000   0.00017   0.00017   2.03176
    A5        2.18063   0.00004   0.00000   0.00020   0.00020   2.18083
    A6        2.07081  -0.00006   0.00000  -0.00036  -0.00036   2.07045
    A7        2.07324   0.00000   0.00000  -0.00002  -0.00002   2.07323
    A8        2.18017   0.00000   0.00000   0.00001   0.00001   2.18018
    A9        2.02965   0.00000   0.00000   0.00001   0.00001   2.02966
   A10        1.93801   0.00001   0.00000   0.00003   0.00003   1.93805
   A11        1.94929  -0.00001   0.00000  -0.00007  -0.00007   1.94922
   A12        1.93415   0.00001   0.00000   0.00008   0.00008   1.93423
   A13        1.89048   0.00000   0.00000   0.00000   0.00000   1.89047
   A14        1.86077  -0.00001   0.00000  -0.00003  -0.00003   1.86074
   A15        1.88801   0.00000   0.00000  -0.00001  -0.00001   1.88800
   A16        2.09939   0.00004   0.00000   0.00013   0.00013   2.09952
   A17        2.19794  -0.00013   0.00000  -0.00061  -0.00061   2.19733
   A18        1.98580   0.00010   0.00000   0.00048   0.00048   1.98628
   A19        1.91248   0.00001   0.00000  -0.00019  -0.00019   1.91229
   A20        1.90760   0.00002   0.00000  -0.00010  -0.00010   1.90751
   A21        1.92091  -0.00020   0.00000  -0.00094  -0.00094   1.91997
   A22        1.87778  -0.00002   0.00000   0.00000   0.00000   1.87778
   A23        1.92245   0.00010   0.00000   0.00063   0.00063   1.92308
   A24        1.92207   0.00010   0.00000   0.00062   0.00062   1.92269
   A25        2.06146  -0.00006   0.00000  -0.00024  -0.00024   2.06122
   A26        2.15708   0.00003   0.00000   0.00010   0.00010   2.15718
   A27        2.06464   0.00004   0.00000   0.00014   0.00014   2.06478
   A28        1.93152   0.00009   0.00000   0.00064   0.00064   1.93215
   A29        1.89751  -0.00014   0.00000  -0.00103  -0.00103   1.89648
   A30        1.94079   0.00007   0.00000   0.00051   0.00051   1.94130
   A31        1.90620   0.00001   0.00000  -0.00007  -0.00007   1.90613
   A32        1.87999  -0.00004   0.00000   0.00003   0.00003   1.88001
   A33        1.90751   0.00001   0.00000  -0.00007  -0.00007   1.90744
   A34        2.12589   0.00006   0.00000   0.00026   0.00026   2.12614
    D1        0.57577   0.00000   0.00000   0.00010   0.00010   0.57587
    D2       -2.54657   0.00000   0.00000  -0.00026  -0.00026  -2.54683
    D3       -2.53208   0.00000   0.00000  -0.00009  -0.00009  -2.53217
    D4        0.62876  -0.00001   0.00000  -0.00045  -0.00045   0.62831
    D5       -3.07692  -0.00001   0.00000  -0.00042  -0.00042  -3.07734
    D6        0.04748  -0.00001   0.00000  -0.00018  -0.00018   0.04730
    D7        0.03006  -0.00001   0.00000  -0.00022  -0.00022   0.02984
    D8       -3.12872   0.00000   0.00000   0.00001   0.00001  -3.12871
    D9        0.03918   0.00000   0.00000  -0.00012  -0.00012   0.03906
   D10       -3.11416   0.00000   0.00000   0.00024   0.00024  -3.11392
   D11       -3.08277  -0.00001   0.00000  -0.00049  -0.00049  -3.08326
   D12        0.04707   0.00000   0.00000  -0.00013  -0.00013   0.04695
   D13       -2.11583   0.00000   0.00000  -0.00007  -0.00007  -2.11590
   D14       -0.00364   0.00000   0.00000  -0.00010  -0.00010  -0.00374
   D15        2.10272   0.00000   0.00000  -0.00010  -0.00010   2.10262
   D16        1.00896   0.00000   0.00000   0.00016   0.00016   1.00913
   D17        3.12115   0.00000   0.00000   0.00013   0.00013   3.12128
   D18       -1.05568   0.00000   0.00000   0.00013   0.00013  -1.05555
   D19       -2.10154  -0.00001   0.00000  -0.00060  -0.00060  -2.10215
   D20        2.12795   0.00000   0.00000  -0.00044  -0.00044   2.12751
   D21        0.01500  -0.00001   0.00000  -0.00055  -0.00055   0.01445
   D22        1.02896   0.00000   0.00000  -0.00026  -0.00026   1.02870
   D23       -1.02473   0.00000   0.00000  -0.00009  -0.00009  -1.02482
   D24       -3.13768   0.00000   0.00000  -0.00021  -0.00021  -3.13788
   D25       -3.13247   0.00001   0.00000   0.00061   0.00061  -3.13187
   D26       -1.02190  -0.00005   0.00000   0.00016   0.00016  -1.02173
   D27        1.04646   0.00006   0.00000   0.00093   0.00093   1.04739
   D28        1.07475   0.00003   0.00000   0.00023   0.00023   1.07498
   D29       -3.11489   0.00000   0.00000  -0.00012  -0.00012  -3.11501
   D30       -1.01403  -0.00003   0.00000  -0.00056  -0.00056  -1.01459
   D31       -2.06222   0.00003   0.00000   0.00069   0.00069  -2.06153
   D32        0.03133   0.00001   0.00000   0.00034   0.00034   0.03167
   D33        2.13219  -0.00003   0.00000  -0.00010  -0.00010   2.13209
   D34        0.00943   0.00001   0.00000   0.00056   0.00056   0.01000
   D35       -3.13654   0.00001   0.00000   0.00013   0.00013  -3.13641
         Item               Value     Threshold  Converged?
 Maximum Force            0.000679     0.000450     NO 
 RMS     Force            0.000088     0.000300     YES
 Maximum Displacement     0.006603     0.001800     NO 
 RMS     Displacement     0.001801     0.001200     NO 
 Predicted change in Energy=-7.647419D-07
 GradGradGradGradGradGradGradGradGradGradGradGradGradGradGradGradGradGrad

                          Input orientation:                          
 ---------------------------------------------------------------------
 Center     Atomic      Atomic             Coordinates (Angstroms)
 Number     Number       Type             X           Y           Z
 ---------------------------------------------------------------------
      1          6           0       -2.600687    0.617507   -0.293236
      2          1           0       -2.942146    1.493342   -0.840286
      3          6           0       -1.148135    0.433768   -0.225209
      4          1           0       -0.548205    1.337505   -0.193899
      5          6           0       -3.507013   -0.168683    0.281977
      6          1           0       -3.165955   -1.010658    0.880172
      7          6           0       -4.983940    0.022108    0.190966
      8          1           0       -5.426160    0.143457    1.183931
      9          1           0       -5.241236    0.896941   -0.408237
     10          1           0       -5.462026   -0.852650   -0.259546
     11          6           0       -0.529139   -0.741526   -0.220406
     12          1           0       -1.100051   -1.661995   -0.305716
     13          6           0        0.943615   -0.953832   -0.118526
     14          1           0        1.298622   -1.492172   -1.003563
     15          1           0        1.159870   -1.576457    0.756556
     16          6           0        2.946290    0.382800    0.089126
     17          6           0        3.741035   -0.893146    0.060731
     18          1           0        3.593880   -1.418521   -0.884764
     19          1           0        4.793400   -0.649676    0.174319
     20          1           0        3.437797   -1.565463    0.864878
     21          8           0        1.608745    0.297508   -0.005984
     22          8           0        3.441359    1.471253    0.186866
 ---------------------------------------------------------------------
                    Distance matrix (angstroms):
                    1          2          3          4          5
     1  C    0.000000
     2  H    1.087633   0.000000
     3  C    1.465706   2.172439   0.000000
     4  H    2.177372   2.484564   1.085190   0.000000
     5  C    1.330561   2.083477   2.486863   3.354043   0.000000
     6  H    2.085027   3.046323   2.716585   3.676971   1.087695
     7  C    2.503767   2.719730   3.880214   4.642643   1.491977
     8  H    3.223359   3.477063   4.513475   5.207554   2.143380
     9  H    2.657782   2.414161   4.123288   4.718536   2.149297
    10  H    3.217104   3.491522   4.501744   5.380216   2.140825
    11  C    2.478625   3.346862   1.328343   2.079287   3.073804
    12  H    2.729139   3.692592   2.097860   3.051891   2.892894
    13  C    3.880942   4.648520   2.512416   2.735220   4.537065
    14  H    4.489980   5.188841   3.209626   3.474680   5.147657
    15  H    4.478541   5.366573   3.214304   3.508854   4.897637
    16  C    5.565091   6.063892   4.106789   3.633601   6.479695
    17  C    6.528768   7.153466   5.074096   4.841303   7.287524
    18  H    6.547364   7.155457   5.133488   5.022931   7.303839
    19  H    7.516441   8.090774   6.052712   5.711148   8.315035
    20  H    6.524560   7.277881   5.120155   5.043455   7.107824
    21  O    4.231339   4.778775   2.768938   2.401945   5.145021
    22  O    6.120923   6.465653   4.723308   4.009924   7.139910
                    6          7          8          9         10
     6  H    0.000000
     7  C    2.201517   0.000000
     8  H    2.555930   1.093739   0.000000
     9  H    3.099310   1.091137   1.771139   0.000000
    10  H    2.568241   1.093950   1.754178   1.769725   0.000000
    11  C    2.869931   4.538459   5.170703   4.992365   4.934293
    12  H    2.469521   4.262334   4.918732   4.869095   4.436665
    13  C    4.229563   6.015327   6.593518   6.462328   6.407992
    14  H    4.869576   6.571950   7.258313   6.987991   6.831465
    15  H    4.364421   6.373515   6.820304   6.960503   6.738387
    16  C    6.318783   7.939081   8.447118   8.218716   8.505744
    17  C    6.956422   8.773816   9.293740   9.170907   9.208721
    18  H    6.998337   8.764223   9.385116   9.145912   9.095083
    19  H    7.998743   9.800406  10.299893  10.169824  10.266606
    20  H    6.627035   8.596522   9.032826   9.110975   8.998849
    21  O    5.029348   6.601374   7.136493   6.887915   7.168191
    22  O    7.092049   8.549018   9.021645   8.721894   9.212495
                   11         12         13         14         15
    11  C    0.000000
    12  H    1.086500   0.000000
    13  C    1.491462   2.170969   0.000000
    14  H    2.125445   2.503889   1.095048   0.000000
    15  H    2.122338   2.498595   1.095535   1.767590   0.000000
    16  C    3.665860   4.550820   2.416694   2.724757   2.734126
    17  C    4.282104   4.915437   2.803814   2.730739   2.759257
    18  H    4.230719   4.735775   2.797670   2.299510   2.939946
    19  H    5.337947   5.998999   3.872869   3.782946   3.794795
    20  H    4.194437   4.687395   2.749931   2.841217   2.280528
    21  O    2.386654   3.356645   1.421589   2.072268   2.072366
    22  O    4.563674   5.539340   3.494714   3.845820   3.849451
                   16         17         18         19         20
    16  C    0.000000
    17  C    1.503485   0.000000
    18  H    2.147694   1.091620   0.000000
    19  H    2.117801   1.086118   1.775283   0.000000
    20  H    2.153857   1.091153   1.762725   1.775725   0.000000
    21  O    1.343632   2.443106   2.767267   3.327416   2.752180
    22  O    1.199740   2.386651   3.085846   2.515256   3.111488
                   21         22
    21  O    0.000000
    22  O    2.184798   0.000000
 Stoichiometry    C8H12O2
 Framework group  C1[X(C8H12O2)]
 Deg. of freedom    60
 Full point group                 C1      NOp   1
 Largest Abelian subgroup         C1      NOp   1
 Largest concise Abelian subgroup C1      NOp   1
                         Standard orientation:                         
 ---------------------------------------------------------------------
 Center     Atomic      Atomic             Coordinates (Angstroms)
 Number     Number       Type             X           Y           Z
 ---------------------------------------------------------------------
      1          6           0       -2.600305    0.617548   -0.293517
      2          1           0       -2.941764    1.493226   -0.840817
      3          6           0       -1.147752    0.433850   -0.225402
      4          1           0       -0.547836    1.337605   -0.194326
      5          6           0       -3.506633   -0.168498    0.281890
      6          1           0       -3.165578   -1.010303    0.880325
      7          6           0       -4.983561    0.022245    0.190789
      8          1           0       -5.425808    0.143861    1.183709
      9          1           0       -5.240855    0.896909   -0.408661
     10          1           0       -5.461621   -0.852644   -0.259494
     11          6           0       -0.528738   -0.741433   -0.220260
     12          1           0       -1.099633   -1.661935   -0.305331
     13          6           0        0.944018   -0.953688   -0.118285
     14          1           0        1.299055   -1.492267   -1.003165
     15          1           0        1.160260   -1.576069    0.756974
     16          6           0        2.946666    0.383032    0.089049
     17          6           0        3.741432   -0.892910    0.061026
     18          1           0        3.594309   -1.418547   -0.884328
     19          1           0        4.793791   -0.649392    0.174573
     20          1           0        3.438184   -1.565010    0.865350
     21          8           0        1.609125    0.297693   -0.006071
     22          8           0        3.441716    1.471519    0.186502
 ---------------------------------------------------------------------
 Rotational constants (GHZ):      4.9779591      0.4111904      0.3861297
 Standard basis: def2TZVP (5D, 7F)
 There are   432 symmetry adapted cartesian basis functions of A   symmetry.
 There are   382 symmetry adapted basis functions of A   symmetry.
   382 basis functions,   606 primitive gaussians,   432 cartesian basis functions
    38 alpha electrons       38 beta electrons
       nuclear repulsion energy       487.4099852918 Hartrees.
 NAtoms=   22 NActive=   22 NUniq=   22 SFac= 1.00D+00 NAtFMM=   60 NAOKFM=F Big=F
 Integral buffers will be    131072 words long.
 Raffenetti 2 integral format.
 Two-electron integral symmetry is turned on.
 Nuclear repulsion after empirical dispersion term =      487.3993360426 Hartrees.
 ------------------------------------------------------------------------------
 Polarizable Continuum Model (PCM)
 =================================
 Model                : PCM (using non-symmetric T matrix).
 Atomic radii         : SMD-Coulomb.
 Polarization charges : Total charges.
 Charge compensation  : None.
 Solution method      : On-the-fly selection.
 Cavity type          : VdW (van der Waals Surface) (Alpha=1.000).
 Cavity algorithm     : GePol (No added spheres)
                        Default sphere list used, NSphG=   22.
                        Lebedev-Laikov grids with approx.  5.0 points / Ang**2.
                        Smoothing algorithm: Karplus/York (Gamma=1.0000).
                        Polarization charges: spherical gaussians, with
                                              point-specific exponents (IZeta= 3).
                        Self-potential: point-specific (ISelfS= 7).
                        Self-field    : sphere-specific E.n sum rule (ISelfD= 2).
 1st derivatives      : Analytical E(r).r(x)/FMM algorithm (CHGder, D1EAlg=3).
                        Cavity 1st derivative terms included.
 Solvent              : Toluene, Eps=   2.374100 Eps(inf)=   2.238315
 ------------------------------------------------------------------------------
 ------------------------------------------------------------------------------
 Atomic radii for non-electrostatic terms: SMD-CDS.
 ------------------------------------------------------------------------------
 Nuclear repulsion after PCM non-electrostatic terms =      487.3929103450 Hartrees.
 One-electron integrals computed using PRISM.
   1 Symmetry operations used in ECPInt.
 ECPInt:  NShTT=   12561 NPrTT=   37384 LenC2=   11270 LenP2D=   25540.
 LDataN:  DoStor=T MaxTD1= 6 Len=  172
 NBasis=   382 RedAO= T EigKep=  1.04D-04  NBF=   382
 NBsUse=   382 1.00D-06 EigRej= -1.00D+00 NBFU=   382
 Initial guess from the checkpoint file:  ""diene.chk""
 B after Tr=     0.000000    0.000000    0.000000
         Rot=    1.000000    0.000212    0.000012   -0.000040 Ang=   0.02 deg.
 Requested convergence on RMS density matrix=1.00D-08 within 128 cycles.
 Requested convergence on MAX density matrix=1.00D-06.
 Requested convergence on             energy=1.00D-06.
 No special actions if energy rises.
 Inv3:  Mode=1 IEnd=     9980928.
 Iteration    1 A*A^-1 deviation from unit magnitude is 4.33D-15 for   1817.
 Iteration    1 A*A^-1 deviation from orthogonality  is 1.93D-15 for    579    204.
 Iteration    1 A^-1*A deviation from unit magnitude is 4.66D-15 for   1817.
 Iteration    1 A^-1*A deviation from orthogonality  is 3.13D-15 for    974    970.
 Error on total polarization charges =  0.02372
 SCF Done:  E(RwB97XD) =  -462.530038539     A.U. after    8 cycles
            NFock=  8  Conv=0.55D-08     -V/T= 2.0048
 SMD-CDS (non-electrostatic) energy       (kcal/mol) =      -4.03
 (included in total energy above)
   1 Symmetry operations used in ECPInt.
 ECPInt:  NShTT=   12561 NPrTT=   37384 LenC2=   11270 LenP2D=   25540.
 LDataN:  DoStor=T MaxTD1= 7 Len=  274
 D1PCM: PCM CHGder 1st derivatives, ID1Alg=3 FixD1E=F DoIter=F DoCFld=F I1PDM=0.
 Calling FoFJK, ICntrl=      2127 FMM=F ISym2X=0 I1Cent= 0 IOpClX= 0 NMat=1 NMatS=1 NMatT=0.
 ***** Axes restored to original set *****
 -------------------------------------------------------------------
 Center     Atomic                   Forces (Hartrees/Bohr)
 Number     Number              X              Y              Z
 -------------------------------------------------------------------
      1        6           0.000010329   -0.000001010    0.000000629
      2        1          -0.000000973    0.000008334    0.000009990
      3        6          -0.000035697    0.000030456    0.000016164
      4        1          -0.000013474   -0.000008463    0.000009288
      5        6          -0.000005902   -0.000004087   -0.000014780
      6        1          -0.000002694   -0.000015283   -0.000016974
      7        6          -0.000000621   -0.000010619   -0.000009873
      8        1          -0.000005838   -0.000019219   -0.000012776
      9        1          -0.000000779   -0.000001628   -0.000004453
     10        1           0.000001473   -0.000004594   -0.000023222
     11        6          -0.000049207   -0.000052863   -0.000014641
     12        1          -0.000010995    0.000014479   -0.000020336
     13        6           0.000080891    0.000134296   -0.000000431
     14        1           0.000021290    0.000001012    0.000001586
     15        1           0.000014836   -0.000007445    0.000002501
     16        6           0.000211485    0.000233593   -0.000007778
     17        6          -0.000029043   -0.000059803    0.000013456
     18        1           0.000000267    0.000025847    0.000007381
     19        1           0.000018317    0.000008018    0.000016982
     20        1           0.000000956    0.000002928   -0.000006487
     21        8          -0.000117616   -0.000106641    0.000019246
     22        8          -0.000087004   -0.000167306    0.000034529
 -------------------------------------------------------------------
 Cartesian Forces:  Max     0.000233593 RMS     0.000055661

 GradGradGradGradGradGradGradGradGradGradGradGradGradGradGradGradGradGrad
 Berny optimization.
 Using GEDIIS/GDIIS optimizer.
 FormGI is forming the generalized inverse of G from B-inverse, IUseBI=4.
 Internal  Forces:  Max     0.000189115 RMS     0.000035484
 Search for a local minimum.
 Step number   2 out of a maximum of  100
 All quantities printed in internal units (Hartrees-Bohrs-Radians)
 Mixed Optimization -- En-DIIS/RFO-DIIS
 Swapping is turned off.
 Update second derivatives using D2CorX and points    1    2
 DE= -6.57D-07 DEPred=-7.65D-07 R= 8.60D-01
 Trust test= 8.60D-01 RLast= 3.13D-03 DXMaxT set to 3.00D-01
 ITU=  0  0
     Eigenvalues ---    0.00721   0.00866   0.00872   0.01131   0.01212
     Eigenvalues ---    0.01366   0.01748   0.01803   0.02135   0.02153
     Eigenvalues ---    0.02413   0.03001   0.03029   0.06403   0.07144
     Eigenvalues ---    0.07169   0.07352   0.07468   0.07586   0.11715
     Eigenvalues ---    0.13965   0.15242   0.15996   0.15999   0.15999
     Eigenvalues ---    0.16000   0.16000   0.16000   0.16000   0.16000
     Eigenvalues ---    0.16133   0.21798   0.22000   0.22001   0.22003
     Eigenvalues ---    0.23503   0.24779   0.25000   0.28966   0.31752
     Eigenvalues ---    0.33234   0.34092   0.34223   0.34358   0.34384
     Eigenvalues ---    0.34603   0.34665   0.34682   0.35079   0.35084
     Eigenvalues ---    0.35165   0.35224   0.35342   0.36236   0.37878
     Eigenvalues ---    0.40904   0.53749   0.59397   0.60953   0.91751
 En-DIIS/RFO-DIIS IScMMF=        0 using points:     2    1
 RFO step:  Lambda=-1.84181887D-07.
 DidBck=F Rises=F RFO-DIIS coefs:    0.96908    0.03092
 Iteration  1 RMS(Cart)=  0.00117455 RMS(Int)=  0.00000025
 Iteration  2 RMS(Cart)=  0.00000093 RMS(Int)=  0.00000003
 Variable       Old X    -DE/DX   Delta X   Delta X   Delta X     New X
                                 (Linear)    (Quad)   (Total)
    R1        2.05533   0.00000   0.00000   0.00002   0.00002   2.05534
    R2        2.76978   0.00000   0.00000  -0.00002  -0.00002   2.76977
    R3        2.51440   0.00000   0.00000  -0.00003  -0.00002   2.51437
    R4        2.05071  -0.00002   0.00000  -0.00003  -0.00003   2.05068
    R5        2.51020   0.00004   0.00001   0.00001   0.00002   2.51022
    R6        2.05545   0.00000   0.00000   0.00000   0.00000   2.05545
    R7        2.81943   0.00000   0.00000   0.00001   0.00001   2.81944
    R8        2.06687   0.00000   0.00000   0.00001   0.00001   2.06687
    R9        2.06195   0.00000   0.00000   0.00000   0.00000   2.06195
   R10        2.06727   0.00000   0.00000   0.00001   0.00001   2.06728
   R11        2.05319   0.00000   0.00000   0.00000   0.00000   2.05319
   R12        2.81846   0.00011   0.00001   0.00025   0.00025   2.81871
   R13        2.06934   0.00000   0.00000   0.00004   0.00004   2.06938
   R14        2.07026   0.00001   0.00000   0.00006   0.00006   2.07032
   R15        2.68641  -0.00008   0.00001  -0.00028  -0.00027   2.68614
   R16        2.84117   0.00003  -0.00001   0.00015   0.00014   2.84132
   R17        2.53910   0.00011  -0.00001   0.00030   0.00029   2.53938
   R18        2.26718  -0.00019   0.00002  -0.00036  -0.00034   2.26684
   R19        2.06286  -0.00001   0.00000  -0.00002  -0.00002   2.06284
   R20        2.05247   0.00002   0.00000   0.00005   0.00005   2.05251
   R21        2.06198  -0.00001   0.00000  -0.00001  -0.00002   2.06196
    A1        2.02130   0.00000   0.00000   0.00000   0.00000   2.02131
    A2        2.07077   0.00000   0.00000  -0.00003  -0.00003   2.07074
    A3        2.19065   0.00000   0.00000   0.00003   0.00003   2.19067
    A4        2.03176   0.00000  -0.00001   0.00003   0.00002   2.03178
    A5        2.18083   0.00000  -0.00001   0.00004   0.00003   2.18086
    A6        2.07045   0.00001   0.00001  -0.00007  -0.00006   2.07039
    A7        2.07323   0.00000   0.00000  -0.00001  -0.00001   2.07322
    A8        2.18018   0.00001   0.00000   0.00003   0.00003   2.18020
    A9        2.02966   0.00000   0.00000  -0.00002  -0.00002   2.02965
   A10        1.93805   0.00000   0.00000   0.00002   0.00002   1.93806
   A11        1.94922   0.00000   0.00000  -0.00002  -0.00001   1.94920
   A12        1.93423   0.00000   0.00000   0.00002   0.00002   1.93424
   A13        1.89047   0.00000   0.00000   0.00000   0.00000   1.89047
   A14        1.86074   0.00000   0.00000  -0.00001  -0.00001   1.86072
   A15        1.88800   0.00000   0.00000   0.00000   0.00000   1.88799
   A16        2.09952  -0.00004   0.00000  -0.00018  -0.00019   2.09934
   A17        2.19733   0.00005   0.00002   0.00003   0.00005   2.19738
   A18        1.98628   0.00000  -0.00001   0.00015   0.00013   1.98642
   A19        1.91229  -0.00002   0.00001  -0.00010  -0.00009   1.91220
   A20        1.90751  -0.00002   0.00000  -0.00003  -0.00002   1.90748
   A21        1.91997   0.00013   0.00003   0.00035   0.00038   1.92034
   A22        1.87778   0.00000   0.00000  -0.00020  -0.00020   1.87758
   A23        1.92308  -0.00004  -0.00002   0.00000  -0.00002   1.92306
   A24        1.92269  -0.00005  -0.00002  -0.00004  -0.00006   1.92263
   A25        2.06122  -0.00007   0.00001  -0.00033  -0.00032   2.06089
   A26        2.15718   0.00004   0.00000   0.00019   0.00018   2.15736
   A27        2.06478   0.00003   0.00000   0.00015   0.00015   2.06492
   A28        1.93215  -0.00001  -0.00002   0.00009   0.00007   1.93222
   A29        1.89648   0.00000   0.00003  -0.00026  -0.00022   1.89626
   A30        1.94130   0.00000  -0.00002   0.00015   0.00013   1.94143
   A31        1.90613   0.00000   0.00000   0.00000   0.00001   1.90613
   A32        1.88001   0.00001   0.00000   0.00003   0.00003   1.88004
   A33        1.90744   0.00000   0.00000  -0.00001  -0.00001   1.90743
   A34        2.12614  -0.00008  -0.00001  -0.00023  -0.00024   2.12590
    D1        0.57587  -0.00001   0.00000  -0.00041  -0.00042   0.57546
    D2       -2.54683   0.00000   0.00001  -0.00030  -0.00030  -2.54713
    D3       -2.53217  -0.00001   0.00000  -0.00056  -0.00056  -2.53273
    D4        0.62831   0.00000   0.00001  -0.00045  -0.00044   0.62787
    D5       -3.07734   0.00000   0.00001  -0.00022  -0.00021  -3.07755
    D6        0.04730   0.00000   0.00001  -0.00009  -0.00008   0.04722
    D7        0.02984   0.00000   0.00001  -0.00007  -0.00006   0.02978
    D8       -3.12871   0.00000   0.00000   0.00007   0.00007  -3.12864
    D9        0.03906  -0.00001   0.00000  -0.00023  -0.00022   0.03883
   D10       -3.11392  -0.00001  -0.00001  -0.00020  -0.00021  -3.11413
   D11       -3.08326   0.00000   0.00002  -0.00012  -0.00010  -3.08337
   D12        0.04695   0.00000   0.00000  -0.00009  -0.00009   0.04686
   D13       -2.11590   0.00000   0.00000  -0.00010  -0.00010  -2.11599
   D14       -0.00374   0.00000   0.00000  -0.00010  -0.00010  -0.00384
   D15        2.10262   0.00000   0.00000  -0.00010  -0.00010   2.10252
   D16        1.00913   0.00000  -0.00001   0.00004   0.00003   1.00916
   D17        3.12128   0.00000   0.00000   0.00003   0.00003   3.12131
   D18       -1.05555   0.00000   0.00000   0.00003   0.00003  -1.05552
   D19       -2.10215  -0.00002   0.00002  -0.00068  -0.00066  -2.10281
   D20        2.12751   0.00001   0.00001  -0.00037  -0.00035   2.12716
   D21        0.01445   0.00000   0.00002  -0.00052  -0.00050   0.01395
   D22        1.02870  -0.00002   0.00001  -0.00065  -0.00065   1.02806
   D23       -1.02482   0.00001   0.00000  -0.00034  -0.00034  -1.02516
   D24       -3.13788   0.00000   0.00001  -0.00049  -0.00049  -3.13837
   D25       -3.13187   0.00001  -0.00002   0.00099   0.00097  -3.13090
   D26       -1.02173   0.00004  -0.00001   0.00109   0.00109  -1.02065
   D27        1.04739  -0.00002  -0.00003   0.00082   0.00079   1.04818
   D28        1.07498   0.00001  -0.00001   0.00071   0.00070   1.07568
   D29       -3.11501   0.00001   0.00000   0.00060   0.00060  -3.11440
   D30       -1.01459   0.00001   0.00002   0.00051   0.00053  -1.01406
   D31       -2.06153  -0.00001  -0.00002  -0.00035  -0.00037  -2.06190
   D32        0.03167  -0.00001  -0.00001  -0.00046  -0.00047   0.03120
   D33        2.13209   0.00000   0.00000  -0.00054  -0.00054   2.13154
   D34        0.01000   0.00001  -0.00002   0.00007   0.00005   0.01005
   D35       -3.13641   0.00002   0.00000   0.00107   0.00107  -3.13534
         Item               Value     Threshold  Converged?
 Maximum Force            0.000189     0.000450     YES
 RMS     Force            0.000035     0.000300     YES
 Maximum Displacement     0.003362     0.001800     NO 
 RMS     Displacement     0.001175     0.001200     YES
 Predicted change in Energy=-1.922671D-07
 GradGradGradGradGradGradGradGradGradGradGradGradGradGradGradGradGradGrad

                          Input orientation:                          
 ---------------------------------------------------------------------
 Center     Atomic      Atomic             Coordinates (Angstroms)
 Number     Number       Type             X           Y           Z
 ---------------------------------------------------------------------
      1          6           0       -2.600856    0.617690   -0.292902
      2          1           0       -2.942310    1.493552   -0.839929
      3          6           0       -1.148300    0.434224   -0.224421
      4          1           0       -0.548528    1.338048   -0.193169
      5          6           0       -3.507243   -0.168829    0.281737
      6          1           0       -3.166245   -1.010958    0.879754
      7          6           0       -4.984182    0.021643    0.190198
      8          1           0       -5.426851    0.142542    1.183022
      9          1           0       -5.241429    0.896630   -0.408804
     10          1           0       -5.461896   -0.853064   -0.260818
     11          6           0       -0.529050   -0.740943   -0.219277
     12          1           0       -1.099927   -1.661449   -0.304431
     13          6           0        0.943860   -0.953008   -0.117175
     14          1           0        1.298856   -1.492097   -1.001784
     15          1           0        1.160129   -1.575120    0.758309
     16          6           0        2.947041    0.382888    0.088475
     17          6           0        3.740868   -0.893708    0.059582
     18          1           0        3.593109   -1.418813   -0.885956
     19          1           0        4.793423   -0.650797    0.172853
     20          1           0        3.437567   -1.565996    0.863717
     21          8           0        1.609232    0.298117   -0.005498
     22          8           0        3.442653    1.470857    0.186668
 ---------------------------------------------------------------------
                    Distance matrix (angstroms):
                    1          2          3          4          5
     1  C    0.000000
     2  H    1.087641   0.000000
     3  C    1.465697   2.172440   0.000000
     4  H    2.177363   2.484486   1.085173   0.000000
     5  C    1.330549   2.083457   2.486862   3.354133   0.000000
     6  H    2.085014   3.046313   2.716589   3.677150   1.087697
     7  C    2.503778   2.719728   3.880222   4.642727   1.491981
     8  H    3.223409   3.477140   4.513532   5.207799   2.143399
     9  H    2.657794   2.414153   4.123290   4.718545   2.149291
    10  H    3.217095   3.491460   4.501727   5.380217   2.140843
    11  C    2.478646   3.346939   1.328351   2.079247   3.073754
    12  H    2.728992   3.692582   2.097758   3.051787   2.892522
[...]
     13          6           0        0.944018   -0.953090   -0.116816
     14          1           0        1.299115   -1.492694   -1.001067
     15          1           0        1.159931   -1.574857    0.759012
     16          6           0        2.947365    0.382959    0.088568
     17          6           0        3.741627   -0.893394    0.059039
     18          1           0        3.593946   -1.418098   -0.886712
     19          1           0        4.794152   -0.650270    0.172289
     20          1           0        3.438611   -1.566066    0.862936
     21          8           0        1.609443    0.297948   -0.005363
     22          8           0        3.442639    1.471067    0.186466
 ---------------------------------------------------------------------
 Rotational constants (GHZ):      4.9806606      0.4110814      0.3860290

 **********************************************************************

            Population analysis using the SCF density.

 **********************************************************************

 Orbital symmetries:
       Occupied  (A) (A) (A) (A) (A) (A) (A) (A) (A) (A) (A) (A)
                 (A) (A) (A) (A) (A) (A) (A) (A) (A) (A) (A) (A)
                 (A) (A) (A) (A) (A) (A) (A) (A) (A) (A) (A) (A)
                 (A) (A)
       Virtual   (A) (A) (A) (A) (A) (A) (A) (A) (A) (A) (A) (A)
                 (A) (A) (A) (A) (A) (A) (A) (A) (A) (A) (A) (A)
                 (A) (A) (A) (A) (A) (A) (A) (A) (A) (A) (A) (A)
                 (A) (A) (A) (A) (A) (A) (A) (A) (A) (A) (A) (A)
                 (A) (A) (A) (A) (A) (A) (A) (A) (A) (A) (A) (A)
                 (A) (A) (A) (A) (A) (A) (A) (A) (A) (A) (A) (A)
                 (A) (A) (A) (A) (A) (A) (A) (A) (A) (A) (A) (A)
                 (A) (A) (A) (A) (A) (A) (A) (A) (A) (A) (A) (A)
                 (A) (A) (A) (A) (A) (A) (A) (A) (A) (A) (A) (A)
                 (A) (A) (A) (A) (A) (A) (A) (A) (A) (A) (A) (A)
                 (A) (A) (A) (A) (A) (A) (A) (A) (A) (A) (A) (A)
                 (A) (A) (A) (A) (A) (A) (A) (A) (A) (A) (A) (A)
                 (A) (A) (A) (A) (A) (A) (A) (A) (A) (A) (A) (A)
                 (A) (A) (A) (A) (A) (A) (A) (A) (A) (A) (A) (A)
                 (A) (A) (A) (A) (A) (A) (A) (A) (A) (A) (A) (A)
                 (A) (A) (A) (A) (A) (A) (A) (A) (A) (A) (A) (A)
                 (A) (A) (A) (A) (A) (A) (A) (A) (A) (A) (A) (A)
                 (A) (A) (A) (A) (A) (A) (A) (A) (A) (A) (A) (A)
                 (A) (A) (A) (A) (A) (A) (A) (A) (A) (A) (A) (A)
                 (A) (A) (A) (A) (A) (A) (A) (A) (A) (A) (A) (A)
                 (A) (A) (A) (A) (A) (A) (A) (A) (A) (A) (A) (A)
                 (A) (A) (A) (A) (A) (A) (A) (A) (A) (A) (A) (A)
                 (A) (A) (A) (A) (A) (A) (A) (A) (A) (A) (A) (A)
                 (A) (A) (A) (A) (A) (A) (A) (A) (A) (A) (A) (A)
                 (A) (A) (A) (A) (A) (A) (A) (A) (A) (A) (A) (A)
                 (A) (A) (A) (A) (A) (A) (A) (A) (A) (A) (A) (A)
                 (A) (A) (A) (A) (A) (A) (A) (A) (A) (A) (A) (A)
                 (A) (A) (A) (A) (A) (A) (A) (A) (A) (A) (A) (A)
                 (A) (A) (A) (A) (A) (A) (A) (A)
 The electronic state is 1-A.
 Alpha  occ. eigenvalues --  -19.29395 -19.22640 -10.41490 -10.35110 -10.29289
 Alpha  occ. eigenvalues --  -10.28831 -10.28425 -10.28363 -10.27937 -10.27391
 Alpha  occ. eigenvalues --   -1.20912  -1.12267  -0.92034  -0.88159  -0.84944
 Alpha  occ. eigenvalues --   -0.82254  -0.75907  -0.69771  -0.66401  -0.61347
 Alpha  occ. eigenvalues --   -0.59375  -0.59148  -0.57617  -0.54846  -0.52452
 Alpha  occ. eigenvalues --   -0.52248  -0.49907  -0.49514  -0.48999  -0.47315
 Alpha  occ. eigenvalues --   -0.47180  -0.43826  -0.43366  -0.42347  -0.39124
 Alpha  occ. eigenvalues --   -0.37654  -0.35855  -0.30328
 Alpha virt. eigenvalues --    0.04661   0.08580   0.10727   0.13000   0.13398
 Alpha virt. eigenvalues --    0.14312   0.16059   0.16570   0.16691   0.17985
 Alpha virt. eigenvalues --    0.19141   0.19603   0.20249   0.21496   0.21779
 Alpha virt. eigenvalues --    0.23225   0.24535   0.24993   0.25600   0.26749
 Alpha virt. eigenvalues --    0.27678   0.28119   0.29302   0.30266   0.30722
 Alpha virt. eigenvalues --    0.31576   0.32424   0.33858   0.34724   0.35478
 Alpha virt. eigenvalues --    0.36878   0.38145   0.39314   0.40245   0.40940
 Alpha virt. eigenvalues --    0.43179   0.43815   0.44321   0.44650   0.45393
 Alpha virt. eigenvalues --    0.46562   0.47094   0.48075   0.48585   0.49218
 Alpha virt. eigenvalues --    0.49956   0.50767   0.51700   0.51797   0.52755
 Alpha virt. eigenvalues --    0.53490   0.53994   0.54762   0.55094   0.55575
 Alpha virt. eigenvalues --    0.56854   0.58302   0.58857   0.60566   0.62332
 Alpha virt. eigenvalues --    0.64008   0.65009   0.66397   0.67073   0.67889
 Alpha virt. eigenvalues --    0.68602   0.69112   0.70871   0.72889   0.73917
 Alpha virt. eigenvalues --    0.75311   0.77794   0.79905   0.81980   0.82373
 Alpha virt. eigenvalues --    0.83676   0.84036   0.84398   0.85442   0.86769
 Alpha virt. eigenvalues --    0.87328   0.90291   0.92042   0.93702   0.95354
 Alpha virt. eigenvalues --    0.96817   0.98277   1.01974   1.02914   1.04930
 Alpha virt. eigenvalues --    1.05458   1.07215   1.08679   1.09525   1.12444
 Alpha virt. eigenvalues --    1.13973   1.14740   1.16148   1.17931   1.19479
 Alpha virt. eigenvalues --    1.21872   1.22509   1.23862   1.25010   1.26458
 Alpha virt. eigenvalues --    1.28385   1.29451   1.32106   1.34253   1.35507
 Alpha virt. eigenvalues --    1.38301   1.42156   1.45620   1.46536   1.49289
 Alpha virt. eigenvalues --    1.51051   1.51770   1.54880   1.55981   1.58457
 Alpha virt. eigenvalues --    1.59728   1.60562   1.60735   1.61653   1.62019
 Alpha virt. eigenvalues --    1.62751   1.62877   1.63994   1.65037   1.65913
 Alpha virt. eigenvalues --    1.66866   1.67668   1.68487   1.71260   1.72171
 Alpha virt. eigenvalues --    1.74659   1.75821   1.77008   1.79437   1.80877
 Alpha virt. eigenvalues --    1.82749   1.84306   1.87733   1.90195   1.91544
 Alpha virt. eigenvalues --    1.93774   1.95736   1.96576   1.98500   2.00142
 Alpha virt. eigenvalues --    2.01304   2.02248   2.03585   2.05017   2.08881
 Alpha virt. eigenvalues --    2.09752   2.13491   2.15034   2.16693   2.19034
 Alpha virt. eigenvalues --    2.20040   2.23034   2.25643   2.26015   2.27097
 Alpha virt. eigenvalues --    2.29852   2.32278   2.33765   2.35117   2.37097
 Alpha virt. eigenvalues --    2.37598   2.40389   2.40909   2.41594   2.42881
 Alpha virt. eigenvalues --    2.44035   2.44850   2.46903   2.47913   2.48975
 Alpha virt. eigenvalues --    2.50204   2.52980   2.55237   2.57828   2.60680
 Alpha virt. eigenvalues --    2.61132   2.62305   2.62718   2.64608   2.66431
 Alpha virt. eigenvalues --    2.68057   2.68716   2.69154   2.70170   2.73440
 Alpha virt. eigenvalues --    2.75977   2.76679   2.79455   2.79884   2.80640
 Alpha virt. eigenvalues --    2.81765   2.83261   2.86519   2.89089   2.90964
 Alpha virt. eigenvalues --    2.92352   2.94092   2.94919   2.97244   2.97796
 Alpha virt. eigenvalues --    2.99261   3.00636   3.01127   3.02331   3.03399
 Alpha virt. eigenvalues --    3.05881   3.07201   3.09713   3.10442   3.11333
 Alpha virt. eigenvalues --    3.12825   3.14490   3.16210   3.17210   3.17573
 Alpha virt. eigenvalues --    3.18406   3.19118   3.19549   3.20855   3.22319
 Alpha virt. eigenvalues --    3.23866   3.25558   3.27191   3.27462   3.28349
 Alpha virt. eigenvalues --    3.29138   3.29955   3.32624   3.33093   3.35129
 Alpha virt. eigenvalues --    3.35527   3.36432   3.37294   3.38401   3.42056
 Alpha virt. eigenvalues --    3.42503   3.43031   3.45332   3.48412   3.50211
 Alpha virt. eigenvalues --    3.52047   3.53274   3.54488   3.55547   3.57623
 Alpha virt. eigenvalues --    3.61601   3.64170   3.65170   3.65591   3.68210
 Alpha virt. eigenvalues --    3.68858   3.70266   3.73276   3.76194   3.78344
 Alpha virt. eigenvalues --    3.79285   3.82779   3.83934   3.86830   3.88011
 Alpha virt. eigenvalues --    3.90757   3.93598   3.95973   3.96783   3.99266
 Alpha virt. eigenvalues --    4.03201   4.08264   4.09386   4.13575   4.15117
 Alpha virt. eigenvalues --    4.18389   4.22391   4.26914   4.31606   4.33591
 Alpha virt. eigenvalues --    4.42974   4.43869   4.44666   4.46044   4.47511
 Alpha virt. eigenvalues --    4.49275   4.53145   4.54975   4.57155   4.60041
 Alpha virt. eigenvalues --    4.64400   4.64715   4.72748   4.74645   4.77129
 Alpha virt. eigenvalues --    4.80420   4.82049   4.87685   4.91373   4.96704
 Alpha virt. eigenvalues --    5.06231   5.11997   5.19442   5.25835   5.27640
 Alpha virt. eigenvalues --    5.30820   5.33667   5.35534   5.52311   5.57106
 Alpha virt. eigenvalues --    5.72871   5.94217   5.99035   5.99562   6.15182
 Alpha virt. eigenvalues --    6.30262   6.36872   6.47034   6.54580   6.59576
 Alpha virt. eigenvalues --    6.73859   6.90459   6.90552   6.96316   6.97889
 Alpha virt. eigenvalues --    7.16133   7.17764   7.31555   7.50164  22.32994
 Alpha virt. eigenvalues --   22.42256  22.47186  22.47543  22.58686  22.94475
 Alpha virt. eigenvalues --   23.02362  23.44699  43.97317  44.38263
          Condensed to atoms (all electrons):
               1          2          3          4          5          6
     1  C    4.995927   0.402199   0.322947  -0.036722   0.635315  -0.045185
     2  H    0.402199   0.522056  -0.027237  -0.001467  -0.036758   0.004988
     3  C    0.322947  -0.027237   4.917278   0.408173  -0.060543  -0.002591
     4  H   -0.036722  -0.001467   0.408173   0.488616   0.004052   0.000143
     5  C    0.635315  -0.036758  -0.060543   0.004052   5.015817   0.405118
     6  H   -0.045185   0.004988  -0.002591   0.000143   0.405118   0.525446
     7  C   -0.034029  -0.004882   0.008423  -0.000255   0.287095  -0.027007
     8  H   -0.001704   0.000390  -0.000983   0.000012  -0.041352  -0.001660
     9  H    0.013100   0.003419   0.001997  -0.000026  -0.066321   0.004064
    10  H   -0.007269  -0.000182  -0.000052   0.000008  -0.024449  -0.001860
    11  C   -0.053526   0.004222   0.629928  -0.027472  -0.001132   0.004949
    12  H   -0.006346   0.000280  -0.033933   0.004524   0.004578   0.000769
    13  C    0.006848  -0.000298  -0.063145  -0.011673   0.001024   0.000235
    14  H   -0.000693   0.000003   0.005078   0.000859   0.000436   0.000041
    15  H    0.001319   0.000014  -0.003623   0.000243  -0.000478  -0.000038
    16  C   -0.000110   0.000000  -0.003864   0.001698   0.000005   0.000000
    17  C    0.000029   0.000000   0.001305   0.000924   0.000005   0.000001
    18  H    0.000003   0.000000  -0.000076  -0.000056  -0.000001   0.000000
    19  H    0.000000   0.000000  -0.000005  -0.000012   0.000000   0.000000
    20  H   -0.000001   0.000000  -0.000047  -0.000048   0.000001   0.000000
    21  O    0.001087   0.000016   0.023284   0.010643   0.000145   0.000019
    22  O   -0.000014   0.000000  -0.001206   0.001215   0.000000   0.000000
               7          8          9         10         11         12
     1  C   -0.034029  -0.001704   0.013100  -0.007269  -0.053526  -0.006346
     2  H   -0.004882   0.000390   0.003419  -0.000182   0.004222   0.000280
     3  C    0.008423  -0.000983   0.001997  -0.000052   0.629928  -0.033933
     4  H   -0.000255   0.000012  -0.000026   0.000008  -0.027472   0.004524
     5  C    0.287095  -0.041352  -0.066321  -0.024449  -0.001132   0.004578
     6  H   -0.027007  -0.001660   0.004064  -0.001860   0.004949   0.000769
     7  C    4.861967   0.415897   0.425761   0.402443   0.000425   0.000045
     8  H    0.415897   0.552718  -0.022175  -0.032517   0.000302   0.000030
     9  H    0.425761  -0.022175   0.536996  -0.020787   0.000059  -0.000002
    10  H    0.402443  -0.032517  -0.020787   0.557024  -0.000290  -0.000044
    11  C    0.000425   0.000302   0.000059  -0.000290   5.024337   0.406973
    12  H    0.000045   0.000030  -0.000002  -0.000044   0.406973   0.506832
    13  C   -0.000021   0.000002   0.000003  -0.000007   0.383002  -0.030263
    14  H    0.000000   0.000000   0.000000  -0.000001  -0.050224  -0.000887
    15  H   -0.000002  -0.000001   0.000000   0.000001  -0.013408  -0.001100
    16  C    0.000000   0.000000   0.000000   0.000000   0.011380   0.000032
    17  C    0.000000   0.000000   0.000000   0.000000  -0.001884   0.000191
    18  H    0.000000   0.000000   0.000000   0.000000  -0.000100  -0.000024
    19  H    0.000000   0.000000   0.000000   0.000000  -0.000052  -0.000002
    20  H    0.000000   0.000000   0.000000   0.000000   0.000690  -0.000032
    21  O    0.000001   0.000000   0.000000   0.000000  -0.092057   0.002709
    22  O    0.000000   0.000000   0.000000   0.000000   0.001249   0.000019
              13         14         15         16         17         18
     1  C    0.006848  -0.000693   0.001319  -0.000110   0.000029   0.000003
     2  H   -0.000298   0.000003   0.000014   0.000000   0.000000   0.000000
     3  C   -0.063145   0.005078  -0.003623  -0.003864   0.001305  -0.000076
     4  H   -0.011673   0.000859   0.000243   0.001698   0.000924  -0.000056
     5  C    0.001024   0.000436  -0.000478   0.000005   0.000005  -0.000001
     6  H    0.000235   0.000041  -0.000038   0.000000   0.000001   0.000000
     7  C   -0.000021   0.000000  -0.000002   0.000000   0.000000   0.000000
     8  H    0.000002   0.000000  -0.000001   0.000000   0.000000   0.000000
     9  H    0.000003   0.000000   0.000000   0.000000   0.000000   0.000000
    10  H   -0.000007  -0.000001   0.000001   0.000000   0.000000   0.000000
    11  C    0.383002  -0.050224  -0.013408   0.011380  -0.001884  -0.000100
    12  H   -0.030263  -0.000887  -0.001100   0.000032   0.000191  -0.000024
    13  C    4.696065   0.418261   0.392102  -0.038893  -0.011467  -0.002568
    14  H    0.418261   0.599356  -0.056468  -0.009666   0.009232  -0.002824
    15  H    0.392102  -0.056468   0.598819  -0.006460   0.001763  -0.000361
    16  C   -0.038893  -0.009666  -0.006460   4.437245   0.308279  -0.017432
    17  C   -0.011467   0.009232   0.001763   0.308279   5.150856   0.378815
    18  H   -0.002568  -0.002824  -0.000361  -0.017432   0.378815   0.519969
    19  H    0.001125   0.000031  -0.000120  -0.021634   0.387284  -0.010295
    20  H   -0.000105  -0.001532  -0.002146  -0.016518   0.373582  -0.023950
    21  O    0.257266  -0.037185  -0.036716   0.348046  -0.112811   0.004709
    22  O    0.000126   0.000292   0.000317   0.696667  -0.101737   0.002396
              19         20         21         22
     1  C    0.000000  -0.000001   0.001087  -0.000014
     2  H    0.000000   0.000000   0.000016   0.000000
     3  C   -0.000005  -0.000047   0.023284  -0.001206
     4  H   -0.000012  -0.000048   0.010643   0.001215
     5  C    0.000000   0.000001   0.000145   0.000000
     6  H    0.000000   0.000000   0.000019   0.000000
     7  C    0.000000   0.000000   0.000001   0.000000
     8  H    0.000000   0.000000   0.000000   0.000000
     9  H    0.000000   0.000000   0.000000   0.000000
    10  H    0.000000   0.000000   0.000000   0.000000
    11  C   -0.000052   0.000690  -0.092057   0.001249
    12  H   -0.000002  -0.000032   0.002709   0.000019
    13  C    0.001125  -0.000105   0.257266   0.000126
    14  H    0.000031  -0.001532  -0.037185   0.000292
    15  H   -0.000120  -0.002146  -0.036716   0.000317
    16  C   -0.021634  -0.016518   0.348046   0.696667
    17  C    0.387284   0.373582  -0.112811  -0.101737
    18  H   -0.010295  -0.023950   0.004709   0.002396
    19  H    0.482139  -0.011937   0.004820   0.007325
    20  H   -0.011937   0.528275   0.004461   0.002740
    21  O    0.004820   0.004461   7.963140  -0.108511
    22  O    0.007325   0.002740  -0.108511   7.858154
 Mulliken charges:
               1
     1  C   -0.193175
     2  H    0.133238
     3  C   -0.121110
     4  H    0.156619
     5  C   -0.122557
     6  H    0.132567
     7  C   -0.335861
     8  H    0.131040
     9  H    0.123912
    10  H    0.127982
    11  C   -0.227370
    12  H    0.145651
    13  C    0.002380
    14  H    0.125891
    15  H    0.126341
    16  C    0.311225
    17  C   -0.384367
    18  H    0.151794
    19  H    0.161333
    20  H    0.146568
    21  O   -0.233067
    22  O   -0.359033
 Sum of Mulliken charges =   0.00000
 Mulliken charges with hydrogens summed into heavy atoms:
               1
     1  C   -0.059937
     3  C    0.035509
     5  C    0.010010
     7  C    0.047073
    11  C   -0.081720
    13  C    0.254613
    16  C    0.311225
    17  C    0.075327
    21  O   -0.233067
    22  O   -0.359033
 Electronic spatial extent (au):  <R**2>=           2817.6302
 Charge=              0.0000 electrons
 Dipole moment (field-independent basis, Debye):
    X=             -1.5553    Y=             -4.9025    Z=             -0.2606  Tot=              5.1499
 Quadrupole moment (field-independent basis, Debye-Ang):
   XX=            -58.8564   YY=            -61.2975   ZZ=            -60.9342
   XY=            -13.4839   XZ=             -1.4548   YZ=             -1.8359
 Traceless Quadrupole moment (field-independent basis, Debye-Ang):
   XX=              1.5063   YY=             -0.9348   ZZ=             -0.5715
   XY=            -13.4839   XZ=             -1.4548   YZ=             -1.8359
 Octapole moment (field-independent basis, Debye-Ang**2):
  XXX=            -18.0233  YYY=             -6.8014  ZZZ=              2.3390  XYY=            -10.2016
  XXY=            -44.7734  XXZ=             -1.1084  XZZ=             12.3584  YZZ=             -0.6658
  YYZ=             -2.4535  XYZ=              1.9266
 Hexadecapole moment (field-independent basis, Debye-Ang**3):
 XXXX=          -3246.2515 YYYY=           -316.2359 ZZZZ=           -102.5810 XXXY=           -136.0317
 XXXZ=            -20.9994 YYYX=            -15.8522 YYYZ=             -4.2235 ZZZX=             -4.8365
 ZZZY=             -0.2956 XXYY=           -651.4152 XXZZ=           -568.3007 YYZZ=            -65.0942
 XXYZ=            -18.4497 YYXZ=              3.1918 ZZXY=             -1.0738
 N-N= 4.873712670454D+02 E-N=-2.053391089744D+03  KE= 4.603255405718D+02
 1\1\GINC-D10S4B1\FOpt\RwB97XD\def2TZVP\C8H12O2\PMMASS\23-Feb-2022\0\\#
 n wB97XD/Def2TZVP scrf(smd,solvent=toluene) opt\\diene diels-alder tol
 uene - opt\\0,1\C,-2.6009349164,0.6176244994,-0.2929564633\H,-2.942267
 9617,1.4936717867,-0.8397553273\C,-1.1483922877,0.4340619217,-0.224400
 8648\H,-0.5486108708,1.3378787472,-0.1931442895\C,-3.5074484838,-0.168
 886602,0.2815235899\H,-3.1665896931,-1.0111372794,0.8794517318\C,-4.98
 43538939,0.0218454453,0.1900594371\H,-5.4269534514,0.1426699526,1.1829
 21445\H,-5.2414798443,0.8969784598,-0.4087835981\H,-5.4622331829,-0.85
 27085991,-0.2610719211\C,-0.5291414067,-0.7411342724,-0.2191684608\H,-
 1.0999908605,-1.661644107,-0.304390895\C,0.9437644235,-0.9532161377,-0
 .1166644193\H,1.29885918,-1.4928214443,-1.0009159831\H,1.1596746262,-1
 .5749835901,0.7591632156\C,2.9471153798,0.382826296,0.0887194463\C,3.7
 413728608,-0.8935285375,0.0591899194\H,3.5936907032,-1.4182320249,-0.8
 865605243\H,4.7938991633,-0.6504083688,0.1724404127\H,3.4383549832,-1.
 5661995277,0.8630877961\O,1.6091926699,0.2978200456,-0.005211783\O,3.4
 423928631,1.4709333364,0.1866175359\\Version=ES64L-G09RevD.01\State=1-
 A\HF=-462.5300388\RMSD=9.318e-09\RMSF=1.969e-05\Dipole=-0.6119147,-1.9
 287725,-0.1025123\Quadrupole=1.1198237,-0.69496,-0.4248637,-10.0249348
 ,-1.0815819,-1.3649323\PG=C01 [X(C8H12O2)]\\@


 A HARD FALL SHOULD MEAN A HIGH BOUNCE 
 IF ONE IS MADE OF THE RIGHT MATERIAL.

                -- THE CHEMIST ANALYST, MARCH 1950
 Job cpu time:       0 days  1 hours 21 minutes  8.3 seconds.
 File lengths (MBytes):  RWF=    144 Int=      0 D2E=      0 Chk=     13 Scr=      1
 Normal termination of Gaussian 09 at Wed Feb 23 17:03:10 2022.
