 Entering Gaussian System, Link 0=g09
 Input=prod_diels.com
 Output=prod_diels.log
 Initial command:
 /apps/applications/gaussian/G09.D01/2/default/g09/l1.exe "/nobackup/pmmass/Temp/Gau-160981.inp" -scrdir="/nobackup/pmmass/Temp/"
 Entering Link 1 = /apps/applications/gaussian/G09.D01/2/default/g09/l1.exe PID=    160982.
  
 Copyright (c) 1988,1990,1992,1993,1995,1998,2003,2009,2013,
            Gaussian, Inc.  All Rights Reserved.
  
 This is part of the Gaussian(R) 09 program.  It is based on
 the Gaussian(R) 03 system (copyright 2003, Gaussian, Inc.),
 the Gaussian(R) 98 system (copyright 1998, Gaussian, Inc.),
 the Gaussian(R) 94 system (copyright 1995, Gaussian, Inc.),
 the Gaussian 92(TM) system (copyright 1992, Gaussian, Inc.),
 the Gaussian 90(TM) system (copyright 1990, Gaussian, Inc.),
 the Gaussian 88(TM) system (copyright 1988, Gaussian, Inc.),
 the Gaussian 86(TM) system (copyright 1986, Carnegie Mellon
 University), and the Gaussian 82(TM) system (copyright 1983,
 Carnegie Mellon University). Gaussian is a federally registered
 trademark of Gaussian, Inc.
  
 This software contains proprietary and confidential information,
 including trade secrets, belonging to Gaussian, Inc.
  
 This software is provided under written license and may be
 used, copied, transmitted, or stored only in accord with that
 written license.
  
 The following legend is applicable only to US Government
 contracts under FAR:
  
                    RESTRICTED RIGHTS LEGEND
  
 Use, reproduction and disclosure by the US Government is
 subject to restrictions as set forth in subparagraphs (a)
 and (c) of the Commercial Computer Software - Restricted
 Rights clause in FAR 52.227-19.
  
 Gaussian, Inc.
 340 Quinnipiac St., Bldg. 40, Wallingford CT 06492
  
  
 ---------------------------------------------------------------
 Warning -- This program may not be used in any manner that
 competes with the business of Gaussian, Inc. or will provide
 assistance to any competitor of Gaussian, Inc.  The licensee
 of this program is prohibited from giving any competitor of
 Gaussian, Inc. access to this program.  By using this program,
 the user acknowledges that Gaussian, Inc. is engaged in the
 business of creating and licensing software in the field of
 computational chemistry and represents and warrants to the
 licensee that it is not a competitor of Gaussian, Inc. and that
 it will not use this program in any manner prohibited above.
 ---------------------------------------------------------------
  

 Cite this work as:
 Gaussian 09, Revision D.01,
 M. J. Frisch, G. W. Trucks, H. B. Schlegel, G. E. Scuseria, 
 M. A. Robb, J. R. Cheeseman, G. Scalmani, V. Barone, B. Mennucci, 
 G. A. Petersson, H. Nakatsuji, M. Caricato, X. Li, H. P. Hratchian, 
 A. F. Izmaylov, J. Bloino, G. Zheng, J. L. Sonnenberg, M. Hada, 
 M. Ehara, K. Toyota, R. Fukuda, J. Hasegawa, M. Ishida, T. Nakajima, 
 Y. Honda, O. Kitao, H. Nakai, T. Vreven, J. A. Montgomery, Jr., 
 J. E. Peralta, F. Ogliaro, M. Bearpark, J. J. Heyd, E. Brothers, 
 K. N. Kudin, V. N. Staroverov, T. Keith, R. Kobayashi, J. Normand, 
 K. Raghavachari, A. Rendell, J. C. Burant, S. S. Iyengar, J. Tomasi, 
 M. Cossi, N. Rega, J. M. Millam, M. Klene, J. E. Knox, J. B. Cross, 
 V. Bakken, C. Adamo, J. Jaramillo, R. Gomperts, R. E. Stratmann, 
 O. Yazyev, A. J. Austin, R. Cammi, C. Pomelli, J. W. Ochterski, 
 R. L. Martin, K. Morokuma, V. G. Zakrzewski, G. A. Voth, 
 P. Salvador, J. J. Dannenberg, S. Dapprich, A. D. Daniels, 
 O. Farkas, J. B. Foresman, J. V. Ortiz, J. Cioslowski, 
 and D. J. Fox, Gaussian, Inc., Wallingford CT, 2013.
 
 ******************************************
 Gaussian 09:  ES64L-G09RevD.01 24-Apr-2013
                23-Feb-2022 
 ******************************************
 %nprocshared=8
 Will use up to    8 processors via shared memory.
 %mem=4GB
 %NoSave
 %chk="prod_diels.chk"
 ------------------------------------------------
 #n wB97XD/Def2TZVP scrf(smd,solvent=toluene) opt
 ------------------------------------------------
 1/14=-1,18=20,19=15,26=3,38=1/1,3;
 2/9=110,12=2,17=6,18=5,40=1/2;
 3/5=44,7=101,11=2,16=1,25=1,30=1,70=32201,71=1,72=13,74=-58/1,2,3;
 4//1;
 5/5=2,38=5,53=13/2;
 6/7=2,8=2,9=2,10=2,28=1/1;
 7//1,2,3,16;
 1/14=-1,18=20,19=15,26=3/3(2);
 2/9=110/2;
 99//99;
 2/9=110/2;
 3/5=44,7=101,11=2,16=1,25=1,30=1,70=32205,71=1,72=13,74=-58/1,2,3;
 4/5=5,16=3,69=1/1;
 5/5=2,38=5,53=13/2;
 7//1,2,3,16;
 1/14=-1,18=20,19=15,26=3/3(-5);
 2/9=110/2;
 6/7=2,8=2,9=2,10=2,19=2,28=1/1;
 99/9=1/99;
 ------------------------------------
 diels-alder product in toluene - opt
 ------------------------------------
 Symbolic Z-matrix:
 Charge =  0 Multiplicity = 1
 C                    -2.87539   0.20696  -0.20699 
 C                    -1.56196   0.81915  -0.66836 
 C                    -0.5854   -0.37252  -0.70804 
 C                    -1.3877   -1.54663  -0.16559 
 H                    -1.74584   1.19638  -1.67568 
 H                    -0.36525  -0.6369   -1.74584 
 C                    -3.74254  -2.00073   0.5141 
 H                    -3.31698  -2.98606   0.68747 
 H                    -4.1648   -1.61183   1.43999 
 H                    -4.53264  -2.06683  -0.2336 
 N                    -2.6859   -1.13285   0.04724 
 O                    -0.9836   -2.66266   0.03474 
 O                    -3.92968   0.77546  -0.07091 
 C                     0.7426   -0.2368    0.05334 
 H                     1.04525  -1.24259   0.35174 
 C                    -1.19208   2.01772   0.23487 
 H                    -2.12525   2.3856    0.667 
 C                    -0.27877   1.61674   1.35742 
 H                    -0.32325   2.21849   2.25915 
 C                     0.5916    0.61976   1.27853 
 H                     1.24878   0.41041   2.11418 
 C                    -0.60122   3.18277  -0.5648 
 H                    -1.32552   3.55395  -1.29285 
 H                    -0.33777   4.00836   0.09896 
 H                     0.30303   2.88937  -1.10006 
 C                     1.83051   0.28417  -0.88741 
 H                     1.98301  -0.41993  -1.70608 
 H                     1.56542   1.25856  -1.29365 
 C                     3.90703  -0.54325  -0.09615 
 C                     5.13443  -0.1615    0.67375 
 H                     4.86017   0.0623    1.70639 
 H                     5.85016  -0.97901   0.65791 
 H                     5.5825    0.73765   0.25025 
 O                     3.68578  -1.63008  -0.55992 
 O                     3.06671   0.49689  -0.20441 
 

 GradGradGradGradGradGradGradGradGradGradGradGradGradGradGradGradGradGrad
 Berny optimization.
 Initialization pass.
                           ----------------------------
                           !    Initial Parameters    !
                           ! (Angstroms and Degrees)  !
 --------------------------                            --------------------------
 ! Name  Definition              Value          Derivative Info.                !
 --------------------------------------------------------------------------------
 ! R1    R(1,2)                  1.5208         estimate D2E/DX2                !
 ! R2    R(1,11)                 1.3768         estimate D2E/DX2                !
 ! R3    R(1,13)                 1.2055         estimate D2E/DX2                !
 ! R4    R(2,3)                  1.5412         estimate D2E/DX2                !
 ! R5    R(2,5)                  1.0912         estimate D2E/DX2                !
 ! R6    R(2,16)                 1.5457         estimate D2E/DX2                !
 ! R7    R(3,4)                  1.522          estimate D2E/DX2                !
 ! R8    R(3,6)                  1.0933         estimate D2E/DX2                !
 ! R9    R(3,14)                 1.5368         estimate D2E/DX2                !
 ! R10   R(4,11)                 1.3791         estimate D2E/DX2                !
 ! R11   R(4,12)                 1.2037         estimate D2E/DX2                !
 ! R12   R(7,8)                  1.0872         estimate D2E/DX2                !
 ! R13   R(7,9)                  1.0894         estimate D2E/DX2                !
 ! R14   R(7,10)                 1.0898         estimate D2E/DX2                !
 ! R15   R(7,11)                 1.4449         estimate D2E/DX2                !
 ! R16   R(14,15)                1.0919         estimate D2E/DX2                !
 ! R17   R(14,20)                1.5025         estimate D2E/DX2                !
 ! R18   R(14,26)                1.5297         estimate D2E/DX2                !
 ! R19   R(16,17)                1.0922         estimate D2E/DX2                !
 ! R20   R(16,18)                1.5017         estimate D2E/DX2                !
 ! R21   R(16,22)                1.5316         estimate D2E/DX2                !
 ! R22   R(18,19)                1.085          estimate D2E/DX2                !
 ! R23   R(18,20)                1.3258         estimate D2E/DX2                !
 ! R24   R(20,21)                1.0835         estimate D2E/DX2                !
 ! R25   R(22,23)                1.092          estimate D2E/DX2                !
 ! R26   R(22,24)                1.0916         estimate D2E/DX2                !
 ! R27   R(22,25)                1.091          estimate D2E/DX2                !
 ! R28   R(26,27)                1.0905         estimate D2E/DX2                !
 ! R29   R(26,28)                1.0885         estimate D2E/DX2                !
 ! R30   R(26,35)                1.4283         estimate D2E/DX2                !
 ! R31   R(29,30)                1.4983         estimate D2E/DX2                !
 ! R32   R(29,34)                1.2022         estimate D2E/DX2                !
 ! R33   R(29,35)                1.3415         estimate D2E/DX2                !
 ! R34   R(30,31)                1.0916         estimate D2E/DX2                !
 ! R35   R(30,32)                1.0867         estimate D2E/DX2                !
 ! R36   R(30,33)                1.0902         estimate D2E/DX2                !
 ! A1    A(2,1,11)             109.2012         estimate D2E/DX2                !
 ! A2    A(2,1,13)             126.8509         estimate D2E/DX2                !
 ! A3    A(11,1,13)            123.9475         estimate D2E/DX2                !
 ! A4    A(1,2,3)              104.1109         estimate D2E/DX2                !
 ! A5    A(1,2,5)              105.883          estimate D2E/DX2                !
 ! A6    A(1,2,16)             109.9706         estimate D2E/DX2                !
 ! A7    A(3,2,5)              110.5052         estimate D2E/DX2                !
 ! A8    A(3,2,16)             117.5794         estimate D2E/DX2                !
 ! A9    A(5,2,16)             108.1604         estimate D2E/DX2                !
 ! A10   A(2,3,4)              104.672          estimate D2E/DX2                !
 ! A11   A(2,3,6)              109.8155         estimate D2E/DX2                !
 ! A12   A(2,3,14)             117.8079         estimate D2E/DX2                !
 ! A13   A(4,3,6)              104.9458         estimate D2E/DX2                !
 ! A14   A(4,3,14)             110.3083         estimate D2E/DX2                !
 ! A15   A(6,3,14)             108.5194         estimate D2E/DX2                !
 ! A16   A(3,4,11)             108.6489         estimate D2E/DX2                !
 ! A17   A(3,4,12)             126.6967         estimate D2E/DX2                !
 ! A18   A(11,4,12)            124.6472         estimate D2E/DX2                !
 ! A19   A(8,7,9)              109.8597         estimate D2E/DX2                !
 ! A20   A(8,7,10)             109.768          estimate D2E/DX2                !
 ! A21   A(8,7,11)             108.0381         estimate D2E/DX2                !
 ! A22   A(9,7,10)             108.8896         estimate D2E/DX2                !
 ! A23   A(9,7,11)             110.0991         estimate D2E/DX2                !
 ! A24   A(10,7,11)            110.1778         estimate D2E/DX2                !
 ! A25   A(1,11,4)             113.1437         estimate D2E/DX2                !
 ! A26   A(1,11,7)             122.9243         estimate D2E/DX2                !
 ! A27   A(4,11,7)             123.9217         estimate D2E/DX2                !
 ! A28   A(3,14,15)            107.0716         estimate D2E/DX2                !
 ! A29   A(3,14,20)            111.561          estimate D2E/DX2                !
 ! A30   A(3,14,26)            109.8745         estimate D2E/DX2                !
 ! A31   A(15,14,20)           109.2769         estimate D2E/DX2                !
 ! A32   A(15,14,26)           106.5381         estimate D2E/DX2                !
 ! A33   A(20,14,26)           112.2592         estimate D2E/DX2                !
 ! A34   A(2,16,17)            106.734          estimate D2E/DX2                !
 ! A35   A(2,16,18)            112.043          estimate D2E/DX2                !
 ! A36   A(2,16,22)            112.1511         estimate D2E/DX2                !
 ! A37   A(17,16,18)           108.2895         estimate D2E/DX2                !
 ! A38   A(17,16,22)           106.258          estimate D2E/DX2                !
 ! A39   A(18,16,22)           111.0249         estimate D2E/DX2                !
 ! A40   A(16,18,19)           116.631          estimate D2E/DX2                !
 ! A41   A(16,18,20)           123.7511         estimate D2E/DX2                !
 ! A42   A(19,18,20)           119.5662         estimate D2E/DX2                !
 ! A43   A(14,20,18)           122.9009         estimate D2E/DX2                !
 ! A44   A(14,20,21)           117.2439         estimate D2E/DX2                !
 ! A45   A(18,20,21)           119.8397         estimate D2E/DX2                !
 ! A46   A(16,22,23)           110.5347         estimate D2E/DX2                !
 ! A47   A(16,22,24)           110.544          estimate D2E/DX2                !
 ! A48   A(16,22,25)           111.7976         estimate D2E/DX2                !
 ! A49   A(23,22,24)           107.9633         estimate D2E/DX2                !
 ! A50   A(23,22,25)           108.3042         estimate D2E/DX2                !
 ! A51   A(24,22,25)           107.5591         estimate D2E/DX2                !
 ! A52   A(14,26,27)           109.9528         estimate D2E/DX2                !
 ! A53   A(14,26,28)           111.174          estimate D2E/DX2                !
 ! A54   A(14,26,35)           111.8508         estimate D2E/DX2                !
 ! A55   A(27,26,28)           109.382          estimate D2E/DX2                !
 ! A56   A(27,26,35)           109.519          estimate D2E/DX2                !
 ! A57   A(28,26,35)           104.8296         estimate D2E/DX2                !
 ! A58   A(30,29,34)           125.4031         estimate D2E/DX2                !
 ! A59   A(30,29,35)           110.9187         estimate D2E/DX2                !
 ! A60   A(34,29,35)           123.678          estimate D2E/DX2                !
 ! A61   A(29,30,31)           109.4204         estimate D2E/DX2                !
 ! A62   A(29,30,32)           109.9003         estimate D2E/DX2                !
 ! A63   A(29,30,33)           110.3162         estimate D2E/DX2                !
 ! A64   A(31,30,32)           109.4815         estimate D2E/DX2                !
 ! A65   A(31,30,33)           107.5558         estimate D2E/DX2                !
 ! A66   A(32,30,33)           110.1269         estimate D2E/DX2                !
 ! A67   A(26,35,29)           117.7274         estimate D2E/DX2                !
 ! D1    D(11,1,2,3)             2.4212         estimate D2E/DX2                !
 ! D2    D(11,1,2,5)           118.9762         estimate D2E/DX2                !
 ! D3    D(11,1,2,16)         -124.3969         estimate D2E/DX2                !
 ! D4    D(13,1,2,3)          -177.794          estimate D2E/DX2                !
 ! D5    D(13,1,2,5)           -61.239          estimate D2E/DX2                !
 ! D6    D(13,1,2,16)           55.388          estimate D2E/DX2                !
 ! D7    D(2,1,11,4)             0.6141         estimate D2E/DX2                !
 ! D8    D(2,1,11,7)           179.4903         estimate D2E/DX2                !
 ! D9    D(13,1,11,4)         -179.1784         estimate D2E/DX2                !
 ! D10   D(13,1,11,7)           -0.3022         estimate D2E/DX2                !
 ! D11   D(1,2,3,4)             -4.1967         estimate D2E/DX2                !
 ! D12   D(1,2,3,6)            107.9958         estimate D2E/DX2                !
 ! D13   D(1,2,3,14)          -127.1327         estimate D2E/DX2                !
 ! D14   D(5,2,3,4)           -117.481          estimate D2E/DX2                !
 ! D15   D(5,2,3,6)             -5.2885         estimate D2E/DX2                !
 ! D16   D(5,2,3,14)           119.583          estimate D2E/DX2                !
 ! D17   D(16,2,3,4)           117.7154         estimate D2E/DX2                !
 ! D18   D(16,2,3,6)          -130.0921         estimate D2E/DX2                !
 ! D19   D(16,2,3,14)           -5.2206         estimate D2E/DX2                !
 ! D20   D(1,2,16,17)          -24.2422         estimate D2E/DX2                !
 ! D21   D(1,2,16,18)           94.135          estimate D2E/DX2                !
 ! D22   D(1,2,16,22)         -140.221          estimate D2E/DX2                !
 ! D23   D(3,2,16,17)         -143.0885         estimate D2E/DX2                !
 ! D24   D(3,2,16,18)          -24.7112         estimate D2E/DX2                !
 ! D25   D(3,2,16,22)          100.9327         estimate D2E/DX2                !
 ! D26   D(5,2,16,17)           90.9494         estimate D2E/DX2                !
 ! D27   D(5,2,16,18)         -150.6733         estimate D2E/DX2                !
 ! D28   D(5,2,16,22)          -25.0294         estimate D2E/DX2                !
 ! D29   D(2,3,4,11)             4.7616         estimate D2E/DX2                !
 ! D30   D(2,3,4,12)          -176.1882         estimate D2E/DX2                !
 ! D31   D(6,3,4,11)          -110.8697         estimate D2E/DX2                !
 ! D32   D(6,3,4,12)            68.1805         estimate D2E/DX2                !
 ! D33   D(14,3,4,11)          132.43           estimate D2E/DX2                !
 ! D34   D(14,3,4,12)          -48.5198         estimate D2E/DX2                !
 ! D35   D(2,3,14,15)          151.6122         estimate D2E/DX2                !
 ! D36   D(2,3,14,20)           32.0953         estimate D2E/DX2                !
 ! D37   D(2,3,14,26)          -93.0696         estimate D2E/DX2                !
 ! D38   D(4,3,14,15)           31.5779         estimate D2E/DX2                !
 ! D39   D(4,3,14,20)          -87.939          estimate D2E/DX2                !
 ! D40   D(4,3,14,26)          146.8961         estimate D2E/DX2                !
 ! D41   D(6,3,14,15)          -82.8774         estimate D2E/DX2                !
 ! D42   D(6,3,14,20)          157.6057         estimate D2E/DX2                !
 ! D43   D(6,3,14,26)           32.4408         estimate D2E/DX2                !
 ! D44   D(3,4,11,1)            -3.4826         estimate D2E/DX2                !
 ! D45   D(3,4,11,7)           177.6542         estimate D2E/DX2                !
 ! D46   D(12,4,11,1)          177.4431         estimate D2E/DX2                !
 ! D47   D(12,4,11,7)           -1.4201         estimate D2E/DX2                !
 ! D48   D(8,7,11,1)          -176.8656         estimate D2E/DX2                !
 ! D49   D(8,7,11,4)             1.8891         estimate D2E/DX2                !
 ! D50   D(9,7,11,1)           -56.8911         estimate D2E/DX2                !
 ! D51   D(9,7,11,4)           121.8636         estimate D2E/DX2                !
 ! D52   D(10,7,11,1)           63.2252         estimate D2E/DX2                !
 ! D53   D(10,7,11,4)         -118.0202         estimate D2E/DX2                !
 ! D54   D(3,14,20,18)         -30.7575         estimate D2E/DX2                !
 ! D55   D(3,14,20,21)         150.6788         estimate D2E/DX2                !
 ! D56   D(15,14,20,18)       -148.9606         estimate D2E/DX2                !
 ! D57   D(15,14,20,21)         32.4756         estimate D2E/DX2                !
 ! D58   D(26,14,20,18)         93.0705         estimate D2E/DX2                !
 ! D59   D(26,14,20,21)        -85.4932         estimate D2E/DX2                !
 ! D60   D(3,14,26,27)         -61.329          estimate D2E/DX2                !
 ! D61   D(3,14,26,28)          59.9525         estimate D2E/DX2                !
 ! D62   D(3,14,26,35)         176.7636         estimate D2E/DX2                !
 ! D63   D(15,14,26,27)         54.3272         estimate D2E/DX2                !
 ! D64   D(15,14,26,28)        175.6086         estimate D2E/DX2                !
 ! D65   D(15,14,26,35)        -67.5803         estimate D2E/DX2                !
 ! D66   D(20,14,26,27)        173.9077         estimate D2E/DX2                !
 ! D67   D(20,14,26,28)        -64.8108         estimate D2E/DX2                !
 ! D68   D(20,14,26,35)         52.0003         estimate D2E/DX2                !
 ! D69   D(2,16,18,19)        -152.9105         estimate D2E/DX2                !
 ! D70   D(2,16,18,20)          29.7217         estimate D2E/DX2                !
 ! D71   D(17,16,18,19)        -35.4597         estimate D2E/DX2                !
 ! D72   D(17,16,18,20)        147.1725         estimate D2E/DX2                !
 ! D73   D(22,16,18,19)         80.8311         estimate D2E/DX2                !
 ! D74   D(22,16,18,20)        -96.5367         estimate D2E/DX2                !
 ! D75   D(2,16,22,23)          61.2636         estimate D2E/DX2                !
 ! D76   D(2,16,22,24)        -179.2594         estimate D2E/DX2                !
 ! D77   D(2,16,22,25)         -59.4667         estimate D2E/DX2                !
 ! D78   D(17,16,22,23)        -55.0027         estimate D2E/DX2                !
 ! D79   D(17,16,22,24)         64.4744         estimate D2E/DX2                !
 ! D80   D(17,16,22,25)       -175.7329         estimate D2E/DX2                !
 ! D81   D(18,16,22,23)       -172.538          estimate D2E/DX2                !
 ! D82   D(18,16,22,24)        -53.0609         estimate D2E/DX2                !
 ! D83   D(18,16,22,25)         66.7318         estimate D2E/DX2                !
 ! D84   D(16,18,20,14)         -1.0105         estimate D2E/DX2                !
 ! D85   D(16,18,20,21)        177.5174         estimate D2E/DX2                !
 ! D86   D(19,18,20,14)       -178.3052         estimate D2E/DX2                !
 ! D87   D(19,18,20,21)          0.2227         estimate D2E/DX2                !
 ! D88   D(14,26,35,29)         87.1135         estimate D2E/DX2                !
 ! D89   D(27,26,35,29)        -35.0427         estimate D2E/DX2                !
 ! D90   D(28,26,35,29)       -152.3065         estimate D2E/DX2                !
 ! D91   D(34,29,30,31)       -113.8975         estimate D2E/DX2                !
 ! D92   D(34,29,30,32)          6.3479         estimate D2E/DX2                !
 ! D93   D(34,29,30,33)        127.9658         estimate D2E/DX2                !
 ! D94   D(35,29,30,31)         65.972          estimate D2E/DX2                !
 ! D95   D(35,29,30,32)       -173.7826         estimate D2E/DX2                !
 ! D96   D(35,29,30,33)        -52.1646         estimate D2E/DX2                !
 ! D97   D(30,29,35,26)       -178.5677         estimate D2E/DX2                !
 ! D98   D(34,29,35,26)          1.3045         estimate D2E/DX2                !
 --------------------------------------------------------------------------------
 Trust Radius=3.00D-01 FncErr=1.00D-07 GrdErr=1.00D-06
 Number of steps in this run=    210 maximum allowed number of steps=    210.
 GradGradGradGradGradGradGradGradGradGradGradGradGradGradGradGradGradGrad

                          Input orientation:                          
 ---------------------------------------------------------------------
 Center     Atomic      Atomic             Coordinates (Angstroms)
 Number     Number       Type             X           Y           Z
 ---------------------------------------------------------------------
      1          6           0       -2.875390    0.206960   -0.206990
      2          6           0       -1.561960    0.819150   -0.668360
      3          6           0       -0.585400   -0.372520   -0.708040
      4          6           0       -1.387700   -1.546630   -0.165590
      5          1           0       -1.745840    1.196380   -1.675680
      6          1           0       -0.365250   -0.636900   -1.745840
      7          6           0       -3.742540   -2.000730    0.514100
      8          1           0       -3.316980   -2.986060    0.687470
      9          1           0       -4.164800   -1.611830    1.439990
     10          1           0       -4.532640   -2.066830   -0.233600
     11          7           0       -2.685900   -1.132850    0.047240
     12          8           0       -0.983600   -2.662660    0.034740
     13          8           0       -3.929680    0.775460   -0.070910
     14          6           0        0.742600   -0.236800    0.053340
     15          1           0        1.045250   -1.242590    0.351740
     16          6           0       -1.192080    2.017720    0.234870
     17          1           0       -2.125250    2.385600    0.667000
     18          6           0       -0.278770    1.616740    1.357420
     19          1           0       -0.323250    2.218490    2.259150
     20          6           0        0.591600    0.619760    1.278530
     21          1           0        1.248780    0.410410    2.114180
     22          6           0       -0.601220    3.182770   -0.564800
     23          1           0       -1.325520    3.553950   -1.292850
     24          1           0       -0.337770    4.008360    0.098960
     25          1           0        0.303030    2.889370   -1.100060
     26          6           0        1.830510    0.284170   -0.887410
     27          1           0        1.983010   -0.419930   -1.706080
     28          1           0        1.565420    1.258560   -1.293650
     29          6           0        3.907030   -0.543250   -0.096150
     30          6           0        5.134430   -0.161500    0.673750
     31          1           0        4.860170    0.062300    1.706390
     32          1           0        5.850160   -0.979010    0.657910
     33          1           0        5.582500    0.737650    0.250250
     34          8           0        3.685780   -1.630080   -0.559920
     35          8           0        3.066710    0.496890   -0.204410
 ---------------------------------------------------------------------
                    Distance matrix (angstroms):
                    1          2          3          4          5
     1  C    0.000000
     2  C    1.520769   0.000000
     3  C    2.414726   1.541208   0.000000
     4  C    2.300003   2.424883   1.521996   0.000000
     5  H    2.100449   1.091241   2.178163   3.151625   0.000000
     6  H    3.062836   2.170981   1.093340   2.090503   2.296055
     7  C    2.479075   3.755644   3.756624   2.492681   4.359296
     8  H    3.345211   4.404315   4.029835   2.553780   5.054282
     9  H    2.771844   4.138790   4.354541   3.208492   4.841984
    10  H    2.813771   4.164473   4.321630   3.188398   4.527073
    11  N    1.376819   2.363393   2.358103   1.379070   3.045895
    12  O    3.445580   3.598868   2.440292   1.203724   4.289375
    13  O    1.205503   2.442325   3.592771   3.444231   2.742557
    14  C    3.654387   2.635693   1.536783   2.510331   3.351992
    15  H    4.217202   3.476912   2.130534   2.505856   4.224830
    16  C    2.511498   1.545706   2.640149   3.592106   2.152081
    17  H    2.464354   2.134068   3.445156   4.086517   2.654495
    18  C    3.343246   2.527155   2.883973   3.681874   3.395393
    19  H    4.079402   3.473164   3.947945   4.603102   4.307129
    20  C    3.794363   2.909976   2.513247   3.270529   3.810967
    21  H    4.736877   3.976161   3.455737   3.997297   4.893724
    22  C    3.762356   2.553516   3.558210   4.810940   2.547539
    23  H    3.844936   2.815142   4.038186   5.224031   2.425152
    24  H    4.580804   3.501211   4.461466   5.659528   3.610989
    25  H    4.253851   2.819639   3.403368   4.838378   2.719452
    26  C    4.755463   3.441372   2.509987   3.772231   3.774093
    27  H    5.122920   3.896023   2.755914   3.873532   4.064198
    28  H    4.691214   3.219406   2.762135   4.226408   3.333805
    29  C    6.824685   5.665105   4.537123   5.389412   6.121778
    30  C    8.066516   6.899607   5.888152   6.720213   7.396065
    31  H    7.969996   6.888833   5.972669   6.717801   7.507590
    32  H    8.848152   7.741569   6.606821   7.306638   8.238761
    33  H    8.486849   7.203735   6.339857   7.346737   7.591061
    34  O    6.822626   5.792172   4.454927   5.089466   6.223849
    35  O    5.949170   4.663013   3.787799   4.900944   5.080803
                    6          7          8          9         10
     6  H    0.000000
     7  C    4.286426   0.000000
     8  H    4.489127   1.087214   0.000000
     9  H    5.053373   1.089412   1.781458   0.000000
    10  H    4.658187   1.089808   1.780782   1.772917   0.000000
    11  N    2.974310   1.444874   2.059744   2.087180   2.088454
    12  O    2.767043   2.877445   2.444444   3.633043   3.608698
    13  O    4.183935   2.843324   3.885817   2.835005   2.910093
    14  C    2.150456   4.841511   4.943758   5.281674   5.591020
    15  H    2.599272   4.850162   4.709719   5.335283   5.668761
    16  C    3.413776   4.767678   5.455077   4.843863   5.297391
    17  H    4.249106   4.677488   5.502306   4.553759   5.141084
    18  C    3.836221   5.078876   5.555657   5.052891   5.847687
    19  H    4.918837   5.704258   6.206443   5.486336   6.503594
    20  C    3.411975   5.122118   5.350541   5.256368   5.980145
    21  H    4.312969   5.769500   5.866658   5.818147   6.713688
    22  C    4.005049   6.156345   6.855508   6.301307   6.566891
    23  H    4.323256   6.321513   7.117535   6.497323   6.557499
    24  H    4.998248   6.919101   7.625218   6.930444   7.390228
    25  H    3.646671   6.548681   7.128844   6.831849   6.978422
    26  C    2.531133   6.184164   6.298516   6.704875   6.815009
    27  H    2.358597   6.341140   6.356414   7.008135   6.879983
    28  H    2.743124   6.485782   6.766052   6.967593   7.026255
    29  C    4.580679   7.811055   7.666009   8.285893   8.577192
    30  C    6.027180   9.066910   8.910929   9.442789   9.894736
    31  H    6.301729   8.926604   8.786153   9.182797   9.824543
    32  H    6.672809   9.648030   9.384326  10.065363  10.477628
    33  H    6.422577   9.722382   9.657014  10.096801  10.507867
    34  O    4.336318   7.514708   7.241085   8.101332   8.236484
    35  O    3.929356   7.288364   7.326520   7.710090   8.020202
                   11         12         13         14         15
    11  N    0.000000
    12  O    2.288733   0.000000
    13  O    2.280920   4.528931   0.000000
    14  C    3.543664   2.977400   4.782291   0.000000
    15  H    3.745163   2.496662   5.385266   1.091903   0.000000
    16  C    3.491818   4.689293   3.021782   2.976374   3.955872
    17  H    3.616341   5.214216   2.528444   3.934225   4.828584
    18  C    3.882150   4.534262   4.009616   2.485846   3.307596
    19  H    4.658985   5.404599   4.529664   3.468441   4.182114
    20  C    3.915319   3.847408   4.720932   1.502527   2.129104
    21  H    4.704848   4.330283   5.632435   2.218594   2.424877
    22  C    4.831673   5.888524   4.137356   3.725776   4.809857
    23  H    5.060886   6.365976   3.999349   4.523177   5.597501
    24  H    5.652294   6.702517   4.835526   4.380715   5.435910
    25  H    5.140842   5.811043   4.841859   3.361025   4.442039
    26  C    4.824881   4.177725   5.838478   1.529696   2.117338
    27  H    5.037967   4.106223   6.250011   2.160489   2.406405
    28  H    5.058710   4.861902   5.650186   2.174285   3.038690
    29  C    6.620794   5.331725   7.946928   3.182747   2.979843
    30  C    7.905289   6.640363   9.142784   4.436074   4.241915
    31  H    7.818205   6.661041   8.996047   4.447068   4.253402
    32  H    8.559258   7.065642   9.962661   5.196494   4.821864
    33  H    8.479765   7.397447   9.517675   4.940947   4.951595
    34  O    6.419828   4.819020   8.001311   3.313552   2.820225
    35  O    5.984305   5.142466   7.003206   2.450760   2.724224
                   16         17         18         19         20
    16  C    0.000000
    17  H    1.092190   0.000000
    18  C    1.501679   2.115966   0.000000
    19  H    2.211986   2.410409   1.084988   0.000000
    20  C    2.495002   3.297489   1.325797   2.086745   0.000000
    21  H    3.474629   4.168907   2.088379   2.400302   1.083524
    22  C    1.531643   2.115533   2.500271   2.996965   3.374864
    23  H    2.170654   2.417772   3.445635   3.924882   4.347047
    24  H    2.170476   2.480142   2.703155   2.805399   3.706444
    25  H    2.185673   3.045132   2.827947   3.482327   3.300317
    26  C    3.660705   4.741333   3.356198   4.275642   2.517700
    27  H    4.448665   5.511833   4.318415   5.291800   3.453241
    28  H    3.242916   4.328442   3.249231   4.136536   2.823562
    29  C    5.715686   6.748997   4.929436   5.574039   3.772852
    30  C    6.705695   7.693550   5.738665   6.161503   4.649025
    31  H    6.528305   7.434659   5.380220   5.641147   4.326028
    32  H    7.665018   8.656087   6.692609   7.134351   5.531156
    33  H    6.894472   7.892961   6.029354   6.411431   5.097091
    34  O    6.142610   7.169316   5.471352   6.231450   4.244482
    35  O    4.543477   5.593123   3.858188   4.530437   2.887971
                   21         22         23         24         25
    21  H    0.000000
    22  C    4.276145   0.000000
    23  H    5.302520   1.091990   0.000000
    24  H    4.418540   1.091596   1.766147   0.000000
    25  H    4.167856   1.090988   1.769466   1.760799   0.000000
    26  C    3.060047   3.797271   4.562496   4.420855   3.027455
    27  H    3.977807   4.578232   5.187374   5.315444   3.760460
    28  H    3.526035   2.987999   3.691389   3.622554   2.071388
    29  C    3.586268   5.867468   6.752682   6.226841   5.077355
    30  C    4.183324   6.753949   7.707337   6.903846   5.983029
    31  H    3.650974   6.687482   7.710371   6.721146   6.052769
    32  H    5.022341   7.774042   8.708822   7.967231   6.987523
    33  H    4.728895   6.699352   7.617968   6.765355   5.858843
    34  O    4.153719   6.445302   7.247378   6.958095   5.670994
    35  O    2.947577   4.560432   5.460952   4.900300   3.763519
                   26         27         28         29         30
    26  C    0.000000
    27  H    1.090520   0.000000
    28  H    1.088457   1.778148   0.000000
    29  C    2.371213   2.511759   3.188050   0.000000
    30  C    3.681267   3.957502   4.315677   1.498329   0.000000
    31  H    3.994479   4.489493   4.613746   2.127044   1.091627
    32  H    4.487897   4.566823   5.212898   2.129377   1.086666
    33  H    3.946814   4.257176   4.334963   2.137264   1.090225
    34  O    2.685820   2.382766   3.657667   1.202179   2.403592
    35  O    1.428261   2.066392   2.005108   1.341547   2.340963
                   31         32         33         34         35
    31  H    0.000000
    32  H    1.778684   0.000000
    33  H    1.760171   1.784587   0.000000
    34  O    3.062597   2.567400   3.140074   0.000000
    35  O    2.656412   3.266416   2.567855   2.243577   0.000000
 Stoichiometry    C13H17NO4
 Framework group  C1[X(C13H17NO4)]
 Deg. of freedom    99
 Full point group                 C1      NOp   1
 Largest Abelian subgroup         C1      NOp   1
 Largest concise Abelian subgroup C1      NOp   1
                         Standard orientation:                         
 ---------------------------------------------------------------------
 Center     Atomic      Atomic             Coordinates (Angstroms)
 Number     Number       Type             X           Y           Z
 ---------------------------------------------------------------------
      1          6           0       -2.875390    0.206961   -0.206990
      2          6           0       -1.561960    0.819151   -0.668360
      3          6           0       -0.585400   -0.372519   -0.708040
      4          6           0       -1.387701   -1.546629   -0.165590
      5          1           0       -1.745840    1.196381   -1.675680
      6          1           0       -0.365250   -0.636899   -1.745840
      7          6           0       -3.742541   -2.000729    0.514100
      8          1           0       -3.316981   -2.986059    0.687470
      9          1           0       -4.164801   -1.611829    1.439990
     10          1           0       -4.532641   -2.066829   -0.233600
     11          7           0       -2.685901   -1.132849    0.047240
     12          8           0       -0.983601   -2.662659    0.034740
     13          8           0       -3.929680    0.775461   -0.070910
     14          6           0        0.742600   -0.236799    0.053340
     15          1           0        1.045249   -1.242589    0.351740
     16          6           0       -1.192080    2.017721    0.234870
     17          1           0       -2.125250    2.385601    0.667000
     18          6           0       -0.278770    1.616741    1.357420
     19          1           0       -0.323250    2.218491    2.259150
     20          6           0        0.591600    0.619761    1.278530
     21          1           0        1.248780    0.410411    2.114180
     22          6           0       -0.601220    3.182771   -0.564800
     23          1           0       -1.325520    3.553951   -1.292850
     24          1           0       -0.337770    4.008361    0.098960
     25          1           0        0.303030    2.889371   -1.100060
     26          6           0        1.830510    0.284171   -0.887410
     27          1           0        1.983010   -0.419929   -1.706080
     28          1           0        1.565420    1.258561   -1.293650
     29          6           0        3.907030   -0.543249   -0.096150
     30          6           0        5.134430   -0.161499    0.673750
     31          1           0        4.860170    0.062301    1.706390
     32          1           0        5.850159   -0.979010    0.657910
     33          1           0        5.582500    0.737651    0.250250
     34          8           0        3.685779   -1.630079   -0.559920
     35          8           0        3.066710    0.496891   -0.204410
 ---------------------------------------------------------------------
 Rotational constants (GHZ):      0.7556172      0.2662772      0.2157288
 Standard basis: def2TZVP (5D, 7F)
 There are   750 symmetry adapted cartesian basis functions of A   symmetry.
 There are   660 symmetry adapted basis functions of A   symmetry.
   660 basis functions,  1054 primitive gaussians,   750 cartesian basis functions
    67 alpha electrons       67 beta electrons
       nuclear repulsion energy      1389.2889779034 Hartrees.
 NAtoms=   35 NActive=   35 NUniq=   35 SFac= 1.00D+00 NAtFMM=   60 NAOKFM=F Big=F
 Integral buffers will be    131072 words long.
 Raffenetti 2 integral format.
 Two-electron integral symmetry is turned on.
 Nuclear repulsion after empirical dispersion term =     1389.2607660385 Hartrees.
 ------------------------------------------------------------------------------
 Polarizable Continuum Model (PCM)
 =================================
 Model                : PCM (using non-symmetric T matrix).
 Atomic radii         : SMD-Coulomb.
 Polarization charges : Total charges.
 Charge compensation  : None.
 Solution method      : On-the-fly selection.
 Cavity type          : VdW (van der Waals Surface) (Alpha=1.000).
 Cavity algorithm     : GePol (No added spheres)
                        Default sphere list used, NSphG=   35.
                        Lebedev-Laikov grids with approx.  5.0 points / Ang**2.
                        Smoothing algorithm: Karplus/York (Gamma=1.0000).
                        Polarization charges: spherical gaussians, with
                                              point-specific exponents (IZeta= 3).
                        Self-potential: point-specific (ISelfS= 7).
                        Self-field    : sphere-specific E.n sum rule (ISelfD= 2).
 1st derivatives      : Analytical E(r).r(x)/FMM algorithm (CHGder, D1EAlg=3).
                        Cavity 1st derivative terms included.
 Solvent              : Toluene, Eps=   2.374100 Eps(inf)=   2.238315
 ------------------------------------------------------------------------------
 ------------------------------------------------------------------------------
 Atomic radii for non-electrostatic terms: SMD-CDS.
 ------------------------------------------------------------------------------
 Nuclear repulsion after PCM non-electrostatic terms =     1389.2507123143 Hartrees.
 One-electron integrals computed using PRISM.
   1 Symmetry operations used in ECPInt.
 ECPInt:  NShTT=   35511 NPrTT=  107400 LenC2=   31814 LenP2D=   70193.
 LDataN:  DoStor=T MaxTD1= 6 Len=  172
 NBasis=   660 RedAO= T EigKep=  1.68D-05  NBF=   660
 NBsUse=   660 1.00D-06 EigRej= -1.00D+00 NBFU=   660
 ExpMin= 9.52D-02 ExpMax= 2.70D+04 ExpMxC= 9.22D+02 IAcc=2 IRadAn=         4 AccDes= 0.00D+00
 Harris functional with IExCor= 4639 and IRadAn=       4 diagonalized for initial guess.
 HarFok:  IExCor= 4639 AccDes= 0.00D+00 IRadAn=         4 IDoV= 1 UseB2=F ITyADJ=14
 ICtDFT=  3500011 ScaDFX=  1.000000  1.000000  1.000000  1.000000
 FoFCou: FMM=F IPFlag=           0 FMFlag=      100000 FMFlg1=           0
         NFxFlg=           0 DoJE=T BraDBF=F KetDBF=T FulRan=T
         wScrn=  0.000000 ICntrl=     500 IOpCl=  0 I1Cent=   200000004 NGrid=           0
         NMat0=    1 NMatS0=      1 NMatT0=    0 NMatD0=    1 NMtDS0=    0 NMtDT0=    0
 Petite list used in FoFCou.
 Requested convergence on RMS density matrix=1.00D-08 within 128 cycles.
 Requested convergence on MAX density matrix=1.00D-06.
 Requested convergence on             energy=1.00D-06.
 No special actions if energy rises.
 Inv3:  Mode=1 IEnd=    21547200.
 Iteration    1 A*A^-1 deviation from unit magnitude is 5.88D-15 for   1337.
 Iteration    1 A*A^-1 deviation from orthogonality  is 3.38D-15 for    709    468.
 Iteration    1 A^-1*A deviation from unit magnitude is 7.33D-15 for    325.
 Iteration    1 A^-1*A deviation from orthogonality  is 4.48D-14 for    809    783.
 Error on total polarization charges =  0.02019
 SCF Done:  E(RwB97XD) =  -861.392429160     A.U. after   13 cycles
            NFock= 13  Conv=0.89D-08     -V/T= 2.0046
 SMD-CDS (non-electrostatic) energy       (kcal/mol) =      -6.31
 (included in total energy above)

 **********************************************************************

            Population analysis using the SCF density.

 **********************************************************************

 Orbital symmetries:
       Occupied  (A) (A) (A) (A) (A) (A) (A) (A) (A) (A) (A) (A)
                 (A) (A) (A) (A) (A) (A) (A) (A) (A) (A) (A) (A)
                 (A) (A) (A) (A) (A) (A) (A) (A) (A) (A) (A) (A)
                 (A) (A) (A) (A) (A) (A) (A) (A) (A) (A) (A) (A)
                 (A) (A) (A) (A) (A) (A) (A) (A) (A) (A) (A) (A)
                 (A) (A) (A) (A) (A) (A) (A)
       Virtual   (A) (A) (A) (A) (A) (A) (A) (A) (A) (A) (A) (A)
                 (A) (A) (A) (A) (A) (A) (A) (A) (A) (A) (A) (A)
                 (A) (A) (A) (A) (A) (A) (A) (A) (A) (A) (A) (A)
                 (A) (A) (A) (A) (A) (A) (A) (A) (A) (A) (A) (A)
                 (A) (A) (A) (A) (A) (A) (A) (A) (A) (A) (A) (A)
                 (A) (A) (A) (A) (A) (A) (A) (A) (A) (A) (A) (A)
                 (A) (A) (A) (A) (A) (A) (A) (A) (A) (A) (A) (A)
                 (A) (A) (A) (A) (A) (A) (A) (A) (A) (A) (A) (A)
                 (A) (A) (A) (A) (A) (A) (A) (A) (A) (A) (A) (A)
                 (A) (A) (A) (A) (A) (A) (A) (A) (A) (A) (A) (A)
                 (A) (A) (A) (A) (A) (A) (A) (A) (A) (A) (A) (A)
                 (A) (A) (A) (A) (A) (A) (A) (A) (A) (A) (A) (A)
                 (A) (A) (A) (A) (A) (A) (A) (A) (A) (A) (A) (A)
                 (A) (A) (A) (A) (A) (A) (A) (A) (A) (A) (A) (A)
                 (A) (A) (A) (A) (A) (A) (A) (A) (A) (A) (A) (A)
                 (A) (A) (A) (A) (A) (A) (A) (A) (A) (A) (A) (A)
                 (A) (A) (A) (A) (A) (A) (A) (A) (A) (A) (A) (A)
                 (A) (A) (A) (A) (A) (A) (A) (A) (A) (A) (A) (A)
                 (A) (A) (A) (A) (A) (A) (A) (A) (A) (A) (A) (A)
                 (A) (A) (A) (A) (A) (A) (A) (A) (A) (A) (A) (A)
                 (A) (A) (A) (A) (A) (A) (A) (A) (A) (A) (A) (A)
                 (A) (A) (A) (A) (A) (A) (A) (A) (A) (A) (A) (A)
                 (A) (A) (A) (A) (A) (A) (A) (A) (A) (A) (A) (A)
                 (A) (A) (A) (A) (A) (A) (A) (A) (A) (A) (A) (A)
                 (A) (A) (A) (A) (A) (A) (A) (A) (A) (A) (A) (A)
                 (A) (A) (A) (A) (A) (A) (A) (A) (A) (A) (A) (A)
                 (A) (A) (A) (A) (A) (A) (A) (A) (A) (A) (A) (A)
                 (A) (A) (A) (A) (A) (A) (A) (A) (A) (A) (A) (A)
                 (A) (A) (A) (A) (A) (A) (A) (A) (A) (A) (A) (A)
                 (A) (A) (A) (A) (A) (A) (A) (A) (A) (A) (A) (A)
                 (A) (A) (A) (A) (A) (A) (A) (A) (A) (A) (A) (A)
                 (A) (A) (A) (A) (A) (A) (A) (A) (A) (A) (A) (A)
                 (A) (A) (A) (A) (A) (A) (A) (A) (A) (A) (A) (A)
                 (A) (A) (A) (A) (A) (A) (A) (A) (A) (A) (A) (A)
                 (A) (A) (A) (A) (A) (A) (A) (A) (A) (A) (A) (A)
                 (A) (A) (A) (A) (A) (A) (A) (A) (A) (A) (A) (A)
                 (A) (A) (A) (A) (A) (A) (A) (A) (A) (A) (A) (A)
                 (A) (A) (A) (A) (A) (A) (A) (A) (A) (A) (A) (A)
                 (A) (A) (A) (A) (A) (A) (A) (A) (A) (A) (A) (A)
                 (A) (A) (A) (A) (A) (A) (A) (A) (A) (A) (A) (A)
                 (A) (A) (A) (A) (A) (A) (A) (A) (A) (A) (A) (A)
                 (A) (A) (A) (A) (A) (A) (A) (A) (A) (A) (A) (A)
                 (A) (A) (A) (A) (A) (A) (A) (A) (A) (A) (A) (A)
                 (A) (A) (A) (A) (A) (A) (A) (A) (A) (A) (A) (A)
                 (A) (A) (A) (A) (A) (A) (A) (A) (A) (A) (A) (A)
                 (A) (A) (A) (A) (A) (A) (A) (A) (A) (A) (A) (A)
                 (A) (A) (A) (A) (A) (A) (A) (A) (A) (A) (A) (A)
                 (A) (A) (A) (A) (A) (A) (A) (A) (A) (A) (A) (A)
                 (A) (A) (A) (A) (A) (A) (A) (A) (A) (A) (A) (A)
                 (A) (A) (A) (A) (A)
 The electronic state is 1-A.
 Alpha  occ. eigenvalues --  -19.29608 -19.23795 -19.23748 -19.23432 -14.49066
 Alpha  occ. eigenvalues --  -10.41541 -10.40336 -10.40144 -10.34166 -10.31702
 Alpha  occ. eigenvalues --  -10.31354 -10.31014 -10.30282 -10.30187 -10.28706
 Alpha  occ. eigenvalues --  -10.28558 -10.28438 -10.27696  -1.21412  -1.17930
 Alpha  occ. eigenvalues --   -1.15681  -1.12328  -1.06486  -0.96776  -0.90212
 Alpha  occ. eigenvalues --   -0.89212  -0.86067  -0.82692  -0.80165  -0.78824
 Alpha  occ. eigenvalues --   -0.74895  -0.71424  -0.71126  -0.66398  -0.64426
 Alpha  occ. eigenvalues --   -0.61522  -0.59902  -0.59541  -0.58208  -0.57649
 Alpha  occ. eigenvalues --   -0.56949  -0.56453  -0.55442  -0.53790  -0.52950
 Alpha  occ. eigenvalues --   -0.52391  -0.51647  -0.51026  -0.50816  -0.49767
 Alpha  occ. eigenvalues --   -0.48913  -0.48748  -0.48279  -0.46801  -0.46203
 Alpha  occ. eigenvalues --   -0.45995  -0.44901  -0.44425  -0.42380  -0.41714
 Alpha  occ. eigenvalues --   -0.39593  -0.39033  -0.37420  -0.36488  -0.36185
 Alpha  occ. eigenvalues --   -0.34512  -0.33506
 Alpha virt. eigenvalues --    0.05185   0.07400   0.08081   0.09083   0.10993
 Alpha virt. eigenvalues --    0.12246   0.13014   0.13717   0.14407   0.15441
 Alpha virt. eigenvalues --    0.16574   0.17140   0.17661   0.18095   0.18807
 Alpha virt. eigenvalues --    0.19407   0.19864   0.20187   0.20606   0.21027
 Alpha virt. eigenvalues --    0.21293   0.22230   0.22454   0.23049   0.23197
 Alpha virt. eigenvalues --    0.24192   0.24481   0.25149   0.26515   0.27207
 Alpha virt. eigenvalues --    0.27617   0.28179   0.28899   0.29278   0.29839
 Alpha virt. eigenvalues --    0.30082   0.30840   0.31270   0.31701   0.32364
 Alpha virt. eigenvalues --    0.32757   0.33656   0.35425   0.36147   0.36464
 Alpha virt. eigenvalues --    0.36706   0.37366   0.37885   0.38655   0.39819
 Alpha virt. eigenvalues --    0.40218   0.40716   0.41263   0.41907   0.41997
 Alpha virt. eigenvalues --    0.43736   0.44312   0.44481   0.44868   0.45657
 Alpha virt. eigenvalues --    0.46069   0.46285   0.46674   0.47311   0.47822
 Alpha virt. eigenvalues --    0.48014   0.48601   0.48731   0.49345   0.49713
 Alpha virt. eigenvalues --    0.50558   0.50667   0.51263   0.51590   0.52276
 Alpha virt. eigenvalues --    0.52735   0.53169   0.53692   0.53911   0.54416
 Alpha virt. eigenvalues --    0.54843   0.55200   0.55889   0.56030   0.56510
 Alpha virt. eigenvalues --    0.56869   0.57244   0.58204   0.58612   0.59232
 Alpha virt. eigenvalues --    0.59791   0.60852   0.61582   0.62049   0.62732
 Alpha virt. eigenvalues --    0.63077   0.63359   0.63517   0.64189   0.65929
 Alpha virt. eigenvalues --    0.66247   0.67428   0.67942   0.68274   0.69126
 Alpha virt. eigenvalues --    0.70470   0.71392   0.71746   0.72495   0.73040
 Alpha virt. eigenvalues --    0.73998   0.75392   0.75855   0.76928   0.77571
 Alpha virt. eigenvalues --    0.78332   0.79156   0.80025   0.81354   0.82362
 Alpha virt. eigenvalues --    0.83380   0.84716   0.85033   0.87207   0.88205
 Alpha virt. eigenvalues --    0.88500   0.89080   0.90126   0.91021   0.91305
 Alpha virt. eigenvalues --    0.91792   0.92895   0.93895   0.94590   0.95136
 Alpha virt. eigenvalues --    0.96499   0.96887   0.98576   0.99247   1.00331
 Alpha virt. eigenvalues --    1.00977   1.02063   1.03292   1.04012   1.05766
 Alpha virt. eigenvalues --    1.06575   1.06797   1.07582   1.08105   1.09280
 Alpha virt. eigenvalues --    1.10736   1.11388   1.12288   1.12865   1.13534
 Alpha virt. eigenvalues --    1.14303   1.15007   1.15951   1.17145   1.17902
 Alpha virt. eigenvalues --    1.18441   1.19102   1.19847   1.20689   1.21895
 Alpha virt. eigenvalues --    1.23390   1.23836   1.26012   1.26910   1.27981
 Alpha virt. eigenvalues --    1.28438   1.30455   1.31866   1.32749   1.33765
 Alpha virt. eigenvalues --    1.34761   1.35890   1.36346   1.37856   1.38497
 Alpha virt. eigenvalues --    1.40422   1.41109   1.41960   1.44227   1.46007
 Alpha virt. eigenvalues --    1.46444   1.47204   1.48664   1.49736   1.51543
 Alpha virt. eigenvalues --    1.52023   1.52291   1.53103   1.55543   1.57256
 Alpha virt. eigenvalues --    1.57906   1.58746   1.59916   1.60536   1.60742
 Alpha virt. eigenvalues --    1.61000   1.61436   1.62441   1.62771   1.63920
 Alpha virt. eigenvalues --    1.64129   1.64427   1.65837   1.66777   1.66829
 Alpha virt. eigenvalues --    1.67435   1.67912   1.68903   1.69279   1.70193
 Alpha virt. eigenvalues --    1.71015   1.71561   1.72161   1.72857   1.74443
 Alpha virt. eigenvalues --    1.76298   1.76626   1.78102   1.79502   1.80202
 Alpha virt. eigenvalues --    1.81399   1.82535   1.83947   1.85105   1.85949
 Alpha virt. eigenvalues --    1.87314   1.88349   1.88423   1.89727   1.90066
 Alpha virt. eigenvalues --    1.91189   1.92963   1.95041   1.95758   1.97571
 Alpha virt. eigenvalues --    1.98432   1.99479   2.00251   2.00857   2.02351
 Alpha virt. eigenvalues --    2.03921   2.04245   2.05612   2.05940   2.07015
 Alpha virt. eigenvalues --    2.08349   2.08819   2.09806   2.11150   2.11662
 Alpha virt. eigenvalues --    2.12110   2.13896   2.14862   2.16639   2.17225
 Alpha virt. eigenvalues --    2.18520   2.19062   2.20913   2.21005   2.21997
 Alpha virt. eigenvalues --    2.22865   2.23531   2.25400   2.26107   2.26918
 Alpha virt. eigenvalues --    2.27488   2.28431   2.29972   2.30856   2.31435
 Alpha virt. eigenvalues --    2.33105   2.33671   2.35031   2.35797   2.36407
 Alpha virt. eigenvalues --    2.36883   2.38294   2.39203   2.39845   2.40427
 Alpha virt. eigenvalues --    2.42203   2.43087   2.44171   2.44986   2.45225
 Alpha virt. eigenvalues --    2.46419   2.46650   2.46864   2.49724   2.50361
 Alpha virt. eigenvalues --    2.51366   2.51469   2.52654   2.53426   2.54865
 Alpha virt. eigenvalues --    2.55598   2.57280   2.58526   2.59498   2.60189
 Alpha virt. eigenvalues --    2.61109   2.61754   2.62285   2.64265   2.65259
 Alpha virt. eigenvalues --    2.65800   2.67002   2.67102   2.68246   2.68783
 Alpha virt. eigenvalues --    2.70556   2.71341   2.72293   2.73040   2.73965
 Alpha virt. eigenvalues --    2.75335   2.75902   2.77261   2.79289   2.80572
 Alpha virt. eigenvalues --    2.81045   2.82131   2.82815   2.83781   2.84446
 Alpha virt. eigenvalues --    2.85592   2.86410   2.88122   2.89137   2.89624
 Alpha virt. eigenvalues --    2.91045   2.92774   2.94291   2.94990   2.95939
 Alpha virt. eigenvalues --    2.96328   2.98103   2.98368   2.99835   3.00478
 Alpha virt. eigenvalues --    3.01470   3.03203   3.04003   3.04121   3.04972
 Alpha virt. eigenvalues --    3.06642   3.06922   3.08577   3.09598   3.10260
 Alpha virt. eigenvalues --    3.10527   3.10700   3.11576   3.12660   3.13601
 Alpha virt. eigenvalues --    3.14523   3.15239   3.16549   3.17653   3.18631
 Alpha virt. eigenvalues --    3.19412   3.19913   3.20128   3.21195   3.22171
 Alpha virt. eigenvalues --    3.23009   3.24135   3.24491   3.25521   3.26429
 Alpha virt. eigenvalues --    3.27766   3.28587   3.28902   3.30389   3.31014
 Alpha virt. eigenvalues --    3.31426   3.32242   3.33568   3.34359   3.34494
 Alpha virt. eigenvalues --    3.35680   3.36311   3.36584   3.37015   3.37846
 Alpha virt. eigenvalues --    3.38192   3.39542   3.40725   3.41248   3.42627
 Alpha virt. eigenvalues --    3.43452   3.43913   3.44395   3.44895   3.45448
 Alpha virt. eigenvalues --    3.46823   3.47794   3.48689   3.49155   3.49677
 Alpha virt. eigenvalues --    3.49920   3.50996   3.52225   3.53594   3.54429
 Alpha virt. eigenvalues --    3.54638   3.55221   3.55793   3.56998   3.57833
 Alpha virt. eigenvalues --    3.58276   3.60103   3.60668   3.62809   3.63301
 Alpha virt. eigenvalues --    3.64784   3.65743   3.65815   3.67363   3.67817
 Alpha virt. eigenvalues --    3.69247   3.71400   3.71625   3.73218   3.74672
 Alpha virt. eigenvalues --    3.75686   3.76928   3.77426   3.78138   3.79509
 Alpha virt. eigenvalues --    3.80293   3.84284   3.84798   3.85410   3.85614
 Alpha virt. eigenvalues --    3.88155   3.88391   3.89495   3.91180   3.92566
 Alpha virt. eigenvalues --    3.95085   3.95897   3.96929   3.99161   3.99271
 Alpha virt. eigenvalues --    3.99878   4.02522   4.03649   4.04733   4.05486
 Alpha virt. eigenvalues --    4.07673   4.10534   4.11312   4.12685   4.15097
 Alpha virt. eigenvalues --    4.15966   4.17122   4.20346   4.20902   4.23081
 Alpha virt. eigenvalues --    4.23870   4.25847   4.26890   4.27562   4.29097
 Alpha virt. eigenvalues --    4.30162   4.30542   4.34256   4.37134   4.39487
 Alpha virt. eigenvalues --    4.39949   4.41814   4.44356   4.44813   4.46747
 Alpha virt. eigenvalues --    4.47351   4.47970   4.49095   4.49801   4.52672
 Alpha virt. eigenvalues --    4.54295   4.55775   4.57331   4.58737   4.62297
 Alpha virt. eigenvalues --    4.62651   4.64486   4.66722   4.67442   4.68505
 Alpha virt. eigenvalues --    4.72165   4.73449   4.77772   4.79566   4.83582
 Alpha virt. eigenvalues --    4.86311   4.89199   4.89344   4.91492   4.92877
 Alpha virt. eigenvalues --    4.94764   4.97121   4.99314   5.02548   5.05358
 Alpha virt. eigenvalues --    5.07041   5.09334   5.13117   5.15769   5.17916
 Alpha virt. eigenvalues --    5.20545   5.22980   5.24974   5.26333   5.26407
 Alpha virt. eigenvalues --    5.28220   5.29112   5.34396   5.36217   5.37439
 Alpha virt. eigenvalues --    5.38840   5.40414   5.46625   5.49603   5.50288
 Alpha virt. eigenvalues --    5.51971   5.59935   5.67156   5.73128   5.73613
 Alpha virt. eigenvalues --    5.75016   5.82719   5.82917   5.84659   5.86377
 Alpha virt. eigenvalues --    5.95252   5.98446   6.10206   6.16785   6.17390
 Alpha virt. eigenvalues --    6.28017   6.28866   6.29787   6.31650   6.45201
 Alpha virt. eigenvalues --    6.46708   6.48211   6.51712   6.51861   6.58582
 Alpha virt. eigenvalues --    6.62348   6.66269   6.67822   6.75646   6.78419
 Alpha virt. eigenvalues --    6.83797   6.88651   6.91908   6.94402   6.95860
 Alpha virt. eigenvalues --    7.00541   7.04460   7.12910   7.15975   7.20484
 Alpha virt. eigenvalues --    7.21492   7.22351   7.22672   7.38312   7.51800
 Alpha virt. eigenvalues --   22.43235  22.44307  22.53705  22.58301  22.70061
 Alpha virt. eigenvalues --   22.72309  22.78629  22.92691  22.96148  23.08984
 Alpha virt. eigenvalues --   23.36077  23.43549  23.75964  33.03137  43.98514
 Alpha virt. eigenvalues --   44.10075  44.11556  44.34593
          Condensed to atoms (all electrons):
               1          2          3          4          5          6
     1  C    4.694793   0.127432   0.122190  -0.122372  -0.014877  -0.001973
     2  C    0.127432   5.549885  -0.099312   0.109473   0.372896  -0.009945
     3  C    0.122190  -0.099312   5.578418   0.082517  -0.002245   0.382536
     4  C   -0.122372   0.109473   0.082517   4.725988   0.000555  -0.010912
     5  H   -0.014877   0.372896  -0.002245   0.000555   0.568664  -0.012628
     6  H   -0.001973  -0.009945   0.382536  -0.010912  -0.012628   0.560085
     7  C   -0.049420   0.010505   0.004194  -0.054644  -0.000235  -0.000075
     8  H    0.007792  -0.000875   0.005463  -0.017925   0.000025  -0.000135
     9  H   -0.006112  -0.000871   0.000155   0.005240  -0.000066  -0.000030
    10  H   -0.007310   0.000449  -0.000873   0.003445   0.000100   0.000112
    11  N    0.358907  -0.106626  -0.136710   0.401129   0.004190   0.002456
    12  O    0.000602   0.008356  -0.121016   0.690553  -0.000148   0.004020
    13  O    0.699888  -0.114689   0.006954   0.001704   0.005452  -0.000035
    14  C   -0.006699   0.075457   0.138743   0.012614  -0.005178  -0.036457
    15  H    0.000347   0.004213  -0.053390  -0.009844  -0.000478   0.001936
    16  C    0.018794   0.153448   0.057733  -0.007747  -0.031153  -0.002006
    17  H   -0.009081  -0.065815   0.003467   0.000906   0.004019  -0.000496
    18  C    0.009025   0.049833  -0.034380  -0.002345   0.003323   0.002109
    19  H    0.000133   0.008325  -0.001110   0.000078  -0.000259   0.000076
    20  C   -0.004185  -0.053179   0.055098   0.009162   0.002408   0.003302
    21  H    0.000027  -0.001364   0.006136   0.000069   0.000064  -0.000285
    22  C   -0.003741   0.022758  -0.022335   0.000703  -0.010431   0.001097
    23  H   -0.000537  -0.005126   0.002614  -0.000144   0.001822  -0.000132
    24  H    0.000028   0.008993   0.000027  -0.000013   0.000604   0.000002
    25  H    0.000646   0.001707  -0.006653   0.000337  -0.000508  -0.000071
    26  C    0.000746  -0.022424   0.041571  -0.005352   0.000797  -0.003759
    27  H   -0.000153   0.001285   0.005012   0.000354  -0.000036   0.002927
    28  H    0.000813  -0.005079  -0.003514   0.000384  -0.000150  -0.000503
    29  C    0.000012  -0.000073  -0.000302  -0.000020  -0.000002  -0.000050
    30  C    0.000000   0.000000  -0.000140   0.000013   0.000000  -0.000001
    31  H    0.000000   0.000000  -0.000011  -0.000001   0.000000  -0.000001
    32  H    0.000000   0.000000   0.000003   0.000000   0.000000   0.000000
    33  H    0.000000   0.000001   0.000009  -0.000001   0.000000   0.000000
    34  O    0.000002  -0.000085   0.000157   0.000300   0.000001  -0.000126
    35  O    0.000005   0.000243   0.001369   0.000041  -0.000005   0.000365
               7          8          9         10         11         12
     1  C   -0.049420   0.007792  -0.006112  -0.007310   0.358907   0.000602
     2  C    0.010505  -0.000875  -0.000871   0.000449  -0.106626   0.008356
     3  C    0.004194   0.005463   0.000155  -0.000873  -0.136710  -0.121016
     4  C   -0.054644  -0.017925   0.005240   0.003445   0.401129   0.690553
     5  H   -0.000235   0.000025  -0.000066   0.000100   0.004190  -0.000148
     6  H   -0.000075  -0.000135  -0.000030   0.000112   0.002456   0.004020
     7  C    4.893431   0.407086   0.411429   0.410161   0.260128  -0.010898
     8  H    0.407086   0.486513  -0.019321  -0.020712  -0.032819   0.017514
     9  H    0.411429  -0.019321   0.516200  -0.027250  -0.037159   0.000479
    10  H    0.410161  -0.020712  -0.027250   0.520232  -0.031490   0.000367
    11  N    0.260128  -0.032819  -0.037159  -0.031490   6.608252  -0.099115
    12  O   -0.010898   0.017514   0.000479   0.000367  -0.099115   7.859367
    13  O    0.011076   0.000810   0.003128   0.001641  -0.113204  -0.000163
    14  C    0.000157   0.000026   0.000136  -0.000096   0.002437   0.001979
    15  H   -0.000007  -0.000088   0.000009  -0.000005   0.002748   0.019391
    16  C    0.000551   0.000012   0.000492  -0.000196  -0.006645  -0.000183
    17  H   -0.000236   0.000001   0.000038  -0.000028   0.002417   0.000030
    18  C   -0.000289  -0.000012  -0.000217   0.000052   0.007563  -0.000088
    19  H   -0.000004   0.000000  -0.000007   0.000001   0.000116  -0.000001
    20  C    0.000102  -0.000105   0.000089  -0.000003  -0.000175   0.001969
    21  H    0.000000  -0.000001   0.000003   0.000000   0.000028  -0.000183
    22  C    0.000042  -0.000001   0.000005   0.000000  -0.001286   0.000015
    23  H   -0.000004   0.000000   0.000000   0.000000   0.000069   0.000000
    24  H   -0.000001   0.000000   0.000000   0.000000   0.000022   0.000000
    25  H    0.000000   0.000000   0.000000   0.000000   0.000012  -0.000002
    26  C    0.000024   0.000017   0.000002  -0.000001  -0.001418  -0.002532
    27  H   -0.000002  -0.000001   0.000000   0.000000   0.000055   0.000407
    28  H    0.000003   0.000000   0.000000   0.000000   0.000014   0.000029
    29  C    0.000000   0.000000   0.000000   0.000000   0.000000  -0.000064
    30  C    0.000000   0.000000   0.000000   0.000000   0.000000  -0.000003
    31  H    0.000000   0.000000   0.000000   0.000000   0.000000   0.000000
    32  H    0.000000   0.000000   0.000000   0.000000   0.000000   0.000000
    33  H    0.000000   0.000000   0.000000   0.000000   0.000000   0.000000
    34  O    0.000000   0.000000   0.000000   0.000000   0.000000  -0.000030
    35  O    0.000000   0.000000   0.000000   0.000000   0.000006   0.000025
              13         14         15         16         17         18
     1  C    0.699888  -0.006699   0.000347   0.018794  -0.009081   0.009025
     2  C   -0.114689   0.075457   0.004213   0.153448  -0.065815   0.049833
     3  C    0.006954   0.138743  -0.053390   0.057733   0.003467  -0.034380
     4  C    0.001704   0.012614  -0.009844  -0.007747   0.000906  -0.002345
     5  H    0.005452  -0.005178  -0.000478  -0.031153   0.004019   0.003323
     6  H   -0.000035  -0.036457   0.001936  -0.002006  -0.000496   0.002109
     7  C    0.011076   0.000157  -0.000007   0.000551  -0.000236  -0.000289
     8  H    0.000810   0.000026  -0.000088   0.000012   0.000001  -0.000012
     9  H    0.003128   0.000136   0.000009   0.000492   0.000038  -0.000217
    10  H    0.001641  -0.000096  -0.000005  -0.000196  -0.000028   0.000052
    11  N   -0.113204   0.002437   0.002748  -0.006645   0.002417   0.007563
    12  O   -0.000163   0.001979   0.019391  -0.000183   0.000030  -0.000088
    13  O    7.855269  -0.000441   0.000017  -0.001214   0.016393   0.001191
    14  C   -0.000441   5.138902   0.454728  -0.007590  -0.001925  -0.008504
    15  H    0.000017   0.454728   0.527877  -0.001322  -0.000019   0.008479
    16  C   -0.001214  -0.007590  -0.001322   4.994566   0.461531   0.204128
    17  H    0.016393  -0.001925  -0.000019   0.461531   0.581093  -0.055889
    18  C    0.001191  -0.008504   0.008479   0.204128  -0.055889   5.196961
    19  H   -0.000156   0.008509  -0.000063  -0.051535  -0.007075   0.441441
    20  C    0.000602   0.145179  -0.052238   0.001292   0.012120   0.503351
    21  H    0.000003  -0.045214  -0.005501   0.008429  -0.000073  -0.048970
    22  C   -0.003071   0.019428   0.000166   0.225335  -0.045946  -0.018324
    23  H    0.000634  -0.000665   0.000000  -0.047698  -0.003394   0.008668
    24  H    0.000058   0.000000  -0.000005  -0.045112  -0.003443   0.001770
    25  H    0.000055   0.004032  -0.000028  -0.036428   0.006555  -0.004277
    26  C   -0.000007   0.226508  -0.042187   0.022920   0.000088  -0.015893
    27  H    0.000001  -0.078831  -0.004012  -0.000727   0.000007   0.000749
    28  H   -0.000005  -0.026660   0.004731   0.005067   0.000040   0.000620
    29  C    0.000000   0.012727   0.002906   0.000092   0.000000  -0.000145
    30  C    0.000000  -0.001963   0.000890  -0.000018   0.000000   0.000130
    31  H    0.000000   0.000367  -0.000213   0.000002   0.000000   0.000039
    32  H    0.000000  -0.000024  -0.000020   0.000000   0.000000   0.000002
    33  H    0.000000   0.000232  -0.000008   0.000000   0.000000  -0.000022
    34  O    0.000000  -0.014785   0.010727   0.000006   0.000000  -0.000226
    35  O    0.000000  -0.045360  -0.005264  -0.001157  -0.000001   0.005918
              19         20         21         22         23         24
     1  C    0.000133  -0.004185   0.000027  -0.003741  -0.000537   0.000028
     2  C    0.008325  -0.053179  -0.001364   0.022758  -0.005126   0.008993
     3  C   -0.001110   0.055098   0.006136  -0.022335   0.002614   0.000027
     4  C    0.000078   0.009162   0.000069   0.000703  -0.000144  -0.000013
     5  H   -0.000259   0.002408   0.000064  -0.010431   0.001822   0.000604
     6  H    0.000076   0.003302  -0.000285   0.001097  -0.000132   0.000002
     7  C   -0.000004   0.000102   0.000000   0.000042  -0.000004  -0.000001
     8  H    0.000000  -0.000105  -0.000001  -0.000001   0.000000   0.000000
     9  H   -0.000007   0.000089   0.000003   0.000005   0.000000   0.000000
    10  H    0.000001  -0.000003   0.000000   0.000000   0.000000   0.000000
    11  N    0.000116  -0.000175   0.000028  -0.001286   0.000069   0.000022
    12  O   -0.000001   0.001969  -0.000183   0.000015   0.000000   0.000000
    13  O   -0.000156   0.000602   0.000003  -0.003071   0.000634   0.000058
    14  C    0.008509   0.145179  -0.045214   0.019428  -0.000665   0.000000
    15  H   -0.000063  -0.052238  -0.005501   0.000166   0.000000  -0.000005
    16  C   -0.051535   0.001292   0.008429   0.225335  -0.047698  -0.045112
    17  H   -0.007075   0.012120  -0.000073  -0.045946  -0.003394  -0.003443
    18  C    0.441441   0.503351  -0.048970  -0.018324   0.008668   0.001770
    19  H    0.519863  -0.049680  -0.010287   0.000024  -0.000258   0.001689
    20  C   -0.049680   5.227832   0.438301  -0.017399   0.000597  -0.000405
    21  H   -0.010287   0.438301   0.525390  -0.000477   0.000030  -0.000096
    22  C    0.000024  -0.017399  -0.000477   5.032548   0.419070   0.411418
    23  H   -0.000258   0.000597   0.000030   0.419070   0.532332  -0.019035
    24  H    0.001689  -0.000405  -0.000096   0.411418  -0.019035   0.529684
    25  H    0.000138   0.000721  -0.000090   0.405349  -0.025269  -0.020473
    26  C   -0.000516   0.005027  -0.002436  -0.013419   0.000187   0.000303
    27  H    0.000024   0.011228  -0.000335   0.000269   0.000007   0.000000
    28  H   -0.000048  -0.006744   0.000428  -0.004191   0.000042  -0.000083
    29  C   -0.000007  -0.003289   0.001140   0.000003   0.000000  -0.000001
    30  C    0.000001  -0.000133  -0.000040   0.000011   0.000000   0.000000
    31  H   -0.000001  -0.000051   0.000337  -0.000003   0.000000   0.000000
    32  H    0.000000   0.000057  -0.000019   0.000000   0.000000   0.000000
    33  H    0.000000  -0.000043  -0.000011   0.000000   0.000000   0.000000
    34  O   -0.000001   0.001273   0.000069   0.000009   0.000000   0.000000
    35  O    0.000049   0.009758  -0.001791   0.000532  -0.000001  -0.000008
              25         26         27         28         29         30
     1  C    0.000646   0.000746  -0.000153   0.000813   0.000012   0.000000
     2  C    0.001707  -0.022424   0.001285  -0.005079  -0.000073   0.000000
     3  C   -0.006653   0.041571   0.005012  -0.003514  -0.000302  -0.000140
     4  C    0.000337  -0.005352   0.000354   0.000384  -0.000020   0.000013
     5  H   -0.000508   0.000797  -0.000036  -0.000150  -0.000002   0.000000
     6  H   -0.000071  -0.003759   0.002927  -0.000503  -0.000050  -0.000001
     7  C    0.000000   0.000024  -0.000002   0.000003   0.000000   0.000000
     8  H    0.000000   0.000017  -0.000001   0.000000   0.000000   0.000000
     9  H    0.000000   0.000002   0.000000   0.000000   0.000000   0.000000
    10  H    0.000000  -0.000001   0.000000   0.000000   0.000000   0.000000
    11  N    0.000012  -0.001418   0.000055   0.000014   0.000000   0.000000
    12  O   -0.000002  -0.002532   0.000407   0.000029  -0.000064  -0.000003
    13  O    0.000055  -0.000007   0.000001  -0.000005   0.000000   0.000000
    14  C    0.004032   0.226508  -0.078831  -0.026660   0.012727  -0.001963
    15  H   -0.000028  -0.042187  -0.004012   0.004731   0.002906   0.000890
    16  C   -0.036428   0.022920  -0.000727   0.005067   0.000092  -0.000018
    17  H    0.006555   0.000088   0.000007   0.000040   0.000000   0.000000
    18  C   -0.004277  -0.015893   0.000749   0.000620  -0.000145   0.000130
    19  H    0.000138  -0.000516   0.000024  -0.000048  -0.000007   0.000001
    20  C    0.000721   0.005027   0.011228  -0.006744  -0.003289  -0.000133
    21  H   -0.000090  -0.002436  -0.000335   0.000428   0.001140  -0.000040
    22  C    0.405349  -0.013419   0.000269  -0.004191   0.000003   0.000011
    23  H   -0.025269   0.000187   0.000007   0.000042   0.000000   0.000000
    24  H   -0.020473   0.000303   0.000000  -0.000083  -0.000001   0.000000
    25  H    0.561946  -0.001174   0.000193   0.006444  -0.000013  -0.000003
    26  C   -0.001174   4.904838   0.450461   0.385260  -0.051611   0.000994
    27  H    0.000193   0.450461   0.522429  -0.027204  -0.010295   0.002478
    28  H    0.006444   0.385260  -0.027204   0.550969   0.006745   0.001222
    29  C   -0.000013  -0.051611  -0.010295   0.006745   4.489785   0.338857
    30  C   -0.000003   0.000994   0.002478   0.001222   0.338857   4.990834
    31  H    0.000002  -0.000414  -0.000057  -0.000079  -0.017137   0.385094
    32  H    0.000000  -0.000221  -0.000003  -0.000022  -0.048361   0.418415
    33  H    0.000002   0.000369  -0.000288  -0.000214  -0.022952   0.386728
    34  O   -0.000016   0.000023   0.016637   0.003277   0.617075  -0.069639
    35  O   -0.000354   0.216894  -0.033977  -0.027082   0.320987  -0.080985
              31         32         33         34         35
     1  C    0.000000   0.000000   0.000000   0.000002   0.000005
     2  C    0.000000   0.000000   0.000001  -0.000085   0.000243
     3  C   -0.000011   0.000003   0.000009   0.000157   0.001369
     4  C   -0.000001   0.000000  -0.000001   0.000300   0.000041
     5  H    0.000000   0.000000   0.000000   0.000001  -0.000005
     6  H   -0.000001   0.000000   0.000000  -0.000126   0.000365
     7  C    0.000000   0.000000   0.000000   0.000000   0.000000
     8  H    0.000000   0.000000   0.000000   0.000000   0.000000
     9  H    0.000000   0.000000   0.000000   0.000000   0.000000
    10  H    0.000000   0.000000   0.000000   0.000000   0.000000
    11  N    0.000000   0.000000   0.000000   0.000000   0.000006
    12  O    0.000000   0.000000   0.000000  -0.000030   0.000025
    13  O    0.000000   0.000000   0.000000   0.000000   0.000000
    14  C    0.000367  -0.000024   0.000232  -0.014785  -0.045360
    15  H   -0.000213  -0.000020  -0.000008   0.010727  -0.005264
    16  C    0.000002   0.000000   0.000000   0.000006  -0.001157
    17  H    0.000000   0.000000   0.000000   0.000000  -0.000001
    18  C    0.000039   0.000002  -0.000022  -0.000226   0.005918
    19  H   -0.000001   0.000000   0.000000  -0.000001   0.000049
    20  C   -0.000051   0.000057  -0.000043   0.001273   0.009758
    21  H    0.000337  -0.000019  -0.000011   0.000069  -0.001791
    22  C   -0.000003   0.000000   0.000000   0.000009   0.000532
    23  H    0.000000   0.000000   0.000000   0.000000  -0.000001
    24  H    0.000000   0.000000   0.000000   0.000000  -0.000008
    25  H    0.000002   0.000000   0.000002  -0.000016  -0.000354
    26  C   -0.000414  -0.000221   0.000369   0.000023   0.216894
    27  H   -0.000057  -0.000003  -0.000288   0.016637  -0.033977
    28  H   -0.000079  -0.000022  -0.000214   0.003277  -0.027082
    29  C   -0.017137  -0.048361  -0.022952   0.617075   0.320987
    30  C    0.385094   0.418415   0.386728  -0.069639  -0.080985
    31  H    0.515708  -0.015979  -0.019814   0.000895   0.001293
    32  H   -0.015979   0.504495  -0.016917   0.005812   0.005207
    33  H   -0.019814  -0.016917   0.517644   0.001772   0.004291
    34  O    0.000895   0.005812   0.001772   7.902162  -0.092280
    35  O    0.001293   0.005207   0.004291  -0.092280   8.005527
 Mulliken charges:
               1
     1  C    0.184277
     2  C   -0.019794
     3  C   -0.012373
     4  C    0.185754
     5  H    0.113482
     6  H    0.118600
     7  C   -0.293072
     8  H    0.166736
     9  H    0.153629
    10  H    0.151405
    11  N   -0.083902
    12  O   -0.370678
    13  O   -0.371889
    14  C    0.038232
    15  H    0.135528
    16  C    0.086335
    17  H    0.104718
    18  C   -0.255774
    19  H    0.140541
    20  C   -0.241841
    21  H    0.136718
    22  C   -0.398158
    23  H    0.136191
    24  H    0.134075
    25  H    0.107222
    26  C   -0.093664
    27  H    0.141399
    28  H    0.135489
    29  C    0.363992
    30  C   -0.372740
    31  H    0.150021
    32  H    0.147575
    33  H    0.149221
    34  O   -0.383009
    35  O   -0.284247
 Sum of Mulliken charges =   0.00000
 Mulliken charges with hydrogens summed into heavy atoms:
               1
     1  C    0.184277
     2  C    0.093687
     3  C    0.106227
     4  C    0.185754
     7  C    0.178698
    11  N   -0.083902
    12  O   -0.370678
    13  O   -0.371889
    14  C    0.173760
    16  C    0.191053
    18  C   -0.115232
    20  C   -0.105123
    22  C   -0.020670
    26  C    0.183224
    29  C    0.363992
    30  C    0.074077
    34  O   -0.383009
    35  O   -0.284247
 Electronic spatial extent (au):  <R**2>=           5078.6091
 Charge=              0.0000 electrons
 Dipole moment (field-independent basis, Debye):
    X=              1.0541    Y=              3.2244    Z=              0.0490  Tot=              3.3927
 Quadrupole moment (field-independent basis, Debye-Ang):
   XX=           -107.8064   YY=           -115.9896   ZZ=            -99.3377
   XY=             14.2263   XZ=              4.8858   YZ=             -2.0148
 Traceless Quadrupole moment (field-independent basis, Debye-Ang):
   XX=             -0.0952   YY=             -8.2783   ZZ=              8.3735
   XY=             14.2263   XZ=              4.8858   YZ=             -2.0148
 Octapole moment (field-independent basis, Debye-Ang**2):
  XXX=            105.5068  YYY=             32.0913  ZZZ=             -3.4485  XYY=            -25.6022
  XXY=            -28.0572  XXZ=             26.9746  XZZ=              1.2384  YZZ=             -0.7166
  YYZ=              5.9357  XYZ=             -6.8311
 Hexadecapole moment (field-independent basis, Debye-Ang**3):
 XXXX=          -4402.4209 YYYY=          -1643.2580 ZZZZ=           -417.1527 XXXY=            288.5587
 XXXZ=             70.8220 YYYX=             27.1254 YYYZ=              0.6959 ZZZX=              4.0394
 ZZZY=              9.0876 XXYY=          -1057.3102 XXZZ=           -796.9716 YYZZ=           -323.5708
 XXYZ=            -45.7439 YYXZ=              1.5417 ZZXY=              2.6139
 N-N= 1.389250712314D+03 E-N=-4.789407808452D+03  KE= 8.574149145651D+02
   1 Symmetry operations used in ECPInt.
 ECPInt:  NShTT=   35511 NPrTT=  107400 LenC2=   31814 LenP2D=   70193.
 LDataN:  DoStor=T MaxTD1= 7 Len=  274
 D1PCM: PCM CHGder 1st derivatives, ID1Alg=3 FixD1E=F DoIter=F DoCFld=F I1PDM=0.
 Calling FoFJK, ICntrl=      2127 FMM=F ISym2X=0 I1Cent= 0 IOpClX= 0 NMat=1 NMatS=1 NMatT=0.
 ***** Axes restored to original set *****
 -------------------------------------------------------------------
 Center     Atomic                   Forces (Hartrees/Bohr)
 Number     Number              X              Y              Z
 -------------------------------------------------------------------
      1        6          -0.000393095    0.000188905    0.000063062
      2        6           0.000057782   -0.000028076    0.000013827
      3        6          -0.000013896    0.000055173    0.000028015
      4        6          -0.000003305   -0.000253331    0.000042610
      5        1          -0.000015384    0.000013810    0.000018521
      6        1           0.000008513   -0.000003383    0.000006978
      7        6           0.000024225    0.000033196   -0.000026229
      8        1           0.000043987   -0.000006465   -0.000009763
      9        1          -0.000003992    0.000018436   -0.000000132
     10        1          -0.000008140    0.000002725    0.000001251
     11        7           0.000097226   -0.000022758   -0.000030884
     12        8          -0.000047826    0.000209732   -0.000014526
     13        8           0.000321437   -0.000140986    0.000005259
     14        6          -0.000006633    0.000022046   -0.000063634
     15        1           0.000013362   -0.000031143   -0.000027806
     16        6          -0.000012114   -0.000012686   -0.000034535
     17        1          -0.000038723   -0.000018011   -0.000014837
     18        6           0.000053516   -0.000109674    0.000014517
     19        1           0.000003897    0.000004247   -0.000003245
     20        6          -0.000029610    0.000094336   -0.000030140
     21        1          -0.000001116   -0.000017008   -0.000005821
     22        6          -0.000009510    0.000018777    0.000015109
     23        1           0.000002354    0.000002925    0.000014866
     24        1           0.000001659    0.000004190    0.000002849
     25        1          -0.000006155   -0.000010493    0.000009097
     26        6           0.000159193   -0.000142150    0.000089118
     27        1           0.000001003   -0.000029757    0.000020198
     28        1          -0.000012158    0.000045290    0.000003517
     29        6          -0.000339537   -0.000498853   -0.000359339
     30        6           0.000043765    0.000053583    0.000075394
     31        1           0.000012304    0.000004800   -0.000013858
     32        1          -0.000013948   -0.000022442   -0.000033162
     33        1          -0.000031396    0.000002596   -0.000016804
     34        8           0.000143893    0.000310731    0.000167955
     35        8          -0.000001580    0.000261720    0.000092571
 -------------------------------------------------------------------
 Cartesian Forces:  Max     0.000498853 RMS     0.000110368

 GradGradGradGradGradGradGradGradGradGradGradGradGradGradGradGradGradGrad
 Berny optimization.
 FormGI is forming the generalized inverse of G from B-inverse, IUseBI=4.
 GSVD:  received Info=                   1 from GESDD.
 Internal  Forces:  Max     0.000418107 RMS     0.000056585
 Search for a local minimum.
 Step number   1 out of a maximum of  210
[...]
    17  H   -0.009270  -0.066059   0.003577   0.000892   0.003983  -0.000498
    18  C    0.008775   0.050234  -0.035224  -0.002244   0.003257   0.002164
    19  H    0.000117   0.008377  -0.001122   0.000077  -0.000261   0.000076
    20  C   -0.004135  -0.052940   0.055485   0.009305   0.002473   0.003232
    21  H    0.000033  -0.001388   0.006144   0.000076   0.000065  -0.000285
    22  C   -0.003648   0.022604  -0.022480   0.000721  -0.010346   0.001103
    23  H   -0.000526  -0.005132   0.002609  -0.000146   0.001833  -0.000131
    24  H    0.000023   0.009017   0.000027  -0.000013   0.000594   0.000001
    25  H    0.000634   0.001647  -0.006621   0.000342  -0.000514  -0.000071
    26  C    0.000709  -0.022337   0.041772  -0.005421   0.000800  -0.003776
    27  H   -0.000155   0.001347   0.004865   0.000343  -0.000039   0.002938
    28  H    0.000809  -0.005340  -0.003152   0.000409  -0.000142  -0.000503
    29  C    0.000012  -0.000080  -0.000286  -0.000018  -0.000001  -0.000049
    30  C    0.000000  -0.000001  -0.000140   0.000013   0.000000  -0.000001
    31  H    0.000000   0.000000  -0.000011  -0.000001   0.000000  -0.000001
    32  H    0.000000   0.000000   0.000003   0.000000   0.000000   0.000000
    33  H    0.000000   0.000001   0.000009  -0.000001   0.000000   0.000000
    34  O    0.000002  -0.000087   0.000157   0.000304   0.000001  -0.000130
    35  O    0.000005   0.000241   0.001353   0.000044  -0.000005   0.000370
               7          8          9         10         11         12
     1  C   -0.049445   0.007809  -0.006285  -0.007161   0.358978   0.000613
     2  C    0.010456  -0.000874  -0.000806   0.000382  -0.106517   0.008380
     3  C    0.004166   0.005453   0.000136  -0.000851  -0.136641  -0.121045
     4  C   -0.054682  -0.017922   0.005311   0.003375   0.401117   0.690701
     5  H   -0.000231   0.000024  -0.000068   0.000102   0.004131  -0.000146
     6  H   -0.000078  -0.000136  -0.000030   0.000111   0.002510   0.004087
     7  C    4.893588   0.407095   0.411218   0.410358   0.260178  -0.010905
     8  H    0.407095   0.486560  -0.019229  -0.020782  -0.032884   0.017531
     9  H    0.411218  -0.019229   0.516197  -0.027246  -0.037142   0.000488
    10  H    0.410358  -0.020782  -0.027246   0.520177  -0.031492   0.000357
    11  N    0.260178  -0.032884  -0.037142  -0.031492   6.608063  -0.099199
    12  O   -0.010905   0.017531   0.000488   0.000357  -0.099199   7.859231
    13  O    0.011008   0.000810   0.003242   0.001559  -0.113010  -0.000163
    14  C    0.000166   0.000033   0.000140  -0.000098   0.002137   0.001939
    15  H   -0.000008  -0.000088   0.000010  -0.000005   0.002734   0.019355
    16  C    0.000525   0.000014   0.000492  -0.000195  -0.006469  -0.000193
    17  H   -0.000238   0.000001   0.000035  -0.000028   0.002469   0.000029
    18  C   -0.000270  -0.000013  -0.000211   0.000051   0.007263  -0.000052
    19  H   -0.000003   0.000000  -0.000007   0.000000   0.000110  -0.000001
    20  C    0.000093  -0.000107   0.000082  -0.000001   0.000142   0.001905
    21  H   -0.000001  -0.000001   0.000003   0.000000   0.000033  -0.000182
    22  C    0.000041  -0.000001   0.000005   0.000000  -0.001285   0.000015
    23  H   -0.000003   0.000000   0.000000   0.000000   0.000068   0.000000
    24  H   -0.000001   0.000000   0.000000   0.000000   0.000022   0.000000
    25  H    0.000000   0.000000   0.000000   0.000000   0.000011  -0.000002
    26  C    0.000023   0.000018   0.000002  -0.000001  -0.001425  -0.002559
    27  H   -0.000002  -0.000001   0.000000   0.000000   0.000057   0.000418
    28  H    0.000003   0.000000   0.000000   0.000000   0.000014   0.000030
    29  C    0.000000   0.000000   0.000000   0.000000   0.000000  -0.000065
    30  C    0.000000   0.000000   0.000000   0.000000   0.000000  -0.000003
    31  H    0.000000   0.000000   0.000000   0.000000   0.000000   0.000000
    32  H    0.000000   0.000000   0.000000   0.000000   0.000000   0.000000
    33  H    0.000000   0.000000   0.000000   0.000000   0.000000   0.000000
    34  O    0.000000   0.000000   0.000000   0.000000   0.000000  -0.000031
    35  O    0.000000   0.000000   0.000000   0.000000   0.000006   0.000025
              13         14         15         16         17         18
     1  C    0.699553  -0.006674   0.000360   0.018656  -0.009270   0.008775
     2  C   -0.114665   0.075214   0.004132   0.153403  -0.066059   0.050234
     3  C    0.006992   0.138412  -0.053297   0.058255   0.003577  -0.035224
     4  C    0.001683   0.012898  -0.009843  -0.007880   0.000892  -0.002244
     5  H    0.005431  -0.005132  -0.000478  -0.030904   0.003983   0.003257
     6  H   -0.000040  -0.036473   0.001999  -0.002176  -0.000498   0.002164
     7  C    0.011008   0.000166  -0.000008   0.000525  -0.000238  -0.000270
     8  H    0.000810   0.000033  -0.000088   0.000014   0.000001  -0.000013
     9  H    0.003242   0.000140   0.000010   0.000492   0.000035  -0.000211
    10  H    0.001559  -0.000098  -0.000005  -0.000195  -0.000028   0.000051
    11  N   -0.113010   0.002137   0.002734  -0.006469   0.002469   0.007263
    12  O   -0.000163   0.001939   0.019355  -0.000193   0.000029  -0.000052
    13  O    7.855067  -0.000436   0.000017  -0.001330   0.016623   0.001186
    14  C   -0.000436   5.140155   0.454813  -0.007568  -0.001940  -0.008378
    15  H    0.000017   0.454813   0.527849  -0.001306  -0.000020   0.008465
    16  C   -0.001330  -0.007568  -0.001306   4.995352   0.461686   0.204124
    17  H    0.016623  -0.001940  -0.000020   0.461686   0.580929  -0.055758
    18  C    0.001186  -0.008378   0.008465   0.204124  -0.055758   5.196312
    19  H   -0.000160   0.008526  -0.000063  -0.051553  -0.007067   0.441520
    20  C    0.000602   0.144605  -0.052346   0.001029   0.012094   0.503685
    21  H    0.000003  -0.045331  -0.005516   0.008440  -0.000072  -0.048985
    22  C   -0.003030   0.019682   0.000169   0.225221  -0.046002  -0.018303
    23  H    0.000618  -0.000672   0.000000  -0.047683  -0.003413   0.008676
    24  H    0.000058  -0.000009  -0.000005  -0.045184  -0.003423   0.001777
    25  H    0.000053   0.004107  -0.000028  -0.036366   0.006556  -0.004311
    26  C   -0.000007   0.225914  -0.042137   0.022994   0.000089  -0.016095
    27  H    0.000001  -0.078827  -0.003997  -0.000736   0.000007   0.000774
    28  H   -0.000005  -0.026904   0.004718   0.005178   0.000040   0.000451
    29  C    0.000000   0.012779   0.002913   0.000094   0.000000  -0.000154
    30  C    0.000000  -0.001968   0.000887  -0.000018   0.000000   0.000128
    31  H    0.000000   0.000370  -0.000213   0.000002   0.000000   0.000038
    32  H    0.000000  -0.000025  -0.000019   0.000000   0.000000   0.000002
    33  H    0.000000   0.000233  -0.000007   0.000000   0.000000  -0.000021
    34  O    0.000000  -0.014795   0.010716   0.000007   0.000000  -0.000229
    35  O    0.000000  -0.045259  -0.005289  -0.001160  -0.000001   0.005962
              19         20         21         22         23         24
     1  C    0.000117  -0.004135   0.000033  -0.003648  -0.000526   0.000023
     2  C    0.008377  -0.052940  -0.001388   0.022604  -0.005132   0.009017
     3  C   -0.001122   0.055485   0.006144  -0.022480   0.002609   0.000027
     4  C    0.000077   0.009305   0.000076   0.000721  -0.000146  -0.000013
     5  H   -0.000261   0.002473   0.000065  -0.010346   0.001833   0.000594
     6  H    0.000076   0.003232  -0.000285   0.001103  -0.000131   0.000001
     7  C   -0.000003   0.000093  -0.000001   0.000041  -0.000003  -0.000001
     8  H    0.000000  -0.000107  -0.000001  -0.000001   0.000000   0.000000
     9  H   -0.000007   0.000082   0.000003   0.000005   0.000000   0.000000
    10  H    0.000000  -0.000001   0.000000   0.000000   0.000000   0.000000
    11  N    0.000110   0.000142   0.000033  -0.001285   0.000068   0.000022
    12  O   -0.000001   0.001905  -0.000182   0.000015   0.000000   0.000000
    13  O   -0.000160   0.000602   0.000003  -0.003030   0.000618   0.000058
    14  C    0.008526   0.144605  -0.045331   0.019682  -0.000672  -0.000009
    15  H   -0.000063  -0.052346  -0.005516   0.000169   0.000000  -0.000005
    16  C   -0.051553   0.001029   0.008440   0.225221  -0.047683  -0.045184
    17  H   -0.007067   0.012094  -0.000072  -0.046002  -0.003413  -0.003423
    18  C    0.441520   0.503685  -0.048985  -0.018303   0.008676   0.001777
    19  H    0.519964  -0.049791  -0.010303   0.000039  -0.000258   0.001692
    20  C   -0.049791   5.228015   0.438414  -0.017468   0.000595  -0.000416
    21  H   -0.010303   0.438414   0.525461  -0.000482   0.000030  -0.000095
    22  C    0.000039  -0.017468  -0.000482   5.032586   0.419081   0.411460
    23  H   -0.000258   0.000595   0.000030   0.419081   0.532497  -0.019041
    24  H    0.001692  -0.000416  -0.000095   0.411460  -0.019041   0.529663
    25  H    0.000134   0.000717  -0.000090   0.405286  -0.025291  -0.020474
    26  C   -0.000516   0.005180  -0.002459  -0.013539   0.000191   0.000310
    27  H    0.000024   0.011161  -0.000336   0.000269   0.000007   0.000000
    28  H   -0.000050  -0.006438   0.000437  -0.004156   0.000042  -0.000085
    29  C   -0.000007  -0.003280   0.001146   0.000003   0.000000  -0.000001
    30  C    0.000001  -0.000131  -0.000038   0.000011   0.000000   0.000000
    31  H   -0.000001  -0.000054   0.000340  -0.000003   0.000000   0.000000
    32  H    0.000000   0.000056  -0.000019   0.000000   0.000000   0.000000
    33  H    0.000000  -0.000043  -0.000011   0.000000   0.000000   0.000000
    34  O   -0.000001   0.001287   0.000068   0.000009   0.000000   0.000000
    35  O    0.000049   0.009672  -0.001774   0.000539  -0.000001  -0.000008
              25         26         27         28         29         30
     1  C    0.000634   0.000709  -0.000155   0.000809   0.000012   0.000000
     2  C    0.001647  -0.022337   0.001347  -0.005340  -0.000080  -0.000001
     3  C   -0.006621   0.041772   0.004865  -0.003152  -0.000286  -0.000140
     4  C    0.000342  -0.005421   0.000343   0.000409  -0.000018   0.000013
     5  H   -0.000514   0.000800  -0.000039  -0.000142  -0.000001   0.000000
     6  H   -0.000071  -0.003776   0.002938  -0.000503  -0.000049  -0.000001
     7  C    0.000000   0.000023  -0.000002   0.000003   0.000000   0.000000
     8  H    0.000000   0.000018  -0.000001   0.000000   0.000000   0.000000
     9  H    0.000000   0.000002   0.000000   0.000000   0.000000   0.000000
    10  H    0.000000  -0.000001   0.000000   0.000000   0.000000   0.000000
    11  N    0.000011  -0.001425   0.000057   0.000014   0.000000   0.000000
    12  O   -0.000002  -0.002559   0.000418   0.000030  -0.000065  -0.000003
    13  O    0.000053  -0.000007   0.000001  -0.000005   0.000000   0.000000
    14  C    0.004107   0.225914  -0.078827  -0.026904   0.012779  -0.001968
    15  H   -0.000028  -0.042137  -0.003997   0.004718   0.002913   0.000887
    16  C   -0.036366   0.022994  -0.000736   0.005178   0.000094  -0.000018
    17  H    0.006556   0.000089   0.000007   0.000040   0.000000   0.000000
    18  C   -0.004311  -0.016095   0.000774   0.000451  -0.000154   0.000128
    19  H    0.000134  -0.000516   0.000024  -0.000050  -0.000007   0.000001
    20  C    0.000717   0.005180   0.011161  -0.006438  -0.003280  -0.000131
    21  H   -0.000090  -0.002459  -0.000336   0.000437   0.001146  -0.000038
    22  C    0.405286  -0.013539   0.000269  -0.004156   0.000003   0.000011
    23  H   -0.025291   0.000191   0.000007   0.000042   0.000000   0.000000
    24  H   -0.020474   0.000310   0.000000  -0.000085  -0.000001   0.000000
    25  H    0.562058  -0.001228   0.000190   0.006506  -0.000012  -0.000003
    26  C   -0.001228   4.905832   0.450607   0.385088  -0.051747   0.000961
    27  H    0.000190   0.450607   0.522260  -0.027146  -0.010342   0.002486
    28  H    0.006506   0.385088  -0.027146   0.550805   0.006744   0.001224
    29  C   -0.000012  -0.051747  -0.010342   0.006744   4.490179   0.338877
    30  C   -0.000003   0.000961   0.002486   0.001224   0.338877   4.990879
    31  H    0.000002  -0.000415  -0.000057  -0.000078  -0.017065   0.385056
    32  H    0.000000  -0.000220  -0.000003  -0.000022  -0.048372   0.418402
    33  H    0.000002   0.000375  -0.000289  -0.000214  -0.023054   0.386803
    34  O   -0.000016  -0.000096   0.016650   0.003286   0.617107  -0.069615
    35  O   -0.000362   0.216732  -0.033981  -0.026963   0.320864  -0.081053
              31         32         33         34         35
     1  C    0.000000   0.000000   0.000000   0.000002   0.000005
     2  C    0.000000   0.000000   0.000001  -0.000087   0.000241
     3  C   -0.000011   0.000003   0.000009   0.000157   0.001353
     4  C   -0.000001   0.000000  -0.000001   0.000304   0.000044
     5  H    0.000000   0.000000   0.000000   0.000001  -0.000005
     6  H   -0.000001   0.000000   0.000000  -0.000130   0.000370
     7  C    0.000000   0.000000   0.000000   0.000000   0.000000
     8  H    0.000000   0.000000   0.000000   0.000000   0.000000
     9  H    0.000000   0.000000   0.000000   0.000000   0.000000
    10  H    0.000000   0.000000   0.000000   0.000000   0.000000
    11  N    0.000000   0.000000   0.000000   0.000000   0.000006
    12  O    0.000000   0.000000   0.000000  -0.000031   0.000025
    13  O    0.000000   0.000000   0.000000   0.000000   0.000000
    14  C    0.000370  -0.000025   0.000233  -0.014795  -0.045259
    15  H   -0.000213  -0.000019  -0.000007   0.010716  -0.005289
    16  C    0.000002   0.000000   0.000000   0.000007  -0.001160
    17  H    0.000000   0.000000   0.000000   0.000000  -0.000001
    18  C    0.000038   0.000002  -0.000021  -0.000229   0.005962
    19  H   -0.000001   0.000000   0.000000  -0.000001   0.000049
    20  C   -0.000054   0.000056  -0.000043   0.001287   0.009672
    21  H    0.000340  -0.000019  -0.000011   0.000068  -0.001774
    22  C   -0.000003   0.000000   0.000000   0.000009   0.000539
    23  H    0.000000   0.000000   0.000000   0.000000  -0.000001
    24  H    0.000000   0.000000   0.000000   0.000000  -0.000008
    25  H    0.000002   0.000000   0.000002  -0.000016  -0.000362
    26  C   -0.000415  -0.000220   0.000375  -0.000096   0.216732
    27  H   -0.000057  -0.000003  -0.000289   0.016650  -0.033981
    28  H   -0.000078  -0.000022  -0.000214   0.003286  -0.026963
    29  C   -0.017065  -0.048372  -0.023054   0.617107   0.320864
    30  C    0.385056   0.418402   0.386803  -0.069615  -0.081053
    31  H    0.515681  -0.015968  -0.019807   0.000892   0.001280
    32  H   -0.015968   0.504563  -0.016926   0.005811   0.005210
    33  H   -0.019807  -0.016926   0.517691   0.001777   0.004314
    34  O    0.000892   0.005811   0.001777   7.901601  -0.092137
    35  O    0.001280   0.005210   0.004314  -0.092137   8.005658
 Mulliken charges:
               1
     1  C    0.184049
     2  C   -0.018567
     3  C   -0.012679
     4  C    0.185786
     5  H    0.113407
     6  H    0.118329
     7  C   -0.293051
     8  H    0.166690
     9  H    0.153662
    10  H    0.151387
    11  N   -0.083979
    12  O   -0.370560
    13  O   -0.371661
    14  C    0.038365
    15  H    0.135527
    16  C    0.085250
    17  H    0.104777
    18  C   -0.254594
    19  H    0.140456
    20  C   -0.242679
    21  H    0.136679
    22  C   -0.398101
    23  H    0.136051
    24  H    0.134112
    25  H    0.107144
    26  C   -0.093617
    27  H    0.141507
    28  H    0.135414
    29  C    0.363813
    30  C   -0.372759
    31  H    0.150013
    32  H    0.147528
    33  H    0.149169
    34  O   -0.382537
    35  O   -0.284331
 Sum of Mulliken charges =   0.00000
 Mulliken charges with hydrogens summed into heavy atoms:
               1
     1  C    0.184049
     2  C    0.094840
     3  C    0.105651
     4  C    0.185786
     7  C    0.178688
    11  N   -0.083979
    12  O   -0.370560
    13  O   -0.371661
    14  C    0.173892
    16  C    0.190026
    18  C   -0.114138
    20  C   -0.106001
    22  C   -0.020793
    26  C    0.183304
    29  C    0.363813
    30  C    0.073952
    34  O   -0.382537
    35  O   -0.284331
 Electronic spatial extent (au):  <R**2>=           5076.1505
 Charge=              0.0000 electrons
 Dipole moment (field-independent basis, Debye):
    X=              1.0492    Y=              3.2241    Z=              0.0399  Tot=              3.3907
 Quadrupole moment (field-independent basis, Debye-Ang):
   XX=           -107.8022   YY=           -115.9665   ZZ=            -99.3205
   XY=             14.1920   XZ=              4.9798   YZ=             -2.1137
 Traceless Quadrupole moment (field-independent basis, Debye-Ang):
   XX=             -0.1058   YY=             -8.2701   ZZ=              8.3759
   XY=             14.1920   XZ=              4.9798   YZ=             -2.1137
 Octapole moment (field-independent basis, Debye-Ang**2):
  XXX=            105.5210  YYY=             32.0704  ZZZ=             -3.4259  XYY=            -25.7393
  XXY=            -28.0453  XXZ=             26.4528  XZZ=              1.2618  YZZ=             -0.7708
  YYZ=              6.1136  XYZ=             -6.5747
 Hexadecapole moment (field-independent basis, Debye-Ang**3):
 XXXX=          -4398.5593 YYYY=          -1645.5478 ZZZZ=           -417.2756 XXXY=            287.0120
 XXXZ=             72.8684 YYYX=             27.2696 YYYZ=              0.2198 ZZZX=              3.9937
 ZZZY=              9.1503 XXYY=          -1056.1370 XXZZ=           -795.7938 YYZZ=           -323.9467
 XXYZ=            -46.1369 YYXZ=              1.3286 ZZXY=              2.5809
 N-N= 1.389380660083D+03 E-N=-4.789672618385D+03  KE= 8.574183662152D+02
 1\1\GINC-D10S8B2\FOpt\RwB97XD\def2TZVP\C13H17N1O4\PMMASS\23-Feb-2022\0
 \\#n wB97XD/Def2TZVP scrf(smd,solvent=toluene) opt\\diels-alder produc
 t in toluene - opt\\0,1\C,-2.8749495132,0.2066890667,-0.1990908563\C,-
 1.5647866259,0.8211564667,-0.6669872955\C,-0.5859930488,-0.3684437444,
 -0.7113913393\C,-1.3859882826,-1.5461967816,-0.1732923258\H,-1.7547427
 28,1.1972062664,-1.6736983032\H,-0.3643657478,-0.6284299383,-1.7499145
 686\C,-3.7367636478,-2.0048448355,0.5161418492\H,-3.3078125061,-2.9886
 353084,0.6900612962\H,-4.1587291296,-1.6156987483,1.4420486762\H,-4.52
 78831847,-2.0744759727,-0.2302159301\N,-2.6834209435,-1.1344076239,0.0
 469227554\O,-0.9802373067,-2.6628036704,0.0197527766\O,-3.9280973282,0
 .7742681843,-0.052768893\C,0.7413301347,-0.2337317895,0.0518085102\H,1
 .0428058835,-1.2398778437,0.3503691158\C,-1.1932275502,2.0209448365,0.
 2331287943\H,-2.1260837926,2.3900732835,0.664971114\C,-0.2796963687,1.
 620370412,1.3557040855\H,-0.3235985907,2.2225056418,2.2571957603\C,0.5
 902552919,0.6231112241,1.2767718826\H,1.2475012157,0.4136750364,2.1123
 523178\C,-0.6017577476,3.1839618432,-0.5689546713\H,-1.3261759543,3.55
 47180041,-1.2970937324\H,-0.3367917633,4.0104662399,0.0930680198\H,0.3
 017351304,2.8886221931,-1.1044254967\C,1.8314289894,0.2857979336,-0.88
 7125605\H,1.9840614407,-0.4186287138,-1.7054893637\H,1.5683932772,1.26
 07065661,-1.2936493542\C,3.9044389667,-0.5460404372,-0.0940074406\C,5.
 1317519716,-0.1672908001,0.6777828284\H,4.8570436805,0.0544382311,1.71
 07384863\H,5.8465346781,-0.985622131,0.6604395207\H,5.5808470569,0.732
 3646303,0.2565034835\O,3.6817681515,-1.6317996826,-0.5589105078\O,3.06
 66458913,0.4963719616,-0.2020555892\\Version=ES64L-G09RevD.01\State=1-
 A\HF=-861.3924299\RMSD=8.555e-09\RMSF=1.243e-05\Dipole=0.4136307,1.268
 1565,0.0169944\Quadrupole=-0.063187,-6.1588393,6.2220263,10.5429945,3.
 7145249,-1.5900919\PG=C01 [X(C13H17N1O4)]\\@


 "PERFECTION IS NOT AN ACCIDENT"
         --  EAGLE ELECTRIC MANUFACTURING CO.,INC. NY
 Job cpu time:       0 days 14 hours 56 minutes 59.8 seconds.
 File lengths (MBytes):  RWF=    378 Int=      0 D2E=      0 Chk=     32 Scr=      1
 Normal termination of Gaussian 09 at Wed Feb 23 18:45:38 2022.
