 Entering Gaussian System, Link 0=g09
 Input=prod_diels_freq.com
 Output=prod_diels_freq.log
 Initial command:
 /apps/applications/gaussian/G09.D01/2/default/g09/l1.exe "/nobackup/pmmass/Temp/Gau-258864.inp" -scrdir="/nobackup/pmmass/Temp/"
 Entering Link 1 = /apps/applications/gaussian/G09.D01/2/default/g09/l1.exe PID=    258866.
  
 Copyright (c) 1988,1990,1992,1993,1995,1998,2003,2009,2013,
            Gaussian, Inc.  All Rights Reserved.
  
 This is part of the Gaussian(R) 09 program.  It is based on
 the Gaussian(R) 03 system (copyright 2003, Gaussian, Inc.),
 the Gaussian(R) 98 system (copyright 1998, Gaussian, Inc.),
 the Gaussian(R) 94 system (copyright 1995, Gaussian, Inc.),
 the Gaussian 92(TM) system (copyright 1992, Gaussian, Inc.),
 the Gaussian 90(TM) system (copyright 1990, Gaussian, Inc.),
 the Gaussian 88(TM) system (copyright 1988, Gaussian, Inc.),
 the Gaussian 86(TM) system (copyright 1986, Carnegie Mellon
 University), and the Gaussian 82(TM) system (copyright 1983,
 Carnegie Mellon University). Gaussian is a federally registered
 trademark of Gaussian, Inc.
  
 This software contains proprietary and confidential information,
 including trade secrets, belonging to Gaussian, Inc.
  
 This software is provided under written license and may be
 used, copied, transmitted, or stored only in accord with that
 written license.
  
 The following legend is applicable only to US Government
 contracts under FAR:
  
                    RESTRICTED RIGHTS LEGEND
  
 Use, reproduction and disclosure by the US Government is
 subject to restrictions as set forth in subparagraphs (a)
 and (c) of the Commercial Computer Software - Restricted
 Rights clause in FAR 52.227-19.
  
 Gaussian, Inc.
 340 Quinnipiac St., Bldg. 40, Wallingford CT 06492
  
  
 ---------------------------------------------------------------
 Warning -- This program may not be used in any manner that
 competes with the business of Gaussian, Inc. or will provide
 assistance to any competitor of Gaussian, Inc.  The licensee
 of this program is prohibited from giving any competitor of
 Gaussian, Inc. access to this program.  By using this program,
 the user acknowledges that Gaussian, Inc. is engaged in the
 business of creating and licensing software in the field of
 computational chemistry and represents and warrants to the
 licensee that it is not a competitor of Gaussian, Inc. and that
 it will not use this program in any manner prohibited above.
 ---------------------------------------------------------------
  

 Cite this work as:
 Gaussian 09, Revision D.01,
 M. J. Frisch, G. W. Trucks, H. B. Schlegel, G. E. Scuseria, 
 M. A. Robb, J. R. Cheeseman, G. Scalmani, V. Barone, B. Mennucci, 
 G. A. Petersson, H. Nakatsuji, M. Caricato, X. Li, H. P. Hratchian, 
 A. F. Izmaylov, J. Bloino, G. Zheng, J. L. Sonnenberg, M. Hada, 
 M. Ehara, K. Toyota, R. Fukuda, J. Hasegawa, M. Ishida, T. Nakajima, 
 Y. Honda, O. Kitao, H. Nakai, T. Vreven, J. A. Montgomery, Jr., 
 J. E. Peralta, F. Ogliaro, M. Bearpark, J. J. Heyd, E. Brothers, 
 K. N. Kudin, V. N. Staroverov, T. Keith, R. Kobayashi, J. Normand, 
 K. Raghavachari, A. Rendell, J. C. Burant, S. S. Iyengar, J. Tomasi, 
 M. Cossi, N. Rega, J. M. Millam, M. Klene, J. E. Knox, J. B. Cross, 
 V. Bakken, C. Adamo, J. Jaramillo, R. Gomperts, R. E. Stratmann, 
 O. Yazyev, A. J. Austin, R. Cammi, C. Pomelli, J. W. Ochterski, 
 R. L. Martin, K. Morokuma, V. G. Zakrzewski, G. A. Voth, 
 P. Salvador, J. J. Dannenberg, S. Dapprich, A. D. Daniels, 
 O. Farkas, J. B. Foresman, J. V. Ortiz, J. Cioslowski, 
 and D. J. Fox, Gaussian, Inc., Wallingford CT, 2013.
 
 ******************************************
 Gaussian 09:  ES64L-G09RevD.01 24-Apr-2013
                24-Feb-2022 
 ******************************************
 %nprocshared=8
 Will use up to    8 processors via shared memory.
 %mem=4GB
 %NoSave
 %chk="prod_diels_freq.chk"
 -------------------------------------------------
 #n wB97XD/Def2TZVP scrf(smd,solvent=toluene) freq
 -------------------------------------------------
 1/10=4,30=1,38=1/1,3;
 2/12=2,17=6,18=5,40=1/2;
 3/5=44,7=101,11=2,16=1,25=1,30=1,70=32201,71=2,72=13,74=-58,140=1/1,2,3;
 4//1;
 5/5=2,38=5,53=13,98=1/2;
 8/6=4,10=90,11=11/1;
 11/6=1,8=1,9=11,15=111,16=1/1,2,10;
 10/6=1/2;
 6/7=2,8=2,9=2,10=2,18=1,28=1/1;
 7/8=1,10=1,25=1/1,2,3,16;
 1/10=4,30=1/3;
 99//99;
 -------------------------------
 diels product in toluene - freq
 -------------------------------
 Symbolic Z-matrix:
 Charge =  0 Multiplicity = 1
 C                    -2.875     0.2045   -0.20017 
 C                    -1.56513   0.8193   -0.66843 
 C                    -0.58555  -0.36972  -0.71129 
 C                    -1.38491  -1.54739  -0.17208 
 H                    -1.75509   1.19411  -1.67561 
 H                    -0.36351  -0.63071  -1.74947 
 C                    -3.73555  -2.0068    0.51731 
 H                    -3.306    -2.99012   0.69242 
 H                    -4.15799  -1.61691   1.44269 
 H                    -4.52645  -2.07778  -0.22915 
 N                    -2.68266  -1.1362    0.04738 
 O                    -0.97848  -2.66352   0.0223 
 O                    -3.92855   0.77155  -0.05472 
 C                     0.7415   -0.2333    0.05207 
 H                     1.04356  -1.23891   0.35182 
 C                    -1.19456   2.02032   0.23044 
 H                    -2.12776   2.38932   0.66165 
 C                    -0.28104   1.62159   1.35367 
 H                    -0.32554   2.22469   2.25449 
 C                     0.58958   0.62481   1.27605 
 H                     1.24677   0.41672   2.11202 
 C                    -0.60366   3.18283  -0.57279 
 H                    -1.32815   3.55231  -1.30151 
 H                    -0.33939   4.01024   0.08838 
 H                     0.30015   2.88749  -1.10772 
 C                     1.83148   0.2859   -0.88718 
 H                     1.98477  -0.41933  -1.70473 
 H                     1.56791   1.26019  -1.29485 
 C                     3.90485  -0.54371  -0.09266 
 C                     5.13173  -0.16331   0.679 
 H                     4.85664   0.05939   1.71165 
 H                     5.84705  -0.98119   0.66273 
 H                     5.58034   0.73618   0.25683 
 O                     3.68299  -1.63013  -0.55641 
 O                     3.0664    0.49804  -0.20206 
 

 GradGradGradGradGradGradGradGradGradGradGradGradGradGradGradGradGradGrad
 Berny optimization.
 Initialization pass.
 Trust Radius=3.00D-01 FncErr=1.00D-07 GrdErr=1.00D-07
 Number of steps in this run=      2 maximum allowed number of steps=      2.
 GradGradGradGradGradGradGradGradGradGradGradGradGradGradGradGradGradGrad

                          Input orientation:                          
 ---------------------------------------------------------------------
 Center     Atomic      Atomic             Coordinates (Angstroms)
 Number     Number       Type             X           Y           Z
 ---------------------------------------------------------------------
      1          6           0       -2.875000    0.204500   -0.200170
      2          6           0       -1.565130    0.819300   -0.668430
      3          6           0       -0.585550   -0.369720   -0.711290
      4          6           0       -1.384910   -1.547390   -0.172080
      5          1           0       -1.755090    1.194110   -1.675610
      6          1           0       -0.363510   -0.630710   -1.749470
      7          6           0       -3.735550   -2.006800    0.517310
      8          1           0       -3.306000   -2.990120    0.692420
      9          1           0       -4.157990   -1.616910    1.442690
     10          1           0       -4.526450   -2.077780   -0.229150
     11          7           0       -2.682660   -1.136200    0.047380
     12          8           0       -0.978480   -2.663520    0.022300
     13          8           0       -3.928550    0.771550   -0.054720
     14          6           0        0.741500   -0.233300    0.052070
     15          1           0        1.043560   -1.238910    0.351820
     16          6           0       -1.194560    2.020320    0.230440
     17          1           0       -2.127760    2.389320    0.661650
     18          6           0       -0.281040    1.621590    1.353670
     19          1           0       -0.325540    2.224690    2.254490
     20          6           0        0.589580    0.624810    1.276050
     21          1           0        1.246770    0.416720    2.112020
     22          6           0       -0.603660    3.182830   -0.572790
     23          1           0       -1.328150    3.552310   -1.301510
     24          1           0       -0.339390    4.010240    0.088380
     25          1           0        0.300150    2.887490   -1.107720
     26          6           0        1.831480    0.285900   -0.887180
     27          1           0        1.984770   -0.419330   -1.704730
     28          1           0        1.567910    1.260190   -1.294850
     29          6           0        3.904850   -0.543710   -0.092660
     30          6           0        5.131730   -0.163310    0.679000
     31          1           0        4.856640    0.059390    1.711650
     32          1           0        5.847050   -0.981190    0.662730
     33          1           0        5.580340    0.736180    0.256830
     34          8           0        3.682990   -1.630130   -0.556410
     35          8           0        3.066400    0.498040   -0.202060
 ---------------------------------------------------------------------
                    Distance matrix (angstroms):
                    1          2          3          4          5
     1  C    0.000000
     2  C    1.520857   0.000000
     3  C    2.415068   1.541163   0.000000
     4  C    2.300060   2.424884   1.522048   0.000000
     5  H    2.100107   1.091320   2.177912   3.148564   0.000000
     6  H    3.066837   2.171421   1.093268   2.090866   2.296066
     7  C    2.478946   3.755468   3.756593   2.492353   4.356254
     8  H    3.344858   4.403887   4.029609   2.553315   5.051799
     9  H    2.768138   4.137012   4.354014   3.209718   4.837309
    10  H    2.817256   4.165988   4.322108   3.186510   4.525257
    11  N    1.376863   2.363311   2.358165   1.378911   3.042930
    12  O    3.445551   3.598792   2.440096   1.203626   4.285712
    13  O    1.205267   2.442268   3.592942   3.444033   2.744043
    14  C    3.651625   2.635836   1.537007   2.509720   3.354898
    15  H    4.212272   3.475975   2.130656   2.503417   4.226405
    16  C    2.511276   1.545231   2.640083   3.595387   2.151707
    17  H    2.464658   2.133220   3.446111   4.092019   2.651451
    18  C    3.339340   2.526152   2.884805   3.686309   3.395895
    19  H    4.075079   3.472055   3.948977   4.608589   4.307133
    20  C    3.789354   2.908884   2.513870   3.273247   3.812332
    21  H    4.730777   3.974890   3.456438   4.000073   4.895063
    22  C    3.764078   2.553399   3.555295   4.811019   2.548923
    23  H    3.848834   2.815367   4.035113   5.223579   2.425559
    24  H    4.582165   3.501042   4.459161   5.661113   3.611988
    25  H    4.254840   2.819513   3.398682   4.835598   2.722875
    26  C    4.757054   3.445189   2.510540   3.770608   3.782850
    27  H    5.125449   3.899989   2.756071   3.869920   4.073155
    28  H    4.695983   3.225326   2.763067   4.226377   3.345396
    29  C    6.821858   5.666568   4.536151   5.384723   6.128676
    30  C    8.063247   6.901378   5.887512   6.716146   7.403720
    31  H    7.965825   6.890673   5.972621   6.714695   7.515058
    32  H    8.844468   7.743007   6.606071   7.301968   8.245744
    33  H    8.484357   7.205606   6.338649   7.342572   7.599510
    34  O    6.819091   5.792669   4.453432   5.083126   6.229097
    35  O    5.948647   4.666024   3.788015   4.898861   5.089463
                    6          7          8          9         10
     6  H    0.000000
     7  C    4.289822   0.000000
     8  H    4.493094   1.087242   0.000000
     9  H    5.055745   1.089403   1.781712   0.000000
    10  H    4.662130   1.089846   1.780773   1.772911   0.000000
    11  N    2.977020   1.444768   2.059526   2.086761   2.088685
    12  O    2.765804   2.877108   2.443988   3.636232   3.604776
    13  O    4.189036   2.843184   3.885350   2.828360   2.916606
    14  C    2.150472   4.837947   4.938862   5.277613   5.588603
    15  H    2.600995   4.843236   4.701214   5.328133   5.662706
    16  C    3.411546   4.770390   5.456749   4.845710   5.301617
    17  H    4.248136   4.683129   5.507047   4.558699   5.148031
    18  C    3.835249   5.079208   5.554773   5.052380   5.849287
    19  H    4.917972   5.705390   6.206243   5.486764   6.505948
    20  C    3.411522   5.119356   5.346390   5.252856   5.978577
    21  H    4.312913   5.765419   5.860848   5.813354   6.710714
    22  C    3.998166   6.158678   6.856290   6.303406   6.571179
    23  H    4.316116   6.325139   7.119764   6.500728   6.563307
    24  H    4.991662   6.922619   7.626971   6.934023   7.395694
    25  H    3.637309   6.548410   7.126789   6.831488   6.980105
    26  C    2.530158   6.182304   6.294533   6.702442   6.814929
    27  H    2.358199   6.338737   6.351971   7.005280   6.879228
    28  H    2.740906   6.487206   6.765307   6.968340   7.029864
    29  C    4.579463   7.803102   7.654909   8.277587   8.570812
    30  C    6.026076   9.058325   8.898670   9.433720   9.887890
    31  H    6.301234   8.917473   8.773086   9.173106   9.817157
    32  H    6.671776   9.638425   9.370966  10.055511  10.469358
    33  H    6.420513   9.714813   9.645833  10.088527  10.502464
    34  O    4.335481   7.505298   7.228771   8.091820   8.228146
    35  O    3.928465   7.284109   7.319483   7.705195   8.017915
                   11         12         13         14         15
    11  N    0.000000
    12  O    2.288573   0.000000
    13  O    2.280828   4.528637   0.000000
    14  C    3.541203   2.977446   4.778127   0.000000
    15  H    3.740047   2.495344   5.378578   1.091944   0.000000
    16  C    3.494506   4.693439   3.019179   2.976398   3.955565
    17  H    3.621399   5.221188   2.524522   3.934765   4.828801
    18  C    3.883243   4.541050   4.001307   2.486034   3.307677
    19  H    4.660787   5.413280   4.519485   3.468565   4.182238
    20  C    3.913865   3.852767   4.712322   1.502518   2.129261
    21  H    4.702629   4.336651   5.621797   2.218382   2.425017
    22  C    4.833309   5.888500   4.139754   3.724225   4.808328
    23  H    5.063233   6.364848   4.006144   4.521778   5.595918
    24  H    5.654948   6.704616   4.836493   4.379186   5.434660
    25  H    5.140184   5.807370   4.844369   3.358457   4.439605
    26  C    4.824234   4.173980   5.840102   1.529646   2.116834
    27  H    5.036735   4.098765   6.253645   2.160249   2.405615
    28  H    5.060792   4.859474   5.655773   2.174318   3.038415
    29  C    6.615583   5.324821   7.943142   3.181837   2.977893
    30  C    7.900009   6.634529   9.137887   4.435320   4.239941
    31  H    7.812828   6.657084   8.989260   4.446825   4.251388
    32  H    8.553282   7.058912   9.957368   5.196045   4.820436
    33  H    8.475072   7.391284   9.514058   4.939250   4.948977
    34  O    6.413270   4.809584   7.997206   3.312664   2.818603
    35  O    5.982027   5.138760   7.001846   2.450429   2.723171
                   16         17         18         19         20
    16  C    0.000000
    17  H    1.092230   0.000000
    18  C    1.501716   2.116288   0.000000
    19  H    2.212180   2.410859   1.084982   0.000000
    20  C    2.494775   3.297714   1.325735   2.086721   0.000000
    21  H    3.474474   4.169194   2.088303   2.400252   1.083534
    22  C    1.531591   2.115746   2.500560   2.998149   3.374240
    23  H    2.170647   2.417834   3.445882   3.925931   4.346465
    24  H    2.170548   2.480784   2.703703   2.807207   3.706033
    25  H    2.185592   3.045257   2.828202   3.483568   3.299371
    26  C    3.662541   4.743293   3.356817   4.275714   2.517288
    27  H    4.450271   5.513726   4.318919   5.291861   3.452801
    28  H    3.245851   4.331374   3.250213   4.136814   2.823183
    29  C    5.716872   6.750113   4.929713   5.573989   3.772244
    30  C    6.707562   7.695220   5.739262   6.161697   4.648519
    31  H    6.531175   7.437265   5.381856   5.642534   4.326344
    32  H    7.666825   8.657825   6.693680   7.135281   5.531400
    33  H    6.895577   7.893767   6.028498   6.409815   5.094988
    34  O    6.142916   7.169691   5.471346   6.231301   4.244037
    35  O    4.545346   5.594840   3.858499   4.530035   2.887130
                   21         22         23         24         25
    21  H    0.000000
    22  C    4.275940   0.000000
    23  H    5.302294   1.091986   0.000000
    24  H    4.418643   1.091601   1.766109   0.000000
    25  H    4.167436   1.090985   1.769435   1.760748   0.000000
    26  C    3.058464   3.797493   4.563372   4.419853   3.026860
    27  H    3.976330   4.577861   5.187673   5.313949   3.758913
    28  H    3.524392   2.988918   3.693375   3.621311   2.071313
    29  C    3.584471   5.868926   6.754479   6.227745   5.079108
    30  C    4.181255   6.757095   7.710921   6.906555   5.986979
    31  H    3.649540   6.692490   7.715650   6.726288   6.058762
    32  H    5.021670   7.776711   8.711737   7.969711   6.990656
    33  H    4.724787   6.701957   7.621433   6.766908   5.862639
    34  O    4.152744   6.445170   7.247371   6.957663   5.670665
    35  O    2.944933   4.562333   5.463463   4.900950   3.765877
                   26         27         28         29         30
    26  C    0.000000
    27  H    1.090521   0.000000
    28  H    1.088533   1.778359   0.000000
    29  C    2.370312   2.510169   3.187570   0.000000
    30  C    3.680538   3.956144   4.315466   1.498465   0.000000
    31  H    3.994598   4.488704   4.614836   2.127244   1.091621
    32  H    4.486930   4.564840   5.212192   2.129353   1.086681
    33  H    3.945309   4.255707   4.333808   2.137178   1.090211
    34  O    2.684896   2.380888   3.656885   1.201913   2.403465
    35  O    1.428083   2.066279   2.005127   1.341719   2.340777
                   31         32         33         34         35
    31  H    0.000000
    32  H    1.778750   0.000000
    33  H    1.760195   1.784727   0.000000
    34  O    3.062030   2.567213   3.140178   0.000000
    35  O    2.657002   3.266190   2.566551   2.243848   0.000000
 Stoichiometry    C13H17NO4
 Framework group  C1[X(C13H17NO4)]
 Deg. of freedom    99
 Full point group                 C1      NOp   1
 Largest Abelian subgroup         C1      NOp   1
 Largest concise Abelian subgroup C1      NOp   1
                         Standard orientation:                         
 ---------------------------------------------------------------------
 Center     Atomic      Atomic             Coordinates (Angstroms)
 Number     Number       Type             X           Y           Z
 ---------------------------------------------------------------------
      1          6           0       -2.875000    0.204499   -0.200169
      2          6           0       -1.565131    0.819300   -0.668429
      3          6           0       -0.585550   -0.369720   -0.711289
      4          6           0       -1.384909   -1.547390   -0.172079
      5          1           0       -1.755091    1.194109   -1.675609
      6          1           0       -0.363510   -0.630710   -1.749469
      7          6           0       -3.735549   -2.006802    0.517311
      8          1           0       -3.305998   -2.990122    0.692421
      9          1           0       -4.157989   -1.616912    1.442691
     10          1           0       -4.526449   -2.077782   -0.229149
     11          7           0       -2.682659   -1.136201    0.047381
     12          8           0       -0.978478   -2.663520    0.022301
     13          8           0       -3.928551    0.771548   -0.054719
     14          6           0        0.741500   -0.233299    0.052071
     15          1           0        1.043561   -1.238909    0.351821
     16          6           0       -1.194561    2.020320    0.230441
     17          1           0       -2.127762    2.389319    0.661651
     18          6           0       -0.281041    1.621590    1.353671
     19          1           0       -0.325541    2.224690    2.254491
     20          6           0        0.589580    0.624811    1.276051
     21          1           0        1.246770    0.416721    2.112021
     22          6           0       -0.603662    3.182830   -0.572789
     23          1           0       -1.328152    3.552310   -1.301509
     24          1           0       -0.339393    4.010240    0.088381
     25          1           0        0.300148    2.887491   -1.107719
     26          6           0        1.831480    0.285902   -0.887179
     27          1           0        1.984770   -0.419328   -1.704729
     28          1           0        1.567909    1.260192   -1.294849
     29          6           0        3.904850   -0.543707   -0.092659
     30          6           0        5.131730   -0.163306    0.679001
     31          1           0        4.856640    0.059394    1.711651
     32          1           0        5.847051   -0.981186    0.662731
     33          1           0        5.580339    0.736184    0.256831
     34          8           0        3.682991   -1.630127   -0.556409
     35          8           0        3.066400    0.498042   -0.202059
 ---------------------------------------------------------------------
 Rotational constants (GHZ):      0.7546254      0.2665871      0.2158459
 Standard basis: def2TZVP (5D, 7F)
 There are   750 symmetry adapted cartesian basis functions of A   symmetry.
 There are   660 symmetry adapted basis functions of A   symmetry.
   660 basis functions,  1054 primitive gaussians,   750 cartesian basis functions
    67 alpha electrons       67 beta electrons
       nuclear repulsion energy      1389.4194130572 Hartrees.
 NAtoms=   35 NActive=   35 NUniq=   35 SFac= 1.00D+00 NAtFMM=   60 NAOKFM=F Big=F
 Integral buffers will be    131072 words long.
 Raffenetti 2 integral format.
 Two-electron integral symmetry is turned on.
 Nuclear repulsion after empirical dispersion term =     1389.3912030872 Hartrees.
 Force inversion solution in PCM.
 ------------------------------------------------------------------------------
 Polarizable Continuum Model (PCM)
 =================================
 Model                : PCM (using non-symmetric T matrix).
 Atomic radii         : SMD-Coulomb.
 Polarization charges : Total charges.
 Charge compensation  : None.
 Solution method      : Matrix inversion.
 Cavity type          : VdW (van der Waals Surface) (Alpha=1.000).
 Cavity algorithm     : GePol (No added spheres)
                        Default sphere list used, NSphG=   35.
                        Lebedev-Laikov grids with approx.  5.0 points / Ang**2.
                        Smoothing algorithm: Karplus/York (Gamma=1.0000).
                        Polarization charges: spherical gaussians, with
                                              point-specific exponents (IZeta= 3).
                        Self-potential: point-specific (ISelfS= 7).
                        Self-field    : sphere-specific E.n sum rule (ISelfD= 2).
 1st derivatives      : Analytical E(r).r(x)/FMM algorithm (CHGder, D1EAlg=3).
                        Cavity 1st derivative terms included.
 2nd derivatives      : Analytical E(r).r(xy)/FMM algorithm (CHGder, D2EAlg=3).
                        Cavity 2nd derivative terms included.
 Solvent              : Toluene, Eps=   2.374100 Eps(inf)=   2.238315
 ------------------------------------------------------------------------------
 ------------------------------------------------------------------------------
 Atomic radii for non-electrostatic terms: SMD-CDS.
 ------------------------------------------------------------------------------
 Nuclear repulsion after PCM non-electrostatic terms =     1389.3811522247 Hartrees.
 One-electron integrals computed using PRISM.
   1 Symmetry operations used in ECPInt.
 ECPInt:  NShTT=   35511 NPrTT=  107400 LenC2=   31813 LenP2D=   70194.
 LDataN:  DoStor=T MaxTD1= 6 Len=  172
 NBasis=   660 RedAO= T EigKep=  1.68D-05  NBF=   660
 NBsUse=   660 1.00D-06 EigRej= -1.00D+00 NBFU=   660
 ExpMin= 9.52D-02 ExpMax= 2.70D+04 ExpMxC= 9.22D+02 IAcc=2 IRadAn=         4 AccDes= 0.00D+00
 Harris functional with IExCor= 4639 and IRadAn=       4 diagonalized for initial guess.
 HarFok:  IExCor= 4639 AccDes= 0.00D+00 IRadAn=         4 IDoV= 1 UseB2=F ITyADJ=14
 ICtDFT=  3500011 ScaDFX=  1.000000  1.000000  1.000000  1.000000
 FoFCou: FMM=F IPFlag=           0 FMFlag=      100000 FMFlg1=           0
         NFxFlg=           0 DoJE=T BraDBF=F KetDBF=T FulRan=T
         wScrn=  0.000000 ICntrl=     500 IOpCl=  0 I1Cent=   200000004 NGrid=           0
         NMat0=    1 NMatS0=      1 NMatT0=    0 NMatD0=    1 NMtDS0=    0 NMtDT0=    0
 Petite list used in FoFCou.
 Requested convergence on RMS density matrix=1.00D-08 within 128 cycles.
 Requested convergence on MAX density matrix=1.00D-06.
 Requested convergence on             energy=1.00D-06.
 No special actions if energy rises.
 Inv3:  Mode=1 IEnd=    21531123.
 Iteration    1 A*A^-1 deviation from unit magnitude is 7.11D-15 for    639.
 Iteration    1 A*A^-1 deviation from orthogonality  is 2.76D-15 for   2646   1498.
 Iteration    1 A^-1*A deviation from unit magnitude is 5.55D-15 for    307.
 Iteration    1 A^-1*A deviation from orthogonality  is 4.57D-12 for   1068   1066.
 Error on total polarization charges =  0.02020
 SCF Done:  E(RwB97XD) =  -861.392429868     A.U. after   13 cycles
            NFock= 13  Conv=0.89D-08     -V/T= 2.0046
 SMD-CDS (non-electrostatic) energy       (kcal/mol) =      -6.31
 (included in total energy above)
 DoSCS=F DFT=T ScalE2(SS,OS)=  1.000000  1.000000
 Range of M.O.s used for correlation:     1   660
 NBasis=   660 NAE=    67 NBE=    67 NFC=     0 NFV=     0
 NROrb=    660 NOA=    67 NOB=    67 NVA=   593 NVB=   593

 **** Warning!!: The largest alpha MO coefficient is  0.29989308D+02

   1 Symmetry operations used in ECPInt.
 ECPInt:  NShTT=   35511 NPrTT=  107400 LenC2=   31813 LenP2D=   70194.
 LDataN:  DoStor=T MaxTD1= 7 Len=  274
 Number of processors reduced to   4 by ecpmxn.
 Symmetrizing basis deriv contribution to polar:
 IMax=3 JMax=2 DiffMx= 0.00D+00
 G2DrvN: will do    36 centers at a time, making    1 passes.
 Calling FoFCou, ICntrl=  3107 FMM=F I1Cent=   0 AccDes= 0.00D+00.
 NEqPCM:  Using equilibrium solvation (IEInf=0, Eps=   2.3741, EpsInf=   2.2383)
 G2PCM: DoFxE=T DoFxN=T DoGrad=T DoDP/DQ/DG/TGxP=FFFF NFrqRd=   0 IEInf=0 SqF1=F DoCFld=F IF1Alg=4.
 End of G2Drv F.D. properties file   721 does not exist.
 End of G2Drv F.D. properties file   722 does not exist.
 End of G2Drv F.D. properties file   788 does not exist.
          IDoAtm=11111111111111111111111111111111111
 NEqPCM:  Using equilibrium solvation (IEInf=0, Eps=   2.3741, EpsInf=   2.2383)
          Differentiating once with respect to electric field.
                with respect to dipole field.
          Differentiating once with respect to nuclear coordinates.
          There are   108 degrees of freedom in the 1st order CPHF.  IDoFFX=6 NUNeed=     3.
    105 vectors produced by pass  0 Test12= 3.97D-14 1.00D-09 XBig12= 7.12D+01 2.58D+00.
 AX will form   105 AO Fock derivatives at one time.
    105 vectors produced by pass  1 Test12= 3.97D-14 1.00D-09 XBig12= 1.04D+01 5.25D-01.
    105 vectors produced by pass  2 Test12= 3.97D-14 1.00D-09 XBig12= 2.63D-01 4.16D-02.
    105 vectors produced by pass  3 Test12= 3.97D-14 1.00D-09 XBig12= 3.10D-03 5.63D-03.
    105 vectors produced by pass  4 Test12= 3.97D-14 1.00D-09 XBig12= 3.02D-05 4.33D-04.
    105 vectors produced by pass  5 Test12= 3.97D-14 1.00D-09 XBig12= 2.11D-07 3.53D-05.
    104 vectors produced by pass  6 Test12= 3.97D-14 1.00D-09 XBig12= 1.43D-09 2.78D-06.
     40 vectors produced by pass  7 Test12= 3.97D-14 1.00D-09 XBig12= 9.21D-12 2.69D-07.
      4 vectors produced by pass  8 Test12= 3.97D-14 1.00D-09 XBig12= 6.28D-14 2.89D-08.
      3 vectors produced by pass  9 Test12= 3.97D-14 1.00D-09 XBig12= 9.95D-16 2.79D-09.
 InvSVY:  IOpt=1 It=  1 EMax= 5.33D-15
 Solved reduced A of dimension   781 with   108 vectors.
 Isotropic polarizability for W=    0.000000      182.65 Bohr**3.
 End of Minotr F.D. properties file   721 does not exist.
 End of Minotr F.D. properties file   722 does not exist.
 End of Minotr F.D. properties file   788 does not exist.

 **********************************************************************

            Population analysis using the SCF density.

 **********************************************************************

 Orbital symmetries:
       Occupied  (A) (A) (A) (A) (A) (A) (A) (A) (A) (A) (A) (A)
                 (A) (A) (A) (A) (A) (A) (A) (A) (A) (A) (A) (A)
                 (A) (A) (A) (A) (A) (A) (A) (A) (A) (A) (A) (A)
                 (A) (A) (A) (A) (A) (A) (A) (A) (A) (A) (A) (A)
                 (A) (A) (A) (A) (A) (A) (A) (A) (A) (A) (A) (A)
                 (A) (A) (A) (A) (A) (A) (A)
       Virtual   (A) (A) (A) (A) (A) (A) (A) (A) (A) (A) (A) (A)
                 (A) (A) (A) (A) (A) (A) (A) (A) (A) (A) (A) (A)
                 (A) (A) (A) (A) (A) (A) (A) (A) (A) (A) (A) (A)
                 (A) (A) (A) (A) (A) (A) (A) (A) (A) (A) (A) (A)
                 (A) (A) (A) (A) (A) (A) (A) (A) (A) (A) (A) (A)
                 (A) (A) (A) (A) (A) (A) (A) (A) (A) (A) (A) (A)
                 (A) (A) (A) (A) (A) (A) (A) (A) (A) (A) (A) (A)
                 (A) (A) (A) (A) (A) (A) (A) (A) (A) (A) (A) (A)
                 (A) (A) (A) (A) (A) (A) (A) (A) (A) (A) (A) (A)
                 (A) (A) (A) (A) (A) (A) (A) (A) (A) (A) (A) (A)
                 (A) (A) (A) (A) (A) (A) (A) (A) (A) (A) (A) (A)
                 (A) (A) (A) (A) (A) (A) (A) (A) (A) (A) (A) (A)
                 (A) (A) (A) (A) (A) (A) (A) (A) (A) (A) (A) (A)
                 (A) (A) (A) (A) (A) (A) (A) (A) (A) (A) (A) (A)
                 (A) (A) (A) (A) (A) (A) (A) (A) (A) (A) (A) (A)
                 (A) (A) (A) (A) (A) (A) (A) (A) (A) (A) (A) (A)
                 (A) (A) (A) (A) (A) (A) (A) (A) (A) (A) (A) (A)
                 (A) (A) (A) (A) (A) (A) (A) (A) (A) (A) (A) (A)
                 (A) (A) (A) (A) (A) (A) (A) (A) (A) (A) (A) (A)
                 (A) (A) (A) (A) (A) (A) (A) (A) (A) (A) (A) (A)
                 (A) (A) (A) (A) (A) (A) (A) (A) (A) (A) (A) (A)
                 (A) (A) (A) (A) (A) (A) (A) (A) (A) (A) (A) (A)
                 (A) (A) (A) (A) (A) (A) (A) (A) (A) (A) (A) (A)
                 (A) (A) (A) (A) (A) (A) (A) (A) (A) (A) (A) (A)
                 (A) (A) (A) (A) (A) (A) (A) (A) (A) (A) (A) (A)
                 (A) (A) (A) (A) (A) (A) (A) (A) (A) (A) (A) (A)
                 (A) (A) (A) (A) (A) (A) (A) (A) (A) (A) (A) (A)
                 (A) (A) (A) (A) (A) (A) (A) (A) (A) (A) (A) (A)
                 (A) (A) (A) (A) (A) (A) (A) (A) (A) (A) (A) (A)
                 (A) (A) (A) (A) (A) (A) (A) (A) (A) (A) (A) (A)
                 (A) (A) (A) (A) (A) (A) (A) (A) (A) (A) (A) (A)
                 (A) (A) (A) (A) (A) (A) (A) (A) (A) (A) (A) (A)
                 (A) (A) (A) (A) (A) (A) (A) (A) (A) (A) (A) (A)
                 (A) (A) (A) (A) (A) (A) (A) (A) (A) (A) (A) (A)
                 (A) (A) (A) (A) (A) (A) (A) (A) (A) (A) (A) (A)
                 (A) (A) (A) (A) (A) (A) (A) (A) (A) (A) (A) (A)
                 (A) (A) (A) (A) (A) (A) (A) (A) (A) (A) (A) (A)
                 (A) (A) (A) (A) (A) (A) (A) (A) (A) (A) (A) (A)
                 (A) (A) (A) (A) (A) (A) (A) (A) (A) (A) (A) (A)
                 (A) (A) (A) (A) (A) (A) (A) (A) (A) (A) (A) (A)
                 (A) (A) (A) (A) (A) (A) (A) (A) (A) (A) (A) (A)
                 (A) (A) (A) (A) (A) (A) (A) (A) (A) (A) (A) (A)
                 (A) (A) (A) (A) (A) (A) (A) (A) (A) (A) (A) (A)
                 (A) (A) (A) (A) (A) (A) (A) (A) (A) (A) (A) (A)
                 (A) (A) (A) (A) (A) (A) (A) (A) (A) (A) (A) (A)
                 (A) (A) (A) (A) (A) (A) (A) (A) (A) (A) (A) (A)
                 (A) (A) (A) (A) (A) (A) (A) (A) (A) (A) (A) (A)
                 (A) (A) (A) (A) (A) (A) (A) (A) (A) (A) (A) (A)
                 (A) (A) (A) (A) (A) (A) (A) (A) (A) (A) (A) (A)
                 (A) (A) (A) (A) (A)
 The electronic state is 1-A.
 Alpha  occ. eigenvalues --  -19.29611 -19.23791 -19.23753 -19.23439 -14.49063
 Alpha  occ. eigenvalues --  -10.41539 -10.40330 -10.40142 -10.34159 -10.31699
 Alpha  occ. eigenvalues --  -10.31351 -10.31009 -10.30283 -10.30176 -10.28703
 Alpha  occ. eigenvalues --  -10.28555 -10.28436 -10.27694  -1.21419  -1.17938
 Alpha  occ. eigenvalues --   -1.15691  -1.12346  -1.06490  -0.96774  -0.90211
 Alpha  occ. eigenvalues --   -0.89210  -0.86063  -0.82690  -0.80163  -0.78821
 Alpha  occ. eigenvalues --   -0.74892  -0.71429  -0.71121  -0.66391  -0.64429
 Alpha  occ. eigenvalues --   -0.61522  -0.59898  -0.59546  -0.58211  -0.57654
 Alpha  occ. eigenvalues --   -0.56949  -0.56452  -0.55447  -0.53793  -0.52950
 Alpha  occ. eigenvalues --   -0.52387  -0.51646  -0.51024  -0.50816  -0.49761
 Alpha  occ. eigenvalues --   -0.48910  -0.48755  -0.48277  -0.46804  -0.46201
 Alpha  occ. eigenvalues --   -0.45996  -0.44904  -0.44430  -0.42378  -0.41711
 Alpha  occ. eigenvalues --   -0.39592  -0.39031  -0.37426  -0.36494  -0.36187
 Alpha  occ. eigenvalues --   -0.34511  -0.33505
 Alpha virt. eigenvalues --    0.05191   0.07404   0.08083   0.09088   0.10993
 Alpha virt. eigenvalues --    0.12247   0.13018   0.13726   0.14412   0.15436
 Alpha virt. eigenvalues --    0.16579   0.17136   0.17669   0.18098   0.18807
 Alpha virt. eigenvalues --    0.19406   0.19859   0.20197   0.20614   0.21029
 Alpha virt. eigenvalues --    0.21296   0.22232   0.22457   0.23051   0.23215
 Alpha virt. eigenvalues --    0.24196   0.24483   0.25140   0.26500   0.27205
 Alpha virt. eigenvalues --    0.27609   0.28183   0.28903   0.29286   0.29856
 Alpha virt. eigenvalues --    0.30075   0.30844   0.31268   0.31703   0.32377
 Alpha virt. eigenvalues --    0.32772   0.33667   0.35412   0.36177   0.36438
 Alpha virt. eigenvalues --    0.36711   0.37374   0.37887   0.38653   0.39822
 Alpha virt. eigenvalues --    0.40235   0.40726   0.41253   0.41915   0.41980
 Alpha virt. eigenvalues --    0.43764   0.44303   0.44469   0.44874   0.45660
 Alpha virt. eigenvalues --    0.46081   0.46288   0.46681   0.47319   0.47821
 Alpha virt. eigenvalues --    0.48020   0.48606   0.48708   0.49360   0.49702
 Alpha virt. eigenvalues --    0.50549   0.50669   0.51264   0.51617   0.52264
 Alpha virt. eigenvalues --    0.52732   0.53169   0.53695   0.53912   0.54424
 Alpha virt. eigenvalues --    0.54857   0.55211   0.55882   0.56028   0.56520
 Alpha virt. eigenvalues --    0.56862   0.57247   0.58234   0.58603   0.59237
 Alpha virt. eigenvalues --    0.59782   0.60876   0.61609   0.62067   0.62700
 Alpha virt. eigenvalues --    0.63100   0.63368   0.63539   0.64208   0.65949
 Alpha virt. eigenvalues --    0.66272   0.67412   0.67943   0.68299   0.69140
 Alpha virt. eigenvalues --    0.70478   0.71398   0.71753   0.72500   0.73055
 Alpha virt. eigenvalues --    0.74008   0.75357   0.75860   0.76897   0.77633
 Alpha virt. eigenvalues --    0.78299   0.79188   0.80043   0.81373   0.82344
 Alpha virt. eigenvalues --    0.83361   0.84701   0.85027   0.87220   0.88196
 Alpha virt. eigenvalues --    0.88515   0.89093   0.90163   0.91008   0.91290
 Alpha virt. eigenvalues --    0.91799   0.92892   0.93908   0.94530   0.95137
 Alpha virt. eigenvalues --    0.96513   0.96906   0.98592   0.99156   1.00338
 Alpha virt. eigenvalues --    1.00961   1.02102   1.03311   1.04037   1.05778
 Alpha virt. eigenvalues --    1.06616   1.06793   1.07571   1.08153   1.09268
 Alpha virt. eigenvalues --    1.10765   1.11396   1.12300   1.12844   1.13519
 Alpha virt. eigenvalues --    1.14343   1.14992   1.15948   1.17166   1.17859
 Alpha virt. eigenvalues --    1.18473   1.19104   1.19885   1.20683   1.21889
 Alpha virt. eigenvalues --    1.23344   1.23916   1.25988   1.26902   1.27964
 Alpha virt. eigenvalues --    1.28435   1.30472   1.31891   1.32763   1.33791
 Alpha virt. eigenvalues --    1.34787   1.35921   1.36333   1.37863   1.38521
 Alpha virt. eigenvalues --    1.40408   1.41112   1.41955   1.44213   1.46002
 Alpha virt. eigenvalues --    1.46455   1.47242   1.48710   1.49748   1.51467
 Alpha virt. eigenvalues --    1.52034   1.52279   1.53095   1.55556   1.57252
 Alpha virt. eigenvalues --    1.57909   1.58788   1.59912   1.60526   1.60738
 Alpha virt. eigenvalues --    1.61018   1.61423   1.62457   1.62816   1.63912
 Alpha virt. eigenvalues --    1.64174   1.64431   1.65839   1.66797   1.66837
 Alpha virt. eigenvalues --    1.67417   1.67882   1.68930   1.69277   1.70167
 Alpha virt. eigenvalues --    1.71088   1.71562   1.72175   1.72892   1.74433
 Alpha virt. eigenvalues --    1.76306   1.76637   1.78057   1.79502   1.80215
 Alpha virt. eigenvalues --    1.81443   1.82516   1.83948   1.85121   1.85936
 Alpha virt. eigenvalues --    1.87327   1.88331   1.88411   1.89736   1.90060
 Alpha virt. eigenvalues --    1.91177   1.92973   1.95038   1.95762   1.97597
 Alpha virt. eigenvalues --    1.98448   1.99442   2.00284   2.00832   2.02332
 Alpha virt. eigenvalues --    2.03944   2.04251   2.05600   2.05914   2.06991
 Alpha virt. eigenvalues --    2.08393   2.08839   2.09764   2.11177   2.11706
 Alpha virt. eigenvalues --    2.12120   2.13915   2.14889   2.16650   2.17254
 Alpha virt. eigenvalues --    2.18545   2.19044   2.20919   2.21047   2.22018
 Alpha virt. eigenvalues --    2.22840   2.23523   2.25355   2.26112   2.26919
 Alpha virt. eigenvalues --    2.27497   2.28459   2.29945   2.30804   2.31405
 Alpha virt. eigenvalues --    2.33148   2.33669   2.35037   2.35801   2.36418
 Alpha virt. eigenvalues --    2.36879   2.38285   2.39232   2.39871   2.40453
 Alpha virt. eigenvalues --    2.42175   2.43061   2.44216   2.44986   2.45256
 Alpha virt. eigenvalues --    2.46387   2.46661   2.46886   2.49735   2.50330
 Alpha virt. eigenvalues --    2.51354   2.51473   2.52668   2.53426   2.54886
 Alpha virt. eigenvalues --    2.55603   2.57278   2.58565   2.59508   2.60183
 Alpha virt. eigenvalues --    2.61102   2.61787   2.62293   2.64274   2.65312
 Alpha virt. eigenvalues --    2.65784   2.66996   2.67108   2.68223   2.68783
 Alpha virt. eigenvalues --    2.70560   2.71335   2.72274   2.73071   2.73974
 Alpha virt. eigenvalues --    2.75352   2.75877   2.77249   2.79325   2.80571
 Alpha virt. eigenvalues --    2.81035   2.82132   2.82798   2.83784   2.84414
 Alpha virt. eigenvalues --    2.85621   2.86439   2.88143   2.89141   2.89613
 Alpha virt. eigenvalues --    2.91067   2.92826   2.94379   2.94956   2.95920
 Alpha virt. eigenvalues --    2.96330   2.98107   2.98403   2.99890   3.00467
 Alpha virt. eigenvalues --    3.01481   3.03221   3.03981   3.04111   3.04968
 Alpha virt. eigenvalues --    3.06689   3.06958   3.08570   3.09602   3.10339
 Alpha virt. eigenvalues --    3.10485   3.10678   3.11567   3.12701   3.13602
 Alpha virt. eigenvalues --    3.14522   3.15255   3.16570   3.17688   3.18641
 Alpha virt. eigenvalues --    3.19442   3.19945   3.20159   3.21148   3.22139
 Alpha virt. eigenvalues --    3.23009   3.24135   3.24500   3.25521   3.26442
 Alpha virt. eigenvalues --    3.27773   3.28576   3.28912   3.30456   3.31018
 Alpha virt. eigenvalues --    3.31441   3.32203   3.33568   3.34362   3.34522
 Alpha virt. eigenvalues --    3.35713   3.36335   3.36641   3.37047   3.37863
 Alpha virt. eigenvalues --    3.38206   3.39542   3.40748   3.41245   3.42559
 Alpha virt. eigenvalues --    3.43454   3.43943   3.44376   3.44848   3.45445
 Alpha virt. eigenvalues --    3.46773   3.47773   3.48733   3.49192   3.49685
 Alpha virt. eigenvalues --    3.49940   3.51032   3.52283   3.53597   3.54470
 Alpha virt. eigenvalues --    3.54662   3.55223   3.55831   3.57014   3.57847
 Alpha virt. eigenvalues --    3.58247   3.60072   3.60624   3.62815   3.63257
 Alpha virt. eigenvalues --    3.64782   3.65748   3.65824   3.67340   3.67826
 Alpha virt. eigenvalues --    3.69250   3.71416   3.71659   3.73294   3.74677
 Alpha virt. eigenvalues --    3.75635   3.76926   3.77450   3.78159   3.79509
 Alpha virt. eigenvalues --    3.80311   3.84328   3.84835   3.85429   3.85644
 Alpha virt. eigenvalues --    3.88147   3.88414   3.89486   3.91182   3.92579
 Alpha virt. eigenvalues --    3.95121   3.95871   3.96929   3.99133   3.99315
 Alpha virt. eigenvalues --    3.99880   4.02551   4.03627   4.04737   4.05506
 Alpha virt. eigenvalues --    4.07785   4.10553   4.11272   4.12682   4.15096
 Alpha virt. eigenvalues --    4.16007   4.17141   4.20382   4.20944   4.23096
 Alpha virt. eigenvalues --    4.23967   4.25857   4.26936   4.27576   4.29059
 Alpha virt. eigenvalues --    4.30126   4.30583   4.34262   4.37205   4.39508
 Alpha virt. eigenvalues --    4.39877   4.41749   4.44360   4.44861   4.46734
 Alpha virt. eigenvalues --    4.47379   4.47963   4.49112   4.49933   4.52690
 Alpha virt. eigenvalues --    4.54319   4.55798   4.57332   4.58693   4.62303
 Alpha virt. eigenvalues --    4.62625   4.64537   4.66680   4.67462   4.68500
 Alpha virt. eigenvalues --    4.72185   4.73470   4.77801   4.79564   4.83585
 Alpha virt. eigenvalues --    4.86335   4.89209   4.89370   4.91595   4.92882
 Alpha virt. eigenvalues --    4.94782   4.97062   4.99318   5.02613   5.05387
 Alpha virt. eigenvalues --    5.07093   5.09312   5.13078   5.15788   5.17902
 Alpha virt. eigenvalues --    5.20565   5.22968   5.24996   5.26346   5.26409
 Alpha virt. eigenvalues --    5.28243   5.29119   5.34428   5.36199   5.37446
 Alpha virt. eigenvalues --    5.38834   5.40462   5.46592   5.49686   5.50377
 Alpha virt. eigenvalues --    5.52014   5.59915   5.67161   5.73151   5.73643
 Alpha virt. eigenvalues --    5.75045   5.82760   5.82973   5.84721   5.86353
 Alpha virt. eigenvalues --    5.95343   5.98496   6.10182   6.16748   6.17389
 Alpha virt. eigenvalues --    6.28024   6.28919   6.29790   6.31702   6.45254
 Alpha virt. eigenvalues --    6.46719   6.48219   6.51753   6.51912   6.58641
 Alpha virt. eigenvalues --    6.62360   6.66293   6.67837   6.75668   6.78433
 Alpha virt. eigenvalues --    6.83817   6.88644   6.91909   6.94419   6.95848
 Alpha virt. eigenvalues --    7.00625   7.04455   7.12892   7.15987   7.20523
 Alpha virt. eigenvalues --    7.21522   7.22369   7.22696   7.38334   7.51810
 Alpha virt. eigenvalues --   22.43228  22.44295  22.53713  22.58302  22.70075
 Alpha virt. eigenvalues --   22.72327  22.78636  22.92748  22.96200  23.09037
 Alpha virt. eigenvalues --   23.36105  23.43545  23.76045  33.03130  43.98544
 Alpha virt. eigenvalues --   44.10058  44.11593  44.34558
          Condensed to atoms (all electrons):
               1          2          3          4          5          6
     1  C    4.695821   0.126820   0.122721  -0.122476  -0.014769  -0.001957
     2  C    0.126820   5.549584  -0.099874   0.109782   0.372540  -0.009491
     3  C    0.122721  -0.099874   5.578838   0.082374  -0.002149   0.382226
     4  C   -0.122476   0.109782   0.082374   4.725687   0.000491  -0.011088
     5  H   -0.014769   0.372540  -0.002149   0.000491   0.568730  -0.012675
     6  H   -0.001957  -0.009491   0.382226  -0.011088  -0.012675   0.560443
     7  C   -0.049445   0.010456   0.004166  -0.054683  -0.000231  -0.000078
     8  H    0.007809  -0.000874   0.005453  -0.017922   0.000024  -0.000136
     9  H   -0.006284  -0.000806   0.000136   0.005311  -0.000068  -0.000030
    10  H   -0.007161   0.000382  -0.000851   0.003375   0.000102   0.000111
    11  N    0.358978  -0.106517  -0.136641   0.401118   0.004131   0.002511
    12  O    0.000613   0.008380  -0.121047   0.690702  -0.000146   0.004087
    13  O    0.699555  -0.114664   0.006992   0.001684   0.005431  -0.000040
    14  C   -0.006674   0.075213   0.138411   0.012898  -0.005132  -0.036473
    15  H    0.000360   0.004132  -0.053297  -0.009843  -0.000478   0.002000
    16  C    0.018656   0.153401   0.058253  -0.007879  -0.030904  -0.002176
    17  H   -0.009270  -0.066061   0.003577   0.000892   0.003983  -0.000498
    18  C    0.008775   0.050237  -0.035223  -0.002245   0.003257   0.002164
    19  H    0.000117   0.008377  -0.001122   0.000077  -0.000261   0.000076
    20  C   -0.004135  -0.052941   0.055484   0.009306   0.002472   0.003232
    21  H    0.000033  -0.001388   0.006143   0.000076   0.000065  -0.000285
    22  C   -0.003649   0.022604  -0.022480   0.000721  -0.010347   0.001103
    23  H   -0.000526  -0.005131   0.002609  -0.000146   0.001833  -0.000131
    24  H    0.000023   0.009017   0.000027  -0.000013   0.000594   0.000001
    25  H    0.000634   0.001646  -0.006621   0.000342  -0.000514  -0.000071
    26  C    0.000710  -0.022337   0.041773  -0.005422   0.000800  -0.003776
    27  H   -0.000155   0.001347   0.004865   0.000343  -0.000039   0.002939
    28  H    0.000809  -0.005340  -0.003152   0.000409  -0.000142  -0.000503
    29  C    0.000012  -0.000080  -0.000286  -0.000018  -0.000001  -0.000049
    30  C    0.000000  -0.000001  -0.000140   0.000013   0.000000  -0.000001
    31  H    0.000000   0.000000  -0.000011  -0.000001   0.000000  -0.000001
    32  H    0.000000   0.000000   0.000003   0.000000   0.000000   0.000000
    33  H    0.000000   0.000001   0.000009  -0.000001   0.000000   0.000000
    34  O    0.000002  -0.000087   0.000157   0.000304   0.000001  -0.000130
    35  O    0.000005   0.000241   0.001353   0.000044  -0.000005   0.000370
               7          8          9         10         11         12
     1  C   -0.049445   0.007809  -0.006284  -0.007161   0.358978   0.000613
     2  C    0.010456  -0.000874  -0.000806   0.000382  -0.106517   0.008380
     3  C    0.004166   0.005453   0.000136  -0.000851  -0.136641  -0.121047
     4  C   -0.054683  -0.017922   0.005311   0.003375   0.401118   0.690702
     5  H   -0.000231   0.000024  -0.000068   0.000102   0.004131  -0.000146
     6  H   -0.000078  -0.000136  -0.000030   0.000111   0.002511   0.004087
     7  C    4.893590   0.407095   0.411217   0.410358   0.260179  -0.010905
     8  H    0.407095   0.486561  -0.019229  -0.020783  -0.032884   0.017531
     9  H    0.411217  -0.019229   0.516197  -0.027246  -0.037142   0.000488
    10  H    0.410358  -0.020783  -0.027246   0.520176  -0.031491   0.000357
    11  N    0.260179  -0.032884  -0.037142  -0.031491   6.608064  -0.099200
    12  O   -0.010905   0.017531   0.000488   0.000357  -0.099200   7.859235
    13  O    0.011009   0.000810   0.003242   0.001559  -0.113012  -0.000163
    14  C    0.000166   0.000033   0.000140  -0.000098   0.002137   0.001940
    15  H   -0.000008  -0.000088   0.000010  -0.000005   0.002734   0.019356
    16  C    0.000525   0.000014   0.000492  -0.000195  -0.006470  -0.000193
    17  H   -0.000238   0.000001   0.000035  -0.000028   0.002469   0.000029
    18  C   -0.000270  -0.000013  -0.000211   0.000051   0.007263  -0.000052
    19  H   -0.000003   0.000000  -0.000007   0.000000   0.000110  -0.000001
    20  C    0.000093  -0.000107   0.000082  -0.000001   0.000142   0.001905
    21  H   -0.000001  -0.000001   0.000003   0.000000   0.000033  -0.000182
    22  C    0.000041  -0.000001   0.000005   0.000000  -0.001285   0.000015
    23  H   -0.000003   0.000000   0.000000   0.000000   0.000068   0.000000
    24  H   -0.000001   0.000000   0.000000   0.000000   0.000022   0.000000
    25  H    0.000000   0.000000   0.000000   0.000000   0.000011  -0.000002
    26  C    0.000023   0.000018   0.000002  -0.000001  -0.001425  -0.002559
    27  H   -0.000002  -0.000001   0.000000   0.000000   0.000057   0.000418
    28  H    0.000003   0.000000   0.000000   0.000000   0.000014   0.000030
    29  C    0.000000   0.000000   0.000000   0.000000   0.000000  -0.000065
    30  C    0.000000   0.000000   0.000000   0.000000   0.000000  -0.000003
    31  H    0.000000   0.000000   0.000000   0.000000   0.000000   0.000000
    32  H    0.000000   0.000000   0.000000   0.000000   0.000000   0.000000
    33  H    0.000000   0.000000   0.000000   0.000000   0.000000   0.000000
    34  O    0.000000   0.000000   0.000000   0.000000   0.000000  -0.000031
    35  O    0.000000   0.000000   0.000000   0.000000   0.000006   0.000025
              13         14         15         16         17         18
     1  C    0.699555  -0.006674   0.000360   0.018656  -0.009270   0.008775
     2  C   -0.114664   0.075213   0.004132   0.153401  -0.066061   0.050237
     3  C    0.006992   0.138411  -0.053297   0.058253   0.003577  -0.035223
     4  C    0.001684   0.012898  -0.009843  -0.007879   0.000892  -0.002245
     5  H    0.005431  -0.005132  -0.000478  -0.030904   0.003983   0.003257
     6  H   -0.000040  -0.036473   0.002000  -0.002176  -0.000498   0.002164
     7  C    0.011009   0.000166  -0.000008   0.000525  -0.000238  -0.000270
     8  H    0.000810   0.000033  -0.000088   0.000014   0.000001  -0.000013
     9  H    0.003242   0.000140   0.000010   0.000492   0.000035  -0.000211
    10  H    0.001559  -0.000098  -0.000005  -0.000195  -0.000028   0.000051
    11  N   -0.113012   0.002137   0.002734  -0.006470   0.002469   0.007263
    12  O   -0.000163   0.001940   0.019356  -0.000193   0.000029  -0.000052
    13  O    7.855061  -0.000436   0.000017  -0.001331   0.016623   0.001186
    14  C   -0.000436   5.140152   0.454814  -0.007568  -0.001940  -0.008378
    15  H    0.000017   0.454814   0.527847  -0.001306  -0.000020   0.008465
    16  C   -0.001331  -0.007568  -0.001306   4.995355   0.461688   0.204119
    17  H    0.016623  -0.001940  -0.000020   0.461688   0.580931  -0.055759
    18  C    0.001186  -0.008378   0.008465   0.204119  -0.055759   5.196316
    19  H   -0.000160   0.008526  -0.000063  -0.051554  -0.007067   0.441520
    20  C    0.000602   0.144605  -0.052344   0.001030   0.012094   0.503684
    21  H    0.000003  -0.045331  -0.005516   0.008440  -0.000072  -0.048984
    22  C   -0.003030   0.019682   0.000169   0.225219  -0.046002  -0.018304
    23  H    0.000618  -0.000672   0.000000  -0.047684  -0.003413   0.008676
    24  H    0.000058  -0.000009  -0.000005  -0.045185  -0.003423   0.001778
    25  H    0.000053   0.004107  -0.000028  -0.036365   0.006556  -0.004312
    26  C   -0.000007   0.225912  -0.042136   0.022995   0.000089  -0.016095
    27  H    0.000001  -0.078827  -0.003997  -0.000736   0.000007   0.000774
    28  H   -0.000005  -0.026904   0.004718   0.005178   0.000040   0.000450
    29  C    0.000000   0.012779   0.002913   0.000094   0.000000  -0.000154
    30  C    0.000000  -0.001968   0.000887  -0.000018   0.000000   0.000128
    31  H    0.000000   0.000370  -0.000213   0.000002   0.000000   0.000038
    32  H    0.000000  -0.000025  -0.000019   0.000000   0.000000   0.000002
    33  H    0.000000   0.000233  -0.000007   0.000000   0.000000  -0.000021
    34  O    0.000000  -0.014795   0.010716   0.000007   0.000000  -0.000229
    35  O    0.000000  -0.045258  -0.005289  -0.001160  -0.000001   0.005962
              19         20         21         22         23         24
     1  C    0.000117  -0.004135   0.000033  -0.003649  -0.000526   0.000023
     2  C    0.008377  -0.052941  -0.001388   0.022604  -0.005131   0.009017
     3  C   -0.001122   0.055484   0.006143  -0.022480   0.002609   0.000027
     4  C    0.000077   0.009306   0.000076   0.000721  -0.000146  -0.000013
     5  H   -0.000261   0.002472   0.000065  -0.010347   0.001833   0.000594
     6  H    0.000076   0.003232  -0.000285   0.001103  -0.000131   0.000001
     7  C   -0.000003   0.000093  -0.000001   0.000041  -0.000003  -0.000001
     8  H    0.000000  -0.000107  -0.000001  -0.000001   0.000000   0.000000
     9  H   -0.000007   0.000082   0.000003   0.000005   0.000000   0.000000
    10  H    0.000000  -0.000001   0.000000   0.000000   0.000000   0.000000
    11  N    0.000110   0.000142   0.000033  -0.001285   0.000068   0.000022
    12  O   -0.000001   0.001905  -0.000182   0.000015   0.000000   0.000000
    13  O   -0.000160   0.000602   0.000003  -0.003030   0.000618   0.000058
    14  C    0.008526   0.144605  -0.045331   0.019682  -0.000672  -0.000009
    15  H   -0.000063  -0.052344  -0.005516   0.000169   0.000000  -0.000005
    16  C   -0.051554   0.001030   0.008440   0.225219  -0.047684  -0.045185
    17  H   -0.007067   0.012094  -0.000072  -0.046002  -0.003413  -0.003423
    18  C    0.441520   0.503684  -0.048984  -0.018304   0.008676   0.001778
    19  H    0.519965  -0.049791  -0.010303   0.000039  -0.000258   0.001692
    20  C   -0.049791   5.228016   0.438412  -0.017468   0.000595  -0.000416
    21  H   -0.010303   0.438412   0.525461  -0.000482   0.000030  -0.000095
    22  C    0.000039  -0.017468  -0.000482   5.032587   0.419081   0.411460
    23  H   -0.000258   0.000595   0.000030   0.419081   0.532498  -0.019041
    24  H    0.001692  -0.000416  -0.000095   0.411460  -0.019041   0.529663
    25  H    0.000133   0.000718  -0.000090   0.405286  -0.025291  -0.020474
    26  C   -0.000516   0.005180  -0.002459  -0.013539   0.000191   0.000310
    27  H    0.000024   0.011161  -0.000336   0.000270   0.000007   0.000000
    28  H   -0.000050  -0.006437   0.000437  -0.004157   0.000042  -0.000085
    29  C   -0.000007  -0.003280   0.001146   0.000003   0.000000  -0.000001
    30  C    0.000001  -0.000131  -0.000038   0.000011   0.000000   0.000000
    31  H   -0.000001  -0.000054   0.000340  -0.000003   0.000000   0.000000
    32  H    0.000000   0.000056  -0.000019   0.000000   0.000000   0.000000
    33  H    0.000000  -0.000043  -0.000011   0.000000   0.000000   0.000000
    34  O   -0.000001   0.001287   0.000068   0.000009   0.000000   0.000000
    35  O    0.000049   0.009672  -0.001774   0.000539  -0.000001  -0.000008
              25         26         27         28         29         30
     1  C    0.000634   0.000710  -0.000155   0.000809   0.000012   0.000000
     2  C    0.001646  -0.022337   0.001347  -0.005340  -0.000080  -0.000001
     3  C   -0.006621   0.041773   0.004865  -0.003152  -0.000286  -0.000140
     4  C    0.000342  -0.005422   0.000343   0.000409  -0.000018   0.000013
     5  H   -0.000514   0.000800  -0.000039  -0.000142  -0.000001   0.000000
     6  H   -0.000071  -0.003776   0.002939  -0.000503  -0.000049  -0.000001
     7  C    0.000000   0.000023  -0.000002   0.000003   0.000000   0.000000
     8  H    0.000000   0.000018  -0.000001   0.000000   0.000000   0.000000
     9  H    0.000000   0.000002   0.000000   0.000000   0.000000   0.000000
    10  H    0.000000  -0.000001   0.000000   0.000000   0.000000   0.000000
    11  N    0.000011  -0.001425   0.000057   0.000014   0.000000   0.000000
    12  O   -0.000002  -0.002559   0.000418   0.000030  -0.000065  -0.000003
    13  O    0.000053  -0.000007   0.000001  -0.000005   0.000000   0.000000
    14  C    0.004107   0.225912  -0.078827  -0.026904   0.012779  -0.001968
    15  H   -0.000028  -0.042136  -0.003997   0.004718   0.002913   0.000887
    16  C   -0.036365   0.022995  -0.000736   0.005178   0.000094  -0.000018
    17  H    0.006556   0.000089   0.000007   0.000040   0.000000   0.000000
    18  C   -0.004312  -0.016095   0.000774   0.000450  -0.000154   0.000128
    19  H    0.000133  -0.000516   0.000024  -0.000050  -0.000007   0.000001
    20  C    0.000718   0.005180   0.011161  -0.006437  -0.003280  -0.000131
    21  H   -0.000090  -0.002459  -0.000336   0.000437   0.001146  -0.000038
    22  C    0.405286  -0.013539   0.000270  -0.004157   0.000003   0.000011
    23  H   -0.025291   0.000191   0.000007   0.000042   0.000000   0.000000
    24  H   -0.020474   0.000310   0.000000  -0.000085  -0.000001   0.000000
    25  H    0.562057  -0.001228   0.000190   0.006506  -0.000012  -0.000003
    26  C   -0.001228   4.905836   0.450607   0.385089  -0.051747   0.000960
    27  H    0.000190   0.450607   0.522261  -0.027146  -0.010342   0.002486
    28  H    0.006506   0.385089  -0.027146   0.550805   0.006744   0.001224
    29  C   -0.000012  -0.051747  -0.010342   0.006744   4.490179   0.338878
    30  C   -0.000003   0.000960   0.002486   0.001224   0.338878   4.990882
    31  H    0.000002  -0.000415  -0.000057  -0.000078  -0.017065   0.385055
    32  H    0.000000  -0.000220  -0.000003  -0.000022  -0.048372   0.418402
    33  H    0.000002   0.000375  -0.000289  -0.000214  -0.023054   0.386802
    34  O   -0.000016  -0.000096   0.016650   0.003286   0.617106  -0.069615
    35  O   -0.000362   0.216732  -0.033981  -0.026963   0.320864  -0.081053
              31         32         33         34         35
     1  C    0.000000   0.000000   0.000000   0.000002   0.000005
     2  C    0.000000   0.000000   0.000001  -0.000087   0.000241
     3  C   -0.000011   0.000003   0.000009   0.000157   0.001353
     4  C   -0.000001   0.000000  -0.000001   0.000304   0.000044
     5  H    0.000000   0.000000   0.000000   0.000001  -0.000005
     6  H   -0.000001   0.000000   0.000000  -0.000130   0.000370
     7  C    0.000000   0.000000   0.000000   0.000000   0.000000
     8  H    0.000000   0.000000   0.000000   0.000000   0.000000
     9  H    0.000000   0.000000   0.000000   0.000000   0.000000
    10  H    0.000000   0.000000   0.000000   0.000000   0.000000
    11  N    0.000000   0.000000   0.000000   0.000000   0.000006
    12  O    0.000000   0.000000   0.000000  -0.000031   0.000025
    13  O    0.000000   0.000000   0.000000   0.000000   0.000000
    14  C    0.000370  -0.000025   0.000233  -0.014795  -0.045258
    15  H   -0.000213  -0.000019  -0.000007   0.010716  -0.005289
    16  C    0.000002   0.000000   0.000000   0.000007  -0.001160
    17  H    0.000000   0.000000   0.000000   0.000000  -0.000001
    18  C    0.000038   0.000002  -0.000021  -0.000229   0.005962
    19  H   -0.000001   0.000000   0.000000  -0.000001   0.000049
    20  C   -0.000054   0.000056  -0.000043   0.001287   0.009672
    21  H    0.000340  -0.000019  -0.000011   0.000068  -0.001774
    22  C   -0.000003   0.000000   0.000000   0.000009   0.000539
    23  H    0.000000   0.000000   0.000000   0.000000  -0.000001
    24  H    0.000000   0.000000   0.000000   0.000000  -0.000008
    25  H    0.000002   0.000000   0.000002  -0.000016  -0.000362
    26  C   -0.000415  -0.000220   0.000375  -0.000096   0.216732
    27  H   -0.000057  -0.000003  -0.000289   0.016650  -0.033981
    28  H   -0.000078  -0.000022  -0.000214   0.003286  -0.026963
    29  C   -0.017065  -0.048372  -0.023054   0.617106   0.320864
    30  C    0.385055   0.418402   0.386802  -0.069615  -0.081053
    31  H    0.515680  -0.015968  -0.019808   0.000891   0.001280
    32  H   -0.015968   0.504561  -0.016926   0.005811   0.005210
    33  H   -0.019808  -0.016926   0.517692   0.001777   0.004314
    34  O    0.000891   0.005811   0.001777   7.901602  -0.092137
    35  O    0.001280   0.005210   0.004314  -0.092137   8.005658
 Mulliken charges:
               1
     1  C    0.184047
     2  C   -0.018569
     3  C   -0.012677
     4  C    0.185786
     5  H    0.113408
     6  H    0.118329
     7  C   -0.293052
     8  H    0.166689
     9  H    0.153662
    10  H    0.151387
    11  N   -0.083980
    12  O   -0.370563
    13  O   -0.371657
    14  C    0.038369
    15  H    0.135526
    16  C    0.085255
    17  H    0.104775
    18  C   -0.254596
    19  H    0.140456
    20  C   -0.242679
    21  H    0.136679
    22  C   -0.398100
    23  H    0.136050
    24  H    0.134112
    25  H    0.107144
    26  C   -0.093620
    27  H    0.141507
    28  H    0.135414
    29  C    0.363814
    30  C   -0.372760
    31  H    0.150015
    32  H    0.147529
    33  H    0.149169
    34  O   -0.382538
    35  O   -0.284332
 Sum of Mulliken charges =   0.00000
 Mulliken charges with hydrogens summed into heavy atoms:
               1
     1  C    0.184047
     2  C    0.094839
     3  C    0.105651
     4  C    0.185786
     7  C    0.178687
    11  N   -0.083980
    12  O   -0.370563
    13  O   -0.371657
    14  C    0.173896
    16  C    0.190030
    18  C   -0.114140
    20  C   -0.106000
    22  C   -0.020793
    26  C    0.183300
    29  C    0.363814
    30  C    0.073954
    34  O   -0.382538
    35  O   -0.284332
 APT charges:
               1
     1  C    1.233242
     2  C   -0.099824
     3  C   -0.071435
     4  C    1.230572
     5  H    0.005255
     6  H    0.007833
     7  C    0.302775
     8  H    0.059123
     9  H    0.004697
    10  H    0.000777
    11  N   -1.029670
    12  O   -0.900863
    13  O   -0.909740
    14  C    0.046191
    15  H    0.019327
    16  C    0.123906
    17  H   -0.008007
    18  C   -0.023027
    19  H    0.025088
    20  C   -0.059211
    21  H    0.031551
    22  C    0.056787
    23  H   -0.023863
    24  H   -0.013797
    25  H   -0.012471
    26  C    0.559146
    27  H   -0.013055
    28  H   -0.016740
    29  C    1.362979
    30  C   -0.110670
    31  H    0.040251
    32  H    0.026568
    33  H    0.037757
    34  O   -0.828297
    35  O   -1.053155
 Sum of APT charges =   0.00000
 APT charges with hydrogens summed into heavy atoms:
               1
     1  C    1.233242
     2  C   -0.094569
     3  C   -0.063602
     4  C    1.230572
     7  C    0.367372
    11  N   -1.029670
    12  O   -0.900863
    13  O   -0.909740
    14  C    0.065517
    16  C    0.115899
    18  C    0.002061
    20  C   -0.027660
    22  C    0.006656
    26  C    0.529352
    29  C    1.362979
    30  C   -0.006094
    34  O   -0.828297
    35  O   -1.053155
 Electronic spatial extent (au):  <R**2>=           5076.1465
 Charge=              0.0000 electrons
 Dipole moment (field-independent basis, Debye):
    X=              1.0493    Y=              3.2241    Z=              0.0399  Tot=              3.3908
 Quadrupole moment (field-independent basis, Debye-Ang):
   XX=           -107.8017   YY=           -115.9666   ZZ=            -99.3205
   XY=             14.1919   XZ=              4.9800   YZ=             -2.1137
 Traceless Quadrupole moment (field-independent basis, Debye-Ang):
   XX=             -0.1054   YY=             -8.2703   ZZ=              8.3758
   XY=             14.1919   XZ=              4.9800   YZ=             -2.1137
 Octapole moment (field-independent basis, Debye-Ang**2):
  XXX=            105.5217  YYY=             32.0707  ZZZ=             -3.4259  XYY=            -25.7393
  XXY=            -28.0452  XXZ=             26.4531  XZZ=              1.2619  YZZ=             -0.7708
  YYZ=              6.1135  XYZ=             -6.5747
 Hexadecapole moment (field-independent basis, Debye-Ang**3):
 XXXX=          -4398.5408 YYYY=          -1645.5485 ZZZZ=           -417.2752 XXXY=            287.0110
 XXXZ=             72.8711 YYYX=             27.2693 YYYZ=              0.2193 ZZZX=              3.9944
 ZZZY=              9.1499 XXYY=          -1056.1358 XXZZ=           -795.7926 YYZZ=           -323.9466
 XXYZ=            -46.1367 YYXZ=              1.3288 ZZXY=              2.5809
 N-N= 1.389381152225D+03 E-N=-4.789673600524D+03  KE= 8.574183507906D+02
  Exact polarizability: 209.399 -13.883 193.638   2.169   0.151 144.926
 Approx polarizability: 183.367 -19.810 192.147   0.552   1.806 152.290
   1 Symmetry operations used in ECPInt.
 ECPInt:  NShTT=   35511 NPrTT=  107400 LenC2=   31813 LenP2D=   70194.
 LDataN:  DoStor=T MaxTD1= 8 Len=  415
 D2PCM: PCM CHGder 2nd derivatives, FixD1E=F FixD2E=F DoIter=F DoCFld=F I1PDM=0
 Calling FoFJK, ICntrl=    100127 FMM=F ISym2X=0 I1Cent= 0 IOpClX= 0 NMat=1 NMatS=1 NMatT=0.
 Full mass-weighted force constant matrix:
 Low frequencies ---   -3.0598   -0.0009    0.0007    0.0009   13.5507   20.5605
 Low frequencies ---   25.0359   35.0703   56.8297
 Diagonal vibrational polarizability:
       53.2002652      34.2862707      63.9884325
 Harmonic frequencies (cm**-1), IR intensities (KM/Mole), Raman scattering
 activities (A**4/AMU), depolarization ratios for plane and unpolarized
 incident light, reduced masses (AMU), force constants (mDyne/A),
 and normal coordinates:
                      1                      2                      3
                      A                      A                      A
 Frequencies --     23.4473                34.1940                56.7735
 Red. masses --      7.4917                 5.4040                 7.9376
 Frc consts  --      0.0024                 0.0037                 0.0151
 IR Inten    --      0.1139                 0.6238                 1.6966
  Atom  AN      X      Y      Z        X      Y      Z        X      Y      Z
     1   6    -0.01   0.01  -0.16     0.01   0.03   0.03     0.01  -0.03  -0.05
     2   6     0.06  -0.03   0.00     0.02  -0.01   0.01     0.01   0.03   0.02
     3   6     0.01  -0.07   0.08    -0.03  -0.05  -0.04     0.04   0.05  -0.01
     4   6    -0.03   0.00   0.16    -0.06  -0.03  -0.05     0.09   0.04   0.03
     5   1     0.19   0.02  -0.01     0.02   0.03   0.02     0.03   0.08   0.03
     6   1    -0.02  -0.15   0.09    -0.07  -0.04  -0.05    -0.01   0.05  -0.02
     7   6    -0.12   0.08  -0.09    -0.06   0.06   0.02     0.09  -0.06  -0.05
     8   1    -0.19   0.04  -0.12    -0.08   0.05   0.04     0.12  -0.06  -0.07
     9   1    -0.12   0.06  -0.08    -0.05   0.09   0.01     0.08  -0.10  -0.03
    10   1    -0.11   0.17  -0.11    -0.06   0.06   0.02     0.09  -0.06  -0.05
    11   7    -0.06   0.03  -0.03    -0.04   0.02   0.00     0.06  -0.02  -0.02
    12   8    -0.06   0.02   0.34    -0.10  -0.05  -0.09     0.15   0.07   0.09
    13   8    -0.03   0.03  -0.35     0.04   0.07   0.06    -0.02  -0.08  -0.11
    14   6     0.03  -0.06   0.03     0.00  -0.11  -0.08     0.07   0.08  -0.08
    15   1     0.06  -0.06   0.00    -0.01  -0.12  -0.12     0.10   0.08  -0.11
    16   6     0.02  -0.08   0.09     0.09  -0.05   0.04    -0.03  -0.01   0.09
    17   1     0.00  -0.12   0.10     0.11  -0.03   0.07    -0.03  -0.08   0.14
    18   6     0.01  -0.11   0.08     0.10  -0.11   0.00     0.04  -0.01   0.03
    19   1     0.00  -0.14   0.10     0.15  -0.14   0.02     0.05  -0.04   0.05
    20   6     0.03  -0.10   0.06     0.07  -0.14  -0.05     0.10   0.04  -0.05
    21   1     0.03  -0.11   0.05     0.09  -0.19  -0.08     0.16   0.06  -0.09
    22   6     0.01  -0.01   0.17     0.10  -0.04   0.06    -0.11   0.06   0.13
    23   1     0.01   0.02   0.19     0.10   0.00   0.09    -0.14   0.07   0.17
    24   1    -0.02  -0.05   0.23     0.13  -0.07   0.09    -0.12   0.04   0.17
    25   1     0.02   0.04   0.17     0.09  -0.04   0.04    -0.11   0.12   0.10
    26   6    -0.02  -0.01   0.01    -0.03  -0.10  -0.12     0.01   0.12  -0.12
    27   1    -0.02   0.02  -0.01     0.01  -0.15  -0.07    -0.05   0.15  -0.16
    28   1    -0.06  -0.01   0.04    -0.11  -0.15  -0.19     0.00   0.14  -0.06
    29   6     0.04   0.06  -0.09    -0.02   0.10   0.06    -0.13  -0.06   0.03
    30   6     0.06   0.08  -0.13    -0.05   0.27   0.02    -0.05  -0.13  -0.06
    31   1     0.09   0.08  -0.12    -0.07   0.30   0.01     0.01  -0.08  -0.05
    32   1     0.08   0.10  -0.16     0.02   0.33   0.08    -0.13  -0.20  -0.05
    33   1     0.03   0.09  -0.15    -0.13   0.29  -0.03     0.01  -0.19  -0.10
    34   8     0.07   0.06  -0.12     0.02   0.01   0.25    -0.35  -0.13   0.29
    35   8     0.00   0.02  -0.03    -0.04   0.06  -0.15     0.07   0.07  -0.20
                      4                      5                      6
                      A                      A                      A
 Frequencies --     70.9867                93.1774               123.9412
 Red. masses --      3.5206                 3.1060                 2.2679
 Frc consts  --      0.0105                 0.0159                 0.0205
 IR Inten    --      3.7315                 3.3650                 2.9227
  Atom  AN      X      Y      Z        X      Y      Z        X      Y      Z
     1   6     0.01   0.00  -0.02     0.01   0.01  -0.06     0.03   0.00   0.01
     2   6     0.00   0.00  -0.04     0.00   0.00  -0.07     0.02  -0.02  -0.05
     3   6     0.00  -0.01  -0.06     0.00   0.00  -0.06     0.01  -0.03  -0.03
     4   6     0.02   0.01   0.02     0.01   0.01  -0.05     0.01  -0.01   0.01
     5   1     0.00   0.03  -0.02     0.01   0.02  -0.06     0.00  -0.04  -0.05
     6   1    -0.05  -0.03  -0.06     0.03   0.01  -0.05     0.02  -0.06  -0.02
     7   6     0.05   0.04   0.15     0.08   0.07   0.23     0.00   0.01  -0.02
     8   1     0.08   0.07   0.24     0.16   0.16   0.53    -0.11  -0.12  -0.46
     9   1     0.05   0.12   0.11    -0.01   0.30   0.09     0.31  -0.25   0.23
    10   1     0.05  -0.06   0.16     0.13  -0.23   0.20    -0.20   0.39   0.17
    11   7     0.03   0.02   0.05     0.03   0.03   0.06     0.01  -0.01  -0.03
    12   8     0.03   0.02   0.05     0.00  -0.01  -0.11     0.02   0.00   0.07
    13   8     0.00   0.00  -0.04    -0.01  -0.01  -0.11     0.06   0.03   0.09
    14   6     0.02  -0.01  -0.10    -0.02  -0.01  -0.01     0.00  -0.01  -0.02
    15   1     0.04  -0.01  -0.15    -0.01  -0.01  -0.05     0.04  -0.01  -0.06
    16   6     0.01  -0.03   0.00    -0.02  -0.02  -0.02     0.04  -0.01  -0.07
    17   1     0.02  -0.04   0.02    -0.03  -0.01  -0.07     0.03   0.03  -0.13
    18   6     0.02  -0.07  -0.02    -0.10  -0.08   0.02    -0.06  -0.06   0.00
    19   1     0.02  -0.11   0.01    -0.17  -0.13   0.06    -0.13  -0.10   0.02
    20   6     0.03  -0.06  -0.06    -0.09  -0.07   0.03    -0.07  -0.08   0.02
    21   1     0.04  -0.09  -0.08    -0.16  -0.13   0.06    -0.16  -0.14   0.07
    22   6     0.01   0.00   0.04     0.05  -0.01   0.05     0.12  -0.04  -0.05
    23   1     0.00   0.03   0.06     0.09   0.03   0.02     0.16  -0.02  -0.08
    24   1     0.01  -0.03   0.07     0.03  -0.04   0.09     0.11  -0.05  -0.03
    25   1     0.01   0.02   0.02     0.07   0.00   0.08     0.13  -0.05  -0.01
    26   6     0.00   0.04  -0.09     0.01   0.05   0.05    -0.01   0.08   0.02
    27   1     0.03   0.08  -0.11     0.02   0.09   0.02     0.00   0.14  -0.02
    28   1     0.00   0.06  -0.06     0.02   0.06   0.09    -0.03   0.10   0.08
    29   6    -0.04   0.01   0.00     0.00   0.00   0.02    -0.05   0.04   0.00
    30   6    -0.18  -0.07   0.26     0.08   0.00  -0.11    -0.01  -0.02  -0.03
    31   1    -0.37  -0.18   0.23     0.18   0.08  -0.10     0.02   0.02  -0.02
    32   1    -0.18  -0.07   0.30     0.04  -0.03  -0.12    -0.06  -0.06  -0.03
    33   1    -0.11  -0.02   0.44     0.08  -0.05  -0.21     0.03  -0.05  -0.05
    34   8     0.03   0.06  -0.15    -0.05   0.00   0.04    -0.10   0.05  -0.01
    35   8    -0.02   0.03  -0.04     0.00   0.01   0.08    -0.02   0.07   0.04
                      7                      8                      9
                      A                      A                      A
 Frequencies --    134.8166               141.9651               153.0533
 Red. masses --      1.5969                 4.0960                 1.0557
 Frc consts  --      0.0171                 0.0486                 0.0146
 IR Inten    --      0.9201                 6.2328                 0.2027
  Atom  AN      X      Y      Z        X      Y      Z        X      Y      Z
     1   6    -0.03   0.00  -0.02    -0.07   0.01   0.01     0.00   0.00   0.00
     2   6    -0.03   0.02   0.00    -0.09   0.06  -0.03     0.00   0.00   0.00
     3   6    -0.02   0.03  -0.02    -0.06   0.08  -0.08     0.00  -0.01   0.00
     4   6     0.00   0.03  -0.01     0.01   0.08   0.00     0.00  -0.01   0.00
     5   1    -0.03   0.04   0.00    -0.14   0.09  -0.01     0.00   0.00   0.00
     6   1    -0.03   0.04  -0.03    -0.10   0.08  -0.09     0.00  -0.01   0.00
     7   6     0.03   0.01   0.07     0.03  -0.06  -0.06    -0.01   0.00   0.00
     8   1    -0.06  -0.12  -0.44     0.15   0.03   0.18    -0.01   0.00   0.00
     9   1     0.39  -0.29   0.37    -0.14   0.06  -0.19    -0.01   0.01   0.00
    10   1    -0.23   0.42   0.30     0.14  -0.32  -0.15    -0.01   0.01  -0.01
    11   7     0.00   0.02   0.03    -0.03   0.00  -0.08     0.00   0.00   0.00
    12   8     0.01   0.03  -0.04     0.11   0.14   0.17    -0.01  -0.01   0.00
    13   8    -0.05  -0.02  -0.06    -0.07  -0.02   0.12     0.01   0.00   0.01
    14   6    -0.01   0.01  -0.02    -0.04   0.05  -0.10     0.00  -0.01  -0.01
    15   1    -0.05   0.01  -0.01    -0.10   0.03  -0.10     0.01  -0.01  -0.02
    16   6    -0.04   0.01   0.02    -0.05   0.02   0.00     0.00  -0.01   0.01
    17   1    -0.04   0.00   0.04    -0.05   0.11  -0.06     0.00  -0.02   0.03
    18   6    -0.02   0.00   0.00    -0.13  -0.08   0.03     0.02   0.00  -0.01
    19   1    -0.01  -0.01   0.01    -0.20  -0.18   0.09     0.04   0.01  -0.01
    20   6     0.00   0.02  -0.03    -0.07  -0.02  -0.05     0.01  -0.01  -0.01
    21   1     0.03   0.04  -0.05    -0.09  -0.07  -0.05     0.02   0.00  -0.02
    22   6    -0.03   0.01   0.04     0.15  -0.04   0.05    -0.03   0.01   0.00
    23   1    -0.03   0.03   0.04     0.25   0.06   0.00    -0.05   0.00   0.02
    24   1    -0.02   0.00   0.05     0.21  -0.09   0.08    -0.04   0.01   0.00
    25   1    -0.04   0.00   0.04     0.15  -0.16   0.12    -0.04   0.03  -0.01
    26   6     0.02  -0.05  -0.02     0.03  -0.05  -0.06     0.00   0.01   0.00
    27   1     0.02  -0.08   0.01     0.04  -0.11  -0.01     0.01   0.02  -0.01
    28   1     0.05  -0.05  -0.06     0.12  -0.06  -0.15     0.00   0.02   0.02
    29   6     0.04  -0.03   0.01     0.05  -0.04   0.01    -0.01   0.00   0.01
    30   6     0.03   0.02   0.01     0.03   0.04  -0.01     0.00   0.00   0.01
    31   1     0.02   0.04   0.00     0.02   0.19  -0.04    -0.05   0.58  -0.13
    32   1     0.04   0.03   0.04     0.02   0.03   0.11    -0.22  -0.20   0.45
    33   1     0.01   0.02  -0.01     0.06  -0.03  -0.12     0.29  -0.33  -0.38
    34   8     0.07  -0.04   0.03     0.10  -0.06   0.03     0.01   0.01  -0.02
    35   8     0.01  -0.05   0.00     0.01  -0.07  -0.01     0.00   0.00   0.02
                     10                     11                     12
                      A                      A                      A
 Frequencies --    170.5667               208.6514               231.7241
 Red. masses --      3.8527                 3.4113                 4.7505
 Frc consts  --      0.0660                 0.0875                 0.1503
 IR Inten    --      5.1344                 2.8378                 0.4821
  Atom  AN      X      Y      Z        X      Y      Z        X      Y      Z
     1   6    -0.02  -0.01   0.03     0.07   0.00  -0.05     0.02   0.01  -0.05
     2   6    -0.01   0.02   0.08     0.07  -0.02  -0.06     0.04   0.05   0.01
     3   6     0.00   0.03   0.09     0.06  -0.03   0.03    -0.01   0.02  -0.02
     4   6     0.01   0.01   0.03     0.03  -0.03  -0.03     0.03   0.03  -0.06
     5   1    -0.01   0.00   0.07     0.11  -0.06  -0.08     0.06   0.07   0.02
     6   1     0.02   0.05   0.09     0.14  -0.04   0.05     0.04   0.07  -0.02
     7   6     0.02  -0.07  -0.03     0.03   0.06   0.03     0.14  -0.07   0.04
     8   1     0.04  -0.07  -0.09     0.00   0.05   0.06     0.25  -0.02   0.03
     9   1    -0.05  -0.17  -0.02     0.12   0.14   0.04     0.25  -0.06   0.09
    10   1     0.07  -0.02  -0.09    -0.04   0.04   0.11     0.04  -0.17   0.16
    11   7     0.03   0.00   0.11     0.02  -0.02  -0.10     0.02  -0.02  -0.14
    12   8     0.01  -0.02  -0.11     0.02  -0.03   0.00     0.13   0.08   0.05
    13   8    -0.08  -0.08  -0.14     0.12   0.05   0.06     0.02  -0.01  -0.04
    14   6    -0.01   0.05   0.09     0.00   0.02   0.12    -0.08  -0.10   0.06
    15   1    -0.01   0.06   0.13     0.00   0.04   0.20    -0.15  -0.12   0.05
    16   6     0.04   0.05   0.02    -0.06   0.00  -0.03     0.09   0.05   0.02
    17   1     0.05   0.19  -0.07    -0.13  -0.06  -0.13     0.12   0.02   0.09
    18   6    -0.03   0.05   0.08    -0.15   0.02   0.04     0.16   0.07  -0.03
    19   1    -0.07   0.05   0.08    -0.25   0.01   0.05     0.29   0.18  -0.09
    20   6     0.00   0.08   0.08    -0.09   0.08   0.07     0.02  -0.05   0.03
    21   1     0.00   0.09   0.08    -0.13   0.11   0.12     0.04  -0.06   0.01
    22   6     0.26  -0.09  -0.03    -0.03   0.07   0.10     0.02   0.08   0.00
    23   1     0.37  -0.03  -0.10     0.10  -0.03  -0.08    -0.06   0.13   0.10
    24   1     0.35  -0.09  -0.07    -0.33   0.11   0.17     0.10   0.05   0.02
    25   1     0.25  -0.26   0.06     0.15   0.20   0.34    -0.04   0.10  -0.11
    26   6    -0.05  -0.04  -0.01    -0.05  -0.08   0.00    -0.12  -0.13   0.07
    27   1    -0.11  -0.13   0.06    -0.14  -0.18   0.06    -0.08  -0.15   0.09
    28   1    -0.06  -0.09  -0.12    -0.09  -0.13  -0.09    -0.16  -0.15   0.04
    29   6    -0.04   0.01  -0.05     0.00  -0.03  -0.06    -0.12  -0.02   0.01
    30   6    -0.09   0.02   0.01    -0.08   0.03   0.02    -0.12   0.09  -0.07
    31   1    -0.17   0.18  -0.04    -0.19   0.10  -0.02    -0.08   0.11  -0.06
    32   1    -0.14  -0.04   0.18    -0.06   0.04   0.15    -0.03   0.17  -0.08
    33   1     0.02  -0.07  -0.06    -0.05   0.01   0.00    -0.24   0.13  -0.13
    34   8    -0.04   0.01  -0.05     0.03  -0.06  -0.01    -0.06  -0.01  -0.05
    35   8    -0.02   0.02  -0.10     0.01  -0.03  -0.16    -0.19  -0.08   0.12
                     13                     14                     15
                      A                      A                      A
 Frequencies --    253.9814               267.6180               288.0270
 Red. masses --      3.2886                 1.5538                 1.9025
 Frc consts  --      0.1250                 0.0656                 0.0930
 IR Inten    --      2.9745                 2.6131                 2.8736
  Atom  AN      X      Y      Z        X      Y      Z        X      Y      Z
     1   6     0.05   0.03   0.08     0.02   0.02   0.00     0.03  -0.03   0.00
     2   6     0.02   0.01  -0.03     0.01   0.01   0.01     0.01  -0.02  -0.05
     3   6     0.00  -0.01  -0.04     0.01   0.02   0.01     0.01  -0.04  -0.01
     4   6     0.04   0.03   0.07     0.02   0.02   0.00     0.02  -0.05   0.02
     5   1    -0.04  -0.03  -0.03     0.01   0.01   0.01     0.00  -0.04  -0.06
     6   1    -0.04  -0.06  -0.03     0.03   0.02   0.01     0.01  -0.07   0.00
     7   6     0.01  -0.03  -0.12     0.02   0.01  -0.02    -0.06   0.05  -0.02
     8   1     0.00  -0.05  -0.18     0.02   0.01  -0.03    -0.16   0.02   0.01
     9   1    -0.24  -0.21  -0.16    -0.01  -0.01  -0.02    -0.09   0.09  -0.05
    10   1     0.21   0.08  -0.34     0.04   0.02  -0.04    -0.01   0.13  -0.07
    11   7     0.10   0.07   0.27     0.02   0.02   0.02     0.03  -0.02   0.05
    12   8     0.05   0.01  -0.02     0.03   0.03  -0.01     0.01  -0.05   0.00
    13   8     0.03   0.02  -0.03     0.02   0.03  -0.01     0.02  -0.05   0.03
    14   6    -0.02  -0.04  -0.04     0.00  -0.01   0.04     0.00   0.02  -0.02
    15   1    -0.02  -0.04  -0.07     0.00  -0.02   0.01     0.01   0.04   0.04
    16   6     0.02   0.03  -0.06     0.00   0.00   0.01    -0.03   0.00  -0.05
    17   1     0.00  -0.01  -0.05     0.00  -0.01   0.03    -0.05  -0.02  -0.07
    18   6    -0.03  -0.03  -0.04    -0.03  -0.03   0.03    -0.04   0.03  -0.05
    19   1    -0.06  -0.08  -0.01    -0.10  -0.08   0.06    -0.01   0.09  -0.09
    20   6    -0.08  -0.08  -0.02    -0.06  -0.06   0.07     0.02   0.09  -0.07
    21   1    -0.18  -0.16   0.04    -0.15  -0.13   0.12     0.09   0.18  -0.10
    22   6    -0.05   0.11   0.01    -0.07  -0.02  -0.07     0.06   0.07   0.11
[...]
 0646,-0.00000877,-0.00000550,0.00000049,-0.00016413,0.00002808,0.00004
 540,-0.00010320,-0.00002533,0.00003447,-0.00012606,0.00004507,0.000022
 63,-0.00099218,-0.00003009,-0.00076559,0.00021626,0.00011397,-0.000200
 16,0.00001686,0.00000060,-0.00000112,-0.00001184,0.00001079,-0.0000056
 5,0.00000058,-0.00000067,0.00006465,-0.00001916,0.00001764,0.00001259,
 0.00001194,0.00000385,-0.00016708,0.00003970,0.00001829,-0.00001364,-0
 .00001786,-0.00001002,-0.00001647,-0.00000374,0.00001164,-0.00001395,0
 .00000131,0.00000663,0.00000745,0.00000167,-0.00000782,0.00000555,0.00
 083734,-0.00105566,0.00522603,0.00041316,-0.00049528,0.00010723,0.0003
 5672,0.00025898,0.00034625,-0.04830359,-0.00825754,-0.12130169,-0.0242
 3043,-0.00643884,0.52719273,0.00000188,-0.00001704,-0.00000210,0.00000
 129,-0.00001809,-0.00000415,-0.00006480,-0.00003775,0.00007440,0.00001
 780,0.00001002,-0.00004177,-0.00000080,0.00000405,0.00000342,0.0000221
 7,0.00000070,0.00000989,-0.00000052,0.00000456,-0.00000061,0.00000073,
 -0.00000050,-0.00000166,-0.00000321,-0.00000034,0.00000063,-0.00000048
 ,-0.00000082,0.00000100,-0.00002588,0.00000788,0.00001118,-0.00001527,
 0.00000178,0.00001966,-0.00000935,0.00000931,0.00000552,-0.00015942,0.
 00003534,-0.00020739,0.00005543,-0.00000225,-0.00006627,-0.00001072,-0
 .00003042,-0.00001011,0.00000484,0.00000035,0.00000818,0.00003415,0.00
 004026,0.00008157,-0.00000471,0.00001278,-0.00000147,-0.00001874,0.000
 00437,-0.00018923,-0.00005208,0.00000547,0.00009961,0.00002049,0.00000
 431,0.00000708,-0.00000169,-0.00000577,0.00000743,-0.00000132,0.000004
 20,-0.00000133,-0.00000291,-0.00000282,0.00000178,0.00005123,-0.000269
 92,0.00101669,0.00007843,-0.00010283,0.00005661,0.00006863,0.00005287,
 0.00007222,0.01219839,-0.00388522,-0.02913976,-0.06390737,0.01650843,0
 .06384092,0.06641616,-0.00001008,0.00003945,-0.00000907,-0.00000373,0.
 00000061,0.00000361,0.00000085,-0.00000139,-0.00001041,-0.00003821,0.0
 0004291,-0.00000421,0.00000213,-0.00000150,0.00000072,-0.00000220,-0.0
 0000335,0.00000191,-0.00000069,-0.00000135,-0.00000070,-0.00000168,-0.
 00000121,-0.00000179,-0.00000110,0.00000172,-0.00000080,0.00000064,-0.
 00000006,0.00000122,0.00002671,-0.00003306,0.00000164,0.00002060,-0.00
 003220,0.00002252,0.00001564,-0.00001783,-0.00000020,0.00001341,0.0000
 3316,-0.00001771,0.00000897,-0.00001874,-0.00004312,0.00000754,0.00000
 219,-0.00000342,0.00000270,-0.00000200,0.00000271,0.00000027,-0.000027
 50,0.00002150,0.00001446,-0.00000164,-0.00001078,-0.00005195,-0.000007
 62,0.00000421,-0.00000700,0.00006617,0.00000560,0.00000428,0.00000536,
 0.00000215,-0.00000491,-0.00000457,0.00000062,0.00000667,-0.00000944,-
 0.00000504,0.00000069,0.00000704,0.00000705,-0.00026953,-0.00006137,0.
 00001200,0.00008156,-0.00006287,0.00004094,0.00002626,0.00001926,0.000
 05644,0.00235709,-0.00467343,-0.00947626,0.01675984,-0.05302606,-0.053
 64247,-0.01490847,0.05560212,-0.00000812,-0.00001703,0.00000178,0.0000
 0089,-0.00000541,-0.00000478,-0.00002594,-0.00000126,0.00003322,0.0000
 0834,-0.00001681,-0.00001247,0.00000025,0.00000137,0.00000270,0.000009
 49,-0.00000026,0.00000726,-0.00000220,-0.00000014,-0.00000101,0.000000
 19,-0.00000021,-0.00000120,-0.00000119,0.00000034,0.00000039,0.0000005
 6,-0.00000045,0.00000045,-0.00000997,0.00001355,0.00000244,-0.00000843
 ,0.00001689,0.00000936,0.00000118,0.00000779,0.00000309,-0.00011171,0.
 00001258,-0.00012962,0.00002748,0.00001140,-0.00004225,-0.00001366,-0.
 00002021,-0.00000647,0.00000326,0.00000059,0.00000463,0.00001469,0.000
 03520,0.00002688,-0.00000749,0.00000370,0.00000588,-0.00000561,-0.0000
 1219,-0.00009051,-0.00005803,0.00000197,0.00005689,0.00001124,0.000000
 18,0.00000751,0.00000451,-0.00000341,0.00000559,-0.00000442,0.00000739
 ,0.00000133,-0.00000250,-0.00000226,-0.00000608,-0.00053083,-0.0000702
 4,0.00053849,0.00016635,-0.00002091,0.00010901,0.00004430,0.00002082,0
 .00003559,0.00690867,-0.00413770,-0.01666290,0.06484882,-0.05208045,-0
 .29083256,-0.06996223,0.05839818,0.31327014,0.00005434,0.00002063,-0.0
 0001803,-0.00000750,-0.00003190,0.00000483,-0.00006379,-0.00008464,0.0
 0010821,0.00001960,0.00014641,-0.00007182,-0.00000107,0.00000286,-0.00
 000103,0.00002454,0.00001170,0.00001273,0.00000853,0.00001934,-0.00000
 342,0.00000170,-0.00000153,-0.00000093,-0.00000559,-0.00000192,0.00000
 225,-0.00000449,-0.00000238,0.00000132,-0.00004773,-0.00004324,0.00002
 722,-0.00000378,-0.00009388,0.00002446,-0.00004869,0.00000078,0.000011
 08,-0.00005221,0.00004830,-0.00013988,-0.00000897,0.00000023,0.0000282
 9,0.00001581,0.00000651,-0.00000286,-0.00000682,0.00000269,-0.00000061
 ,-0.00000386,-0.00000680,0.00003235,-0.00000307,0.00001462,0.00000233,
 -0.00001880,-0.00006356,-0.00004928,0.00001877,0.00001904,-0.00001167,
 0.00000855,0.00000263,-0.00002270,-0.00000839,0.00000756,-0.00000342,-
 0.00000565,0.00000538,0.00000794,-0.00000772,-0.00001340,0.00001456,0.
 00078491,0.00108601,0.00005471,-0.00017610,-0.00002538,-0.00012678,-0.
 00040908,-0.00005817,-0.00022978,-0.01557874,0.02361956,0.00449154,-0.
 17108962,0.13624077,0.00166075,-0.00456727,0.00396546,-0.00044054,0.18
 334956,-0.00001297,-0.00000173,0.00000244,0.00000552,0.00000313,-0.000
 00199,0.00001027,-0.00000063,-0.00001010,-0.00001103,-0.00000488,0.000
 00520,0.00000129,-0.00000077,0.00000146,0.00000023,0.00000144,0.000001
 59,-0.00000389,-0.00000373,0.00000023,-0.00000077,0.00000022,-0.000000
 50,0.00000026,0.00000049,-0.00000065,0.00000108,0.00000033,0.00000041,
 0.00001014,0.00000171,-0.00000203,0.00000599,0.00000228,0.00000158,0.0
 0001177,-0.00000041,-0.00000019,0.00007586,0.00001235,0.00002418,0.000
 00287,-0.00000982,0.00000317,-0.00000430,-0.00000745,-0.00000213,0.000
 00181,0.00000035,0.00000094,0.00000358,0.00001772,0.00000172,-0.000004
 84,0.00000036,0.00000348,0.00000397,0.00000076,-0.00001567,-0.00000648
 ,-0.00000918,0.00001118,0.00000303,0.00000366,0.00000267,0.00000382,-0
 .00000027,0.00000325,-0.00000582,0.00000538,0.00000249,-0.00000320,-0.
 00000640,-0.00000479,-0.00035362,0.00056211,-0.00040748,0.00006499,0.0
 0000638,0.00002797,-0.00014844,-0.00000057,-0.00006978,-0.00760995,0.0
 0536154,0.00036147,0.14330497,-0.21185772,-0.00297901,0.00188312,-0.00
 339718,0.00069755,-0.15193405,0.22340302,0.00001854,-0.00001437,-0.000
 00097,0.00000266,-0.00001578,0.00000013,-0.00006437,-0.00007000,0.0000
 8498,0.00000566,0.00004471,-0.00003634,-0.00000109,0.00000325,0.000000
 82,0.00001529,0.00000755,0.00001032,0.00000151,0.00000749,0.00000081,0
 .00000129,-0.00000003,0.00000083,-0.00000202,-0.00000204,0.00000099,-0
 .00000198,-0.00000055,0.00000010,-0.00003221,-0.00000365,0.00001266,-0
 .00000606,-0.00002210,-0.00000010,-0.00002111,0.00000922,0.00000311,-0
 .00015167,0.00002340,-0.00019474,-0.00000182,-0.00000704,0.00002080,-0
 .00000090,-0.00000906,-0.00000420,-0.00000082,0.00000100,0.00000239,0.
 00001030,0.00001863,0.00002713,-0.00000720,0.00000686,0.00000351,0.000
 00125,-0.00001743,-0.00008107,-0.00002996,-0.00001011,0.00002880,0.000
 01055,0.00000192,-0.00000560,-0.00000305,0.00000172,0.00000180,-0.0000
 0452,0.00000565,0.00000294,-0.00000385,-0.00000691,0.00000524,-0.00025
 923,0.00045568,0.00064783,0.00000143,0.00000662,-0.00000984,-0.0001718
 1,-0.00000879,-0.00008894,-0.01046232,0.01511946,-0.00090710,0.0047196
 0,-0.00622034,-0.04839478,0.01967065,-0.02292419,0.00214281,-0.0009076
 5,0.00542643,0.04840437,0.00000903,-0.00002620,0.00000368,-0.00000035,
 -0.00000241,-0.00000329,0.00003903,0.00003405,-0.00001599,0.00005443,-
 0.00004122,0.00000076,-0.00000312,0.00000032,-0.00000084,0.00000462,-0
 .00000138,-0.00000103,0.00000175,0.00000274,-0.00000204,0.00000134,0.0
 0000032,-0.00000066,-0.00000061,-0.00000014,0.00000076,-0.00000056,-0.
 00000078,-0.00000008,-0.00002388,0.00002812,-0.00000074,-0.00002887,0.
 00002821,-0.00000020,-0.00001455,0.00001349,0.00000265,0.00015239,-0.0
 0001840,0.00010137,0.00002546,0.00002367,-0.00001724,-0.00000027,-0.00
 000696,0.00000004,-0.00000116,0.00000401,-0.00000276,0.00000179,0.0000
 2241,0.00000706,-0.00001008,0.00000396,0.00000768,0.00001563,-0.000007
 82,-0.00001277,0.00000848,-0.00002201,-0.00000487,-0.00000846,0.000001
 00,0.00000077,0.00000545,0.00000429,-0.00000165,-0.00000676,0.00000834
 ,0.00000609,-0.00000104,-0.00001257,-0.00000840,0.00024970,0.00027348,
 -0.00036940,0.00007286,0.00000111,0.00009054,-0.00009307,-0.00002669,-
 0.00007494,-0.00843829,-0.02331934,0.01657248,-0.09684236,-0.09152511,
 0.04299805,-0.00348321,-0.00603153,0.00257615,0.01109185,0.01687378,-0
 .00933408,0.09966846,0.00000076,-0.00000591,0.00000323,0.00000046,0.00
 000745,0.00000155,0.00004033,0.00003207,-0.00004129,0.00001737,-0.0000
 4226,0.00002289,-0.00000022,0.00000004,-0.00000073,-0.00000437,-0.0000
 0349,-0.00000033,0.00000144,-0.00000171,0.00000002,0.00000047,0.000000
 32,0.00000086,0.00000133,0.,-0.00000005,-0.00000020,0.00000028,-0.0000
 0069,-0.00000008,0.00001269,-0.00000670,-0.00001027,0.00002417,-0.0000
 0909,-0.00000024,0.00000132,-0.00000308,0.00015607,-0.00000367,0.00011
 021,0.00000345,0.00000216,-0.00000149,-0.00000019,0.00000191,0.0000003
 5,0.00000001,-0.00000062,-0.00000049,0.00000091,-0.00001049,-0.0000040
 7,0.00000374,-0.00000203,-0.00000261,-0.00001421,0.00001167,0.00003002
 ,0.00000178,-0.00000033,-0.00000442,-0.00000218,0.00000041,0.00000111,
 -0.00000263,-0.00000023,-0.00000122,0.00000343,-0.00000317,-0.00000215
 ,0.00000190,0.00000336,0.00000265,-0.00027449,0.00021462,-0.00071964,-
 0.00000751,0.00002548,0.00006342,-0.00002508,0.00000182,0.00001947,-0.
 00200304,-0.00947004,0.00185994,-0.09333549,-0.23436133,0.09144922,0.0
 0373141,0.00641171,-0.00294624,-0.01089980,-0.01582010,0.00856505,0.10
 322098,0.25151561,-0.00000186,0.00001837,-0.00000357,-0.00000302,-0.00
 000126,0.00000319,0.00001912,0.00000934,-0.00001012,-0.00000843,0.0000
 1681,-0.00000081,-0.00000005,-0.00000010,-0.00000010,0.00000170,-0.000
 00052,-0.00000161,0.00000059,0.00000009,0.00000028,-0.00000048,-0.0000
 0040,-0.00000034,-0.00000039,0.00000046,-0.00000044,-0.00000019,0.0000
 0011,0.00000044,0.00000972,-0.00001379,-0.00000004,0.00000459,-0.00001
 510,0.00000808,0.00000403,-0.00000810,-0.00000137,0.00007876,0.0000213
 0,0.00004925,0.00000138,-0.00000960,-0.00001814,0.00000501,-0.00000090
 ,-0.00000159,0.00000138,-0.00000014,0.00000073,0.00000269,-0.00001120,
 0.00002086,0.00000798,0.00000157,-0.00000795,-0.00002839,-0.00001186,-
 0.00001296,-0.00001295,0.00003013,0.00000383,0.00000061,0.00000622,0.0
 0000103,-0.00000549,-0.00000182,-0.00000022,0.00000483,-0.00000661,-0.
 00000361,0.00000201,0.00000057,0.00000675,0.00024172,0.00001672,-0.000
 21092,0.00000479,-0.00002541,0.00002244,-0.00003247,-0.00000387,-0.000
 01459,-0.00731467,-0.01659571,0.00876429,0.04322325,0.09101614,-0.0836
 7197,0.01265775,0.02606076,-0.01061564,-0.00133010,-0.00197838,-0.0003
 5271,-0.04571647,-0.09742062,0.09100334,0.00045974,-0.00020043,-0.0000
 7445,-0.00016657,-0.00022495,-0.00004679,0.00003795,0.00040387,0.00019
 574,0.00098017,-0.00007295,-0.00025828,-0.00005811,0.00004896,-0.00001
 577,0.00011442,-0.00001727,0.00009447,0.00009838,0.00014630,-0.0000487
 3,0.00003386,-0.00000232,-0.00000822,-0.00003463,-0.00001384,0.0000228
 9,-0.00003663,-0.00002162,0.00000305,-0.00061506,0.00019012,0.00011903
 ,-0.00055044,0.00003751,0.00008871,-0.00050789,0.00016756,0.00008992,0
 .00007116,-0.00148049,0.00042417,-0.00015786,0.00112359,-0.00070454,0.
 00005431,-0.00003251,-0.00001803,-0.00004682,0.00002863,-0.00001083,0.
 00006283,0.00006046,0.00046480,-0.00010736,0.00010180,0.00005364,-0.00
 028859,0.00012348,-0.00073599,0.00001970,-0.00004660,0.00008369,0.0000
 2057,-0.00002356,-0.00011533,-0.00004256,0.00004405,-0.00003290,-0.000
 01252,0.00003758,0.00004120,-0.00002536,-0.00004757,0.00006677,0.00209
 296,0.00025319,0.00091069,-0.00159786,0.00223461,0.00176301,0.00050689
 ,0.00131443,0.00175191,-0.14187224,-0.11390160,-0.06814717,0.00241676,
 -0.03144464,-0.02248493,-0.00484835,-0.00329788,-0.00280115,0.00322533
 ,-0.00060374,0.00180597,-0.00233004,-0.00222583,-0.00240918,0.12094673
 ,-0.00047577,-0.00060753,0.00022702,0.00008272,0.00029265,-0.00011035,
 0.00085320,0.00126767,-0.00132189,0.00055078,-0.00229169,0.00083831,-0
 .00000891,-0.00001318,0.00002124,-0.00021749,-0.00016629,0.00001729,-0
 .00006533,-0.00016392,-0.00001076,0.00000340,0.00001647,-0.00000960,0.
 00004217,0.00002452,-0.00001226,0.00003971,0.00001076,-0.00000983,0.00
 010431,0.00087999,-0.00027811,-0.00042172,0.00152202,-0.00018410,0.000
 32874,0.00018305,-0.00007040,0.00113573,-0.00072190,0.00223795,0.00104
 681,0.00025086,-0.00092007,-0.00023937,-0.00023908,-0.00001601,0.00008
 112,0.00000736,0.00002295,0.00008949,0.00048456,-0.00025567,-0.0000560
 6,-0.00012042,0.00005128,0.00016474,0.00074976,0.00027286,-0.00009013,
 -0.00035605,0.00029258,-0.00005896,0.00003527,0.00027851,0.00012990,-0
 .00007655,0.00005509,-0.00000495,0.00003284,-0.00003707,0.00001824,0.0
 0006074,-0.00020481,-0.01866587,-0.00407946,-0.01010032,0.00368165,-0.
 00047732,0.00284172,0.00129240,0.00079871,0.00118132,-0.13047474,-0.60
 448987,-0.23578240,-0.00940454,-0.01833402,-0.02026170,-0.00328662,-0.
 00074276,-0.00010048,-0.00098375,0.00112535,0.00030757,-0.00081191,0.0
 0101742,-0.00117636,0.10958432,0.72787073,-0.00005795,-0.00009528,0.00
 001954,0.00005349,0.00006960,0.00007399,0.00040757,0.00011597,-0.00048
 740,0.00015362,-0.00038914,0.00014784,0.00003839,-0.00002880,0.0000069
 2,0.00005752,-0.00002167,0.00008687,-0.00001065,-0.00003068,-0.0000281
 4,-0.00000215,-0.00000104,-0.00001396,0.00000315,0.00001271,0.,0.00001
 170,-0.00000492,0.00000214,0.00002026,0.00014601,-0.00005114,-0.000055
 82,0.00026536,0.00011217,0.00004992,0.00003305,0.00000631,0.00137837,0
 .00088980,0.00099443,0.00038947,-0.00054054,-0.00014912,-0.00006659,-0
 .00005810,-0.00001085,0.00001202,-0.00000390,0.00001266,0.00002535,0.0
 0003488,0.00003680,0.00001898,0.00002224,-0.00000458,-0.00036028,-0.00
 001020,0.00022736,-0.00006470,0.00001661,0.00012578,0.00005563,0.00000
 370,0.00002266,0.00002733,-0.00002351,0.00002009,-0.00001916,0.0000210
 3,0.00001035,-0.00003303,0.00001228,-0.00002871,-0.00308574,0.00087237
 ,-0.00763905,0.00057597,0.00194909,0.00152201,0.00071221,0.00095038,0.
 00154639,-0.07273360,-0.22900181,-0.19325531,-0.01544494,-0.03242104,0
 .00849912,0.00132513,0.00039538,0.00067218,0.00103250,0.00012754,0.000
 36561,-0.00533983,-0.00152854,-0.00478519,0.08244115,0.28005271,0.1652
 0366,0.00177394,-0.00020296,-0.00042275,-0.00012650,-0.00147614,0.0001
 3426,-0.00498977,-0.00577164,0.00796263,0.00037877,0.00521439,-0.00380
 849,-0.00011723,0.00016932,-0.00003497,0.00127082,0.00045313,0.0003857
 0,0.00027576,0.00077835,-0.00001477,0.00009007,-0.00003749,-0.00001754
 ,-0.00021648,-0.00011449,0.00009710,-0.00015611,-0.00008106,0.00003021
 ,-0.00233528,-0.00105901,0.00114471,-0.00019951,-0.00279574,0.00081012
 ,-0.00187092,0.00040289,0.00037996,-0.03954723,-0.00361818,-0.02090294
 ,0.00194995,0.00017350,-0.00013100,0.00035099,-0.00001601,-0.00023725,
 -0.00014935,0.00016278,0.00004976,-0.00024940,0.00010219,0.00061580,-0
 .00027287,0.00021087,0.00019866,0.00095299,-0.00154110,-0.00267756,-0.
 00036475,0.00055833,0.00029652,0.00009148,0.00013272,-0.00024264,-0.00
 017446,0.00015564,-0.00011095,-0.00010232,0.00018486,0.00016825,-0.000
 06316,-0.00047889,0.00021788,-0.14892996,-0.02801365,-0.05501720,-0.00
 941909,-0.00639997,-0.01016586,-0.02502174,-0.00243047,-0.01583198,-0.
 17968516,0.07055642,-0.03356604,-0.03563185,0.03225798,-0.01399260,-0.
 00179351,0.00131317,-0.00063234,-0.00648456,-0.00156527,-0.00479698,-0
 .00011558,0.00161998,0.00059223,0.02215713,0.04603669,0.00848471,0.428
 72488,-0.00064837,-0.00042142,0.00019847,-0.00029722,-0.00014868,-0.00
 004786,-0.00130066,0.00129080,0.00005364,-0.00005233,-0.00126394,0.000
 57176,-0.00008316,0.00000740,-0.00001130,-0.00005214,-0.00010468,0.000
 48925,-0.00009570,-0.00012585,0.00000517,-0.00000378,0.00001471,-0.000
 00658,0.00003169,0.00001778,-0.00001237,0.00003611,0.00001102,-0.00000
 618,0.00012801,0.00060622,-0.00019850,-0.00011145,0.00110878,-0.000102
 39,0.00030904,0.00014382,-0.00004244,-0.00968957,-0.00014150,-0.005228
 53,0.00153397,0.00067930,-0.00200365,-0.00035311,-0.00026738,0.0001101
 7,0.00010398,0.00005535,0.00000319,-0.00003804,0.00067742,-0.00033729,
 -0.00004049,-0.00015283,0.00004285,0.00126700,0.00063131,0.00014204,-0
 .00022807,-0.00009107,0.00043115,-0.00027645,-0.00011511,0.00037876,0.
 00017880,-0.00010098,0.00003446,0.00010090,-0.00002660,-0.00011340,0.0
 0011367,0.00023496,-0.00033268,-0.01048475,-0.09918506,-0.01816397,-0.
 02070166,-0.00086469,-0.00923345,0.03096147,0.00908303,0.01714323,0.07
 121050,-0.18610601,-0.00285825,0.00502387,0.00483251,0.00136861,0.0002
 4764,-0.00010456,0.00020618,-0.00097606,0.00061225,-0.00067984,0.00131
 018,0.00044085,0.00008313,0.03775734,-0.10375071,-0.02183151,-0.104881
 16,0.37252355,0.00029088,0.00008367,-0.00006538,0.00001943,-0.00017546
 ,0.00019510,0.00275206,0.00109313,-0.00100575,0.00081221,0.00024551,0.
 00028027,0.00013536,-0.00003220,0.00004251,0.00061543,0.00029112,0.000
 21870,0.00004442,0.00003621,-0.00010203,0.00000892,-0.00000752,-0.0000
 1300,-0.00001217,0.00000939,0.00000681,-0.00001563,-0.00001949,0.00001
 102,-0.00015780,-0.00001315,0.00000273,-0.00020359,-0.00020457,0.00009
 535,-0.00024407,0.00002920,0.00006340,0.00809600,-0.00098047,0.0131509
 4,-0.00097952,-0.00072711,0.00112667,-0.00018876,-0.00032066,0.0000511
 2,-0.00001538,0.00001721,0.00005919,0.00026998,0.00089877,0.00045341,0
 .00005733,0.00019248,-0.00003327,0.00125221,-0.00115006,-0.00090762,0.
 00052855,0.00008015,0.00095535,0.00032616,0.00010529,-0.00007454,-0.00
 007482,-0.00002071,0.00006693,-0.00008187,0.00008843,0.00007975,-0.000
 13365,-0.00018839,0.00007112,-0.04877058,-0.02569646,-0.10402014,-0.03
 251877,-0.00486246,-0.01596616,-0.01798436,-0.00408665,-0.00826720,-0.
 03480799,-0.00192117,-0.08327816,-0.02258622,0.01468386,0.00373968,0.0
 0065679,0.00111102,0.00146787,-0.00415656,-0.00123428,-0.00169160,-0.0
 0146082,0.00056347,-0.00017064,0.00749148,-0.01783621,0.02673857,0.141
 03538,0.03994812,0.16671900\\0.00004092,-0.00001207,-0.00002118,-0.000
 00693,0.00001912,0.00003494,0.00000062,-0.00001604,-0.00001807,-0.0000
 0426,0.00004231,0.00001435,-0.00000134,-0.00000667,-0.00001433,0.00000
 454,-0.00000157,0.00000555,-0.00000759,0.00000734,0.00000056,-0.000002
 60,0.00000168,0.00000067,0.00000058,0.00000218,0.00000308,0.00000224,0
 .00000239,0.00000167,-0.00000500,-0.00001135,-0.00001437,0.00000653,-0
 .00002664,0.00000299,-0.00002575,0.00001341,-0.00000058,0.00000469,-0.
 00001015,0.00001513,-0.00000097,0.00000641,0.00000574,0.00000453,-0.00
 000776,-0.00001824,0.00000043,0.00000273,-0.00000730,-0.00001102,0.000
 01171,-0.00000592,-0.00000072,0.00000239,-0.00000247,-0.00000179,0.000
 00131,-0.00000546,0.00000107,0.00000365,0.00000424,0.00000146,-0.00000
 986,-0.00000740,0.00000157,-0.00000190,-0.00001083,0.00000172,0.000001
 58,-0.00000875,0.00000150,0.00000013,-0.00000514,0.00000270,0.00000364
 ,0.00000779,0.00000640,-0.00000792,0.00000243,0.00000511,-0.00000271,-
 0.00000379,0.00003467,0.00003841,0.00004267,-0.00001868,-0.00000611,-0
 .00001244,-0.00000535,0.00000146,0.00001167,-0.00000105,0.00000238,0.0
 0001175,0.00000354,0.00000058,0.00000599,-0.00001862,-0.00003309,-0.00
 001168,-0.00001313,-0.00001099,-0.00000327\\\@


 WE'RE IN THE POSITION OF A VISITOR FROM ANOTHER
 DIMENSION WHO COMES TO EARTH AND SEES A CHESS MATCH.
 ASSUMING HE KNOWS IT'S A GAME, HE'S GOT TWO PROBLEMS:
 FIRST, FIGURE OUT THE RULES, AND SECOND, FIGURE OUT HOW TO WIN.
 NINETY PERCENT OF SCIENCE (INCLUDING VIRTUALLY ALL OF CHEMISRY)
 IS IN THAT SECOND CATEGORY.  THEY'RE TRYING TO APPLY
 THE LAWS THAT ARE ALREADY KNOWN.

                     -- SHELDON GLASHOW, 1979
 Job cpu time:       0 days 23 hours 38 minutes 57.5 seconds.
 File lengths (MBytes):  RWF=   1405 Int=      0 D2E=      0 Chk=     34 Scr=      1
 Normal termination of Gaussian 09 at Fri Feb 25 02:14:58 2022.
