 Entering Gaussian System, Link 0=g09
 Input=ts_diels.com
 Output=ts_diels.log
 Initial command:
 /apps/applications/gaussian/G09.D01/2/default/g09/l1.exe "/nobackup/pmmass/Temp/Gau-97851.inp" -scrdir="/nobackup/pmmass/Temp/"
 Entering Link 1 = /apps/applications/gaussian/G09.D01/2/default/g09/l1.exe PID=     97852.
  
 Copyright (c) 1988,1990,1992,1993,1995,1998,2003,2009,2013,
            Gaussian, Inc.  All Rights Reserved.
  
 This is part of the Gaussian(R) 09 program.  It is based on
 the Gaussian(R) 03 system (copyright 2003, Gaussian, Inc.),
 the Gaussian(R) 98 system (copyright 1998, Gaussian, Inc.),
 the Gaussian(R) 94 system (copyright 1995, Gaussian, Inc.),
 the Gaussian 92(TM) system (copyright 1992, Gaussian, Inc.),
 the Gaussian 90(TM) system (copyright 1990, Gaussian, Inc.),
 the Gaussian 88(TM) system (copyright 1988, Gaussian, Inc.),
 the Gaussian 86(TM) system (copyright 1986, Carnegie Mellon
 University), and the Gaussian 82(TM) system (copyright 1983,
 Carnegie Mellon University). Gaussian is a federally registered
 trademark of Gaussian, Inc.
  
 This software contains proprietary and confidential information,
 including trade secrets, belonging to Gaussian, Inc.
  
 This software is provided under written license and may be
 used, copied, transmitted, or stored only in accord with that
 written license.
  
 The following legend is applicable only to US Government
 contracts under FAR:
  
                    RESTRICTED RIGHTS LEGEND
  
 Use, reproduction and disclosure by the US Government is
 subject to restrictions as set forth in subparagraphs (a)
 and (c) of the Commercial Computer Software - Restricted
 Rights clause in FAR 52.227-19.
  
 Gaussian, Inc.
 340 Quinnipiac St., Bldg. 40, Wallingford CT 06492
  
  
 ---------------------------------------------------------------
 Warning -- This program may not be used in any manner that
 competes with the business of Gaussian, Inc. or will provide
 assistance to any competitor of Gaussian, Inc.  The licensee
 of this program is prohibited from giving any competitor of
 Gaussian, Inc. access to this program.  By using this program,
 the user acknowledges that Gaussian, Inc. is engaged in the
 business of creating and licensing software in the field of
 computational chemistry and represents and warrants to the
 licensee that it is not a competitor of Gaussian, Inc. and that
 it will not use this program in any manner prohibited above.
 ---------------------------------------------------------------
  

 Cite this work as:
 Gaussian 09, Revision D.01,
 M. J. Frisch, G. W. Trucks, H. B. Schlegel, G. E. Scuseria, 
 M. A. Robb, J. R. Cheeseman, G. Scalmani, V. Barone, B. Mennucci, 
 G. A. Petersson, H. Nakatsuji, M. Caricato, X. Li, H. P. Hratchian, 
 A. F. Izmaylov, J. Bloino, G. Zheng, J. L. Sonnenberg, M. Hada, 
 M. Ehara, K. Toyota, R. Fukuda, J. Hasegawa, M. Ishida, T. Nakajima, 
 Y. Honda, O. Kitao, H. Nakai, T. Vreven, J. A. Montgomery, Jr., 
 J. E. Peralta, F. Ogliaro, M. Bearpark, J. J. Heyd, E. Brothers, 
 K. N. Kudin, V. N. Staroverov, T. Keith, R. Kobayashi, J. Normand, 
 K. Raghavachari, A. Rendell, J. C. Burant, S. S. Iyengar, J. Tomasi, 
 M. Cossi, N. Rega, J. M. Millam, M. Klene, J. E. Knox, J. B. Cross, 
 V. Bakken, C. Adamo, J. Jaramillo, R. Gomperts, R. E. Stratmann, 
 O. Yazyev, A. J. Austin, R. Cammi, C. Pomelli, J. W. Ochterski, 
 R. L. Martin, K. Morokuma, V. G. Zakrzewski, G. A. Voth, 
 P. Salvador, J. J. Dannenberg, S. Dapprich, A. D. Daniels, 
 O. Farkas, J. B. Foresman, J. V. Ortiz, J. Cioslowski, 
 and D. J. Fox, Gaussian, Inc., Wallingford CT, 2013.
 
 ******************************************
 Gaussian 09:  ES64L-G09RevD.01 24-Apr-2013
                23-Feb-2022 
 ******************************************
 %nprocshared=8
 Will use up to    8 processors via shared memory.
 %mem=4GB
 %NoSave
 %chk="ts_diels.chk"
 ----------------------------------------------------------------------
 #n wB97XD/Def2TZVP scrf(smd,solvent=toluene) opt=(calcfc,ts,noeigentes
 t)
 ----------------------------------------------------------------------
 1/5=1,10=4,11=1,14=-1,18=20,26=3,38=1/1,3;
 2/9=110,12=2,17=6,18=5,40=1/2;
 3/5=44,7=101,11=2,16=1,25=1,30=1,70=32201,71=2,72=13,74=-58,140=1/1,2,3;
 4//1;
 5/5=2,38=5,53=13/2;
 8/6=4,10=90,11=11/1;
 11/6=1,8=1,9=11,15=111,16=1/1,2,10;
 10/6=1,13=1/2;
 6/7=2,8=2,9=2,10=2,28=1/1;
 7/10=1,18=20,25=1/1,2,3,16;
 1/5=1,10=4,11=1,14=-1,18=20,26=3/3(2);
 2/9=110/2;
 99//99;
 2/9=110/2;
 3/5=44,7=101,11=2,16=1,25=1,30=1,70=32205,71=1,72=13,74=-58/1,2,3;
 4/5=5,16=3,69=1/1;
 5/5=2,38=5,53=13/2;
 7//1,2,3,16;
 1/5=1,11=1,14=-1,18=20,26=3/3(-5);
 2/9=110/2;
 6/7=2,8=2,9=2,10=2,19=2,28=1/1;
 99/9=1/99;
 ----------------------------
 ts diels alder toluene - opt
 ----------------------------
 Symbolic Z-matrix:
 Charge =  0 Multiplicity = 1
 C                    -2.63453  -0.65629   0.55883 
 C                    -1.63088   0.30322   1.08273 
 C                    -0.37657  -0.25116   0.88902 
 C                    -0.57032  -1.57532   0.23951 
 H                    -1.90686   0.9993    1.85688 
 H                     0.49205  -0.07667   1.50294 
 C                    -2.5155   -2.84316  -0.67296 
 H                    -2.03366  -3.0354   -1.63094 
 H                    -2.41568  -3.72973  -0.04514 
 H                    -3.57136  -2.63577  -0.83233 
 N                    -1.92054  -1.6922   -0.04024 
 O                     0.25588  -2.42178  -0.0162 
 O                    -3.83895  -0.60374   0.62065 
 C                    -0.81407   2.6117   -0.29714 
 H                    -0.86702   3.58611   0.1785 
 C                     0.44734   2.04538  -0.47091 
 H                     1.30719   2.59751  -0.11019 
 C                    -1.9914    1.92234  -0.48795 
 H                    -1.99902   1.0995   -1.19507 
 C                    -3.32619   2.52588  -0.19867 
 H                    -4.03231   1.76998   0.14772 
 H                    -3.2567    3.3138    0.55258 
 H                    -3.74436   2.96051  -1.1117 
 C                     0.62719   0.73198  -0.84473 
 H                    -0.11036   0.25785  -1.4829 
 C                     1.97551   0.0942   -0.94466 
 H                     2.38948   0.27021  -1.94379 
 H                     1.87456  -0.98227  -0.79974 
 C                     4.03561   0.12295   0.31993 
 C                     4.42914  -1.1375   -0.39619 
 H                     4.34417  -1.02839  -1.47812 
 H                     5.4553   -1.37818  -0.13384 
 H                     3.77886  -1.96087  -0.09266 
 O                     2.83653   0.66401   0.03647 
 O                     4.72248   0.66809   1.13891 
 
 Add virtual bond connecting atoms C18        and C2         Dist= 4.32D+00.
 Add virtual bond connecting atoms C24        and C3         Dist= 4.22D+00.
 Add virtual bond connecting atoms H28        and O12        Dist= 4.35D+00.

 GradGradGradGradGradGradGradGradGradGradGradGradGradGradGradGradGradGrad
 Berny optimization.
 Initialization pass.
                           ----------------------------
                           !    Initial Parameters    !
                           ! (Angstroms and Degrees)  !
 --------------------------                            --------------------------
 ! Name  Definition              Value          Derivative Info.                !
 --------------------------------------------------------------------------------
 ! R1    R(1,2)                  1.4841         calculate D2E/DX2 analytically  !
 ! R2    R(1,11)                 1.3935         calculate D2E/DX2 analytically  !
 ! R3    R(1,13)                 1.2071         calculate D2E/DX2 analytically  !
 ! R4    R(2,3)                  1.385          calculate D2E/DX2 analytically  !
 ! R5    R(2,5)                  1.077          calculate D2E/DX2 analytically  !
 ! R6    R(2,18)                 2.2844         calculate D2E/DX2 analytically  !
 ! R7    R(3,4)                  1.4875         calculate D2E/DX2 analytically  !
 ! R8    R(3,6)                  1.0779         calculate D2E/DX2 analytically  !
 ! R9    R(3,24)                 2.2316         calculate D2E/DX2 analytically  !
 ! R10   R(4,11)                 1.3838         calculate D2E/DX2 analytically  !
 ! R11   R(4,12)                 1.2102         calculate D2E/DX2 analytically  !
 ! R12   R(7,8)                  1.0894         calculate D2E/DX2 analytically  !
 ! R13   R(7,9)                  1.0909         calculate D2E/DX2 analytically  !
 ! R14   R(7,10)                 1.0878         calculate D2E/DX2 analytically  !
 ! R15   R(7,11)                 1.4419         calculate D2E/DX2 analytically  !
 ! R16   R(12,28)                2.3035         calculate D2E/DX2 analytically  !
 ! R17   R(14,15)                1.0856         calculate D2E/DX2 analytically  !
 ! R18   R(14,16)                1.3936         calculate D2E/DX2 analytically  !
 ! R19   R(14,18)                1.3776         calculate D2E/DX2 analytically  !
 ! R20   R(16,17)                1.0837         calculate D2E/DX2 analytically  !
 ! R21   R(16,24)                1.3774         calculate D2E/DX2 analytically  !
 ! R22   R(18,19)                1.085          calculate D2E/DX2 analytically  !
 ! R23   R(18,20)                1.4932         calculate D2E/DX2 analytically  !
 ! R24   R(20,21)                1.0909         calculate D2E/DX2 analytically  !
 ! R25   R(20,22)                1.0909         calculate D2E/DX2 analytically  !
 ! R26   R(20,23)                1.0943         calculate D2E/DX2 analytically  !
 ! R27   R(24,25)                1.0845         calculate D2E/DX2 analytically  !
 ! R28   R(24,26)                1.4949         calculate D2E/DX2 analytically  !
 ! R29   R(26,27)                1.0957         calculate D2E/DX2 analytically  !
 ! R30   R(26,28)                1.0909         calculate D2E/DX2 analytically  !
 ! R31   R(26,34)                1.4243         calculate D2E/DX2 analytically  !
 ! R32   R(29,30)                1.5021         calculate D2E/DX2 analytically  !
 ! R33   R(29,34)                1.3457         calculate D2E/DX2 analytically  !
 ! R34   R(29,35)                1.1999         calculate D2E/DX2 analytically  !
 ! R35   R(30,31)                1.0907         calculate D2E/DX2 analytically  !
 ! R36   R(30,32)                1.0862         calculate D2E/DX2 analytically  !
 ! R37   R(30,33)                1.0922         calculate D2E/DX2 analytically  !
 ! A1    A(2,1,11)             106.6121         calculate D2E/DX2 analytically  !
 ! A2    A(2,1,13)             128.9419         calculate D2E/DX2 analytically  !
 ! A3    A(11,1,13)            124.444          calculate D2E/DX2 analytically  !
 ! A4    A(1,2,3)              107.7165         calculate D2E/DX2 analytically  !
 ! A5    A(1,2,5)              119.888          calculate D2E/DX2 analytically  !
 ! A6    A(1,2,18)              96.246          calculate D2E/DX2 analytically  !
 ! A7    A(3,2,5)              126.2492         calculate D2E/DX2 analytically  !
 ! A8    A(3,2,18)             109.2972         calculate D2E/DX2 analytically  !
 ! A9    A(5,2,18)              89.7534         calculate D2E/DX2 analytically  !
 ! A10   A(2,3,4)              107.4231         calculate D2E/DX2 analytically  !
 ! A11   A(2,3,6)              125.8288         calculate D2E/DX2 analytically  !
 ! A12   A(2,3,24)             109.8572         calculate D2E/DX2 analytically  !
 ! A13   A(4,3,6)              119.8511         calculate D2E/DX2 analytically  !
 ! A14   A(4,3,24)              96.4034         calculate D2E/DX2 analytically  !
 ! A15   A(6,3,24)              90.499          calculate D2E/DX2 analytically  !
 ! A16   A(3,4,11)             106.8899         calculate D2E/DX2 analytically  !
 ! A17   A(3,4,12)             128.7536         calculate D2E/DX2 analytically  !
 ! A18   A(11,4,12)            124.3565         calculate D2E/DX2 analytically  !
 ! A19   A(8,7,9)              108.7948         calculate D2E/DX2 analytically  !
 ! A20   A(8,7,10)             109.5192         calculate D2E/DX2 analytically  !
 ! A21   A(8,7,11)             110.1345         calculate D2E/DX2 analytically  !
 ! A22   A(9,7,10)             109.1518         calculate D2E/DX2 analytically  !
 ! A23   A(9,7,11)             111.0029         calculate D2E/DX2 analytically  !
 ! A24   A(10,7,11)            108.2175         calculate D2E/DX2 analytically  !
 ! A25   A(1,11,4)             110.5017         calculate D2E/DX2 analytically  !
 ! A26   A(1,11,7)             124.7947         calculate D2E/DX2 analytically  !
 ! A27   A(4,11,7)             123.9681         calculate D2E/DX2 analytically  !
 ! A28   A(4,12,28)             96.5756         calculate D2E/DX2 analytically  !
 ! A29   A(15,14,16)           117.6157         calculate D2E/DX2 analytically  !
 ! A30   A(15,14,18)           117.9152         calculate D2E/DX2 analytically  !
 ! A31   A(16,14,18)           123.5697         calculate D2E/DX2 analytically  !
 ! A32   A(14,16,17)           118.0121         calculate D2E/DX2 analytically  !
 ! A33   A(14,16,24)           122.6525         calculate D2E/DX2 analytically  !
 ! A34   A(17,16,24)           118.2021         calculate D2E/DX2 analytically  !
 ! A35   A(2,18,14)             97.1557         calculate D2E/DX2 analytically  !
 ! A36   A(2,18,19)             84.9338         calculate D2E/DX2 analytically  !
 ! A37   A(2,18,20)            107.1187         calculate D2E/DX2 analytically  !
 ! A38   A(14,18,19)           118.4109         calculate D2E/DX2 analytically  !
 ! A39   A(14,18,20)           122.3355         calculate D2E/DX2 analytically  !
 ! A40   A(19,18,20)           115.2476         calculate D2E/DX2 analytically  !
 ! A41   A(18,20,21)           111.1047         calculate D2E/DX2 analytically  !
 ! A42   A(18,20,22)           111.6179         calculate D2E/DX2 analytically  !
 ! A43   A(18,20,23)           109.9078         calculate D2E/DX2 analytically  !
 ! A44   A(21,20,22)           108.8476         calculate D2E/DX2 analytically  !
 ! A45   A(21,20,23)           107.0264         calculate D2E/DX2 analytically  !
 ! A46   A(22,20,23)           108.184          calculate D2E/DX2 analytically  !
 ! A47   A(3,24,16)             98.6565         calculate D2E/DX2 analytically  !
 ! A48   A(3,24,25)             87.631          calculate D2E/DX2 analytically  !
 ! A49   A(3,24,26)            105.6446         calculate D2E/DX2 analytically  !
 ! A50   A(16,24,25)           119.1969         calculate D2E/DX2 analytically  !
 ! A51   A(16,24,26)           122.8706         calculate D2E/DX2 analytically  !
 ! A52   A(25,24,26)           112.8027         calculate D2E/DX2 analytically  !
 ! A53   A(24,26,27)           109.4621         calculate D2E/DX2 analytically  !
 ! A54   A(24,26,28)           109.1875         calculate D2E/DX2 analytically  !
 ! A55   A(24,26,34)           109.1787         calculate D2E/DX2 analytically  !
 ! A56   A(27,26,28)           108.3375         calculate D2E/DX2 analytically  !
 ! A57   A(27,26,34)           109.601          calculate D2E/DX2 analytically  !
 ! A58   A(28,26,34)           111.0519         calculate D2E/DX2 analytically  !
 ! A59   A(12,28,26)           136.626          calculate D2E/DX2 analytically  !
 ! A60   A(30,29,34)           118.0598         calculate D2E/DX2 analytically  !
 ! A61   A(30,29,35)           123.8249         calculate D2E/DX2 analytically  !
 ! A62   A(34,29,35)           118.1114         calculate D2E/DX2 analytically  !
 ! A63   A(29,30,31)           111.6255         calculate D2E/DX2 analytically  !
 ! A64   A(29,30,32)           108.5596         calculate D2E/DX2 analytically  !
 ! A65   A(29,30,33)           110.1267         calculate D2E/DX2 analytically  !
 ! A66   A(31,30,32)           109.594          calculate D2E/DX2 analytically  !
 ! A67   A(31,30,33)           107.7395         calculate D2E/DX2 analytically  !
 ! A68   A(32,30,33)           109.1667         calculate D2E/DX2 analytically  !
 ! A69   A(26,34,29)           121.5273         calculate D2E/DX2 analytically  !
 ! D1    D(11,1,2,3)            -5.4179         calculate D2E/DX2 analytically  !
 ! D2    D(11,1,2,5)          -159.5191         calculate D2E/DX2 analytically  !
 ! D3    D(11,1,2,18)          107.1611         calculate D2E/DX2 analytically  !
 ! D4    D(13,1,2,3)           174.0675         calculate D2E/DX2 analytically  !
 ! D5    D(13,1,2,5)            19.9663         calculate D2E/DX2 analytically  !
 ! D6    D(13,1,2,18)          -73.3535         calculate D2E/DX2 analytically  !
 ! D7    D(2,1,11,4)             9.2265         calculate D2E/DX2 analytically  !
 ! D8    D(2,1,11,7)           179.7032         calculate D2E/DX2 analytically  !
 ! D9    D(13,1,11,4)         -170.2882         calculate D2E/DX2 analytically  !
 ! D10   D(13,1,11,7)            0.1885         calculate D2E/DX2 analytically  !
 ! D11   D(1,2,3,4)             -0.0981         calculate D2E/DX2 analytically  !
 ! D12   D(1,2,3,6)           -150.5589         calculate D2E/DX2 analytically  !
 ! D13   D(1,2,3,24)           103.6478         calculate D2E/DX2 analytically  !
 ! D14   D(5,2,3,4)            151.895          calculate D2E/DX2 analytically  !
 ! D15   D(5,2,3,6)              1.4343         calculate D2E/DX2 analytically  !
 ! D16   D(5,2,3,24)          -104.359          calculate D2E/DX2 analytically  !
 ! D17   D(18,2,3,4)          -103.5641         calculate D2E/DX2 analytically  !
 ! D18   D(18,2,3,6)           105.9751         calculate D2E/DX2 analytically  !
 ! D19   D(18,2,3,24)            0.1818         calculate D2E/DX2 analytically  !
 ! D20   D(1,2,18,14)         -161.778          calculate D2E/DX2 analytically  !
 ! D21   D(1,2,18,19)          -43.7257         calculate D2E/DX2 analytically  !
 ! D22   D(1,2,18,20)           71.1561         calculate D2E/DX2 analytically  !
 ! D23   D(3,2,18,14)          -50.5138         calculate D2E/DX2 analytically  !
 ! D24   D(3,2,18,19)           67.5385         calculate D2E/DX2 analytically  !
 ! D25   D(3,2,18,20)         -177.5797         calculate D2E/DX2 analytically  !
 ! D26   D(5,2,18,14)           78.168          calculate D2E/DX2 analytically  !
 ! D27   D(5,2,18,19)         -163.7797         calculate D2E/DX2 analytically  !
 ! D28   D(5,2,18,20)          -48.8978         calculate D2E/DX2 analytically  !
 ! D29   D(2,3,4,11)             5.6274         calculate D2E/DX2 analytically  !
 ! D30   D(2,3,4,12)          -174.3195         calculate D2E/DX2 analytically  !
 ! D31   D(6,3,4,11)           158.184          calculate D2E/DX2 analytically  !
 ! D32   D(6,3,4,12)           -21.7629         calculate D2E/DX2 analytically  !
 ! D33   D(24,3,4,11)         -107.5429         calculate D2E/DX2 analytically  !
 ! D34   D(24,3,4,12)           72.5102         calculate D2E/DX2 analytically  !
 ! D35   D(2,3,24,16)           50.6919         calculate D2E/DX2 analytically  !
 ! D36   D(2,3,24,25)          -68.4883         calculate D2E/DX2 analytically  !
 ! D37   D(2,3,24,26)          178.4808         calculate D2E/DX2 analytically  !
 ! D38   D(4,3,24,16)          161.8464         calculate D2E/DX2 analytically  !
 ! D39   D(4,3,24,25)           42.6662         calculate D2E/DX2 analytically  !
 ! D40   D(4,3,24,26)          -70.3647         calculate D2E/DX2 analytically  !
 ! D41   D(6,3,24,16)          -78.0299         calculate D2E/DX2 analytically  !
 ! D42   D(6,3,24,25)          162.7899         calculate D2E/DX2 analytically  !
 ! D43   D(6,3,24,26)           49.759          calculate D2E/DX2 analytically  !
 ! D44   D(3,4,11,1)            -9.3            calculate D2E/DX2 analytically  !
 ! D45   D(3,4,11,7)          -179.8711         calculate D2E/DX2 analytically  !
 ! D46   D(12,4,11,1)          170.6498         calculate D2E/DX2 analytically  !
 ! D47   D(12,4,11,7)            0.0787         calculate D2E/DX2 analytically  !
 ! D48   D(3,4,12,28)          -42.5236         calculate D2E/DX2 analytically  !
 ! D49   D(11,4,12,28)         137.5379         calculate D2E/DX2 analytically  !
 ! D50   D(8,7,11,1)           134.3957         calculate D2E/DX2 analytically  !
 ! D51   D(8,7,11,4)           -56.3737         calculate D2E/DX2 analytically  !
 ! D52   D(9,7,11,1)          -105.0517         calculate D2E/DX2 analytically  !
 ! D53   D(9,7,11,4)            64.1789         calculate D2E/DX2 analytically  !
 ! D54   D(10,7,11,1)           14.7051         calculate D2E/DX2 analytically  !
 ! D55   D(10,7,11,4)         -176.0643         calculate D2E/DX2 analytically  !
 ! D56   D(4,12,28,26)          -0.4282         calculate D2E/DX2 analytically  !
 ! D57   D(15,14,16,17)          0.9092         calculate D2E/DX2 analytically  !
 ! D58   D(15,14,16,24)        168.5098         calculate D2E/DX2 analytically  !
 ! D59   D(18,14,16,17)       -167.9907         calculate D2E/DX2 analytically  !
 ! D60   D(18,14,16,24)         -0.3901         calculate D2E/DX2 analytically  !
 ! D61   D(15,14,18,2)        -108.9216         calculate D2E/DX2 analytically  !
 ! D62   D(15,14,18,19)        162.9853         calculate D2E/DX2 analytically  !
 ! D63   D(15,14,18,20)          6.583          calculate D2E/DX2 analytically  !
 ! D64   D(16,14,18,2)          59.9473         calculate D2E/DX2 analytically  !
 ! D65   D(16,14,18,19)        -28.1458         calculate D2E/DX2 analytically  !
 ! D66   D(16,14,18,20)        175.4519         calculate D2E/DX2 analytically  !
 ! D67   D(14,16,24,3)         -60.7915         calculate D2E/DX2 analytically  !
 ! D68   D(14,16,24,25)         31.3392         calculate D2E/DX2 analytically  !
 ! D69   D(14,16,24,26)       -175.8254         calculate D2E/DX2 analytically  !
 ! D70   D(17,16,24,3)         106.7868         calculate D2E/DX2 analytically  !
 ! D71   D(17,16,24,25)       -161.0825         calculate D2E/DX2 analytically  !
 ! D72   D(17,16,24,26)         -8.2471         calculate D2E/DX2 analytically  !
 ! D73   D(2,18,20,21)         -36.8678         calculate D2E/DX2 analytically  !
 ! D74   D(2,18,20,22)          84.8295         calculate D2E/DX2 analytically  !
 ! D75   D(2,18,20,23)        -155.1353         calculate D2E/DX2 analytically  !
 ! D76   D(14,18,20,21)       -147.3085         calculate D2E/DX2 analytically  !
 ! D77   D(14,18,20,22)        -25.6112         calculate D2E/DX2 analytically  !
 ! D78   D(14,18,20,23)         94.424          calculate D2E/DX2 analytically  !
 ! D79   D(19,18,20,21)         55.6016         calculate D2E/DX2 analytically  !
 ! D80   D(19,18,20,22)        177.2989         calculate D2E/DX2 analytically  !
 ! D81   D(19,18,20,23)        -62.6659         calculate D2E/DX2 analytically  !
 ! D82   D(3,24,26,27)         161.1579         calculate D2E/DX2 analytically  !
 ! D83   D(3,24,26,28)          42.7152         calculate D2E/DX2 analytically  !
 ! D84   D(3,24,26,34)         -78.8676         calculate D2E/DX2 analytically  !
 ! D85   D(16,24,26,27)        -87.3078         calculate D2E/DX2 analytically  !
 ! D86   D(16,24,26,28)        154.2496         calculate D2E/DX2 analytically  !
 ! D87   D(16,24,26,34)         32.6668         calculate D2E/DX2 analytically  !
 ! D88   D(25,24,26,27)         67.0766         calculate D2E/DX2 analytically  !
 ! D89   D(25,24,26,28)        -51.366          calculate D2E/DX2 analytically  !
 ! D90   D(25,24,26,34)       -172.9488         calculate D2E/DX2 analytically  !
 ! D91   D(24,26,28,12)        -14.1886         calculate D2E/DX2 analytically  !
 ! D92   D(27,26,28,12)       -133.3318         calculate D2E/DX2 analytically  !
 ! D93   D(34,26,28,12)        106.2529         calculate D2E/DX2 analytically  !
 ! D94   D(24,26,34,29)        168.6568         calculate D2E/DX2 analytically  !
 ! D95   D(27,26,34,29)        -71.4543         calculate D2E/DX2 analytically  !
 ! D96   D(28,26,34,29)         48.21           calculate D2E/DX2 analytically  !
 ! D97   D(34,29,30,31)         53.1537         calculate D2E/DX2 analytically  !
 ! D98   D(34,29,30,32)        174.0604         calculate D2E/DX2 analytically  !
 ! D99   D(34,29,30,33)        -66.4741         calculate D2E/DX2 analytically  !
 ! D100  D(35,29,30,31)       -127.5858         calculate D2E/DX2 analytically  !
 ! D101  D(35,29,30,32)         -6.6791         calculate D2E/DX2 analytically  !
 ! D102  D(35,29,30,33)        112.7863         calculate D2E/DX2 analytically  !
 ! D103  D(30,29,34,26)         -2.1133         calculate D2E/DX2 analytically  !
 ! D104  D(35,29,34,26)        178.5832         calculate D2E/DX2 analytically  !
 --------------------------------------------------------------------------------
 Trust Radius=3.00D-01 FncErr=1.00D-07 GrdErr=1.00D-06
 Number of steps in this run=    210 maximum allowed number of steps=    210.
 Search for a saddle point of order  1.
 GradGradGradGradGradGradGradGradGradGradGradGradGradGradGradGradGradGrad

                          Input orientation:                          
 ---------------------------------------------------------------------
 Center     Atomic      Atomic             Coordinates (Angstroms)
 Number     Number       Type             X           Y           Z
 ---------------------------------------------------------------------
      1          6           0       -2.634530   -0.656290    0.558830
      2          6           0       -1.630880    0.303220    1.082730
      3          6           0       -0.376570   -0.251160    0.889020
      4          6           0       -0.570320   -1.575320    0.239510
      5          1           0       -1.906860    0.999300    1.856880
      6          1           0        0.492050   -0.076670    1.502940
      7          6           0       -2.515500   -2.843160   -0.672960
      8          1           0       -2.033660   -3.035400   -1.630940
      9          1           0       -2.415680   -3.729730   -0.045140
     10          1           0       -3.571360   -2.635770   -0.832330
     11          7           0       -1.920540   -1.692200   -0.040240
     12          8           0        0.255880   -2.421780   -0.016200
     13          8           0       -3.838950   -0.603740    0.620650
     14          6           0       -0.814070    2.611700   -0.297140
     15          1           0       -0.867020    3.586110    0.178500
     16          6           0        0.447340    2.045380   -0.470910
     17          1           0        1.307190    2.597510   -0.110190
     18          6           0       -1.991400    1.922340   -0.487950
     19          1           0       -1.999020    1.099500   -1.195070
     20          6           0       -3.326190    2.525880   -0.198670
     21          1           0       -4.032310    1.769980    0.147720
     22          1           0       -3.256700    3.313800    0.552580
     23          1           0       -3.744360    2.960510   -1.111700
     24          6           0        0.627190    0.731980   -0.844730
     25          1           0       -0.110360    0.257850   -1.482900
     26          6           0        1.975510    0.094200   -0.944660
     27          1           0        2.389480    0.270210   -1.943790
     28          1           0        1.874560   -0.982270   -0.799740
     29          6           0        4.035610    0.122950    0.319930
     30          6           0        4.429140   -1.137500   -0.396190
     31          1           0        4.344170   -1.028390   -1.478120
     32          1           0        5.455300   -1.378180   -0.133840
     33          1           0        3.778860   -1.960870   -0.092660
     34          8           0        2.836530    0.664010    0.036470
     35          8           0        4.722480    0.668090    1.138910
 ---------------------------------------------------------------------
                    Distance matrix (angstroms):
                    1          2          3          4          5
     1  C    0.000000
     2  C    1.484063   0.000000
     3  C    2.317658   1.384974   0.000000
     4  C    2.282004   2.316187   1.487549   0.000000
     5  H    2.226076   1.077033   2.200498   3.321279   0.000000
     6  H    3.317048   2.197208   1.077889   2.229537   2.652877
     7  C    2.512743   3.710082   3.705842   2.494743   4.640585
     8  H    3.288815   4.321183   4.104648   2.787791   5.334770
     9  H    3.139858   4.260597   4.138970   2.850940   5.122529
    10  H    2.594478   4.008813   4.342360   3.358517   4.818313
    11  N    1.393476   2.307957   2.307372   1.383841   3.292935
    12  O    3.435416   3.491867   2.435366   1.210161   4.459783
    13  O    1.207150   2.431392   3.490617   3.431206   2.798388
    14  C    3.837515   2.810747   3.129592   4.228303   2.904105
    15  H    4.611583   3.489768   3.933195   5.170311   3.254199
    16  C    4.225791   3.125367   2.793266   3.827505   3.472052
    17  H    5.154800   3.913960   3.456644   4.589101   4.093135
    18  C    2.856343   2.284417   3.037733   3.844775   2.521384
    19  H    2.561803   2.440894   2.966489   3.354678   3.054985
    20  C    3.343412   3.075106   4.194673   4.960510   2.927496
    21  H    2.830121   2.965214   4.242519   4.815063   2.834204
    22  H    4.018551   3.462361   4.595354   5.587320   2.979963
    23  H    4.135654   4.042711   5.065542   5.698601   4.004400
    24  C    3.812623   2.999636   2.231589   2.816601   3.713700
    25  H    3.372795   2.982700   2.440484   2.557102   3.864103
    26  C    4.906749   4.142469   3.002322   3.266620   4.872436
    27  H    5.688777   5.032316   3.993454   4.114996   5.782318
    28  H    4.720579   4.181422   2.907579   2.721982   5.028259
    29  C    6.719751   5.720443   4.464432   4.909703   6.200254
    30  C    7.144163   6.402087   5.052941   5.058696   7.056000
    31  H    7.279415   6.635688   5.337867   5.234653   7.369473
    32  H    8.151458   7.383840   6.027199   6.040393   7.988540
    33  H    6.577077   5.981048   4.599392   4.378853   6.700054
    34  O    5.652305   4.602454   3.447954   4.081967   5.091764
    35  O    7.497738   6.364076   5.187271   5.818551   6.676326
                    6          7          8          9         10
     6  H    0.000000
     7  C    4.629618   0.000000
     8  H    4.995448   1.089427   0.000000
     9  H    4.918973   1.090930   1.772793   0.000000
    10  H    5.339830   1.087773   1.778202   1.775391   0.000000
    11  N    3.288150   1.441881   2.085020   2.096835   2.059839
    12  O    2.804123   2.879139   2.868084   2.974694   3.919136
    13  O    4.451269   2.905159   3.773818   3.498684   2.512350
    14  C    3.489064   5.726395   5.929263   6.545410   5.951892
    15  H    4.125187   6.691635   6.962723   7.481302   6.859083
    16  C    2.898479   5.719884   5.771946   6.459881   6.180108
    17  H    3.227674   6.673122   6.723365   7.341523   7.190894
    18  C    3.758618   4.797802   5.087966   5.685243   4.836449
    19  H    3.855913   4.010476   4.157954   4.981707   4.068916
    20  C    4.924195   5.450574   5.886414   6.323390   5.206176
    21  H    5.071151   4.924966   5.499992   5.735634   4.536916
    22  H    5.143112   6.321351   6.824656   7.118701   6.116729
    23  H    5.831636   5.948544   6.256760   6.903785   5.605919
    24  C    2.486711   4.763154   4.678825   5.459419   5.382352
    25  H    3.064318   4.007114   3.816608   4.825189   4.557938
    26  C    2.867158   5.373181   5.132136   5.891870   6.183294
    27  H    3.949749   5.947009   5.530741   6.534061   6.723963
    28  H    2.834392   4.769865   4.492262   5.150157   5.691500
    29  C    3.741147   7.259523   7.114570   7.523002   8.173386
    30  C    4.498081   7.156389   6.847950   7.327650   8.151259
    31  H    4.962995   7.141201   6.687911   7.419315   8.102859
    32  H    5.385799   8.122221   7.814871   8.215229   9.140570
    33  H    4.110872   6.382331   6.107889   6.442317   7.418109
    34  O    2.862818   6.437993   6.339136   6.848162   7.259781
    35  O    4.310884   8.246218   8.187389   8.467356   9.142705
                   11         12         13         14         15
    11  N    0.000000
    12  O    2.295576   0.000000
    13  O    2.302568   4.525315   0.000000
    14  C    4.451273   5.153605   4.509023   0.000000
    15  H    5.386864   6.115027   5.155842   1.085593   0.000000
    16  C    4.445429   4.494323   5.155737   1.393582   2.126764
    17  H    5.368868   5.129070   6.104497   2.129529   2.405797
    18  C    3.642851   4.913674   3.320168   1.377582   2.115778
    19  H    3.022148   4.344390   3.095676   2.120645   3.057997
    20  C    4.448949   6.110962   3.275474   2.515514   2.704415
    21  H    4.059753   5.998858   2.428085   3.356108   3.649430
    22  H    5.215055   6.749712   3.961157   2.679815   2.434062
    23  H    5.110974   6.794931   3.964071   3.061336   3.214821
    24  C    3.607600   3.281849   4.886501   2.431138   3.380195
    25  H    3.026667   3.076647   4.366880   2.727974   3.796064
    26  C    4.380457   3.185800   6.061787   3.812984   4.640571
    27  H    5.104001   3.938866   6.792163   4.296134   5.109217
    28  H    3.934924   2.303530   5.899575   4.516410   5.416947
    29  C    6.237004   4.568916   7.913735   5.485804   6.004104
    30  C    6.383794   4.382906   8.347465   6.446516   7.119836
    31  H    6.461790   4.559919   8.458642   6.422804   7.155033
    32  H    7.383115   5.304423   9.356928   7.433089   8.044468
    33  H    5.705970   3.553825   7.770563   6.484228   7.240630
    34  O    5.309174   4.023012   6.819860   4.151105   4.719653
    35  O    7.147802   5.552665   8.670884   6.040964   6.378067
                   16         17         18         19         20
    16  C    0.000000
    17  H    1.083655   0.000000
    18  C    2.441901   3.388105   0.000000
    19  H    2.720988   3.788406   1.084962   0.000000
    20  C    3.813728   4.634778   1.493187   2.188322   0.000000
    21  H    4.530542   5.409398   2.143036   2.527231   1.090860
    22  H    4.046768   4.667058   2.149383   3.088554   1.090882
    23  H    4.338021   5.162649   2.130664   2.552748   1.094255
    24  C    1.377355   2.117109   2.898493   2.674844   4.389155
    25  H    2.128478   3.060685   2.701622   2.087644   4.139417
    26  C    2.523261   2.722049   4.391703   4.107338   5.880271
    27  H    3.015379   3.154325   4.903174   4.528492   6.387674
    28  H    3.363295   3.689473   4.845577   4.415277   6.302079
    29  C    4.146908   3.708467   6.341555   6.298066   7.761386
    30  C    5.098141   4.876338   7.112972   6.853001   8.579307
    31  H    5.064367   4.923579   7.058802   6.696573   8.550102
    32  H    6.075693   5.745736   8.153046   7.926663   9.610435
    33  H    5.224188   5.185392   6.966454   6.630616   8.403803
    34  O    2.806037   2.469577   5.016704   5.008881   6.442125
    35  O    4.771296   4.116688   7.021111   7.128263   8.367891
                   21         22         23         24         25
    21  H    0.000000
    22  H    1.774504   0.000000
    23  H    1.756820   1.769874   0.000000
    24  C    4.875791   4.868559   4.914068   0.000000
    25  H    4.508564   4.835438   4.544020   1.084454   0.000000
    26  C    6.332096   6.323257   6.400043   1.494897   2.160402
    27  H    6.918317   6.882925   6.749376   2.127635   2.542002
    28  H    6.585110   6.827504   6.871324   2.120521   2.438137
    29  C    8.236121   7.963255   8.404121   3.653037   4.522993
    30  C    8.963560   8.932322   9.171245   4.260395   4.871858
    31  H    8.979958   8.986188   9.026068   4.161253   4.636515
    32  H   10.000247   9.918911  10.218326   5.316840   5.955932
    33  H    8.659758   8.816892   9.047500   4.213084   4.688445
    34  O    6.958197   6.664474   7.064016   2.379562   3.340301
    35  O    8.879356   8.426795   9.055817   4.550858   5.513486
                   26         27         28         29         30
    26  C    0.000000
    27  H    1.095724   0.000000
    28  H    1.090862   1.772766   0.000000
    29  C    2.417442   2.802830   2.673071   0.000000
    30  C    2.799679   2.921802   2.590913   1.502141   0.000000
    31  H    2.674946   2.392493   2.561503   2.157261   1.090733
    32  H    3.864488   3.923310   3.663587   2.115377   1.086167
    33  H    2.863789   3.214775   2.254768   2.139733   1.092215
    34  O    1.424309   2.067937   2.082035   1.345693   2.443162
    35  O    3.495205   3.886417   3.820039   1.199873   2.388040
                   31         32         33         34         35
    31  H    0.000000
    32  H    1.778778   0.000000
    33  H    1.763120   1.775296   0.000000
    34  O    2.726019   3.325282   2.791891   0.000000
    35  O    3.141657   2.518757   3.052641   2.184536   0.000000
 Stoichiometry    C13H17NO4
 Framework group  C1[X(C13H17NO4)]
 Deg. of freedom    99
 Full point group                 C1      NOp   1
 Largest Abelian subgroup         C1      NOp   1
 Largest concise Abelian subgroup C1      NOp   1
                         Standard orientation:                         
 ---------------------------------------------------------------------
 Center     Atomic      Atomic             Coordinates (Angstroms)
 Number     Number       Type             X           Y           Z
 ---------------------------------------------------------------------
      1          6           0       -2.634530   -0.656289    0.558830
      2          6           0       -1.630880    0.303220    1.082730
      3          6           0       -0.376570   -0.251160    0.889020
      4          6           0       -0.570321   -1.575320    0.239510
      5          1           0       -1.906860    0.999300    1.856880
      6          1           0        0.492050   -0.076671    1.502940
      7          6           0       -2.515501   -2.843159   -0.672960
      8          1           0       -2.033661   -3.035400   -1.630940
      9          1           0       -2.415681   -3.729729   -0.045140
     10          1           0       -3.571361   -2.635769   -0.832330
     11          7           0       -1.920541   -1.692200   -0.040240
     12          8           0        0.255879   -2.421780   -0.016200
     13          8           0       -3.838950   -0.603739    0.620650
     14          6           0       -0.814069    2.611700   -0.297140
     15          1           0       -0.867019    3.586110    0.178500
     16          6           0        0.447341    2.045379   -0.470910
     17          1           0        1.307191    2.597509   -0.110190
     18          6           0       -1.991399    1.922340   -0.487950
     19          1           0       -1.999020    1.099500   -1.195070
     20          6           0       -3.326189    2.525881   -0.198670
     21          1           0       -4.032309    1.769981    0.147720
     22          1           0       -3.256699    3.313801    0.552580
     23          1           0       -3.744359    2.960511   -1.111700
     24          6           0        0.627190    0.731979   -0.844730
     25          1           0       -0.110360    0.257850   -1.482900
     26          6           0        1.975510    0.094199   -0.944660
     27          1           0        2.389480    0.270209   -1.943790
     28          1           0        1.874560   -0.982271   -0.799740
     29          6           0        4.035610    0.122948    0.319930
     30          6           0        4.429140   -1.137502   -0.396190
     31          1           0        4.344170   -1.028392   -1.478120
     32          1           0        5.455299   -1.378182   -0.133840
     33          1           0        3.778859   -1.960872   -0.092660
     34          8           0        2.836530    0.664009    0.036470
     35          8           0        4.722480    0.668088    1.138910
 ---------------------------------------------------------------------
 Rotational constants (GHZ):      0.6682706      0.2656886      0.2073559
 Standard basis: def2TZVP (5D, 7F)
 There are   750 symmetry adapted cartesian basis functions of A   symmetry.
 There are   660 symmetry adapted basis functions of A   symmetry.
   660 basis functions,  1054 primitive gaussians,   750 cartesian basis functions
    67 alpha electrons       67 beta electrons
       nuclear repulsion energy      1363.4528276243 Hartrees.
 NAtoms=   35 NActive=   35 NUniq=   35 SFac= 1.00D+00 NAtFMM=   60 NAOKFM=F Big=F
 Integral buffers will be    131072 words long.
 Raffenetti 2 integral format.
 Two-electron integral symmetry is turned on.
 Nuclear repulsion after empirical dispersion term =     1363.4243861041 Hartrees.
 Force inversion solution in PCM.
 ------------------------------------------------------------------------------
 Polarizable Continuum Model (PCM)
 =================================
 Model                : PCM (using non-symmetric T matrix).
 Atomic radii         : SMD-Coulomb.
 Polarization charges : Total charges.
 Charge compensation  : None.
 Solution method      : Matrix inversion.
 Cavity type          : VdW (van der Waals Surface) (Alpha=1.000).
 Cavity algorithm     : GePol (No added spheres)
                        Default sphere list used, NSphG=   35.
                        Lebedev-Laikov grids with approx.  5.0 points / Ang**2.
                        Smoothing algorithm: Karplus/York (Gamma=1.0000).
                        Polarization charges: spherical gaussians, with
                                              point-specific exponents (IZeta= 3).
                        Self-potential: point-specific (ISelfS= 7).
                        Self-field    : sphere-specific E.n sum rule (ISelfD= 2).
 1st derivatives      : Analytical E(r).r(x)/FMM algorithm (CHGder, D1EAlg=3).
                        Cavity 1st derivative terms included.
 2nd derivatives      : Analytical E(r).r(xy)/FMM algorithm (CHGder, D2EAlg=3).
                        Cavity 2nd derivative terms included.
 Solvent              : Toluene, Eps=   2.374100 Eps(inf)=   2.238315
 ------------------------------------------------------------------------------
 ------------------------------------------------------------------------------
 Atomic radii for non-electrostatic terms: SMD-CDS.
 ------------------------------------------------------------------------------
 Nuclear repulsion after PCM non-electrostatic terms =     1363.4146723128 Hartrees.
 One-electron integrals computed using PRISM.
   1 Symmetry operations used in ECPInt.
 ECPInt:  NShTT=   35511 NPrTT=  107400 LenC2=   31710 LenP2D=   69515.
 LDataN:  DoStor=T MaxTD1= 6 Len=  172
 NBasis=   660 RedAO= T EigKep=  1.38D-05  NBF=   660
 NBsUse=   660 1.00D-06 EigRej= -1.00D+00 NBFU=   660
 ExpMin= 9.52D-02 ExpMax= 2.70D+04 ExpMxC= 9.22D+02 IAcc=2 IRadAn=         4 AccDes= 0.00D+00
 Harris functional with IExCor= 4639 and IRadAn=       4 diagonalized for initial guess.
 HarFok:  IExCor= 4639 AccDes= 0.00D+00 IRadAn=         4 IDoV= 1 UseB2=F ITyADJ=14
 ICtDFT=  3500011 ScaDFX=  1.000000  1.000000  1.000000  1.000000
 FoFCou: FMM=F IPFlag=           0 FMFlag=      100000 FMFlg1=           0
         NFxFlg=           0 DoJE=T BraDBF=F KetDBF=T FulRan=T
         wScrn=  0.000000 ICntrl=     500 IOpCl=  0 I1Cent=   200000004 NGrid=           0
         NMat0=    1 NMatS0=      1 NMatT0=    0 NMatD0=    1 NMtDS0=    0 NMtDT0=    0
 Petite list used in FoFCou.
 Requested convergence on RMS density matrix=1.00D-08 within 128 cycles.
 Requested convergence on MAX density matrix=1.00D-06.
 Requested convergence on             energy=1.00D-06.
 No special actions if energy rises.
 Inv3:  Mode=1 IEnd=    20813868.
 Iteration    1 A*A^-1 deviation from unit magnitude is 4.55D-15 for   2603.
 Iteration    1 A*A^-1 deviation from orthogonality  is 3.78D-15 for   2600    461.
 Iteration    1 A^-1*A deviation from unit magnitude is 4.33D-15 for   2603.
 Iteration    1 A^-1*A deviation from orthogonality  is 4.48D-14 for    827    813.
 Error on total polarization charges =  0.02046
 SCF Done:  E(RwB97XD) =  -861.291847948     A.U. after   15 cycles
            NFock= 15  Conv=0.54D-08     -V/T= 2.0046
 SMD-CDS (non-electrostatic) energy       (kcal/mol) =      -6.10
 (included in total energy above)
 DoSCS=F DFT=T ScalE2(SS,OS)=  1.000000  1.000000
 Range of M.O.s used for correlation:     1   660
 NBasis=   660 NAE=    67 NBE=    67 NFC=     0 NFV=     0
 NROrb=    660 NOA=    67 NOB=    67 NVA=   593 NVB=   593

 **** Warning!!: The largest alpha MO coefficient is  0.29771413D+02

   1 Symmetry operations used in ECPInt.
 ECPInt:  NShTT=   35511 NPrTT=  107400 LenC2=   31710 LenP2D=   69515.
 LDataN:  DoStor=T MaxTD1= 7 Len=  274
 Number of processors reduced to   4 by ecpmxn.
 Symmetrizing basis deriv contribution to polar:
 IMax=3 JMax=2 DiffMx= 0.00D+00
 G2DrvN: will do    36 centers at a time, making    1 passes.
 Calling FoFCou, ICntrl=  3107 FMM=F I1Cent=   0 AccDes= 0.00D+00.
 NEqPCM:  Using equilibrium solvation (IEInf=0, Eps=   2.3741, EpsInf=   2.2383)
 G2PCM: DoFxE=T DoFxN=T DoGrad=T DoDP/DQ/DG/TGxP=FFFF NFrqRd=   0 IEInf=0 SqF1=F DoCFld=F IF1Alg=4.
 End of G2Drv F.D. properties file   721 does not exist.
 End of G2Drv F.D. properties file   722 does not exist.
 End of G2Drv F.D. properties file   788 does not exist.
          IDoAtm=11111111111111111111111111111111111
 NEqPCM:  Using equilibrium solvation (IEInf=0, Eps=   2.3741, EpsInf=   2.2383)
          Differentiating once with respect to nuclear coordinates.
          There are   108 degrees of freedom in the 1st order CPHF.  IDoFFX=6 NUNeed=     0.
    102 vectors produced by pass  0 Test12= 3.97D-14 1.00D-09 XBig12= 1.66D-01 9.20D-02.
 AX will form   102 AO Fock derivatives at one time.
    102 vectors produced by pass  1 Test12= 3.97D-14 1.00D-09 XBig12= 7.87D-02 6.16D-02.
    102 vectors produced by pass  2 Test12= 3.97D-14 1.00D-09 XBig12= 2.68D-03 6.94D-03.
    102 vectors produced by pass  3 Test12= 3.97D-14 1.00D-09 XBig12= 3.54D-05 7.65D-04.
    102 vectors produced by pass  4 Test12= 3.97D-14 1.00D-09 XBig12= 3.31D-07 5.69D-05.
    102 vectors produced by pass  5 Test12= 3.97D-14 1.00D-09 XBig12= 3.07D-09 4.34D-06.
    102 vectors produced by pass  6 Test12= 3.97D-14 1.00D-09 XBig12= 2.46D-11 3.46D-07.
     48 vectors produced by pass  7 Test12= 3.97D-14 1.00D-09 XBig12= 1.79D-13 3.34D-08.
      4 vectors produced by pass  8 Test12= 3.97D-14 1.00D-09 XBig12= 3.38D-15 4.69D-09.
      1 vectors produced by pass  9 Test12= 3.97D-14 1.00D-09 XBig12= 3.85D-16 1.55D-09.
 InvSVY:  IOpt=1 It=  1 EMax= 7.22D-16
 Solved reduced A of dimension   767 with   108 vectors.
 End of Minotr F.D. properties file   721 does not exist.
 End of Minotr F.D. properties file   722 does not exist.
 End of Minotr F.D. properties file   788 does not exist.

 **********************************************************************

            Population analysis using the SCF density.

 **********************************************************************

 Orbital symmetries:
       Occupied  (A) (A) (A) (A) (A) (A) (A) (A) (A) (A) (A) (A)
                 (A) (A) (A) (A) (A) (A) (A) (A) (A) (A) (A) (A)
                 (A) (A) (A) (A) (A) (A) (A) (A) (A) (A) (A) (A)
                 (A) (A) (A) (A) (A) (A) (A) (A) (A) (A) (A) (A)
                 (A) (A) (A) (A) (A) (A) (A) (A) (A) (A) (A) (A)
                 (A) (A) (A) (A) (A) (A) (A)
       Virtual   (A) (A) (A) (A) (A) (A) (A) (A) (A) (A) (A) (A)
                 (A) (A) (A) (A) (A) (A) (A) (A) (A) (A) (A) (A)
                 (A) (A) (A) (A) (A) (A) (A) (A) (A) (A) (A) (A)
                 (A) (A) (A) (A) (A) (A) (A) (A) (A) (A) (A) (A)
                 (A) (A) (A) (A) (A) (A) (A) (A) (A) (A) (A) (A)
                 (A) (A) (A) (A) (A) (A) (A) (A) (A) (A) (A) (A)
                 (A) (A) (A) (A) (A) (A) (A) (A) (A) (A) (A) (A)
                 (A) (A) (A) (A) (A) (A) (A) (A) (A) (A) (A) (A)
                 (A) (A) (A) (A) (A) (A) (A) (A) (A) (A) (A) (A)
                 (A) (A) (A) (A) (A) (A) (A) (A) (A) (A) (A) (A)
                 (A) (A) (A) (A) (A) (A) (A) (A) (A) (A) (A) (A)
                 (A) (A) (A) (A) (A) (A) (A) (A) (A) (A) (A) (A)
                 (A) (A) (A) (A) (A) (A) (A) (A) (A) (A) (A) (A)
                 (A) (A) (A) (A) (A) (A) (A) (A) (A) (A) (A) (A)
                 (A) (A) (A) (A) (A) (A) (A) (A) (A) (A) (A) (A)
                 (A) (A) (A) (A) (A) (A) (A) (A) (A) (A) (A) (A)
                 (A) (A) (A) (A) (A) (A) (A) (A) (A) (A) (A) (A)
                 (A) (A) (A) (A) (A) (A) (A) (A) (A) (A) (A) (A)
                 (A) (A) (A) (A) (A) (A) (A) (A) (A) (A) (A) (A)
                 (A) (A) (A) (A) (A) (A) (A) (A) (A) (A) (A) (A)
                 (A) (A) (A) (A) (A) (A) (A) (A) (A) (A) (A) (A)
                 (A) (A) (A) (A) (A) (A) (A) (A) (A) (A) (A) (A)
                 (A) (A) (A) (A) (A) (A) (A) (A) (A) (A) (A) (A)
                 (A) (A) (A) (A) (A) (A) (A) (A) (A) (A) (A) (A)
                 (A) (A) (A) (A) (A) (A) (A) (A) (A) (A) (A) (A)
                 (A) (A) (A) (A) (A) (A) (A) (A) (A) (A) (A) (A)
                 (A) (A) (A) (A) (A) (A) (A) (A) (A) (A) (A) (A)
                 (A) (A) (A) (A) (A) (A) (A) (A) (A) (A) (A) (A)
                 (A) (A) (A) (A) (A) (A) (A) (A) (A) (A) (A) (A)
                 (A) (A) (A) (A) (A) (A) (A) (A) (A) (A) (A) (A)
                 (A) (A) (A) (A) (A) (A) (A) (A) (A) (A) (A) (A)
                 (A) (A) (A) (A) (A) (A) (A) (A) (A) (A) (A) (A)
                 (A) (A) (A) (A) (A) (A) (A) (A) (A) (A) (A) (A)
                 (A) (A) (A) (A) (A) (A) (A) (A) (A) (A) (A) (A)
                 (A) (A) (A) (A) (A) (A) (A) (A) (A) (A) (A) (A)
                 (A) (A) (A) (A) (A) (A) (A) (A) (A) (A) (A) (A)
                 (A) (A) (A) (A) (A) (A) (A) (A) (A) (A) (A) (A)
                 (A) (A) (A) (A) (A) (A) (A) (A) (A) (A) (A) (A)
                 (A) (A) (A) (A) (A) (A) (A) (A) (A) (A) (A) (A)
                 (A) (A) (A) (A) (A) (A) (A) (A) (A) (A) (A) (A)
                 (A) (A) (A) (A) (A) (A) (A) (A) (A) (A) (A) (A)
                 (A) (A) (A) (A) (A) (A) (A) (A) (A) (A) (A) (A)
                 (A) (A) (A) (A) (A) (A) (A) (A) (A) (A) (A) (A)
                 (A) (A) (A) (A) (A) (A) (A) (A) (A) (A) (A) (A)
                 (A) (A) (A) (A) (A) (A) (A) (A) (A) (A) (A) (A)
                 (A) (A) (A) (A) (A) (A) (A) (A) (A) (A) (A) (A)
                 (A) (A) (A) (A) (A) (A) (A) (A) (A) (A) (A) (A)
                 (A) (A) (A) (A) (A) (A) (A) (A) (A) (A) (A) (A)
                 (A) (A) (A) (A) (A) (A) (A) (A) (A) (A) (A) (A)
                 (A) (A) (A) (A) (A)
 The electronic state is 1-A.
 Alpha  occ. eigenvalues --  -19.29634 -19.24126 -19.23903 -19.22774 -14.48013
 Alpha  occ. eigenvalues --  -10.41590 -10.40490 -10.40406 -10.35096 -10.31852
 Alpha  occ. eigenvalues --  -10.31697 -10.31680 -10.31115 -10.30775 -10.29319
 Alpha  occ. eigenvalues --  -10.29146 -10.29104 -10.27770  -1.21055  -1.17721
 Alpha  occ. eigenvalues --   -1.15585  -1.12386  -1.06325  -0.94845  -0.91587
 Alpha  occ. eigenvalues --   -0.89285  -0.84974  -0.83425  -0.80535  -0.77449
 Alpha  occ. eigenvalues --   -0.75816  -0.71427  -0.70115  -0.67435  -0.64627
 Alpha  occ. eigenvalues --   -0.62235  -0.59977  -0.59599  -0.59073  -0.58101
 Alpha  occ. eigenvalues --   -0.57944  -0.55498  -0.55282  -0.53684  -0.53034
 Alpha  occ. eigenvalues --   -0.52907  -0.51944  -0.51266  -0.51179  -0.49564
 Alpha  occ. eigenvalues --   -0.49165  -0.48881  -0.48345  -0.47906  -0.47463
 Alpha  occ. eigenvalues --   -0.46957  -0.44903  -0.44328  -0.43583  -0.43226
 Alpha  occ. eigenvalues --   -0.38715  -0.38004  -0.36006  -0.35935  -0.35345
 Alpha  occ. eigenvalues --   -0.32479  -0.30991
 Alpha virt. eigenvalues --   -0.00665   0.02332   0.08402   0.10388   0.10630
 Alpha virt. eigenvalues --    0.11788   0.12593   0.12760   0.14530   0.15044
 Alpha virt. eigenvalues --    0.15561   0.16536   0.16844   0.17371   0.18231
 Alpha virt. eigenvalues --    0.18684   0.19458   0.19778   0.20194   0.20676
 Alpha virt. eigenvalues --    0.20839   0.21568   0.21974   0.22895   0.23384
 Alpha virt. eigenvalues --    0.23836   0.24049   0.24158   0.25134   0.26301
 Alpha virt. eigenvalues --    0.27038   0.28160   0.28237   0.28647   0.29266
 Alpha virt. eigenvalues --    0.29557   0.30667   0.31521   0.31611   0.32166
 Alpha virt. eigenvalues --    0.33505   0.33645   0.35317   0.35401   0.35746
 Alpha virt. eigenvalues --    0.36454   0.36755   0.37342   0.37769   0.38186
 Alpha virt. eigenvalues --    0.38933   0.39228   0.40906   0.41148   0.41749
 Alpha virt. eigenvalues --    0.42129   0.43217   0.43541   0.44275   0.44946
 Alpha virt. eigenvalues --    0.45261   0.46202   0.46237   0.46622   0.47296
 Alpha virt. eigenvalues --    0.48081   0.48397   0.48997   0.49257   0.49628
 Alpha virt. eigenvalues --    0.50062   0.50524   0.51039   0.51430   0.51886
 Alpha virt. eigenvalues --    0.52048   0.52465   0.53422   0.53532   0.54041
 Alpha virt. eigenvalues --    0.54510   0.55198   0.55327   0.55831   0.56278
 Alpha virt. eigenvalues --    0.57711   0.58107   0.58596   0.59179   0.59495
 Alpha virt. eigenvalues --    0.59998   0.61631   0.62174   0.62616   0.63198
 Alpha virt. eigenvalues --    0.63424   0.64224   0.64439   0.64807   0.65707
 Alpha virt. eigenvalues --    0.66390   0.66775   0.66965   0.67425   0.68517
 Alpha virt. eigenvalues --    0.69638   0.70431   0.70776   0.71947   0.72513
 Alpha virt. eigenvalues --    0.73500   0.74289   0.75429   0.75671   0.76240
 Alpha virt. eigenvalues --    0.77884   0.78308   0.78924   0.80748   0.81532
 Alpha virt. eigenvalues --    0.83067   0.83883   0.84696   0.85999   0.86430
 Alpha virt. eigenvalues --    0.87005   0.87560   0.88627   0.89501   0.90137
 Alpha virt. eigenvalues --    0.90472   0.91570   0.92261   0.94620   0.95406
 Alpha virt. eigenvalues --    0.95488   0.97070   0.97239   0.97550   0.98241
 Alpha virt. eigenvalues --    0.99737   1.00387   1.01273   1.02692   1.03060
 Alpha virt. eigenvalues --    1.03994   1.05410   1.05608   1.06554   1.07926
 Alpha virt. eigenvalues --    1.08777   1.09246   1.10294   1.12186   1.12199
 Alpha virt. eigenvalues --    1.13015   1.13628   1.14958   1.16343   1.17217
 Alpha virt. eigenvalues --    1.17694   1.18426   1.18654   1.19151   1.19848
 Alpha virt. eigenvalues --    1.20684   1.22419   1.23559   1.24252   1.25299
 Alpha virt. eigenvalues --    1.25903   1.27138   1.29041   1.30618   1.31118
 Alpha virt. eigenvalues --    1.32860   1.33074   1.34839   1.35484   1.36397
 Alpha virt. eigenvalues --    1.37561   1.38665   1.39361   1.40459   1.42504
 Alpha virt. eigenvalues --    1.43189   1.45749   1.46475   1.47572   1.48866
 Alpha virt. eigenvalues --    1.49853   1.50888   1.52018   1.52317   1.54172
 Alpha virt. eigenvalues --    1.55505   1.56922   1.57413   1.58235   1.58603
 Alpha virt. eigenvalues --    1.59453   1.59872   1.60477   1.60548   1.61240
 Alpha virt. eigenvalues --    1.61362   1.61993   1.63574   1.63833   1.64720
 Alpha virt. eigenvalues --    1.65664   1.66630   1.66704   1.67651   1.68084
 Alpha virt. eigenvalues --    1.68830   1.69450   1.69889   1.70513   1.71669
 Alpha virt. eigenvalues --    1.72123   1.72926   1.73029   1.73953   1.75143
 Alpha virt. eigenvalues --    1.77165   1.77719   1.79223   1.81261   1.82417
 Alpha virt. eigenvalues --    1.83472   1.84276   1.84904   1.85753   1.87357
 Alpha virt. eigenvalues --    1.88773   1.91260   1.91664   1.91877   1.93608
 Alpha virt. eigenvalues --    1.94365   1.96071   1.96654   1.97586   1.98812
 Alpha virt. eigenvalues --    1.99685   2.00624   2.01215   2.02097   2.03248
 Alpha virt. eigenvalues --    2.03973   2.04012   2.05753   2.07680   2.08743
 Alpha virt. eigenvalues --    2.11184   2.11835   2.12997   2.13681   2.14477
 Alpha virt. eigenvalues --    2.16373   2.17317   2.18647   2.19062   2.19580
 Alpha virt. eigenvalues --    2.20142   2.20949   2.21783   2.22037   2.23793
 Alpha virt. eigenvalues --    2.26045   2.27011   2.27530   2.29373   2.30854
 Alpha virt. eigenvalues --    2.31356   2.31931   2.33329   2.34547   2.34970
 Alpha virt. eigenvalues --    2.36562   2.38179   2.39405   2.39810   2.41261
 Alpha virt. eigenvalues --    2.41501   2.42507   2.42941   2.43341   2.44213
 Alpha virt. eigenvalues --    2.45425   2.46098   2.47179   2.48418   2.48723
 Alpha virt. eigenvalues --    2.50084   2.51451   2.51593   2.52879   2.53903
 Alpha virt. eigenvalues --    2.55774   2.56152   2.57563   2.58066   2.58965
 Alpha virt. eigenvalues --    2.59620   2.60822   2.61093   2.62097   2.62625
 Alpha virt. eigenvalues --    2.63136   2.63652   2.65357   2.66021   2.66482
 Alpha virt. eigenvalues --    2.67238   2.68015   2.69081   2.70437   2.70982
 Alpha virt. eigenvalues --    2.72018   2.72927   2.73729   2.74230   2.76733
 Alpha virt. eigenvalues --    2.77324   2.78335   2.80589   2.81403   2.82532
 Alpha virt. eigenvalues --    2.83066   2.83298   2.84786   2.85468   2.86309
 Alpha virt. eigenvalues --    2.86993   2.88372   2.89593   2.90436   2.91531
 Alpha virt. eigenvalues --    2.92489   2.93070   2.94808   2.95068   2.96064
 Alpha virt. eigenvalues --    2.97562   2.99657   3.00149   3.00497   3.00997
 Alpha virt. eigenvalues --    3.02323   3.03552   3.04175   3.05177   3.06131
 Alpha virt. eigenvalues --    3.07375   3.08039   3.08282   3.08744   3.09962
 Alpha virt. eigenvalues --    3.11157   3.11484   3.12551   3.13265   3.14079
 Alpha virt. eigenvalues --    3.14823   3.15871   3.16385   3.17271   3.17698
 Alpha virt. eigenvalues --    3.18164   3.18799   3.19956   3.20347   3.21449
 Alpha virt. eigenvalues --    3.21898   3.23175   3.24122   3.25225   3.25967
 Alpha virt. eigenvalues --    3.26116   3.27351   3.27916   3.29278   3.30250
 Alpha virt. eigenvalues --    3.30829   3.31974   3.32624   3.32812   3.33718
 Alpha virt. eigenvalues --    3.34420   3.35121   3.36233   3.36993   3.37295
 Alpha virt. eigenvalues --    3.38094   3.39594   3.40090   3.40636   3.41821
 Alpha virt. eigenvalues --    3.42174   3.42517   3.43261   3.44335   3.45502
 Alpha virt. eigenvalues --    3.46238   3.46590   3.46737   3.47663   3.48592
 Alpha virt. eigenvalues --    3.50158   3.50513   3.52461   3.53033   3.53526
 Alpha virt. eigenvalues --    3.54537   3.55675   3.56452   3.57458   3.57975
 Alpha virt. eigenvalues --    3.58827   3.59738   3.61149   3.62720   3.63156
 Alpha virt. eigenvalues --    3.64640   3.64837   3.65861   3.67868   3.68377
 Alpha virt. eigenvalues --    3.69892   3.71946   3.72577   3.73863   3.74437
 Alpha virt. eigenvalues --    3.74842   3.75765   3.77090   3.78311   3.80670
 Alpha virt. eigenvalues --    3.81810   3.82170   3.83579   3.84447   3.87052
 Alpha virt. eigenvalues --    3.88851   3.89749   3.90073   3.93083   3.95017
 Alpha virt. eigenvalues --    3.95930   3.97888   3.98596   3.99375   4.00824
 Alpha virt. eigenvalues --    4.04407   4.05857   4.06813   4.08608   4.10232
 Alpha virt. eigenvalues --    4.11356   4.11799   4.13644   4.15429   4.17149
 Alpha virt. eigenvalues --    4.18810   4.22511   4.22897   4.23839   4.25764
 Alpha virt. eigenvalues --    4.27224   4.28300   4.28960   4.31255   4.32175
 Alpha virt. eigenvalues --    4.33935   4.36320   4.40354   4.41631   4.43022
 Alpha virt. eigenvalues --    4.44389   4.45382   4.46633   4.47057   4.49950
 Alpha virt. eigenvalues --    4.51088   4.51309   4.53305   4.56166   4.59344
 Alpha virt. eigenvalues --    4.61102   4.62086   4.63802   4.66356   4.66801
 Alpha virt. eigenvalues --    4.68624   4.69735   4.72070   4.76259   4.79004
 Alpha virt. eigenvalues --    4.82613   4.84061   4.86089   4.87007   4.87905
 Alpha virt. eigenvalues --    4.89748   4.94636   4.97592   5.00602   5.01431
 Alpha virt. eigenvalues --    5.05070   5.08789   5.10926   5.12044   5.18550
 Alpha virt. eigenvalues --    5.21440   5.22201   5.23093   5.24560   5.26744
 Alpha virt. eigenvalues --    5.27658   5.30215   5.32141   5.34985   5.35898
 Alpha virt. eigenvalues --    5.35904   5.36987   5.41914   5.43857   5.49328
 Alpha virt. eigenvalues --    5.51709   5.59571   5.66600   5.72285   5.73387
 Alpha virt. eigenvalues --    5.73963   5.80749   5.83590   5.85815   5.94381
 Alpha virt. eigenvalues --    5.98871   5.99826   6.00375   6.13329   6.14332
 Alpha virt. eigenvalues --    6.28151   6.30349   6.31025   6.36366   6.45111
 Alpha virt. eigenvalues --    6.47022   6.49222   6.52288   6.53681   6.59234
 Alpha virt. eigenvalues --    6.59629   6.64831   6.65930   6.74584   6.85037
 Alpha virt. eigenvalues --    6.89602   6.90617   6.92312   6.94230   6.95927
 Alpha virt. eigenvalues --    6.99661   7.00657   7.15267   7.15883   7.17503
 Alpha virt. eigenvalues --    7.20230   7.21708   7.25487   7.31594   7.49503
 Alpha virt. eigenvalues --   22.44098  22.47735  22.48429  22.58552  22.60219
 Alpha virt. eigenvalues --   22.65905  22.80437  22.85579  23.00558  23.07074
 Alpha virt. eigenvalues --   23.31815  23.43787  23.77046  33.01111  43.97611
 Alpha virt. eigenvalues --   44.09819  44.10247  44.39757
          Condensed to atoms (all electrons):
               1          2          3          4          5          6
     1  C    4.743556   0.077283   0.144820  -0.131609  -0.034960   0.003256
     2  C    0.077283   5.976003  -0.165455   0.171509   0.419113  -0.017465
     3  C    0.144820  -0.165455   5.903375   0.080022  -0.023385   0.406892
     4  C   -0.131609   0.171509   0.080022   4.758882   0.004115  -0.032146
     5  H   -0.034960   0.419113  -0.023385   0.004115   0.462960  -0.003160
     6  H    0.003256  -0.017465   0.406892  -0.032146  -0.003160   0.462529
     7  C   -0.053385   0.004464   0.007853  -0.049848   0.000014  -0.000036
     8  H    0.007556   0.000575  -0.000692  -0.005864  -0.000005  -0.000044
     9  H    0.000585  -0.001337   0.001274  -0.009226   0.000024   0.000041
    10  H   -0.016701   0.005348  -0.002036   0.010202  -0.000029  -0.000002
    11  N    0.352398  -0.158982  -0.088411   0.303734   0.004936   0.005125
    12  O    0.001622   0.009508  -0.094849   0.632568  -0.000033   0.003307
    13  O    0.653118  -0.103428   0.014924   0.001526   0.001681   0.000028
    14  C   -0.003924   0.007777  -0.058599   0.003290  -0.003515  -0.001390
    15  H   -0.000010  -0.000004  -0.001130   0.000056   0.000797  -0.000035
    16  C    0.006167  -0.067783   0.007264  -0.002832  -0.001346  -0.004115
    17  H    0.000112  -0.002277   0.001972  -0.000134  -0.000075   0.000898
    18  C    0.025181   0.057503   0.005805  -0.004852  -0.006546   0.001686
    19  H   -0.000709  -0.029894  -0.021504   0.004441   0.003308  -0.000039
    20  C   -0.004164   0.000964  -0.000273   0.000425  -0.002607  -0.000046
    21  H   -0.002106  -0.006060   0.001515  -0.000056   0.000073  -0.000027
    22  H    0.000447  -0.005437   0.000325   0.000002   0.001168   0.000002
    23  H    0.000064   0.003040   0.000018  -0.000048   0.000048   0.000002
    24  C   -0.006556   0.009880   0.053778   0.029689   0.001950  -0.016658
    25  H    0.003311  -0.018556  -0.025511  -0.001730  -0.000035   0.003460
    26  C   -0.000298   0.005194  -0.007537   0.003274  -0.000055  -0.001573
    27  H   -0.000049   0.000008   0.002625   0.000531   0.000001   0.000766
    28  H    0.000390  -0.000723  -0.007313  -0.005108  -0.000032  -0.001075
    29  C    0.000015  -0.000176  -0.000748   0.000283  -0.000006   0.000557
    30  C    0.000011  -0.000216  -0.000133  -0.000212   0.000000   0.000701
    31  H   -0.000001   0.000016  -0.000021  -0.000005   0.000000  -0.000026
    32  H    0.000000   0.000002  -0.000002   0.000006   0.000000  -0.000010
    33  H   -0.000005   0.000049  -0.000219   0.000221   0.000000   0.000066
    34  O   -0.000007  -0.000501  -0.006431   0.000609  -0.000005   0.010843
    35  O    0.000000  -0.000021  -0.000018  -0.000010   0.000000  -0.000031
               7          8          9         10         11         12
     1  C   -0.053385   0.007556   0.000585  -0.016701   0.352398   0.001622
     2  C    0.004464   0.000575  -0.001337   0.005348  -0.158982   0.009508
     3  C    0.007853  -0.000692   0.001274  -0.002036  -0.088411  -0.094849
     4  C   -0.049848  -0.005864  -0.009226   0.010202   0.303734   0.632568
     5  H    0.000014  -0.000005   0.000024  -0.000029   0.004936  -0.000033
     6  H   -0.000036  -0.000044   0.000041  -0.000002   0.005125   0.003307
     7  C    4.888439   0.408605   0.417796   0.405589   0.259516   0.011288
     8  H    0.408605   0.530642  -0.029852  -0.019479  -0.040948   0.003416
     9  H    0.417796  -0.029852   0.523739  -0.022615  -0.032090   0.001426
    10  H    0.405589  -0.019479  -0.022615   0.495940  -0.034926   0.000752
    11  N    0.259516  -0.040948  -0.032090  -0.034926   6.710039  -0.102459
    12  O    0.011288   0.003416   0.001426   0.000752  -0.102459   7.929446
    13  O   -0.006061   0.000467   0.000159   0.016176  -0.096592  -0.000149
    14  C    0.000025   0.000002  -0.000001   0.000003  -0.000361  -0.000006
    15  H    0.000001   0.000000   0.000000   0.000000   0.000005   0.000000
    16  C   -0.000040  -0.000003   0.000006   0.000001  -0.001590   0.000383
    17  H    0.000000   0.000000   0.000000   0.000000  -0.000009   0.000002
    18  C    0.000637   0.000331  -0.000089  -0.000110  -0.006092   0.000076
    19  H   -0.000084  -0.000377   0.000085  -0.000036   0.008399  -0.000069
    20  C   -0.000071  -0.000010   0.000005   0.000055  -0.001724  -0.000002
    21  H   -0.000038   0.000004  -0.000002  -0.000044   0.000994   0.000002
    22  H    0.000000   0.000000   0.000000   0.000001   0.000000   0.000000
    23  H    0.000002   0.000001   0.000000  -0.000005   0.000037   0.000000
    24  C    0.000468   0.000091  -0.000029   0.000112  -0.004864  -0.002056
    25  H    0.000174  -0.000282   0.000080  -0.000080   0.007267  -0.000335
    26  C   -0.000119  -0.000050   0.000009  -0.000016   0.001082  -0.011433
    27  H    0.000000  -0.000001   0.000000   0.000000   0.000031   0.000483
    28  H   -0.000135   0.000083  -0.000013   0.000005  -0.000096   0.013971
    29  C   -0.000001   0.000000   0.000000   0.000000   0.000014   0.001108
    30  C    0.000002   0.000000   0.000000   0.000000  -0.000023  -0.002730
    31  H    0.000000   0.000000   0.000000   0.000000   0.000001   0.000137
    32  H    0.000000   0.000000   0.000000   0.000000   0.000000   0.000020
    33  H   -0.000005  -0.000001   0.000000   0.000000   0.000040   0.003074
    34  O    0.000001   0.000000   0.000000   0.000000  -0.000034  -0.000181
    35  O    0.000000   0.000000   0.000000   0.000000   0.000000   0.000000
              13         14         15         16         17         18
     1  C    0.653118  -0.003924  -0.000010   0.006167   0.000112   0.025181
     2  C   -0.103428   0.007777  -0.000004  -0.067783  -0.002277   0.057503
     3  C    0.014924  -0.058599  -0.001130   0.007264   0.001972   0.005805
     4  C    0.001526   0.003290   0.000056  -0.002832  -0.000134  -0.004852
     5  H    0.001681  -0.003515   0.000797  -0.001346  -0.000075  -0.006546
     6  H    0.000028  -0.001390  -0.000035  -0.004115   0.000898   0.001686
     7  C   -0.006061   0.000025   0.000001  -0.000040   0.000000   0.000637
     8  H    0.000467   0.000002   0.000000  -0.000003   0.000000   0.000331
     9  H    0.000159  -0.000001   0.000000   0.000006   0.000000  -0.000089
    10  H    0.016176   0.000003   0.000000   0.000001   0.000000  -0.000110
    11  N   -0.096592  -0.000361   0.000005  -0.001590  -0.000009  -0.006092
    12  O   -0.000149  -0.000006   0.000000   0.000383   0.000002   0.000076
    13  O    7.900377   0.001018   0.000011   0.000044   0.000000   0.001556
    14  C    0.001018   5.017428   0.422421   0.470825  -0.038512   0.452125
    15  H    0.000011   0.422421   0.506572  -0.037487  -0.005648  -0.037287
    16  C    0.000044   0.470825  -0.037487   5.033518   0.428490  -0.037319
    17  H    0.000000  -0.038512  -0.005648   0.428490   0.476552   0.007666
    18  C    0.001556   0.452125  -0.037287  -0.037319   0.007666   5.118997
    19  H   -0.001353  -0.051851   0.003644  -0.004808  -0.000161   0.418009
    20  C   -0.015398  -0.027714  -0.004883   0.007298   0.000021   0.250350
    21  H    0.016965   0.006294   0.000012  -0.000007   0.000009  -0.053914
    22  H    0.000217  -0.000015   0.003130   0.001415  -0.000031  -0.048561
    23  H    0.000153  -0.007351   0.000373  -0.001069  -0.000006  -0.026032
    24  C   -0.000048  -0.045682   0.007262   0.408809  -0.040175  -0.032348
    25  H    0.000006  -0.005616   0.000008  -0.042134   0.002853   0.003215
    26  C   -0.000007   0.005125   0.000123  -0.043162  -0.011730  -0.001221
    27  H    0.000000  -0.000945  -0.000004  -0.014687   0.000636   0.000031
    28  H    0.000002   0.000574   0.000004   0.015725   0.000435   0.000311
    29  C    0.000000  -0.000207  -0.000013  -0.001568   0.001285   0.000074
    30  C    0.000000  -0.000045  -0.000002   0.002552   0.000872   0.000035
    31  H    0.000000   0.000003   0.000000  -0.000228  -0.000051  -0.000002
    32  H    0.000000   0.000000   0.000000  -0.000019  -0.000012   0.000000
    33  H    0.000000   0.000005   0.000000  -0.000267  -0.000038  -0.000005
    34  O    0.000000   0.000313  -0.000083   0.025163   0.014156   0.000685
    35  O    0.000000  -0.000020  -0.000001  -0.000309   0.000731   0.000004
              19         20         21         22         23         24
     1  C   -0.000709  -0.004164  -0.002106   0.000447   0.000064  -0.006556
     2  C   -0.029894   0.000964  -0.006060  -0.005437   0.003040   0.009880
     3  C   -0.021504  -0.000273   0.001515   0.000325   0.000018   0.053778
     4  C    0.004441   0.000425  -0.000056   0.000002  -0.000048   0.029689
     5  H    0.003308  -0.002607   0.000073   0.001168   0.000048   0.001950
     6  H   -0.000039  -0.000046  -0.000027   0.000002   0.000002  -0.016658
     7  C   -0.000084  -0.000071  -0.000038   0.000000   0.000002   0.000468
     8  H   -0.000377  -0.000010   0.000004   0.000000   0.000001   0.000091
     9  H    0.000085   0.000005  -0.000002   0.000000   0.000000  -0.000029
    10  H   -0.000036   0.000055  -0.000044   0.000001  -0.000005   0.000112
    11  N    0.008399  -0.001724   0.000994   0.000000   0.000037  -0.004864
    12  O   -0.000069  -0.000002   0.000002   0.000000   0.000000  -0.002056
    13  O   -0.001353  -0.015398   0.016965   0.000217   0.000153  -0.000048
    14  C   -0.051851  -0.027714   0.006294  -0.000015  -0.007351  -0.045682
    15  H    0.003644  -0.004883   0.000012   0.003130   0.000373   0.007262
    16  C   -0.004808   0.007298  -0.000007   0.001415  -0.001069   0.408809
    17  H   -0.000161   0.000021   0.000009  -0.000031  -0.000006  -0.040175
    18  C    0.418009   0.250350  -0.053914  -0.048561  -0.026032  -0.032348
    19  H    0.542396  -0.023403  -0.004366   0.005375  -0.002538   0.004109
    20  C   -0.023403   4.946063   0.432850   0.416342   0.395060   0.000708
    21  H   -0.004366   0.432850   0.491546  -0.022011  -0.021829   0.000195
    22  H    0.005375   0.416342  -0.022011   0.541853  -0.019209  -0.000118
    23  H   -0.002538   0.395060  -0.021829  -0.019209   0.537357  -0.000120
    24  C    0.004109   0.000708   0.000195  -0.000118  -0.000120   5.170753
    25  H    0.006858   0.000437   0.000002  -0.000011  -0.000021   0.411596
    26  C    0.001021  -0.000176  -0.000008  -0.000002   0.000006   0.330451
    27  H   -0.000069   0.000007   0.000000   0.000000  -0.000001  -0.004102
    28  H   -0.000011  -0.000011  -0.000001   0.000000   0.000001  -0.059143
    29  C   -0.000001   0.000001   0.000000   0.000000   0.000000   0.009111
    30  C    0.000000   0.000000   0.000000   0.000000   0.000000  -0.005594
    31  H    0.000000   0.000000   0.000000   0.000000   0.000000   0.003419
    32  H    0.000000   0.000000   0.000000   0.000000   0.000000  -0.000090
    33  H    0.000000   0.000000   0.000000   0.000000   0.000000  -0.001039
    34  O   -0.000015   0.000002   0.000000   0.000000   0.000000  -0.100839
    35  O    0.000000   0.000000   0.000000   0.000000   0.000000  -0.000067
              25         26         27         28         29         30
     1  C    0.003311  -0.000298  -0.000049   0.000390   0.000015   0.000011
     2  C   -0.018556   0.005194   0.000008  -0.000723  -0.000176  -0.000216
     3  C   -0.025511  -0.007537   0.002625  -0.007313  -0.000748  -0.000133
     4  C   -0.001730   0.003274   0.000531  -0.005108   0.000283  -0.000212
     5  H   -0.000035  -0.000055   0.000001  -0.000032  -0.000006   0.000000
     6  H    0.003460  -0.001573   0.000766  -0.001075   0.000557   0.000701
     7  C    0.000174  -0.000119   0.000000  -0.000135  -0.000001   0.000002
     8  H   -0.000282  -0.000050  -0.000001   0.000083   0.000000   0.000000
     9  H    0.000080   0.000009   0.000000  -0.000013   0.000000   0.000000
    10  H   -0.000080  -0.000016   0.000000   0.000005   0.000000   0.000000
    11  N    0.007267   0.001082   0.000031  -0.000096   0.000014  -0.000023
    12  O   -0.000335  -0.011433   0.000483   0.013971   0.001108  -0.002730
    13  O    0.000006  -0.000007   0.000000   0.000002   0.000000   0.000000
    14  C   -0.005616   0.005125  -0.000945   0.000574  -0.000207  -0.000045
    15  H    0.000008   0.000123  -0.000004   0.000004  -0.000013  -0.000002
    16  C   -0.042134  -0.043162  -0.014687   0.015725  -0.001568   0.002552
    17  H    0.002853  -0.011730   0.000636   0.000435   0.001285   0.000872
    18  C    0.003215  -0.001221   0.000031   0.000311   0.000074   0.000035
    19  H    0.006858   0.001021  -0.000069  -0.000011  -0.000001   0.000000
    20  C    0.000437  -0.000176   0.000007  -0.000011   0.000001   0.000000
    21  H    0.000002  -0.000008   0.000000  -0.000001   0.000000   0.000000
    22  H   -0.000011  -0.000002   0.000000   0.000000   0.000000   0.000000
    23  H   -0.000021   0.000006  -0.000001   0.000001   0.000000   0.000000
    24  C    0.411596   0.330451  -0.004102  -0.059143   0.009111  -0.005594
    25  H    0.518566  -0.022817   0.002918  -0.005893   0.000048   0.000289
    26  C   -0.022817   4.831133   0.392606   0.429336  -0.041695   0.001137
    27  H    0.002918   0.392606   0.558246  -0.045765  -0.002513  -0.001614
    28  H   -0.005893   0.429336  -0.045765   0.542897  -0.013025   0.009778
    29  C    0.000048  -0.041695  -0.002513  -0.013025   4.443567   0.291113
    30  C    0.000289   0.001137  -0.001614   0.009778   0.291113   5.197647
    31  H   -0.000069   0.002806  -0.002676  -0.003766  -0.015540   0.364061
    32  H   -0.000002   0.000913   0.000057   0.000193  -0.021422   0.386031
    33  H    0.000026  -0.007751   0.001352  -0.003012  -0.014285   0.378667
    34  O    0.003548   0.232619  -0.036255  -0.032370   0.343953  -0.114901
    35  O    0.000015   0.000748   0.000317   0.000397   0.699911  -0.101580
              31         32         33         34         35
     1  C   -0.000001   0.000000  -0.000005  -0.000007   0.000000
     2  C    0.000016   0.000002   0.000049  -0.000501  -0.000021
     3  C   -0.000021  -0.000002  -0.000219  -0.006431  -0.000018
     4  C   -0.000005   0.000006   0.000221   0.000609  -0.000010
     5  H    0.000000   0.000000   0.000000  -0.000005   0.000000
     6  H   -0.000026  -0.000010   0.000066   0.010843  -0.000031
     7  C    0.000000   0.000000  -0.000005   0.000001   0.000000
     8  H    0.000000   0.000000  -0.000001   0.000000   0.000000
     9  H    0.000000   0.000000   0.000000   0.000000   0.000000
    10  H    0.000000   0.000000   0.000000   0.000000   0.000000
    11  N    0.000001   0.000000   0.000040  -0.000034   0.000000
    12  O    0.000137   0.000020   0.003074  -0.000181   0.000000
    13  O    0.000000   0.000000   0.000000   0.000000   0.000000
    14  C    0.000003   0.000000   0.000005   0.000313  -0.000020
    15  H    0.000000   0.000000   0.000000  -0.000083  -0.000001
    16  C   -0.000228  -0.000019  -0.000267   0.025163  -0.000309
    17  H   -0.000051  -0.000012  -0.000038   0.014156   0.000731
    18  C   -0.000002   0.000000  -0.000005   0.000685   0.000004
    19  H    0.000000   0.000000   0.000000  -0.000015   0.000000
    20  C    0.000000   0.000000   0.000000   0.000002   0.000000
    21  H    0.000000   0.000000   0.000000   0.000000   0.000000
    22  H    0.000000   0.000000   0.000000   0.000000   0.000000
    23  H    0.000000   0.000000   0.000000   0.000000   0.000000
    24  C    0.003419  -0.000090  -0.001039  -0.100839  -0.000067
    25  H   -0.000069  -0.000002   0.000026   0.003548   0.000015
    26  C    0.002806   0.000913  -0.007751   0.232619   0.000748
    27  H   -0.002676   0.000057   0.001352  -0.036255   0.000317
    28  H   -0.003766   0.000193  -0.003012  -0.032370   0.000397
    29  C   -0.015540  -0.021422  -0.014285   0.343953   0.699911
    30  C    0.364061   0.386031   0.378667  -0.114901  -0.101580
    31  H    0.528177  -0.013670  -0.019510   0.004592   0.003294
    32  H   -0.013670   0.483756  -0.007939   0.004822   0.006761
    33  H   -0.019510  -0.007939   0.490787   0.004705   0.001948
    34  O    0.004592   0.004822   0.004705   8.000010  -0.107942
    35  O    0.003294   0.006761   0.001948  -0.107942   7.855142
 Mulliken charges:
               1
     1  C    0.234593
     2  C   -0.169922
     3  C   -0.128193
     4  C    0.238295
     5  H    0.175608
     6  H    0.177719
     7  C   -0.295051
     8  H    0.145832
     9  H    0.150026
    10  H    0.161893
    11  N   -0.084414
    12  O   -0.398286
    13  O   -0.385391
    14  C   -0.141474
    15  H    0.142170
    16  C   -0.146887
    17  H    0.162166
    18  C   -0.089897
    19  H    0.143646
    20  C   -0.370103
    21  H    0.160007
    22  H    0.125115
    23  H    0.142067
    24  C   -0.122854
    25  H    0.158417
    26  C   -0.087935
    27  H    0.148067
    28  H    0.163391
    29  C    0.320162
    30  C   -0.405848
    31  H    0.149059
    32  H    0.160605
    33  H    0.173139
    34  O   -0.246455
    35  O   -0.359269
 Sum of Mulliken charges =   0.00000
 Mulliken charges with hydrogens summed into heavy atoms:
               1
     1  C    0.234593
     2  C    0.005686
     3  C    0.049526
     4  C    0.238295
     7  C    0.162700
    11  N   -0.084414
    12  O   -0.398286
    13  O   -0.385391
    14  C    0.000696
    16  C    0.015280
    18  C    0.053750
    20  C    0.057086
    24  C    0.035563
    26  C    0.223524
    29  C    0.320162
    30  C    0.076954
    34  O   -0.246455
    35  O   -0.359269
 APT charges:
               1
     1  C   -0.551681
     2  C   -0.405201
     3  C   -0.440959
     4  C   -0.146887
     5  H    0.574061
     6  H    0.337236
     7  C   -1.392162
     8  H    0.310775
     9  H    0.564985
    10  H    0.647796
    11  N    0.086549
    12  O   -0.106642
    13  O    0.384693
    14  C   -0.596469
    15  H    0.665775
    16  C   -0.507861
    17  H    0.518786
    18  C    0.123559
    19  H    0.121748
    20  C   -1.601546
    21  H    0.352901
    22  H    0.510157
    23  H    0.654541
    24  C   -0.391494
    25  H    0.252121
    26  C   -0.602843
    27  H    0.553301
    28  H    0.269486
    29  C   -0.459736
    30  C   -1.069057
    31  H    0.280460
    32  H    1.007205
    33  H    0.018056
    34  O   -0.420192
    35  O    0.458537
 Sum of APT charges =   0.00000
 APT charges with hydrogens summed into heavy atoms:
               1
     1  C   -0.551681
     2  C    0.168861
     3  C   -0.103724
     4  C   -0.146887
     7  C    0.131393
    11  N    0.086549
    12  O   -0.106642
    13  O    0.384693
    14  C    0.069306
    16  C    0.010925
    18  C    0.245307
    20  C   -0.083947
    24  C   -0.139373
    26  C    0.219944
    29  C   -0.459736
[...]
    17  H    0.000113  -0.002288   0.001984  -0.000134  -0.000075   0.000899
    18  C    0.025032   0.057607   0.005639  -0.004782  -0.006509   0.001672
    19  H   -0.000693  -0.029878  -0.021501   0.004416   0.003314  -0.000038
    20  C   -0.004330   0.001260  -0.000330   0.000431  -0.002652  -0.000048
    21  H   -0.002184  -0.006050   0.001541  -0.000061   0.000067  -0.000027
    22  H    0.000477  -0.005479   0.000324   0.000002   0.001178   0.000002
    23  H    0.000065   0.003039   0.000016  -0.000048   0.000050   0.000002
    24  C   -0.006483   0.009757   0.053912   0.029527   0.001933  -0.016769
    25  H    0.003326  -0.018594  -0.025464  -0.001847  -0.000034   0.003474
    26  C   -0.000305   0.005267  -0.007544   0.003157  -0.000055  -0.001431
    27  H   -0.000049   0.000008   0.002647   0.000529   0.000001   0.000761
    28  H    0.000388  -0.000718  -0.007413  -0.005032  -0.000032  -0.001072
    29  C    0.000015  -0.000175  -0.000748   0.000291  -0.000006   0.000545
    30  C    0.000011  -0.000220  -0.000139  -0.000207   0.000000   0.000706
    31  H   -0.000001   0.000016  -0.000020  -0.000006   0.000000  -0.000026
    32  H    0.000000   0.000002  -0.000002   0.000006   0.000000  -0.000010
    33  H   -0.000005   0.000051  -0.000229   0.000224   0.000000   0.000071
    34  O   -0.000009  -0.000478  -0.006382   0.000613  -0.000005   0.010828
    35  O    0.000000  -0.000021  -0.000017  -0.000010   0.000000  -0.000035
               7          8          9         10         11         12
     1  C   -0.053454   0.007389   0.000900  -0.017008   0.353744   0.001648
     2  C    0.004343   0.000618  -0.001408   0.005520  -0.160064   0.009460
     3  C    0.007971  -0.000797   0.001414  -0.002120  -0.087077  -0.094915
     4  C   -0.049717  -0.005534  -0.009563   0.010210   0.303286   0.632333
     5  H    0.000013  -0.000005   0.000023  -0.000028   0.004927  -0.000034
     6  H   -0.000038  -0.000044   0.000042  -0.000002   0.005128   0.003318
     7  C    4.888493   0.409001   0.417205   0.405771   0.259276   0.011505
     8  H    0.409001   0.531238  -0.029917  -0.019646  -0.041196   0.003196
     9  H    0.417205  -0.029917   0.523787  -0.022353  -0.031898   0.001533
    10  H    0.405771  -0.019646  -0.022353   0.495343  -0.034852   0.000751
    11  N    0.259276  -0.041196  -0.031898  -0.034852   6.708653  -0.102495
    12  O    0.011505   0.003196   0.001533   0.000751  -0.102495   7.929479
    13  O   -0.006432   0.000456   0.000174   0.016427  -0.096448  -0.000149
    14  C    0.000032   0.000003  -0.000001   0.000004  -0.000388  -0.000002
    15  H    0.000001   0.000000   0.000000   0.000000   0.000004   0.000000
    16  C   -0.000039  -0.000004   0.000006   0.000001  -0.001553   0.000364
    17  H    0.000000   0.000000   0.000000   0.000000  -0.000008   0.000002
    18  C    0.000643   0.000335  -0.000088  -0.000116  -0.005950   0.000071
    19  H   -0.000095  -0.000382   0.000084  -0.000027   0.008279  -0.000065
    20  C   -0.000076  -0.000010   0.000005   0.000056  -0.001743  -0.000002
    21  H   -0.000033   0.000004  -0.000002  -0.000046   0.001006   0.000002
    22  H    0.000000   0.000000   0.000000   0.000001   0.000000   0.000000
    23  H    0.000001   0.000001   0.000000  -0.000005   0.000038   0.000000
    24  C    0.000476   0.000104  -0.000029   0.000110  -0.005079  -0.001954
    25  H    0.000161  -0.000294   0.000081  -0.000078   0.007385  -0.000368
    26  C   -0.000131  -0.000051   0.000009  -0.000015   0.001147  -0.011544
    27  H    0.000000   0.000000   0.000000   0.000000   0.000030   0.000488
    28  H   -0.000125   0.000083  -0.000013   0.000005  -0.000117   0.013968
    29  C   -0.000001   0.000000   0.000000   0.000000   0.000014   0.001121
    30  C    0.000002   0.000000   0.000000   0.000000  -0.000024  -0.002815
    31  H    0.000000   0.000000   0.000000   0.000000   0.000001   0.000142
    32  H    0.000000   0.000000   0.000000   0.000000   0.000000   0.000021
    33  H   -0.000006  -0.000001   0.000000   0.000000   0.000042   0.003193
    34  O    0.000001   0.000000   0.000000   0.000000  -0.000035  -0.000179
    35  O    0.000000   0.000000   0.000000   0.000000   0.000000   0.000000
              13         14         15         16         17         18
     1  C    0.652894  -0.003987  -0.000012   0.006200   0.000113   0.025032
     2  C   -0.103498   0.008012   0.000013  -0.067979  -0.002288   0.057607
     3  C    0.014902  -0.058803  -0.001138   0.007432   0.001984   0.005639
     4  C    0.001573   0.003344   0.000057  -0.002820  -0.000134  -0.004782
     5  H    0.001679  -0.003521   0.000796  -0.001324  -0.000075  -0.006509
     6  H    0.000027  -0.001374  -0.000035  -0.004145   0.000899   0.001672
     7  C   -0.006432   0.000032   0.000001  -0.000039   0.000000   0.000643
     8  H    0.000456   0.000003   0.000000  -0.000004   0.000000   0.000335
     9  H    0.000174  -0.000001   0.000000   0.000006   0.000000  -0.000088
    10  H    0.016427   0.000004   0.000000   0.000001   0.000000  -0.000116
    11  N   -0.096448  -0.000388   0.000004  -0.001553  -0.000008  -0.005950
    12  O   -0.000149  -0.000002   0.000000   0.000364   0.000002   0.000071
    13  O    7.900595   0.001025   0.000011   0.000043   0.000000   0.001621
    14  C    0.001025   5.017143   0.422376   0.471141  -0.038496   0.452342
    15  H    0.000011   0.422376   0.506635  -0.037441  -0.005651  -0.037315
    16  C    0.000043   0.471141  -0.037441   5.033557   0.428517  -0.037421
    17  H    0.000000  -0.038496  -0.005651   0.428517   0.476549   0.007668
    18  C    0.001621   0.452342  -0.037315  -0.037421   0.007668   5.118764
    19  H   -0.001346  -0.051874   0.003643  -0.004739  -0.000160   0.418076
    20  C   -0.015521  -0.027665  -0.004899   0.007302   0.000019   0.250182
    21  H    0.017046   0.006274   0.000012  -0.000008   0.000009  -0.053945
    22  H    0.000224  -0.000021   0.003139   0.001414  -0.000031  -0.048579
    23  H    0.000150  -0.007337   0.000376  -0.001074  -0.000006  -0.025941
    24  C   -0.000046  -0.045805   0.007274   0.408643  -0.040278  -0.032390
    25  H    0.000003  -0.005646   0.000008  -0.042132   0.002854   0.003216
    26  C   -0.000007   0.005043   0.000121  -0.043017  -0.011692  -0.001218
    27  H    0.000000  -0.000931  -0.000004  -0.014799   0.000628   0.000025
    28  H    0.000002   0.000575   0.000004   0.015757   0.000433   0.000312
    29  C    0.000000  -0.000203  -0.000013  -0.001601   0.001283   0.000073
    30  C    0.000000  -0.000044  -0.000002   0.002566   0.000874   0.000035
    31  H    0.000000   0.000003   0.000000  -0.000234  -0.000051  -0.000002
    32  H    0.000000   0.000000   0.000000  -0.000020  -0.000012   0.000000
    33  H    0.000000   0.000005   0.000000  -0.000268  -0.000038  -0.000006
    34  O    0.000000   0.000318  -0.000083   0.025099   0.014201   0.000683
    35  O    0.000000  -0.000020  -0.000001  -0.000308   0.000736   0.000004
              19         20         21         22         23         24
     1  C   -0.000693  -0.004330  -0.002184   0.000477   0.000065  -0.006483
     2  C   -0.029878   0.001260  -0.006050  -0.005479   0.003039   0.009757
     3  C   -0.021501  -0.000330   0.001541   0.000324   0.000016   0.053912
     4  C    0.004416   0.000431  -0.000061   0.000002  -0.000048   0.029527
     5  H    0.003314  -0.002652   0.000067   0.001178   0.000050   0.001933
     6  H   -0.000038  -0.000048  -0.000027   0.000002   0.000002  -0.016769
     7  C   -0.000095  -0.000076  -0.000033   0.000000   0.000001   0.000476
     8  H   -0.000382  -0.000010   0.000004   0.000000   0.000001   0.000104
     9  H    0.000084   0.000005  -0.000002   0.000000   0.000000  -0.000029
    10  H   -0.000027   0.000056  -0.000046   0.000001  -0.000005   0.000110
    11  N    0.008279  -0.001743   0.001006   0.000000   0.000038  -0.005079
    12  O   -0.000065  -0.000002   0.000002   0.000000   0.000000  -0.001954
    13  O   -0.001346  -0.015521   0.017046   0.000224   0.000150  -0.000046
    14  C   -0.051874  -0.027665   0.006274  -0.000021  -0.007337  -0.045805
    15  H    0.003643  -0.004899   0.000012   0.003139   0.000376   0.007274
    16  C   -0.004739   0.007302  -0.000008   0.001414  -0.001074   0.408643
    17  H   -0.000160   0.000019   0.000009  -0.000031  -0.000006  -0.040278
    18  C    0.418076   0.250182  -0.053945  -0.048579  -0.025941  -0.032390
    19  H    0.542328  -0.023376  -0.004344   0.005378  -0.002548   0.004106
    20  C   -0.023376   4.946357   0.432845   0.416326   0.394947   0.000716
    21  H   -0.004344   0.432845   0.491504  -0.022045  -0.021793   0.000193
    22  H    0.005378   0.416326  -0.022045   0.541939  -0.019190  -0.000118
    23  H   -0.002548   0.394947  -0.021793  -0.019190   0.537385  -0.000119
    24  C    0.004106   0.000716   0.000193  -0.000118  -0.000119   5.173184
    25  H    0.006857   0.000432   0.000002  -0.000011  -0.000020   0.411331
    26  C    0.001004  -0.000176  -0.000008  -0.000002   0.000006   0.328861
    27  H   -0.000069   0.000007   0.000000   0.000000  -0.000001  -0.004733
    28  H   -0.000011  -0.000011  -0.000001   0.000000   0.000001  -0.058723
    29  C   -0.000001   0.000001   0.000000   0.000000   0.000000   0.009186
    30  C    0.000000   0.000000   0.000000   0.000000   0.000000  -0.005808
    31  H    0.000000   0.000000   0.000000   0.000000   0.000000   0.003457
    32  H    0.000000   0.000000   0.000000   0.000000   0.000000  -0.000088
    33  H    0.000000   0.000000   0.000000   0.000000   0.000000  -0.001061
    34  O   -0.000015   0.000002   0.000000   0.000000   0.000000  -0.101022
    35  O    0.000000   0.000000   0.000000   0.000000   0.000000  -0.000076
              25         26         27         28         29         30
     1  C    0.003326  -0.000305  -0.000049   0.000388   0.000015   0.000011
     2  C   -0.018594   0.005267   0.000008  -0.000718  -0.000175  -0.000220
     3  C   -0.025464  -0.007544   0.002647  -0.007413  -0.000748  -0.000139
     4  C   -0.001847   0.003157   0.000529  -0.005032   0.000291  -0.000207
     5  H   -0.000034  -0.000055   0.000001  -0.000032  -0.000006   0.000000
     6  H    0.003474  -0.001431   0.000761  -0.001072   0.000545   0.000706
     7  C    0.000161  -0.000131   0.000000  -0.000125  -0.000001   0.000002
     8  H   -0.000294  -0.000051   0.000000   0.000083   0.000000   0.000000
     9  H    0.000081   0.000009   0.000000  -0.000013   0.000000   0.000000
    10  H   -0.000078  -0.000015   0.000000   0.000005   0.000000   0.000000
    11  N    0.007385   0.001147   0.000030  -0.000117   0.000014  -0.000024
    12  O   -0.000368  -0.011544   0.000488   0.013968   0.001121  -0.002815
    13  O    0.000003  -0.000007   0.000000   0.000002   0.000000   0.000000
    14  C   -0.005646   0.005043  -0.000931   0.000575  -0.000203  -0.000044
    15  H    0.000008   0.000121  -0.000004   0.000004  -0.000013  -0.000002
    16  C   -0.042132  -0.043017  -0.014799   0.015757  -0.001601   0.002566
    17  H    0.002854  -0.011692   0.000628   0.000433   0.001283   0.000874
    18  C    0.003216  -0.001218   0.000025   0.000312   0.000073   0.000035
    19  H    0.006857   0.001004  -0.000069  -0.000011  -0.000001   0.000000
    20  C    0.000432  -0.000176   0.000007  -0.000011   0.000001   0.000000
    21  H    0.000002  -0.000008   0.000000  -0.000001   0.000000   0.000000
    22  H   -0.000011  -0.000002   0.000000   0.000000   0.000000   0.000000
    23  H   -0.000020   0.000006  -0.000001   0.000001   0.000000   0.000000
    24  C    0.411331   0.328861  -0.004733  -0.058723   0.009186  -0.005808
    25  H    0.518748  -0.022628   0.002948  -0.005951   0.000047   0.000292
    26  C   -0.022628   4.832144   0.393191   0.429262  -0.041792   0.001738
    27  H    0.002948   0.393191   0.558094  -0.045696  -0.002437  -0.001545
    28  H   -0.005951   0.429262  -0.045696   0.542417  -0.013171   0.009686
    29  C    0.000047  -0.041792  -0.002437  -0.013171   4.444067   0.290671
    30  C    0.000292   0.001738  -0.001545   0.009686   0.290671   5.198832
    31  H   -0.000069   0.002567  -0.002646  -0.003777  -0.015544   0.364304
    32  H   -0.000002   0.000914   0.000059   0.000198  -0.021464   0.385952
    33  H    0.000026  -0.007743   0.001349  -0.003071  -0.014172   0.378464
    34  O    0.003558   0.232445  -0.036183  -0.032268   0.343880  -0.115011
    35  O    0.000015   0.000742   0.000326   0.000388   0.700191  -0.101522
              31         32         33         34         35
     1  C   -0.000001   0.000000  -0.000005  -0.000009   0.000000
     2  C    0.000016   0.000002   0.000051  -0.000478  -0.000021
     3  C   -0.000020  -0.000002  -0.000229  -0.006382  -0.000017
     4  C   -0.000006   0.000006   0.000224   0.000613  -0.000010
     5  H    0.000000   0.000000   0.000000  -0.000005   0.000000
     6  H   -0.000026  -0.000010   0.000071   0.010828  -0.000035
     7  C    0.000000   0.000000  -0.000006   0.000001   0.000000
     8  H    0.000000   0.000000  -0.000001   0.000000   0.000000
     9  H    0.000000   0.000000   0.000000   0.000000   0.000000
    10  H    0.000000   0.000000   0.000000   0.000000   0.000000
    11  N    0.000001   0.000000   0.000042  -0.000035   0.000000
    12  O    0.000142   0.000021   0.003193  -0.000179   0.000000
    13  O    0.000000   0.000000   0.000000   0.000000   0.000000
    14  C    0.000003   0.000000   0.000005   0.000318  -0.000020
    15  H    0.000000   0.000000   0.000000  -0.000083  -0.000001
    16  C   -0.000234  -0.000020  -0.000268   0.025099  -0.000308
    17  H   -0.000051  -0.000012  -0.000038   0.014201   0.000736
    18  C   -0.000002   0.000000  -0.000006   0.000683   0.000004
    19  H    0.000000   0.000000   0.000000  -0.000015   0.000000
    20  C    0.000000   0.000000   0.000000   0.000002   0.000000
    21  H    0.000000   0.000000   0.000000   0.000000   0.000000
    22  H    0.000000   0.000000   0.000000   0.000000   0.000000
    23  H    0.000000   0.000000   0.000000   0.000000   0.000000
    24  C    0.003457  -0.000088  -0.001061  -0.101022  -0.000076
    25  H   -0.000069  -0.000002   0.000026   0.003558   0.000015
    26  C    0.002567   0.000914  -0.007743   0.232445   0.000742
    27  H   -0.002646   0.000059   0.001349  -0.036183   0.000326
    28  H   -0.003777   0.000198  -0.003071  -0.032268   0.000388
    29  C   -0.015544  -0.021464  -0.014172   0.343880   0.700191
    30  C    0.364304   0.385952   0.378464  -0.115011  -0.101522
    31  H    0.527572  -0.013652  -0.019457   0.004604   0.003296
    32  H   -0.013652   0.483910  -0.007900   0.004825   0.006755
    33  H   -0.019457  -0.007900   0.490539   0.004710   0.001944
    34  O    0.004604   0.004825   0.004710   8.000570  -0.107858
    35  O    0.003296   0.006755   0.001944  -0.107858   7.853801
 Mulliken charges:
               1
     1  C    0.234241
     2  C   -0.169869
     3  C   -0.129519
     4  C    0.238826
     5  H    0.175755
     6  H    0.177595
     7  C   -0.294750
     8  H    0.145451
     9  H    0.150011
    10  H    0.162098
    11  N   -0.084034
    12  O   -0.398073
    13  O   -0.385406
    14  C   -0.141517
    15  H    0.142125
    16  C   -0.147119
    17  H    0.162152
    18  C   -0.089739
    19  H    0.143676
    20  C   -0.370051
    21  H    0.160043
    22  H    0.125071
    23  H    0.142006
    24  C   -0.122189
    25  H    0.158374
    26  C   -0.088261
    27  H    0.148005
    28  H    0.163723
    29  C    0.319944
    30  C   -0.406796
    31  H    0.149524
    32  H    0.160507
    33  H    0.173339
    34  O   -0.246810
    35  O   -0.358332
 Sum of Mulliken charges =   0.00000
 Mulliken charges with hydrogens summed into heavy atoms:
               1
     1  C    0.234241
     2  C    0.005886
     3  C    0.048075
     4  C    0.238826
     7  C    0.162810
    11  N   -0.084034
    12  O   -0.398073
    13  O   -0.385406
    14  C    0.000608
    16  C    0.015033
    18  C    0.053937
    20  C    0.057068
    24  C    0.036185
    26  C    0.223468
    29  C    0.319944
    30  C    0.076574
    34  O   -0.246810
    35  O   -0.358332
 Electronic spatial extent (au):  <R**2>=           5238.4401
 Charge=              0.0000 electrons
 Dipole moment (field-independent basis, Debye):
    X=             -1.6435    Y=             -0.0130    Z=             -3.6630  Tot=              4.0148
 Quadrupole moment (field-independent basis, Debye-Ang):
   XX=           -128.8995   YY=           -103.8609   ZZ=           -104.3096
   XY=            -10.3826   XZ=             -8.9670   YZ=              1.7702
 Traceless Quadrupole moment (field-independent basis, Debye-Ang):
   XX=            -16.5429   YY=              8.4958   ZZ=              8.0471
   XY=            -10.3826   XZ=             -8.9670   YZ=              1.7702
 Octapole moment (field-independent basis, Debye-Ang**2):
  XXX=              2.4901  YYY=              4.5187  ZZZ=             -1.3817  XYY=            -27.0166
  XXY=            -47.0616  XXZ=            -79.5152  XZZ=             -5.7214  YZZ=             -9.4400
  YYZ=              4.7919  XYZ=            -15.0399
 Hexadecapole moment (field-independent basis, Debye-Ang**3):
 XXXX=          -5259.1241 YYYY=          -1777.0977 ZZZZ=           -402.8584 XXXY=           -264.6471
 XXXZ=           -187.9078 YYYX=             62.6616 YYYZ=             35.0269 ZZZX=            -16.3269
 ZZZY=             15.6844 XXYY=           -996.1342 XXZZ=           -870.1968 YYZZ=           -375.9567
 XXYZ=            -22.1807 YYXZ=              5.4412 ZZXY=             -4.7490
 N-N= 1.363698048955D+03 E-N=-4.737877618491D+03  KE= 8.573428348052D+02
 1\1\GINC-D10S8B4\FTS\RwB97XD\def2TZVP\C13H17N1O4\PMMASS\23-Feb-2022\0\
 \#n wB97XD/Def2TZVP scrf(smd,solvent=toluene) opt=(calcfc,ts,noeigente
 st)\\ts diels alder toluene - opt\\0,1\C,-2.6316230606,-0.6570855235,0
 .5578608368\C,-1.6284403763,0.3031245475,1.0819487011\C,-0.3736616027,
 -0.249681678,0.88719563\C,-0.5662053228,-1.5743213381,0.2379936827\H,-
 1.9046168508,0.9984843049,1.8566616898\H,0.4953150974,-0.0739495213,1.
 5002231281\C,-2.51048834,-2.842794888,-0.6754245401\H,-2.0404399527,-3
 .0226919058,-1.6417657182\H,-2.3947575758,-3.7340908441,-0.0572722322\
 H,-3.569970758,-2.6419396031,-0.8183054224\N,-1.9166179751,-1.69290005
 71,-0.0399493215\O,0.2604389797,-2.419493789,-0.0196007138\O,-3.835974
 7496,-0.6046213496,0.6176044207\C,-0.8148934457,2.6128356003,-0.298549
 169\H,-0.8674455702,3.5872857728,0.1770749775\C,0.4463693345,2.0470701
 301,-0.4745455838\H,1.3068211482,2.5993806724,-0.1155456469\C,-1.99224
 46043,1.9228908014,-0.4867040586\H,-2.00112166,1.1001342879,-1.1938619
 024\C,-3.3267441842,2.5255440852,-0.1940411265\H,-4.0308189125,1.76924
 21114,0.1557552115\H,-3.2554710033,3.3145147262,0.5559438714\H,-3.7483
 869878,2.9584874555,-1.1062617569\C,0.6262902023,0.7336675873,-0.84813
 72843\H,-0.1123210473,0.2585745223,-1.4843495963\C,1.9750551232,0.0970
 464949,-0.9494524546\H,2.3880522038,0.2736149108,-1.9489621123\H,1.874
 5894054,-0.9794853107,-0.8049514155\C,4.0335523067,0.1243160015,0.3184
 300742\C,4.4210727229,-1.1444539567,-0.3865318699\H,4.3372014217,-1.04
 50457298,-1.469494548\H,5.4462224397,-1.3865506289,-0.1214587846\H,3.7
 674939873,-1.962380307,-0.0756176821\O,2.8360365601,0.6678935365,0.030
 6961297\O,4.7227430468,0.6734688819,1.1319945864\\Version=ES64L-G09Rev
 D.01\State=1-A\HF=-861.2918508\RMSD=4.903e-09\RMSF=4.908e-06\Dipole=-0
 .6466229,-0.0049062,-1.4411348\Quadrupole=-12.3037876,6.3209806,5.9828
 07,-7.7136565,-6.6663409,1.318067\PG=C01 [X(C13H17N1O4)]\\@


 OPTIMIST - A PESSIMIST WHO LACKS EXPERIENCE
 Job cpu time:       0 days 20 hours 12 minutes 15.2 seconds.
 File lengths (MBytes):  RWF=   1397 Int=      0 D2E=      0 Chk=     38 Scr=      1
 Normal termination of Gaussian 09 at Wed Feb 23 19:24:56 2022.
