 Entering Gaussian System, Link 0=g09
 Input=ts_diels_freq.com
 Output=ts_diels_freq.log
 Initial command:
 /apps/applications/gaussian/G09.D01/2/default/g09/l1.exe "/nobackup/pmmass/Temp/Gau-258863.inp" -scrdir="/nobackup/pmmass/Temp/"
 Entering Link 1 = /apps/applications/gaussian/G09.D01/2/default/g09/l1.exe PID=    258865.
  
 Copyright (c) 1988,1990,1992,1993,1995,1998,2003,2009,2013,
            Gaussian, Inc.  All Rights Reserved.
  
 This is part of the Gaussian(R) 09 program.  It is based on
 the Gaussian(R) 03 system (copyright 2003, Gaussian, Inc.),
 the Gaussian(R) 98 system (copyright 1998, Gaussian, Inc.),
 the Gaussian(R) 94 system (copyright 1995, Gaussian, Inc.),
 the Gaussian 92(TM) system (copyright 1992, Gaussian, Inc.),
 the Gaussian 90(TM) system (copyright 1990, Gaussian, Inc.),
 the Gaussian 88(TM) system (copyright 1988, Gaussian, Inc.),
 the Gaussian 86(TM) system (copyright 1986, Carnegie Mellon
 University), and the Gaussian 82(TM) system (copyright 1983,
 Carnegie Mellon University). Gaussian is a federally registered
 trademark of Gaussian, Inc.
  
 This software contains proprietary and confidential information,
 including trade secrets, belonging to Gaussian, Inc.
  
 This software is provided under written license and may be
 used, copied, transmitted, or stored only in accord with that
 written license.
  
 The following legend is applicable only to US Government
 contracts under FAR:
  
                    RESTRICTED RIGHTS LEGEND
  
 Use, reproduction and disclosure by the US Government is
 subject to restrictions as set forth in subparagraphs (a)
 and (c) of the Commercial Computer Software - Restricted
 Rights clause in FAR 52.227-19.
  
 Gaussian, Inc.
 340 Quinnipiac St., Bldg. 40, Wallingford CT 06492
  
  
 ---------------------------------------------------------------
 Warning -- This program may not be used in any manner that
 competes with the business of Gaussian, Inc. or will provide
 assistance to any competitor of Gaussian, Inc.  The licensee
 of this program is prohibited from giving any competitor of
 Gaussian, Inc. access to this program.  By using this program,
 the user acknowledges that Gaussian, Inc. is engaged in the
 business of creating and licensing software in the field of
 computational chemistry and represents and warrants to the
 licensee that it is not a competitor of Gaussian, Inc. and that
 it will not use this program in any manner prohibited above.
 ---------------------------------------------------------------
  

 Cite this work as:
 Gaussian 09, Revision D.01,
 M. J. Frisch, G. W. Trucks, H. B. Schlegel, G. E. Scuseria, 
 M. A. Robb, J. R. Cheeseman, G. Scalmani, V. Barone, B. Mennucci, 
 G. A. Petersson, H. Nakatsuji, M. Caricato, X. Li, H. P. Hratchian, 
 A. F. Izmaylov, J. Bloino, G. Zheng, J. L. Sonnenberg, M. Hada, 
 M. Ehara, K. Toyota, R. Fukuda, J. Hasegawa, M. Ishida, T. Nakajima, 
 Y. Honda, O. Kitao, H. Nakai, T. Vreven, J. A. Montgomery, Jr., 
 J. E. Peralta, F. Ogliaro, M. Bearpark, J. J. Heyd, E. Brothers, 
 K. N. Kudin, V. N. Staroverov, T. Keith, R. Kobayashi, J. Normand, 
 K. Raghavachari, A. Rendell, J. C. Burant, S. S. Iyengar, J. Tomasi, 
 M. Cossi, N. Rega, J. M. Millam, M. Klene, J. E. Knox, J. B. Cross, 
 V. Bakken, C. Adamo, J. Jaramillo, R. Gomperts, R. E. Stratmann, 
 O. Yazyev, A. J. Austin, R. Cammi, C. Pomelli, J. W. Ochterski, 
 R. L. Martin, K. Morokuma, V. G. Zakrzewski, G. A. Voth, 
 P. Salvador, J. J. Dannenberg, S. Dapprich, A. D. Daniels, 
 O. Farkas, J. B. Foresman, J. V. Ortiz, J. Cioslowski, 
 and D. J. Fox, Gaussian, Inc., Wallingford CT, 2013.
 
 ******************************************
 Gaussian 09:  ES64L-G09RevD.01 24-Apr-2013
                24-Feb-2022 
 ******************************************
 %nprocshared=8
 Will use up to    8 processors via shared memory.
 %mem=4GB
 %NoSave
 %chk="ts_diels_freq.chk"
 -------------------------------------------------
 #n wB97XD/Def2TZVP scrf(smd,solvent=toluene) freq
 -------------------------------------------------
 1/10=4,30=1,38=1/1,3;
 2/12=2,17=6,18=5,40=1/2;
 3/5=44,7=101,11=2,16=1,25=1,30=1,70=32201,71=2,72=13,74=-58,140=1/1,2,3;
 4//1;
 5/5=2,38=5,53=13,98=1/2;
 8/6=4,10=90,11=11/1;
 11/6=1,8=1,9=11,15=111,16=1/1,2,10;
 10/6=1/2;
 6/7=2,8=2,9=2,10=2,18=1,28=1/1;
 7/8=1,10=1,25=1/1,2,3,16;
 1/10=4,30=1/3;
 99//99;
 -----------------------------
 ts diels-alder toluene - freq
 -----------------------------
 Symbolic Z-matrix:
 Charge =  0 Multiplicity = 1
 C                    -2.63209  -0.65854   0.5591 
 C                    -1.62919   0.30197   1.08319 
 C                    -0.37425  -0.25047   0.88843 
 C                    -0.5664   -1.57516   0.23923 
 H                    -1.90557   0.99725   1.8579 
 H                     0.49468  -0.07448   1.50146 
 C                    -2.5103   -2.84421  -0.67419 
 H                    -2.0402   -3.02397  -1.64053 
 H                    -2.39431  -3.73547  -0.05603 
 H                    -3.56984  -2.64367  -0.81707 
 N                    -1.91677  -1.69414  -0.03871 
 O                     0.2605   -2.42009  -0.01836 
 O                    -3.83645  -0.60643   0.61884 
 C                    -0.81633   2.61192  -0.29731 
 H                    -0.86917   3.58636   0.17831 
 C                     0.4451    2.04653  -0.47331 
 H                     1.30539   2.5991   -0.11431 
 C                    -1.99347   1.92163  -0.48546 
 H                    -2.00211   1.09887  -1.19262 
 C                    -3.32815   2.52388  -0.1928 
 H                    -4.032     1.76737   0.15699 
 H                    -3.25711   3.31288   0.55718 
 H                    -3.74992   2.9567   -1.10502 
 C                     0.62542   0.73318  -0.8469 
 H                    -0.11306   0.25787  -1.48311 
 C                     1.97437   0.09696  -0.94821 
 H                     2.38731   0.27365  -1.94772 
 H                     1.87422  -0.9796   -0.80371 
 C                     4.03286   0.12484   0.31967 
 C                     4.42075  -1.14382  -0.38529 
 H                     4.33685  -1.04443  -1.46826 
 H                     5.44597  -1.38561  -0.12022 
 H                     3.76742  -1.96194  -0.07438 
 O                     2.83518   0.66806   0.03193 
 O                     4.72189   0.6742    1.13323 
 

 GradGradGradGradGradGradGradGradGradGradGradGradGradGradGradGradGradGrad
 Berny optimization.
 Initialization pass.
 Trust Radius=3.00D-01 FncErr=1.00D-07 GrdErr=1.00D-07
 Number of steps in this run=      2 maximum allowed number of steps=      2.
 GradGradGradGradGradGradGradGradGradGradGradGradGradGradGradGradGradGrad

                          Input orientation:                          
 ---------------------------------------------------------------------
 Center     Atomic      Atomic             Coordinates (Angstroms)
 Number     Number       Type             X           Y           Z
 ---------------------------------------------------------------------
      1          6           0       -2.632090   -0.658540    0.559100
      2          6           0       -1.629190    0.301970    1.083190
      3          6           0       -0.374250   -0.250470    0.888430
      4          6           0       -0.566400   -1.575160    0.239230
      5          1           0       -1.905570    0.997250    1.857900
      6          1           0        0.494680   -0.074480    1.501460
      7          6           0       -2.510300   -2.844210   -0.674190
      8          1           0       -2.040200   -3.023970   -1.640530
      9          1           0       -2.394310   -3.735470   -0.056030
     10          1           0       -3.569840   -2.643670   -0.817070
     11          7           0       -1.916770   -1.694140   -0.038710
     12          8           0        0.260500   -2.420090   -0.018360
     13          8           0       -3.836450   -0.606430    0.618840
     14          6           0       -0.816330    2.611920   -0.297310
     15          1           0       -0.869170    3.586360    0.178310
     16          6           0        0.445100    2.046530   -0.473310
     17          1           0        1.305390    2.599100   -0.114310
     18          6           0       -1.993470    1.921630   -0.485460
     19          1           0       -2.002110    1.098870   -1.192620
     20          6           0       -3.328150    2.523880   -0.192800
     21          1           0       -4.032000    1.767370    0.156990
     22          1           0       -3.257110    3.312880    0.557180
     23          1           0       -3.749920    2.956700   -1.105020
     24          6           0        0.625420    0.733180   -0.846900
     25          1           0       -0.113060    0.257870   -1.483110
     26          6           0        1.974370    0.096960   -0.948210
     27          1           0        2.387310    0.273650   -1.947720
     28          1           0        1.874220   -0.979600   -0.803710
     29          6           0        4.032860    0.124840    0.319670
     30          6           0        4.420750   -1.143820   -0.385290
     31          1           0        4.336850   -1.044430   -1.468260
     32          1           0        5.445970   -1.385610   -0.120220
     33          1           0        3.767420   -1.961940   -0.074380
     34          8           0        2.835180    0.668060    0.031930
     35          8           0        4.721890    0.674200    1.133230
 ---------------------------------------------------------------------
                    Distance matrix (angstroms):
                    1          2          3          4          5
     1  C    0.000000
     2  C    1.484270   0.000000
     3  C    2.317935   1.384917   0.000000
     4  C    2.282451   2.316335   1.487678   0.000000
     5  H    2.226287   1.077022   2.200368   3.321259   0.000000
     6  H    3.317508   2.197155   1.077876   2.229609   2.652707
     7  C    2.512566   3.709877   3.705668   2.494709   4.640473
     8  H    3.283895   4.318502   4.106499   2.793678   5.331730
     9  H    3.146811   4.264288   4.137375   2.845237   5.128414
    10  H    2.591131   4.006733   4.341420   3.358293   4.814723
    11  N    1.393387   2.307773   2.307193   1.383801   3.292542
    12  O    3.435636   3.491984   2.435657   1.209968   4.459868
    13  O    1.206966   2.431627   3.490876   3.431584   2.799171
    14  C    3.837490   2.811119   3.129647   4.228709   2.904915
    15  H    4.612165   3.490509   3.933253   5.170751   3.255555
    16  C    4.225207   3.125518   2.793184   3.827203   3.472921
    17  H    5.154556   3.914406   3.456404   4.588359   4.094606
    18  C    2.855909   2.284001   3.037674   3.845679   2.520623
    19  H    2.560056   2.439965   2.966718   3.355875   3.053739
    20  C    3.343299   3.074329   4.194234   4.961456   2.925697
    21  H    2.829572   2.962894   4.240969   4.815564   2.829821
    22  H    4.020302   3.463003   4.595440   5.588734   2.980046
    23  H    4.133860   4.041454   5.065070   5.699084   4.002495
    24  C    3.811180   2.999076   2.231205   2.815768   3.713703
    25  H    3.369858   2.981022   2.439433   2.555772   3.862916
    26  C    4.905327   4.141770   3.001661   3.265197   4.872239
    27  H    5.687486   5.031848   3.993077   4.114031   5.782314
    28  H    4.718809   4.180514   2.906989   2.720118   5.027814
    29  C    6.715100   5.716043   4.459480   4.904046   6.196144
    30  C    7.132315   6.391284   5.041077   5.044576   7.045453
    31  H    7.268096   6.626939   5.327178   5.219105   7.362038
    32  H    8.139113   7.372517   6.015054   6.026087   7.977225
    33  H    6.561545   5.965623   4.583619   4.362333   6.683811
    34  O    5.650559   4.601062   3.446408   4.079921   5.090898
    35  O    7.495788   6.362175   5.185131   5.815915   6.674783
                    6          7          8          9         10
     6  H    0.000000
     7  C    4.629769   0.000000
     8  H    4.999721   1.089551   0.000000
     9  H    4.916796   1.090834   1.772644   0.000000
    10  H    5.338225   1.087776   1.778346   1.775691   0.000000
    11  N    3.287934   1.441795   2.085548   2.096514   2.059148
    12  O    2.804742   2.878771   2.879119   2.963049   3.919111
    13  O    4.452042   2.904868   3.765072   3.510856   2.506644
    14  C    3.488705   5.725463   5.921601   6.545044   5.955938
    15  H    4.124629   6.691210   6.955282   7.482657   6.862774
    16  C    2.898423   5.717874   5.766202   6.455067   6.183518
    17  H    3.227382   6.671025   6.718723   7.336072   7.193634
    18  C    3.758084   4.797496   5.078910   5.687518   4.841164
    19  H    3.856005   4.009352   4.147274   4.981616   4.074975
    20  C    4.923009   5.451331   5.876511   6.330105   5.210729
    21  H    5.068614   4.926774   5.491383   5.745316   4.540887
    22  H    5.142159   6.323271   6.816632   7.127390   6.121017
    23  H    5.830816   5.947506   6.243263   6.908198   5.610658
    24  C    2.486806   4.760282   4.674565   5.450970   5.385556
    25  H    3.063897   4.003000   3.809084   4.815332   4.562003
    26  C    2.867012   5.370087   5.131889   5.879530   6.185993
    27  H    3.949694   5.943864   5.529151   6.520385   6.728801
    28  H    2.834816   4.766294   4.494708   5.135581   5.692723
    29  C    3.735649   7.253686   7.116140   7.506774   8.170549
    30  C    4.485236   7.142426   6.845032   7.298637   8.141592
    31  H    4.952001   7.124129   6.679448   7.385432   8.093044
    32  H    5.372539   8.107813   7.812702   8.185106   9.129794
    33  H    4.093483   6.367727   6.108124   6.411916   7.406195
    34  O    2.861612   6.434967   6.340153   6.837132   7.260347
    35  O    4.308761   8.243212   8.191219   8.455757   9.141374
                   11         12         13         14         15
    11  N    0.000000
    12  O    2.295195   0.000000
    13  O    2.302315   4.525526   0.000000
    14  C    4.451965   5.153494   4.507575   0.000000
    15  H    5.387787   6.114922   5.155415   1.085606   0.000000
    16  C    4.445213   4.493523   5.153897   1.393502   2.126732
    17  H    5.368421   5.127696   6.103397   2.129636   2.406038
    18  C    3.644072   4.914173   3.317701   1.377519   2.115648
    19  H    3.023193   4.345270   3.090993   2.120607   3.057876
    20  C    4.450554   6.111602   3.273525   2.515534   2.704287
    21  H    4.061348   5.999260   2.426205   3.355620   3.648654
    22  H    5.217456   6.750687   3.962377   2.679348   2.433227
    23  H    5.111533   6.795158   3.959176   3.062225   3.215918
    24  C    3.606630   3.280664   4.883772   2.431122   3.380161
    25  H    3.024897   3.075144   4.362206   2.728051   3.796164
    26  C    4.379064   3.183946   6.059376   3.812703   4.640116
    27  H    5.103099   3.937256   6.789474   4.295890   5.108690
    28  H    3.932861   2.301278   5.897004   4.516029   5.416507
    29  C    6.231791   4.563073   7.908875   5.484603   6.002666
    30  C    6.370803   4.367057   8.335371   6.445179   7.118673
    31  H    6.447751   4.539965   8.446932   6.426141   7.159473
    32  H    7.369652   5.288632   9.344338   7.431555   8.043047
    33  H    5.690607   3.537164   7.754792   6.479248   7.235016
    34  O    5.307166   4.020967   6.817583   4.149761   4.718062
    35  O    7.145228   5.550206   8.668898   6.039295   6.375931
                   16         17         18         19         20
    16  C    0.000000
    17  H    1.083657   0.000000
    18  C    2.441797   3.388096   0.000000
    19  H    2.721085   3.788535   1.084935   0.000000
    20  C    3.813655   4.634815   1.493227   2.188304   0.000000
    21  H    4.529860   5.408614   2.142929   2.527606   1.090901
    22  H    4.046222   4.666561   2.149293   3.088473   1.090888
    23  H    4.338855   5.163869   2.130808   2.552263   1.094243
    24  C    1.377306   2.116768   2.898558   2.675288   4.389211
    25  H    2.128507   3.060551   2.701730   2.088103   4.139626
    26  C    2.522899   2.720961   4.391732   4.108035   5.880247
    27  H    3.014825   3.152723   4.903598   4.529699   6.388252
    28  H    3.362887   3.688622   4.845353   4.415566   6.301765
    29  C    4.146532   3.708018   6.339822   6.297350   7.759026
    30  C    5.098223   4.877330   7.109799   6.850881   8.575228
    31  H    5.068499   4.929325   7.059487   6.697173   8.550547
    32  H    6.075604   5.746508   8.149632   7.924429   9.605965
    33  H    5.221569   5.183268   6.959810   6.626198   8.395458
    34  O    2.804983   2.467906   5.015475   5.008442   6.440591
    35  O    4.770240   4.115102   7.019423   7.127559   8.365573
                   21         22         23         24         25
    21  H    0.000000
    22  H    1.774601   0.000000
    23  H    1.756913   1.769925   0.000000
    24  C    4.875336   4.868299   4.914699   0.000000
    25  H    4.508504   4.835382   4.544600   1.084452   0.000000
    26  C    6.331526   6.322715   6.400797   1.494893   2.160873
    27  H    6.918710   6.882654   6.750888   2.127729   2.543219
    28  H    6.584241   6.827002   6.871404   2.120137   2.437662
    29  C    8.232031   7.960130   8.403620   3.652617   4.522871
    30  C    8.956455   8.927483   9.170176   4.259195   4.870870
    31  H    8.976932   8.986478   9.029775   4.161814   4.636583
    32  H    9.992499   9.913540  10.217137   5.315547   5.954940
    33  H    8.648251   8.807191   9.042435   4.211012   4.687238
    34  O    6.955737   6.662354   7.063573   2.378996   3.340018
    35  O    8.875734   8.423711   9.054896   4.550325   5.513194
                   26         27         28         29         30
    26  C    0.000000
    27  H    1.095792   0.000000
    28  H    1.090822   1.772754   0.000000
    29  C    2.417784   2.805537   2.672358   0.000000
    30  C    2.800212   2.930066   2.585896   1.502307   0.000000
    31  H    2.674796   2.401650   2.551544   2.157845   1.090753
    32  H    3.864659   3.930433   3.659153   2.114673   1.086186
    33  H    2.866649   3.226758   2.254134   2.140183   1.092165
    34  O    1.424017   2.067646   2.082432   1.346224   2.443566
    35  O    3.494920   3.886252   3.820473   1.199349   2.387841
                   31         32         33         34         35
    31  H    0.000000
    32  H    1.778697   0.000000
    33  H    1.763229   1.775327   0.000000
    34  O    2.727307   3.325197   2.792360   0.000000
    35  O    3.141607   2.517587   3.052633   2.184622   0.000000
 Stoichiometry    C13H17NO4
 Framework group  C1[X(C13H17NO4)]
 Deg. of freedom    99
 Full point group                 C1      NOp   1
 Largest Abelian subgroup         C1      NOp   1
 Largest concise Abelian subgroup C1      NOp   1
                         Standard orientation:                         
 ---------------------------------------------------------------------
 Center     Atomic      Atomic             Coordinates (Angstroms)
 Number     Number       Type             X           Y           Z
 ---------------------------------------------------------------------
      1          6           0       -2.632090   -0.658541    0.559101
      2          6           0       -1.629190    0.301969    1.083191
      3          6           0       -0.374250   -0.250471    0.888431
      4          6           0       -0.566400   -1.575161    0.239231
      5          1           0       -1.905570    0.997249    1.857901
      6          1           0        0.494680   -0.074481    1.501461
      7          6           0       -2.510300   -2.844211   -0.674189
      8          1           0       -2.040200   -3.023971   -1.640529
      9          1           0       -2.394310   -3.735471   -0.056029
     10          1           0       -3.569840   -2.643671   -0.817069
     11          7           0       -1.916770   -1.694141   -0.038709
     12          8           0        0.260500   -2.420091   -0.018359
     13          8           0       -3.836450   -0.606431    0.618841
     14          6           0       -0.816331    2.611919   -0.297309
     15          1           0       -0.869171    3.586359    0.178311
     16          6           0        0.445099    2.046529   -0.473309
     17          1           0        1.305389    2.599100   -0.114309
     18          6           0       -1.993471    1.921629   -0.485459
     19          1           0       -2.002110    1.098869   -1.192619
     20          6           0       -3.328151    2.523879   -0.192799
     21          1           0       -4.032001    1.767369    0.156991
     22          1           0       -3.257111    3.312879    0.557181
     23          1           0       -3.749921    2.956699   -1.105019
     24          6           0        0.625420    0.733179   -0.846899
     25          1           0       -0.113060    0.257869   -1.483109
     26          6           0        1.974370    0.096960   -0.948209
     27          1           0        2.387310    0.273650   -1.947719
     28          1           0        1.874220   -0.979600   -0.803709
     29          6           0        4.032860    0.124840    0.319671
     30          6           0        4.420750   -1.143820   -0.385289
     31          1           0        4.336850   -1.044430   -1.468259
     32          1           0        5.445970   -1.385610   -0.120219
     33          1           0        3.767420   -1.961940   -0.074379
     34          8           0        2.835180    0.668060    0.031931
     35          8           0        4.721890    0.674200    1.133231
 ---------------------------------------------------------------------
 Rotational constants (GHZ):      0.6680751      0.2660797      0.2075331
 Standard basis: def2TZVP (5D, 7F)
 There are   750 symmetry adapted cartesian basis functions of A   symmetry.
 There are   660 symmetry adapted basis functions of A   symmetry.
   660 basis functions,  1054 primitive gaussians,   750 cartesian basis functions
    67 alpha electrons       67 beta electrons
       nuclear repulsion energy      1363.7366643608 Hartrees.
 NAtoms=   35 NActive=   35 NUniq=   35 SFac= 1.00D+00 NAtFMM=   60 NAOKFM=F Big=F
 Integral buffers will be    131072 words long.
 Raffenetti 2 integral format.
 Two-electron integral symmetry is turned on.
 Nuclear repulsion after empirical dispersion term =     1363.7082130605 Hartrees.
 Force inversion solution in PCM.
 ------------------------------------------------------------------------------
 Polarizable Continuum Model (PCM)
 =================================
 Model                : PCM (using non-symmetric T matrix).
 Atomic radii         : SMD-Coulomb.
 Polarization charges : Total charges.
 Charge compensation  : None.
 Solution method      : Matrix inversion.
 Cavity type          : VdW (van der Waals Surface) (Alpha=1.000).
 Cavity algorithm     : GePol (No added spheres)
                        Default sphere list used, NSphG=   35.
                        Lebedev-Laikov grids with approx.  5.0 points / Ang**2.
                        Smoothing algorithm: Karplus/York (Gamma=1.0000).
                        Polarization charges: spherical gaussians, with
                                              point-specific exponents (IZeta= 3).
                        Self-potential: point-specific (ISelfS= 7).
                        Self-field    : sphere-specific E.n sum rule (ISelfD= 2).
 1st derivatives      : Analytical E(r).r(x)/FMM algorithm (CHGder, D1EAlg=3).
                        Cavity 1st derivative terms included.
 2nd derivatives      : Analytical E(r).r(xy)/FMM algorithm (CHGder, D2EAlg=3).
                        Cavity 2nd derivative terms included.
 Solvent              : Toluene, Eps=   2.374100 Eps(inf)=   2.238315
 ------------------------------------------------------------------------------
 ------------------------------------------------------------------------------
 Atomic radii for non-electrostatic terms: SMD-CDS.
 ------------------------------------------------------------------------------
 Nuclear repulsion after PCM non-electrostatic terms =     1363.6984995481 Hartrees.
 One-electron integrals computed using PRISM.
   1 Symmetry operations used in ECPInt.
 ECPInt:  NShTT=   35511 NPrTT=  107400 LenC2=   31716 LenP2D=   69537.
 LDataN:  DoStor=T MaxTD1= 6 Len=  172
 NBasis=   660 RedAO= T EigKep=  1.38D-05  NBF=   660
 NBsUse=   660 1.00D-06 EigRej= -1.00D+00 NBFU=   660
 ExpMin= 9.52D-02 ExpMax= 2.70D+04 ExpMxC= 9.22D+02 IAcc=2 IRadAn=         4 AccDes= 0.00D+00
 Harris functional with IExCor= 4639 and IRadAn=       4 diagonalized for initial guess.
 HarFok:  IExCor= 4639 AccDes= 0.00D+00 IRadAn=         4 IDoV= 1 UseB2=F ITyADJ=14
 ICtDFT=  3500011 ScaDFX=  1.000000  1.000000  1.000000  1.000000
 FoFCou: FMM=F IPFlag=           0 FMFlag=      100000 FMFlg1=           0
         NFxFlg=           0 DoJE=T BraDBF=F KetDBF=T FulRan=T
         wScrn=  0.000000 ICntrl=     500 IOpCl=  0 I1Cent=   200000004 NGrid=           0
         NMat0=    1 NMatS0=      1 NMatT0=    0 NMatD0=    1 NMtDS0=    0 NMtDT0=    0
 Petite list used in FoFCou.
 Requested convergence on RMS density matrix=1.00D-08 within 128 cycles.
 Requested convergence on MAX density matrix=1.00D-06.
 Requested convergence on             energy=1.00D-06.
 No special actions if energy rises.
 Inv3:  Mode=1 IEnd=    20829675.
 Iteration    1 A*A^-1 deviation from unit magnitude is 7.99D-15 for   2603.
 Iteration    1 A*A^-1 deviation from orthogonality  is 4.05D-15 for   2590    472.
 Iteration    1 A^-1*A deviation from unit magnitude is 7.99D-15 for   2603.
 Iteration    1 A^-1*A deviation from orthogonality  is 1.53D-13 for   1461    809.
 Error on total polarization charges =  0.02046
 SCF Done:  E(RwB97XD) =  -861.291850776     A.U. after   15 cycles
            NFock= 15  Conv=0.53D-08     -V/T= 2.0046
 SMD-CDS (non-electrostatic) energy       (kcal/mol) =      -6.10
 (included in total energy above)
 DoSCS=F DFT=T ScalE2(SS,OS)=  1.000000  1.000000
 Range of M.O.s used for correlation:     1   660
 NBasis=   660 NAE=    67 NBE=    67 NFC=     0 NFV=     0
 NROrb=    660 NOA=    67 NOB=    67 NVA=   593 NVB=   593

 **** Warning!!: The largest alpha MO coefficient is  0.29158562D+02

   1 Symmetry operations used in ECPInt.
 ECPInt:  NShTT=   35511 NPrTT=  107400 LenC2=   31716 LenP2D=   69537.
 LDataN:  DoStor=T MaxTD1= 7 Len=  274
 Number of processors reduced to   4 by ecpmxn.
 Symmetrizing basis deriv contribution to polar:
 IMax=3 JMax=2 DiffMx= 0.00D+00
 G2DrvN: will do    36 centers at a time, making    1 passes.
 Calling FoFCou, ICntrl=  3107 FMM=F I1Cent=   0 AccDes= 0.00D+00.
 NEqPCM:  Using equilibrium solvation (IEInf=0, Eps=   2.3741, EpsInf=   2.2383)
 G2PCM: DoFxE=T DoFxN=T DoGrad=T DoDP/DQ/DG/TGxP=FFFF NFrqRd=   0 IEInf=0 SqF1=F DoCFld=F IF1Alg=4.
 End of G2Drv F.D. properties file   721 does not exist.
 End of G2Drv F.D. properties file   722 does not exist.
 End of G2Drv F.D. properties file   788 does not exist.
          IDoAtm=11111111111111111111111111111111111
 NEqPCM:  Using equilibrium solvation (IEInf=0, Eps=   2.3741, EpsInf=   2.2383)
          Differentiating once with respect to electric field.
                with respect to dipole field.
          Differentiating once with respect to nuclear coordinates.
          There are   108 degrees of freedom in the 1st order CPHF.  IDoFFX=6 NUNeed=     3.
    105 vectors produced by pass  0 Test12= 3.97D-14 1.00D-09 XBig12= 1.09D+02 4.85D+00.
 AX will form   105 AO Fock derivatives at one time.
    105 vectors produced by pass  1 Test12= 3.97D-14 1.00D-09 XBig12= 1.60D+01 5.87D-01.
    105 vectors produced by pass  2 Test12= 3.97D-14 1.00D-09 XBig12= 4.53D-01 1.49D-01.
    105 vectors produced by pass  3 Test12= 3.97D-14 1.00D-09 XBig12= 7.07D-03 1.88D-02.
    105 vectors produced by pass  4 Test12= 3.97D-14 1.00D-09 XBig12= 6.69D-05 9.24D-04.
    105 vectors produced by pass  5 Test12= 3.97D-14 1.00D-09 XBig12= 5.04D-07 6.97D-05.
    105 vectors produced by pass  6 Test12= 3.97D-14 1.00D-09 XBig12= 3.29D-09 4.73D-06.
     44 vectors produced by pass  7 Test12= 3.97D-14 1.00D-09 XBig12= 2.32D-11 5.82D-07.
      5 vectors produced by pass  8 Test12= 3.97D-14 1.00D-09 XBig12= 1.73D-13 6.48D-08.
      3 vectors produced by pass  9 Test12= 3.97D-14 1.00D-09 XBig12= 4.21D-15 6.39D-09.
 InvSVY:  IOpt=1 It=  1 EMax= 5.33D-15
 Solved reduced A of dimension   787 with   108 vectors.
 Isotropic polarizability for W=    0.000000      210.36 Bohr**3.
 End of Minotr F.D. properties file   721 does not exist.
 End of Minotr F.D. properties file   722 does not exist.
 End of Minotr F.D. properties file   788 does not exist.

 **********************************************************************

            Population analysis using the SCF density.

 **********************************************************************

 Orbital symmetries:
       Occupied  (A) (A) (A) (A) (A) (A) (A) (A) (A) (A) (A) (A)
                 (A) (A) (A) (A) (A) (A) (A) (A) (A) (A) (A) (A)
                 (A) (A) (A) (A) (A) (A) (A) (A) (A) (A) (A) (A)
                 (A) (A) (A) (A) (A) (A) (A) (A) (A) (A) (A) (A)
                 (A) (A) (A) (A) (A) (A) (A) (A) (A) (A) (A) (A)
                 (A) (A) (A) (A) (A) (A) (A)
       Virtual   (A) (A) (A) (A) (A) (A) (A) (A) (A) (A) (A) (A)
                 (A) (A) (A) (A) (A) (A) (A) (A) (A) (A) (A) (A)
                 (A) (A) (A) (A) (A) (A) (A) (A) (A) (A) (A) (A)
                 (A) (A) (A) (A) (A) (A) (A) (A) (A) (A) (A) (A)
                 (A) (A) (A) (A) (A) (A) (A) (A) (A) (A) (A) (A)
                 (A) (A) (A) (A) (A) (A) (A) (A) (A) (A) (A) (A)
                 (A) (A) (A) (A) (A) (A) (A) (A) (A) (A) (A) (A)
                 (A) (A) (A) (A) (A) (A) (A) (A) (A) (A) (A) (A)
                 (A) (A) (A) (A) (A) (A) (A) (A) (A) (A) (A) (A)
                 (A) (A) (A) (A) (A) (A) (A) (A) (A) (A) (A) (A)
                 (A) (A) (A) (A) (A) (A) (A) (A) (A) (A) (A) (A)
                 (A) (A) (A) (A) (A) (A) (A) (A) (A) (A) (A) (A)
                 (A) (A) (A) (A) (A) (A) (A) (A) (A) (A) (A) (A)
                 (A) (A) (A) (A) (A) (A) (A) (A) (A) (A) (A) (A)
                 (A) (A) (A) (A) (A) (A) (A) (A) (A) (A) (A) (A)
                 (A) (A) (A) (A) (A) (A) (A) (A) (A) (A) (A) (A)
                 (A) (A) (A) (A) (A) (A) (A) (A) (A) (A) (A) (A)
                 (A) (A) (A) (A) (A) (A) (A) (A) (A) (A) (A) (A)
                 (A) (A) (A) (A) (A) (A) (A) (A) (A) (A) (A) (A)
                 (A) (A) (A) (A) (A) (A) (A) (A) (A) (A) (A) (A)
                 (A) (A) (A) (A) (A) (A) (A) (A) (A) (A) (A) (A)
                 (A) (A) (A) (A) (A) (A) (A) (A) (A) (A) (A) (A)
                 (A) (A) (A) (A) (A) (A) (A) (A) (A) (A) (A) (A)
                 (A) (A) (A) (A) (A) (A) (A) (A) (A) (A) (A) (A)
                 (A) (A) (A) (A) (A) (A) (A) (A) (A) (A) (A) (A)
                 (A) (A) (A) (A) (A) (A) (A) (A) (A) (A) (A) (A)
                 (A) (A) (A) (A) (A) (A) (A) (A) (A) (A) (A) (A)
                 (A) (A) (A) (A) (A) (A) (A) (A) (A) (A) (A) (A)
                 (A) (A) (A) (A) (A) (A) (A) (A) (A) (A) (A) (A)
                 (A) (A) (A) (A) (A) (A) (A) (A) (A) (A) (A) (A)
                 (A) (A) (A) (A) (A) (A) (A) (A) (A) (A) (A) (A)
                 (A) (A) (A) (A) (A) (A) (A) (A) (A) (A) (A) (A)
                 (A) (A) (A) (A) (A) (A) (A) (A) (A) (A) (A) (A)
                 (A) (A) (A) (A) (A) (A) (A) (A) (A) (A) (A) (A)
                 (A) (A) (A) (A) (A) (A) (A) (A) (A) (A) (A) (A)
                 (A) (A) (A) (A) (A) (A) (A) (A) (A) (A) (A) (A)
                 (A) (A) (A) (A) (A) (A) (A) (A) (A) (A) (A) (A)
                 (A) (A) (A) (A) (A) (A) (A) (A) (A) (A) (A) (A)
                 (A) (A) (A) (A) (A) (A) (A) (A) (A) (A) (A) (A)
                 (A) (A) (A) (A) (A) (A) (A) (A) (A) (A) (A) (A)
                 (A) (A) (A) (A) (A) (A) (A) (A) (A) (A) (A) (A)
                 (A) (A) (A) (A) (A) (A) (A) (A) (A) (A) (A) (A)
                 (A) (A) (A) (A) (A) (A) (A) (A) (A) (A) (A) (A)
                 (A) (A) (A) (A) (A) (A) (A) (A) (A) (A) (A) (A)
                 (A) (A) (A) (A) (A) (A) (A) (A) (A) (A) (A) (A)
                 (A) (A) (A) (A) (A) (A) (A) (A) (A) (A) (A) (A)
                 (A) (A) (A) (A) (A) (A) (A) (A) (A) (A) (A) (A)
                 (A) (A) (A) (A) (A) (A) (A) (A) (A) (A) (A) (A)
                 (A) (A) (A) (A) (A) (A) (A) (A) (A) (A) (A) (A)
                 (A) (A) (A) (A) (A)
 The electronic state is 1-A.
 Alpha  occ. eigenvalues --  -19.29621 -19.24129 -19.23904 -19.22787 -14.48010
 Alpha  occ. eigenvalues --  -10.41589 -10.40489 -10.40406 -10.35082 -10.31845
 Alpha  occ. eigenvalues --  -10.31693 -10.31674 -10.31115 -10.30774 -10.29311
 Alpha  occ. eigenvalues --  -10.29141 -10.29099 -10.27765  -1.21048  -1.17732
 Alpha  occ. eigenvalues --   -1.15600  -1.12412  -1.06329  -0.94843  -0.91584
 Alpha  occ. eigenvalues --   -0.89280  -0.84967  -0.83417  -0.80533  -0.77450
 Alpha  occ. eigenvalues --   -0.75812  -0.71422  -0.70120  -0.67429  -0.64625
 Alpha  occ. eigenvalues --   -0.62227  -0.59969  -0.59598  -0.59076  -0.58097
 Alpha  occ. eigenvalues --   -0.57947  -0.55494  -0.55289  -0.53689  -0.53032
 Alpha  occ. eigenvalues --   -0.52910  -0.51950  -0.51268  -0.51184  -0.49569
 Alpha  occ. eigenvalues --   -0.49166  -0.48873  -0.48334  -0.47906  -0.47462
 Alpha  occ. eigenvalues --   -0.46957  -0.44896  -0.44323  -0.43586  -0.43216
 Alpha  occ. eigenvalues --   -0.38719  -0.38003  -0.36015  -0.35940  -0.35346
 Alpha  occ. eigenvalues --   -0.32477  -0.30989
 Alpha virt. eigenvalues --   -0.00663   0.02342   0.08402   0.10392   0.10628
 Alpha virt. eigenvalues --    0.11796   0.12601   0.12765   0.14532   0.15046
 Alpha virt. eigenvalues --    0.15570   0.16543   0.16854   0.17377   0.18246
 Alpha virt. eigenvalues --    0.18714   0.19461   0.19771   0.20179   0.20687
 Alpha virt. eigenvalues --    0.20845   0.21572   0.21974   0.22892   0.23384
 Alpha virt. eigenvalues --    0.23819   0.24060   0.24152   0.25116   0.26318
 Alpha virt. eigenvalues --    0.27027   0.28174   0.28221   0.28662   0.29263
 Alpha virt. eigenvalues --    0.29577   0.30672   0.31528   0.31614   0.32130
 Alpha virt. eigenvalues --    0.33484   0.33639   0.35349   0.35396   0.35745
 Alpha virt. eigenvalues --    0.36454   0.36750   0.37352   0.37760   0.38235
 Alpha virt. eigenvalues --    0.38941   0.39231   0.40907   0.41146   0.41752
 Alpha virt. eigenvalues --    0.42131   0.43218   0.43549   0.44274   0.44931
 Alpha virt. eigenvalues --    0.45269   0.46217   0.46231   0.46622   0.47287
 Alpha virt. eigenvalues --    0.48082   0.48406   0.48995   0.49241   0.49637
 Alpha virt. eigenvalues --    0.50083   0.50511   0.51036   0.51433   0.51881
 Alpha virt. eigenvalues --    0.52065   0.52448   0.53437   0.53574   0.54030
 Alpha virt. eigenvalues --    0.54519   0.55213   0.55363   0.55827   0.56243
 Alpha virt. eigenvalues --    0.57675   0.58095   0.58602   0.59198   0.59510
 Alpha virt. eigenvalues --    0.59998   0.61623   0.62170   0.62617   0.63211
 Alpha virt. eigenvalues --    0.63460   0.64250   0.64444   0.64813   0.65723
 Alpha virt. eigenvalues --    0.66427   0.66796   0.66952   0.67454   0.68522
 Alpha virt. eigenvalues --    0.69569   0.70404   0.70799   0.71976   0.72541
 Alpha virt. eigenvalues --    0.73483   0.74297   0.75422   0.75622   0.76265
 Alpha virt. eigenvalues --    0.77902   0.78312   0.78950   0.80748   0.81544
 Alpha virt. eigenvalues --    0.83091   0.83918   0.84707   0.85997   0.86453
 Alpha virt. eigenvalues --    0.87053   0.87625   0.88627   0.89435   0.90164
 Alpha virt. eigenvalues --    0.90460   0.91624   0.92258   0.94694   0.95395
 Alpha virt. eigenvalues --    0.95496   0.97050   0.97289   0.97580   0.98242
 Alpha virt. eigenvalues --    0.99693   1.00374   1.01282   1.02718   1.03035
 Alpha virt. eigenvalues --    1.03997   1.05419   1.05695   1.06549   1.07919
 Alpha virt. eigenvalues --    1.08807   1.09238   1.10346   1.12152   1.12224
 Alpha virt. eigenvalues --    1.13006   1.13657   1.14972   1.16336   1.17164
 Alpha virt. eigenvalues --    1.17672   1.18462   1.18640   1.19171   1.19865
 Alpha virt. eigenvalues --    1.20681   1.22430   1.23577   1.24252   1.25302
 Alpha virt. eigenvalues --    1.25920   1.27144   1.29026   1.30605   1.31120
 Alpha virt. eigenvalues --    1.32845   1.33044   1.34828   1.35469   1.36409
 Alpha virt. eigenvalues --    1.37585   1.38684   1.39380   1.40446   1.42502
 Alpha virt. eigenvalues --    1.43196   1.45806   1.46486   1.47533   1.48858
 Alpha virt. eigenvalues --    1.49827   1.50915   1.52034   1.52330   1.54172
 Alpha virt. eigenvalues --    1.55505   1.56919   1.57413   1.58278   1.58638
 Alpha virt. eigenvalues --    1.59534   1.59865   1.60497   1.60543   1.61220
 Alpha virt. eigenvalues --    1.61385   1.62003   1.63534   1.63818   1.64580
 Alpha virt. eigenvalues --    1.65658   1.66645   1.66657   1.67660   1.68087
 Alpha virt. eigenvalues --    1.68833   1.69450   1.69944   1.70552   1.71696
 Alpha virt. eigenvalues --    1.72158   1.72930   1.73027   1.73969   1.75123
 Alpha virt. eigenvalues --    1.77180   1.77711   1.79233   1.81318   1.82407
 Alpha virt. eigenvalues --    1.83454   1.84297   1.84906   1.85766   1.87351
 Alpha virt. eigenvalues --    1.88755   1.91268   1.91714   1.91893   1.93582
 Alpha virt. eigenvalues --    1.94428   1.96079   1.96618   1.97590   1.98822
 Alpha virt. eigenvalues --    1.99693   2.00654   2.01252   2.02114   2.03299
 Alpha virt. eigenvalues --    2.03995   2.04007   2.05719   2.07687   2.08765
 Alpha virt. eigenvalues --    2.11198   2.11860   2.12951   2.13714   2.14523
 Alpha virt. eigenvalues --    2.16420   2.17310   2.18640   2.19026   2.19595
 Alpha virt. eigenvalues --    2.20149   2.20980   2.21738   2.22019   2.23773
 Alpha virt. eigenvalues --    2.26095   2.27032   2.27558   2.29299   2.30806
 Alpha virt. eigenvalues --    2.31360   2.31916   2.33343   2.34592   2.34987
 Alpha virt. eigenvalues --    2.36527   2.38169   2.39432   2.39845   2.41239
 Alpha virt. eigenvalues --    2.41500   2.42570   2.43001   2.43404   2.44263
 Alpha virt. eigenvalues --    2.45380   2.46153   2.47207   2.48408   2.48757
 Alpha virt. eigenvalues --    2.50107   2.51484   2.51604   2.52927   2.53910
 Alpha virt. eigenvalues --    2.55758   2.56172   2.57566   2.58044   2.58988
 Alpha virt. eigenvalues --    2.59633   2.60782   2.61144   2.62114   2.62621
 Alpha virt. eigenvalues --    2.63124   2.63671   2.65382   2.66048   2.66515
 Alpha virt. eigenvalues --    2.67251   2.68026   2.69090   2.70450   2.70985
 Alpha virt. eigenvalues --    2.72029   2.72962   2.73741   2.74233   2.76756
 Alpha virt. eigenvalues --    2.77298   2.78347   2.80552   2.81423   2.82545
 Alpha virt. eigenvalues --    2.83083   2.83325   2.84766   2.85455   2.86330
 Alpha virt. eigenvalues --    2.86999   2.88375   2.89582   2.90475   2.91545
 Alpha virt. eigenvalues --    2.92484   2.93109   2.94810   2.95065   2.96062
 Alpha virt. eigenvalues --    2.97517   2.99709   3.00173   3.00487   3.01000
 Alpha virt. eigenvalues --    3.02392   3.03570   3.04173   3.05217   3.06123
 Alpha virt. eigenvalues --    3.07453   3.08077   3.08243   3.08741   3.09972
 Alpha virt. eigenvalues --    3.11197   3.11501   3.12533   3.13270   3.14093
 Alpha virt. eigenvalues --    3.14892   3.15900   3.16349   3.17313   3.17670
 Alpha virt. eigenvalues --    3.18179   3.18767   3.19938   3.20345   3.21452
 Alpha virt. eigenvalues --    3.21901   3.23142   3.24174   3.25272   3.25972
 Alpha virt. eigenvalues --    3.26121   3.27321   3.27895   3.29289   3.30288
 Alpha virt. eigenvalues --    3.30859   3.31983   3.32657   3.32853   3.33737
 Alpha virt. eigenvalues --    3.34474   3.35175   3.36250   3.37021   3.37364
 Alpha virt. eigenvalues --    3.38174   3.39484   3.40164   3.40603   3.41866
 Alpha virt. eigenvalues --    3.42241   3.42519   3.43211   3.44321   3.45520
 Alpha virt. eigenvalues --    3.46246   3.46600   3.46795   3.47692   3.48642
 Alpha virt. eigenvalues --    3.50175   3.50527   3.52467   3.53067   3.53541
 Alpha virt. eigenvalues --    3.54542   3.55716   3.56474   3.57463   3.58005
 Alpha virt. eigenvalues --    3.58809   3.59760   3.61218   3.62731   3.63194
 Alpha virt. eigenvalues --    3.64515   3.64848   3.65809   3.67897   3.68401
 Alpha virt. eigenvalues --    3.69884   3.71916   3.72619   3.73886   3.74325
 Alpha virt. eigenvalues --    3.74857   3.75660   3.77102   3.78378   3.80663
 Alpha virt. eigenvalues --    3.81807   3.82171   3.83641   3.84448   3.87083
 Alpha virt. eigenvalues --    3.88849   3.89757   3.90121   3.93080   3.95018
 Alpha virt. eigenvalues --    3.95949   3.97874   3.98585   3.99400   4.00810
 Alpha virt. eigenvalues --    4.04414   4.05824   4.06830   4.08623   4.10243
 Alpha virt. eigenvalues --    4.11373   4.11802   4.13658   4.15382   4.17260
 Alpha virt. eigenvalues --    4.18801   4.22533   4.22811   4.23852   4.25779
 Alpha virt. eigenvalues --    4.27288   4.28298   4.28986   4.31133   4.32079
 Alpha virt. eigenvalues --    4.33917   4.36333   4.40372   4.41726   4.43043
 Alpha virt. eigenvalues --    4.44367   4.45397   4.46610   4.47063   4.49981
 Alpha virt. eigenvalues --    4.51107   4.51545   4.53375   4.56188   4.59362
 Alpha virt. eigenvalues --    4.61162   4.62127   4.63796   4.66354   4.66831
 Alpha virt. eigenvalues --    4.68657   4.69750   4.72082   4.76248   4.79035
 Alpha virt. eigenvalues --    4.82654   4.84054   4.86105   4.86872   4.87898
 Alpha virt. eigenvalues --    4.89665   4.94652   4.97582   5.00602   5.01471
 Alpha virt. eigenvalues --    5.04982   5.08769   5.10944   5.11909   5.18560
 Alpha virt. eigenvalues --    5.21464   5.22249   5.23108   5.24502   5.26703
 Alpha virt. eigenvalues --    5.27653   5.30213   5.32115   5.34996   5.35915
 Alpha virt. eigenvalues --    5.35952   5.37051   5.41935   5.43912   5.49334
 Alpha virt. eigenvalues --    5.51626   5.59671   5.66624   5.72307   5.73422
 Alpha virt. eigenvalues --    5.73966   5.80801   5.83565   5.85831   5.94408
 Alpha virt. eigenvalues --    5.98935   5.99809   6.00426   6.13413   6.14356
 Alpha virt. eigenvalues --    6.28227   6.30442   6.31055   6.36458   6.45177
 Alpha virt. eigenvalues --    6.47023   6.49237   6.52328   6.53738   6.59266
 Alpha virt. eigenvalues --    6.59637   6.64860   6.65944   6.74563   6.85092
 Alpha virt. eigenvalues --    6.89631   6.90604   6.92302   6.94251   6.95929
 Alpha virt. eigenvalues --    6.99716   7.00723   7.15317   7.15907   7.17503
 Alpha virt. eigenvalues --    7.20264   7.21742   7.25518   7.31581   7.49514
 Alpha virt. eigenvalues --   22.44102  22.47745  22.48422  22.58598  22.60270
 Alpha virt. eigenvalues --   22.65896  22.80475  22.85604  23.00584  23.07108
 Alpha virt. eigenvalues --   23.31930  23.43684  23.77098  33.01181  43.97635
 Alpha virt. eigenvalues --   44.09827  44.10278  44.39755
          Condensed to atoms (all electrons):
               1          2          3          4          5          6
     1  C    4.743979   0.076753   0.145112  -0.132167  -0.034834   0.003239
     2  C    0.076753   5.976710  -0.165704   0.172565   0.418798  -0.017374
     3  C    0.145112  -0.165704   5.904262   0.079069  -0.023123   0.406764
     4  C   -0.132167   0.172565   0.079069   4.759497   0.004048  -0.032078
     5  H   -0.034834   0.418798  -0.023123   0.004048   0.462797  -0.003145
     6  H    0.003239  -0.017374   0.406764  -0.032078  -0.003145   0.462618
     7  C   -0.053454   0.004344   0.007971  -0.049717   0.000013  -0.000038
     8  H    0.007389   0.000619  -0.000797  -0.005534  -0.000005  -0.000044
     9  H    0.000900  -0.001408   0.001414  -0.009563   0.000023   0.000042
    10  H   -0.017009   0.005520  -0.002120   0.010210  -0.000028  -0.000002
    11  N    0.353744  -0.160067  -0.087076   0.303285   0.004927   0.005128
    12  O    0.001647   0.009460  -0.094916   0.632334  -0.000034   0.003318
    13  O    0.652894  -0.103497   0.014902   0.001573   0.001679   0.000027
    14  C   -0.003987   0.008012  -0.058803   0.003344  -0.003521  -0.001374
    15  H   -0.000012   0.000013  -0.001138   0.000057   0.000796  -0.000035
    16  C    0.006200  -0.067979   0.007433  -0.002820  -0.001324  -0.004145
    17  H    0.000113  -0.002288   0.001984  -0.000134  -0.000075   0.000899
    18  C    0.025033   0.057605   0.005640  -0.004783  -0.006509   0.001672
    19  H   -0.000692  -0.029880  -0.021500   0.004416   0.003314  -0.000038
    20  C   -0.004330   0.001260  -0.000330   0.000431  -0.002652  -0.000048
    21  H   -0.002184  -0.006050   0.001540  -0.000061   0.000067  -0.000027
    22  H    0.000477  -0.005479   0.000324   0.000002   0.001178   0.000002
    23  H    0.000065   0.003039   0.000016  -0.000048   0.000050   0.000002
    24  C   -0.006483   0.009756   0.053913   0.029526   0.001933  -0.016769
    25  H    0.003326  -0.018594  -0.025464  -0.001847  -0.000034   0.003474
    26  C   -0.000305   0.005267  -0.007545   0.003158  -0.000055  -0.001431
    27  H   -0.000049   0.000008   0.002647   0.000529   0.000001   0.000761
    28  H    0.000388  -0.000718  -0.007413  -0.005032  -0.000032  -0.001072
    29  C    0.000015  -0.000175  -0.000748   0.000291  -0.000006   0.000545
    30  C    0.000011  -0.000220  -0.000139  -0.000207   0.000000   0.000706
    31  H   -0.000001   0.000016  -0.000020  -0.000006   0.000000  -0.000026
    32  H    0.000000   0.000002  -0.000002   0.000006   0.000000  -0.000010
    33  H   -0.000005   0.000051  -0.000229   0.000224   0.000000   0.000071
    34  O   -0.000009  -0.000478  -0.006382   0.000613  -0.000005   0.010828
    35  O    0.000000  -0.000021  -0.000017  -0.000010   0.000000  -0.000035
               7          8          9         10         11         12
     1  C   -0.053454   0.007389   0.000900  -0.017009   0.353744   0.001647
     2  C    0.004344   0.000619  -0.001408   0.005520  -0.160067   0.009460
     3  C    0.007971  -0.000797   0.001414  -0.002120  -0.087076  -0.094916
     4  C   -0.049717  -0.005534  -0.009563   0.010210   0.303285   0.632334
     5  H    0.000013  -0.000005   0.000023  -0.000028   0.004927  -0.000034
     6  H   -0.000038  -0.000044   0.000042  -0.000002   0.005128   0.003318
     7  C    4.888493   0.409001   0.417205   0.405771   0.259277   0.011505
     8  H    0.409001   0.531236  -0.029916  -0.019646  -0.041195   0.003196
     9  H    0.417205  -0.029916   0.523788  -0.022353  -0.031899   0.001533
    10  H    0.405771  -0.019646  -0.022353   0.495343  -0.034852   0.000751
    11  N    0.259277  -0.041195  -0.031899  -0.034852   6.708651  -0.102496
    12  O    0.011505   0.003196   0.001533   0.000751  -0.102496   7.929488
    13  O   -0.006432   0.000456   0.000174   0.016427  -0.096446  -0.000149
    14  C    0.000032   0.000003  -0.000001   0.000004  -0.000388  -0.000002
    15  H    0.000001   0.000000   0.000000   0.000000   0.000004   0.000000
    16  C   -0.000039  -0.000004   0.000006   0.000001  -0.001553   0.000364
    17  H    0.000000   0.000000   0.000000   0.000000  -0.000008   0.000002
    18  C    0.000643   0.000335  -0.000088  -0.000116  -0.005950   0.000071
    19  H   -0.000095  -0.000382   0.000084  -0.000027   0.008278  -0.000065
    20  C   -0.000076  -0.000010   0.000005   0.000056  -0.001743  -0.000002
    21  H   -0.000033   0.000004  -0.000002  -0.000046   0.001006   0.000002
    22  H    0.000000   0.000000   0.000000   0.000001   0.000000   0.000000
    23  H    0.000001   0.000001   0.000000  -0.000005   0.000038   0.000000
    24  C    0.000476   0.000104  -0.000029   0.000110  -0.005080  -0.001954
    25  H    0.000161  -0.000294   0.000081  -0.000078   0.007386  -0.000368
    26  C   -0.000131  -0.000051   0.000009  -0.000015   0.001148  -0.011544
    27  H    0.000000   0.000000   0.000000   0.000000   0.000030   0.000488
    28  H   -0.000125   0.000083  -0.000013   0.000005  -0.000117   0.013968
    29  C   -0.000001   0.000000   0.000000   0.000000   0.000014   0.001121
    30  C    0.000002   0.000000   0.000000   0.000000  -0.000024  -0.002815
    31  H    0.000000   0.000000   0.000000   0.000000   0.000001   0.000142
    32  H    0.000000   0.000000   0.000000   0.000000   0.000000   0.000021
    33  H   -0.000006  -0.000001   0.000000   0.000000   0.000042   0.003193
    34  O    0.000001   0.000000   0.000000   0.000000  -0.000035  -0.000179
    35  O    0.000000   0.000000   0.000000   0.000000   0.000000   0.000000
              13         14         15         16         17         18
     1  C    0.652894  -0.003987  -0.000012   0.006200   0.000113   0.025033
     2  C   -0.103497   0.008012   0.000013  -0.067979  -0.002288   0.057605
     3  C    0.014902  -0.058803  -0.001138   0.007433   0.001984   0.005640
     4  C    0.001573   0.003344   0.000057  -0.002820  -0.000134  -0.004783
     5  H    0.001679  -0.003521   0.000796  -0.001324  -0.000075  -0.006509
     6  H    0.000027  -0.001374  -0.000035  -0.004145   0.000899   0.001672
     7  C   -0.006432   0.000032   0.000001  -0.000039   0.000000   0.000643
     8  H    0.000456   0.000003   0.000000  -0.000004   0.000000   0.000335
     9  H    0.000174  -0.000001   0.000000   0.000006   0.000000  -0.000088
    10  H    0.016427   0.000004   0.000000   0.000001   0.000000  -0.000116
    11  N   -0.096446  -0.000388   0.000004  -0.001553  -0.000008  -0.005950
    12  O   -0.000149  -0.000002   0.000000   0.000364   0.000002   0.000071
    13  O    7.900583   0.001025   0.000011   0.000043   0.000000   0.001621
    14  C    0.001025   5.017139   0.422375   0.471140  -0.038497   0.452343
    15  H    0.000011   0.422375   0.506636  -0.037441  -0.005652  -0.037316
    16  C    0.000043   0.471140  -0.037441   5.033558   0.428517  -0.037421
    17  H    0.000000  -0.038497  -0.005652   0.428517   0.476551   0.007668
    18  C    0.001621   0.452343  -0.037316  -0.037421   0.007668   5.118771
    19  H   -0.001346  -0.051874   0.003643  -0.004739  -0.000160   0.418076
    20  C   -0.015521  -0.027665  -0.004899   0.007302   0.000019   0.250182
    21  H    0.017045   0.006274   0.000012  -0.000008   0.000009  -0.053945
    22  H    0.000224  -0.000021   0.003139   0.001414  -0.000031  -0.048580
    23  H    0.000150  -0.007338   0.000376  -0.001074  -0.000006  -0.025941
    24  C   -0.000046  -0.045805   0.007274   0.408646  -0.040278  -0.032390
    25  H    0.000003  -0.005647   0.000008  -0.042131   0.002854   0.003217
    26  C   -0.000007   0.005043   0.000121  -0.043017  -0.011692  -0.001218
    27  H    0.000000  -0.000932  -0.000004  -0.014799   0.000628   0.000025
    28  H    0.000002   0.000575   0.000004   0.015757   0.000433   0.000312
    29  C    0.000000  -0.000203  -0.000013  -0.001601   0.001283   0.000073
    30  C    0.000000  -0.000044  -0.000002   0.002566   0.000874   0.000035
    31  H    0.000000   0.000003   0.000000  -0.000234  -0.000051  -0.000002
    32  H    0.000000   0.000000   0.000000  -0.000020  -0.000012   0.000000
    33  H    0.000000   0.000005   0.000000  -0.000268  -0.000038  -0.000006
    34  O    0.000000   0.000318  -0.000083   0.025100   0.014201   0.000683
    35  O    0.000000  -0.000020  -0.000001  -0.000308   0.000736   0.000004
              19         20         21         22         23         24
     1  C   -0.000692  -0.004330  -0.002184   0.000477   0.000065  -0.006483
     2  C   -0.029880   0.001260  -0.006050  -0.005479   0.003039   0.009756
     3  C   -0.021500  -0.000330   0.001540   0.000324   0.000016   0.053913
     4  C    0.004416   0.000431  -0.000061   0.000002  -0.000048   0.029526
     5  H    0.003314  -0.002652   0.000067   0.001178   0.000050   0.001933
     6  H   -0.000038  -0.000048  -0.000027   0.000002   0.000002  -0.016769
     7  C   -0.000095  -0.000076  -0.000033   0.000000   0.000001   0.000476
     8  H   -0.000382  -0.000010   0.000004   0.000000   0.000001   0.000104
     9  H    0.000084   0.000005  -0.000002   0.000000   0.000000  -0.000029
    10  H   -0.000027   0.000056  -0.000046   0.000001  -0.000005   0.000110
    11  N    0.008278  -0.001743   0.001006   0.000000   0.000038  -0.005080
    12  O   -0.000065  -0.000002   0.000002   0.000000   0.000000  -0.001954
    13  O   -0.001346  -0.015521   0.017045   0.000224   0.000150  -0.000046
    14  C   -0.051874  -0.027665   0.006274  -0.000021  -0.007338  -0.045805
    15  H    0.003643  -0.004899   0.000012   0.003139   0.000376   0.007274
    16  C   -0.004739   0.007302  -0.000008   0.001414  -0.001074   0.408646
    17  H   -0.000160   0.000019   0.000009  -0.000031  -0.000006  -0.040278
    18  C    0.418076   0.250182  -0.053945  -0.048580  -0.025941  -0.032390
    19  H    0.542331  -0.023376  -0.004344   0.005378  -0.002548   0.004106
    20  C   -0.023376   4.946355   0.432846   0.416326   0.394948   0.000716
    21  H   -0.004344   0.432846   0.491504  -0.022044  -0.021794   0.000193
    22  H    0.005378   0.416326  -0.022044   0.541940  -0.019190  -0.000118
    23  H   -0.002548   0.394948  -0.021794  -0.019190   0.537385  -0.000119
    24  C    0.004106   0.000716   0.000193  -0.000118  -0.000119   5.173188
    25  H    0.006858   0.000432   0.000002  -0.000011  -0.000020   0.411329
    26  C    0.001004  -0.000176  -0.000008  -0.000002   0.000006   0.328860
    27  H   -0.000069   0.000007   0.000000   0.000000  -0.000001  -0.004732
    28  H   -0.000011  -0.000011  -0.000001   0.000000   0.000001  -0.058724
    29  C   -0.000001   0.000001   0.000000   0.000000   0.000000   0.009186
    30  C    0.000000   0.000000   0.000000   0.000000   0.000000  -0.005808
    31  H    0.000000   0.000000   0.000000   0.000000   0.000000   0.003457
    32  H    0.000000   0.000000   0.000000   0.000000   0.000000  -0.000089
    33  H    0.000000   0.000000   0.000000   0.000000   0.000000  -0.001061
    34  O   -0.000015   0.000002   0.000000   0.000000   0.000000  -0.101024
    35  O    0.000000   0.000000   0.000000   0.000000   0.000000  -0.000076
              25         26         27         28         29         30
     1  C    0.003326  -0.000305  -0.000049   0.000388   0.000015   0.000011
     2  C   -0.018594   0.005267   0.000008  -0.000718  -0.000175  -0.000220
     3  C   -0.025464  -0.007545   0.002647  -0.007413  -0.000748  -0.000139
     4  C   -0.001847   0.003158   0.000529  -0.005032   0.000291  -0.000207
     5  H   -0.000034  -0.000055   0.000001  -0.000032  -0.000006   0.000000
     6  H    0.003474  -0.001431   0.000761  -0.001072   0.000545   0.000706
     7  C    0.000161  -0.000131   0.000000  -0.000125  -0.000001   0.000002
     8  H   -0.000294  -0.000051   0.000000   0.000083   0.000000   0.000000
     9  H    0.000081   0.000009   0.000000  -0.000013   0.000000   0.000000
    10  H   -0.000078  -0.000015   0.000000   0.000005   0.000000   0.000000
    11  N    0.007386   0.001148   0.000030  -0.000117   0.000014  -0.000024
    12  O   -0.000368  -0.011544   0.000488   0.013968   0.001121  -0.002815
    13  O    0.000003  -0.000007   0.000000   0.000002   0.000000   0.000000
    14  C   -0.005647   0.005043  -0.000932   0.000575  -0.000203  -0.000044
    15  H    0.000008   0.000121  -0.000004   0.000004  -0.000013  -0.000002
    16  C   -0.042131  -0.043017  -0.014799   0.015757  -0.001601   0.002566
    17  H    0.002854  -0.011692   0.000628   0.000433   0.001283   0.000874
    18  C    0.003217  -0.001218   0.000025   0.000312   0.000073   0.000035
    19  H    0.006858   0.001004  -0.000069  -0.000011  -0.000001   0.000000
    20  C    0.000432  -0.000176   0.000007  -0.000011   0.000001   0.000000
    21  H    0.000002  -0.000008   0.000000  -0.000001   0.000000   0.000000
    22  H   -0.000011  -0.000002   0.000000   0.000000   0.000000   0.000000
    23  H   -0.000020   0.000006  -0.000001   0.000001   0.000000   0.000000
    24  C    0.411329   0.328860  -0.004732  -0.058724   0.009186  -0.005808
    25  H    0.518751  -0.022628   0.002948  -0.005951   0.000047   0.000292
    26  C   -0.022628   4.832140   0.393190   0.429263  -0.041793   0.001738
    27  H    0.002948   0.393190   0.558098  -0.045697  -0.002437  -0.001545
    28  H   -0.005951   0.429263  -0.045697   0.542418  -0.013171   0.009686
    29  C    0.000047  -0.041793  -0.002437  -0.013171   4.444069   0.290671
    30  C    0.000292   0.001738  -0.001545   0.009686   0.290671   5.198833
    31  H   -0.000069   0.002567  -0.002646  -0.003777  -0.015544   0.364302
    32  H   -0.000002   0.000914   0.000059   0.000198  -0.021464   0.385952
    33  H    0.000026  -0.007743   0.001349  -0.003071  -0.014172   0.378464
    34  O    0.003558   0.232446  -0.036184  -0.032268   0.343879  -0.115011
    35  O    0.000015   0.000742   0.000326   0.000388   0.700190  -0.101521
              31         32         33         34         35
     1  C   -0.000001   0.000000  -0.000005  -0.000009   0.000000
     2  C    0.000016   0.000002   0.000051  -0.000478  -0.000021
     3  C   -0.000020  -0.000002  -0.000229  -0.006382  -0.000017
     4  C   -0.000006   0.000006   0.000224   0.000613  -0.000010
     5  H    0.000000   0.000000   0.000000  -0.000005   0.000000
     6  H   -0.000026  -0.000010   0.000071   0.010828  -0.000035
     7  C    0.000000   0.000000  -0.000006   0.000001   0.000000
     8  H    0.000000   0.000000  -0.000001   0.000000   0.000000
     9  H    0.000000   0.000000   0.000000   0.000000   0.000000
    10  H    0.000000   0.000000   0.000000   0.000000   0.000000
    11  N    0.000001   0.000000   0.000042  -0.000035   0.000000
    12  O    0.000142   0.000021   0.003193  -0.000179   0.000000
    13  O    0.000000   0.000000   0.000000   0.000000   0.000000
    14  C    0.000003   0.000000   0.000005   0.000318  -0.000020
    15  H    0.000000   0.000000   0.000000  -0.000083  -0.000001
    16  C   -0.000234  -0.000020  -0.000268   0.025100  -0.000308
    17  H   -0.000051  -0.000012  -0.000038   0.014201   0.000736
    18  C   -0.000002   0.000000  -0.000006   0.000683   0.000004
    19  H    0.000000   0.000000   0.000000  -0.000015   0.000000
    20  C    0.000000   0.000000   0.000000   0.000002   0.000000
    21  H    0.000000   0.000000   0.000000   0.000000   0.000000
    22  H    0.000000   0.000000   0.000000   0.000000   0.000000
    23  H    0.000000   0.000000   0.000000   0.000000   0.000000
    24  C    0.003457  -0.000089  -0.001061  -0.101024  -0.000076
    25  H   -0.000069  -0.000002   0.000026   0.003558   0.000015
    26  C    0.002567   0.000914  -0.007743   0.232446   0.000742
    27  H   -0.002646   0.000059   0.001349  -0.036184   0.000326
    28  H   -0.003777   0.000198  -0.003071  -0.032268   0.000388
    29  C   -0.015544  -0.021464  -0.014172   0.343879   0.700190
    30  C    0.364302   0.385952   0.378464  -0.115011  -0.101521
    31  H    0.527573  -0.013653  -0.019456   0.004603   0.003296
    32  H   -0.013653   0.483911  -0.007900   0.004825   0.006755
    33  H   -0.019456  -0.007900   0.490537   0.004710   0.001944
    34  O    0.004603   0.004825   0.004710   8.000571  -0.107856
    35  O    0.003296   0.006755   0.001944  -0.107856   7.853797
 Mulliken charges:
               1
     1  C    0.234237
     2  C   -0.169864
     3  C   -0.129526
     4  C    0.238830
     5  H    0.175756
     6  H    0.177594
     7  C   -0.294751
     8  H    0.145452
     9  H    0.150011
    10  H    0.162097
    11  N   -0.084032
    12  O   -0.398081
    13  O   -0.385395
    14  C   -0.141513
    15  H    0.142125
    16  C   -0.147122
    17  H    0.162151
    18  C   -0.089744
    19  H    0.143675
    20  C   -0.370049
    21  H    0.160042
    22  H    0.125070
    23  H    0.142005
    24  C   -0.122188
    25  H    0.158373
    26  C   -0.088255
    27  H    0.148003
    28  H    0.163723
    29  C    0.319945
    30  C   -0.406796
    31  H    0.149523
    32  H    0.160507
    33  H    0.173340
    34  O   -0.246811
    35  O   -0.358329
 Sum of Mulliken charges =   0.00000
 Mulliken charges with hydrogens summed into heavy atoms:
               1
     1  C    0.234237
     2  C    0.005892
     3  C    0.048068
     4  C    0.238830
     7  C    0.162810
    11  N   -0.084032
    12  O   -0.398081
    13  O   -0.385395
    14  C    0.000612
    16  C    0.015028
    18  C    0.053931
    20  C    0.057068
    24  C    0.036185
    26  C    0.223471
    29  C    0.319945
    30  C    0.076574
    34  O   -0.246811
    35  O   -0.358329
 APT charges:
               1
     1  C    1.336399
     2  C   -0.233635
     3  C   -0.165357
     4  C    1.313024
     5  H    0.047852
     6  H    0.049311
     7  C    0.356769
     8  H   -0.004396
     9  H   -0.021082
    10  H    0.049438
    11  N   -0.976559
    12  O   -0.931951
    13  O   -0.944057
    14  C   -0.105832
    15  H    0.044531
    16  C   -0.084144
    17  H    0.086753
    18  C    0.147286
    19  H    0.014964
    20  C   -0.026241
    21  H    0.046677
    22  H   -0.003485
    23  H   -0.019848
    24  C    0.015999
    25  H    0.025939
    26  C    0.499385
    27  H   -0.064623
    28  H    0.030024
    29  C    1.508375
    30  C   -0.142843
    31  H    0.045913
    32  H    0.040279
    33  H    0.057005
    34  O   -1.063831
    35  O   -0.928041
 Sum of APT charges =   0.00000
 APT charges with hydrogens summed into heavy atoms:
               1
     1  C    1.336399
     2  C   -0.185783
     3  C   -0.116045
     4  C    1.313024
     7  C    0.380730
    11  N   -0.976559
    12  O   -0.931951
    13  O   -0.944057
    14  C   -0.061301
    16  C    0.002609
    18  C    0.162250
    20  C   -0.002896
    24  C    0.041937
    26  C    0.464787
    29  C    1.508375
    30  C    0.000354
    34  O   -1.063831
    35  O   -0.928041
 Electronic spatial extent (au):  <R**2>=           5238.4387
 Charge=              0.0000 electrons
 Dipole moment (field-independent basis, Debye):
    X=             -1.6436    Y=             -0.0129    Z=             -3.6630  Tot=              4.0148
 Quadrupole moment (field-independent basis, Debye-Ang):
   XX=           -128.8988   YY=           -103.8610   ZZ=           -104.3096
   XY=            -10.3824   XZ=             -8.9669   YZ=              1.7702
 Traceless Quadrupole moment (field-independent basis, Debye-Ang):
   XX=            -16.5424   YY=              8.4955   ZZ=              8.0469
   XY=            -10.3824   XZ=             -8.9669   YZ=              1.7702
 Octapole moment (field-independent basis, Debye-Ang**2):
  XXX=              2.4888  YYY=              4.5193  ZZZ=             -1.3815  XYY=            -27.0168
  XXY=            -47.0621  XXZ=            -79.5142  XZZ=             -5.7214  YZZ=             -9.4401
  YYZ=              4.7917  XYZ=            -15.0398
 Hexadecapole moment (field-independent basis, Debye-Ang**3):
 XXXX=          -5259.1133 YYYY=          -1777.0988 ZZZZ=           -402.8579 XXXY=           -264.6447
 XXXZ=           -187.9064 YYYX=             62.6615 YYYZ=             35.0264 ZZZX=            -16.3263
 ZZZY=             15.6843 XXYY=           -996.1342 XXZZ=           -870.1953 YYZZ=           -375.9566
 XXYZ=            -22.1813 YYXZ=              5.4414 ZZXY=             -4.7483
 N-N= 1.363698499548D+03 E-N=-4.737878550439D+03  KE= 8.573428731829D+02
  Exact polarizability: 255.083  -9.675 225.836  -5.632  -1.569 150.160
 Approx polarizability: 234.907  -8.580 214.410  -6.485  -2.731 166.188
   1 Symmetry operations used in ECPInt.
 ECPInt:  NShTT=   35511 NPrTT=  107400 LenC2=   31716 LenP2D=   69537.
 LDataN:  DoStor=T MaxTD1= 8 Len=  415
 D2PCM: PCM CHGder 2nd derivatives, FixD1E=F FixD2E=F DoIter=F DoCFld=F I1PDM=0
 Calling FoFJK, ICntrl=    100127 FMM=F ISym2X=0 I1Cent= 0 IOpClX= 0 NMat=1 NMatS=1 NMatT=0.
 Full mass-weighted force constant matrix:
 Low frequencies --- -536.0928  -12.5813   -5.5589   -0.0006    0.0003    0.0006
 Low frequencies ---   10.6076   28.6059   37.8653
 ******    1 imaginary frequencies (negative Signs) ****** 
 Diagonal vibrational polarizability:
       89.8189855     110.9261272     151.0251143
 Harmonic frequencies (cm**-1), IR intensities (KM/Mole), Raman scattering
 activities (A**4/AMU), depolarization ratios for plane and unpolarized
 incident light, reduced masses (AMU), force constants (mDyne/A),
 and normal coordinates:
                      1                      2                      3
                      A                      A                      A
 Frequencies --   -536.0916                28.0731                37.4198
 Red. masses --      7.9389                 5.8225                 3.6196
 Frc consts  --      1.3443                 0.0027                 0.0030
 IR Inten    --     12.2507                 2.3000                 6.9970
  Atom  AN      X      Y      Z        X      Y      Z        X      Y      Z
     1   6     0.00  -0.04   0.02     0.08   0.00   0.06    -0.02   0.01  -0.01
     2   6     0.05  -0.25   0.30     0.09   0.02  -0.01    -0.03   0.02  -0.01
     3   6    -0.15  -0.18   0.34     0.09   0.05  -0.08    -0.03   0.02   0.03
     4   6    -0.02  -0.03   0.03     0.08   0.04  -0.07    -0.01   0.01   0.06
     5   1    -0.03   0.18  -0.13     0.12   0.03   0.00    -0.05   0.04  -0.03
     6   1     0.13   0.13  -0.16     0.12   0.06  -0.12    -0.04   0.04   0.05
     7   6    -0.01  -0.01  -0.01     0.04  -0.04   0.12     0.02  -0.02   0.04
     8   1    -0.01  -0.02  -0.02     0.22  -0.27   0.26     0.00  -0.01   0.03
     9   1    -0.01  -0.01  -0.01    -0.21   0.06   0.32     0.06  -0.01   0.04
    10   1    -0.01  -0.02  -0.02     0.09   0.06  -0.13     0.01  -0.05   0.07
    11   7    -0.01  -0.01  -0.03     0.06   0.01   0.02     0.00   0.00   0.03
    12   8     0.00   0.01  -0.01     0.08   0.07  -0.13     0.00   0.01   0.10
    13   8     0.00   0.01  -0.01     0.08  -0.04   0.15    -0.02   0.01  -0.05
    14   6    -0.08   0.01  -0.01    -0.04   0.04  -0.07     0.00   0.01  -0.02
    15   1     0.00  -0.06   0.15    -0.04   0.04  -0.08    -0.01   0.01  -0.03
    16   6     0.05  -0.06  -0.03    -0.03   0.06  -0.11     0.00   0.00   0.01
    17   1    -0.01  -0.08   0.17    -0.03   0.09  -0.13    -0.01   0.00   0.02
    18   6    -0.01   0.27  -0.23    -0.03   0.01  -0.02     0.00   0.01  -0.04
    19   1     0.02  -0.07   0.16    -0.03  -0.01  -0.01     0.02   0.00  -0.03
    20   6    -0.03   0.05  -0.04    -0.03  -0.03   0.02    -0.01   0.01  -0.08
    21   1     0.10  -0.03   0.06     0.00  -0.04   0.05    -0.02   0.01  -0.09
    22   1    -0.03   0.07  -0.05    -0.03  -0.02   0.01    -0.03   0.02  -0.09
    23   1    -0.22   0.00   0.02    -0.07  -0.04   0.03     0.01   0.00  -0.09
    24   6     0.15   0.21  -0.29    -0.01   0.07  -0.11     0.00   0.00   0.03
    25   1    -0.05  -0.05   0.15    -0.02   0.05  -0.09     0.00  -0.01   0.03
    26   6     0.04   0.02  -0.04     0.00   0.09  -0.12    -0.01  -0.01   0.04
    27   1     0.18  -0.15  -0.02     0.05   0.20  -0.09     0.02   0.05   0.06
    28   1    -0.09   0.04   0.06     0.01   0.08  -0.23    -0.01  -0.02  -0.02
    29   6     0.00   0.00   0.00    -0.11  -0.09   0.08     0.02  -0.02  -0.02
    30   6     0.00   0.00   0.00    -0.08  -0.03   0.01     0.13   0.17  -0.30
    31   1     0.01   0.00   0.00     0.00   0.05   0.01     0.12   0.40  -0.28
    32   1     0.00  -0.01   0.01    -0.11  -0.08   0.07     0.15   0.19  -0.36
    33   1    -0.01   0.00   0.00    -0.12  -0.05  -0.10     0.20   0.04  -0.49
    34   8     0.01   0.01  -0.01    -0.04   0.01  -0.03    -0.03  -0.08   0.10
    35   8     0.00   0.00   0.00    -0.20  -0.20   0.23    -0.02  -0.13   0.09
                      4                      5                      6
                      A                      A                      A
 Frequencies --     43.1136                60.7035                73.3310
 Red. masses --      3.7218                 1.3755                 4.2428
 Frc consts  --      0.0041                 0.0030                 0.0134
 IR Inten    --      1.1963                 1.0038                 2.2082
  Atom  AN      X      Y      Z        X      Y      Z        X      Y      Z
     1   6     0.02  -0.01  -0.06     0.01   0.01   0.04     0.01   0.01  -0.05
     2   6    -0.04   0.02   0.00     0.03   0.00   0.02     0.02  -0.01  -0.02
     3   6    -0.01   0.07   0.06     0.02  -0.01  -0.01     0.01  -0.03   0.00
     4   6     0.07   0.04   0.09     0.00   0.00  -0.01     0.00  -0.04   0.03
     5   1    -0.10   0.01  -0.01     0.05   0.01   0.02     0.01  -0.02  -0.01
     6   1    -0.03   0.12   0.07     0.03  -0.02  -0.02     0.02  -0.01  -0.02
     7   6     0.17  -0.01  -0.05    -0.02   0.05  -0.05     0.00  -0.01  -0.01
     8   1    -0.05   0.26  -0.22    -0.39   0.40  -0.30     0.10  -0.10   0.05
     9   1     0.53  -0.10  -0.25     0.43  -0.09  -0.34    -0.13   0.02   0.05
    10   1     0.09  -0.20   0.26    -0.12  -0.13   0.44     0.03   0.05  -0.15
    11   7     0.09   0.00   0.01    -0.01   0.00   0.03     0.01  -0.01  -0.02
    12   8     0.11   0.05   0.18    -0.01  -0.01  -0.04    -0.01  -0.07   0.09
    13   8     0.02  -0.04  -0.15     0.01   0.02   0.07     0.01   0.04  -0.11
    14   6    -0.03   0.04   0.02     0.00  -0.02  -0.04     0.07  -0.02  -0.04
    15   1    -0.02   0.03   0.02     0.01  -0.01  -0.05     0.17  -0.02  -0.04
    16   6    -0.03   0.03   0.00     0.00  -0.02  -0.04     0.03  -0.08  -0.13
    17   1    -0.02   0.04  -0.02     0.00  -0.01  -0.06     0.07  -0.11  -0.20
    18   6    -0.03   0.04   0.03     0.00  -0.02  -0.01     0.01   0.05   0.07
    19   1    -0.04   0.05   0.01    -0.01  -0.04   0.00    -0.12   0.07   0.04
    20   6    -0.03   0.03   0.06     0.00  -0.02  -0.01     0.08   0.12   0.26
    21   1    -0.02   0.02   0.05     0.01  -0.01   0.01     0.08   0.15   0.31
    22   1    -0.02   0.01   0.08     0.01  -0.01  -0.02     0.22   0.08   0.28
    23   1    -0.04   0.05   0.07     0.00  -0.03  -0.01     0.00   0.19   0.33
    24   6    -0.04   0.03   0.00     0.00  -0.02  -0.02    -0.02  -0.10  -0.10
    25   1    -0.06   0.02   0.03     0.00  -0.04  -0.01    -0.05  -0.13  -0.04
    26   6    -0.05   0.03  -0.04     0.01  -0.02  -0.01    -0.02  -0.10  -0.06
    27   1    -0.07   0.04  -0.05     0.02  -0.01   0.00     0.00  -0.13  -0.06
    28   1    -0.05   0.03  -0.06     0.02  -0.02  -0.01     0.00  -0.10  -0.02
    29   6    -0.06  -0.07  -0.03    -0.01   0.01   0.02    -0.05   0.06   0.02
    30   6    -0.13  -0.11   0.00     0.03   0.03   0.01     0.09   0.10   0.02
    31   1    -0.14  -0.15   0.00     0.05   0.04   0.01     0.15   0.11   0.02
    32   1    -0.14  -0.16  -0.01     0.03   0.04   0.03     0.09   0.17   0.09
    33   1    -0.16  -0.07   0.04     0.04   0.01  -0.01     0.13   0.05  -0.03
    34   8    -0.02   0.00  -0.06    -0.01  -0.01   0.00    -0.07  -0.03  -0.06
    35   8    -0.03  -0.10  -0.04    -0.04   0.01   0.05    -0.15   0.10   0.07
                      7                      8                      9
                      A                      A                      A
 Frequencies --     94.5738               122.1152               144.4516
 Red. masses --      2.8221                 8.9631                 4.9919
 Frc consts  --      0.0149                 0.0787                 0.0614
 IR Inten    --      3.0594                 0.2038                 1.7852
  Atom  AN      X      Y      Z        X      Y      Z        X      Y      Z
     1   6    -0.03  -0.03  -0.06    -0.07   0.03  -0.02     0.08  -0.01   0.03
     2   6    -0.03  -0.01  -0.08    -0.06   0.04  -0.02     0.09  -0.07   0.04
     3   6    -0.03  -0.01  -0.07    -0.07  -0.02   0.07     0.10  -0.05  -0.04
     4   6    -0.03  -0.03  -0.05    -0.07  -0.01   0.08     0.04  -0.08   0.00
     5   1    -0.03  -0.02  -0.08    -0.08   0.01   0.01     0.12  -0.06   0.04
     6   1    -0.03  -0.02  -0.07    -0.07   0.00   0.06     0.09  -0.11  -0.01
     7   6    -0.04  -0.18   0.21    -0.08   0.05  -0.03     0.00   0.01  -0.02
     8   1    -0.32  -0.12   0.06    -0.05   0.06  -0.01     0.00   0.00  -0.02
     9   1     0.32  -0.15   0.19    -0.14   0.03  -0.04    -0.05  -0.01  -0.04
    10   1    -0.12  -0.36   0.55    -0.07   0.08  -0.07     0.01   0.06  -0.03
    11   7    -0.04  -0.08   0.02    -0.07   0.02   0.02     0.05  -0.03   0.00
    12   8    -0.02  -0.01  -0.07    -0.08  -0.03   0.13     0.01  -0.12   0.05
    13   8    -0.03   0.00  -0.08    -0.07   0.04  -0.04     0.08   0.02   0.03
    14   6     0.04   0.04   0.06     0.01  -0.08   0.10     0.06   0.04   0.15
    15   1     0.04   0.02   0.11    -0.06  -0.10   0.14     0.07   0.03   0.19
    16   6     0.03   0.04   0.05     0.04   0.00   0.06     0.02  -0.04   0.19
    17   1     0.03   0.01   0.10     0.01   0.03   0.07     0.06  -0.14   0.25
    18   6     0.03   0.07   0.00     0.05  -0.16   0.07     0.06   0.11  -0.03
    19   1     0.02   0.11  -0.04     0.11  -0.10   0.00     0.13   0.09   0.00
    20   6     0.04   0.08   0.03     0.01  -0.20  -0.01     0.03   0.13  -0.24
    21   1     0.02   0.07  -0.01    -0.01  -0.22  -0.11    -0.01   0.15  -0.27
    22   1     0.04   0.04   0.06    -0.06  -0.24   0.05    -0.08   0.19  -0.30
    23   1     0.04   0.12   0.04     0.09  -0.14  -0.02     0.14   0.03  -0.34
    24   6     0.03   0.06  -0.02     0.09   0.05  -0.03    -0.09  -0.04   0.11
    25   1     0.03   0.09  -0.05     0.07   0.02   0.01    -0.11   0.09   0.03
    26   6     0.02   0.04  -0.01     0.10   0.07  -0.12    -0.11  -0.05  -0.03
    27   1     0.03   0.05  -0.01    -0.08  -0.12  -0.23    -0.21  -0.07  -0.07
    28   1     0.01   0.04  -0.02     0.13   0.09   0.10    -0.06  -0.04   0.02
    29   6     0.01   0.01   0.01     0.06   0.03  -0.04    -0.10   0.04  -0.04
    30   6     0.00   0.00   0.01     0.08   0.02  -0.02    -0.05   0.04  -0.02
    31   1     0.01   0.00   0.01     0.07  -0.03  -0.02    -0.09   0.00  -0.02
    32   1    -0.01  -0.01   0.02     0.09   0.05   0.00    -0.03   0.09  -0.04
    33   1    -0.02   0.01   0.01     0.12   0.01   0.04     0.00   0.02   0.03
    34   8     0.03   0.03  -0.01     0.26   0.27  -0.39    -0.06   0.04  -0.13
    35   8     0.01   0.00   0.01    -0.09  -0.13   0.20    -0.16   0.05   0.01
                     10                     11                     12
                      A                      A                      A
 Frequencies --    160.1113               170.7708               178.5438
 Red. masses --      6.0084                 9.3427                 3.0752
 Frc consts  --      0.0908                 0.1605                 0.0578
 IR Inten    --      2.0174                 8.9459                 2.4533
  Atom  AN      X      Y      Z        X      Y      Z        X      Y      Z
     1   6     0.10   0.09  -0.04    -0.03   0.02   0.06    -0.02   0.02  -0.02
     2   6     0.16  -0.04   0.05    -0.06   0.01   0.14    -0.02   0.04  -0.02
     3   6     0.13  -0.08  -0.01    -0.04   0.03   0.17    -0.03   0.02   0.03
     4   6     0.04  -0.09   0.02     0.03   0.10   0.04    -0.01   0.05   0.01
     5   1     0.21  -0.01   0.04    -0.09   0.02   0.12    -0.04   0.01   0.00
     6   1     0.16  -0.12  -0.04    -0.03   0.06   0.15    -0.01   0.06  -0.02
     7   6    -0.11   0.04   0.08     0.09   0.01   0.07     0.01   0.01   0.02
     8   1    -0.18   0.01   0.05     0.24   0.10   0.12    -0.02  -0.01   0.01
     9   1    -0.15   0.03   0.07    -0.01  -0.06   0.00     0.05   0.04   0.05
    10   1    -0.10   0.14   0.14     0.11   0.03  -0.07     0.00  -0.03   0.04
    11   7     0.02  -0.01   0.06     0.01  -0.07   0.28    -0.01   0.05  -0.04
    12   8    -0.02  -0.15   0.02     0.12   0.30  -0.38    -0.01   0.04   0.05
    13   8     0.10   0.30  -0.25    -0.04   0.14  -0.25    -0.02   0.00   0.02
    14   6    -0.08  -0.01   0.01     0.02  -0.09   0.05     0.06  -0.02   0.13
    15   1    -0.13  -0.02   0.01     0.04  -0.07   0.01     0.03  -0.07   0.21
    16   6    -0.05   0.04  -0.01     0.00  -0.12   0.05     0.07   0.01   0.06
    17   1    -0.07   0.08  -0.02     0.02  -0.14   0.02     0.07  -0.04   0.12
    18   6    -0.04  -0.08   0.01     0.01  -0.08   0.06     0.10  -0.07   0.05
    19   1     0.02  -0.09   0.02     0.02  -0.10   0.09     0.18  -0.02   0.00
    20   6    -0.08  -0.20   0.05     0.01  -0.02  -0.06     0.05  -0.14  -0.04
    21   1     0.04  -0.25   0.17    -0.03   0.02  -0.08     0.02  -0.19  -0.21
    22   1    -0.12  -0.11  -0.04    -0.02   0.02  -0.11    -0.07  -0.22   0.05
    23   1    -0.20  -0.35   0.03     0.10  -0.06  -0.12     0.16  -0.04  -0.05
    24   6    -0.01   0.05   0.00    -0.05  -0.14   0.07     0.04   0.06  -0.12
    25   1     0.00   0.02   0.02    -0.08  -0.12   0.10    -0.01   0.11  -0.10
    26   6     0.01   0.09  -0.01    -0.05  -0.14   0.00     0.00   0.01  -0.13
    27   1     0.05   0.20   0.03    -0.14  -0.18  -0.04     0.11   0.15  -0.07
    28   1     0.02   0.07  -0.13    -0.02  -0.13   0.07    -0.04  -0.01  -0.29
    29   6    -0.02   0.01   0.01    -0.02  -0.01  -0.03    -0.04  -0.02   0.00
    30   6    -0.08   0.01  -0.01     0.06  -0.01   0.01     0.03  -0.01   0.03
    31   1    -0.08   0.03  -0.01     0.06  -0.04   0.01     0.38   0.13   0.01
    32   1    -0.09  -0.04  -0.03     0.08   0.06   0.02    -0.08  -0.15   0.31
    33   1    -0.11   0.02  -0.02     0.11  -0.04   0.03    -0.17   0.03  -0.28
    34   8    -0.04   0.01   0.09    -0.01  -0.05  -0.10    -0.10  -0.13   0.03
    35   8     0.03   0.00  -0.03    -0.08   0.03   0.00    -0.07   0.09  -0.06
                     13                     14                     15
                      A                      A                      A
 Frequencies --    199.9968               207.1516               224.9783
 Red. masses --      2.9727                 1.2504                 1.1240
 Frc consts  --      0.0701                 0.0316                 0.0335
 IR Inten    --      2.8888                 0.2825                 1.1681
  Atom  AN      X      Y      Z        X      Y      Z        X      Y      Z
     1   6    -0.02  -0.06   0.06     0.01   0.01  -0.01    -0.02  -0.01   0.00
     2   6    -0.01   0.00  -0.06     0.01  -0.01   0.02    -0.02   0.01  -0.02
     3   6     0.00  -0.01  -0.05     0.01   0.00   0.00    -0.01   0.01  -0.02
     4   6    -0.01  -0.08   0.07     0.00   0.01  -0.02    -0.01   0.00   0.01
     5   1     0.01   0.01  -0.06     0.01  -0.01   0.02    -0.02   0.00  -0.02
     6   1    -0.01   0.02  -0.05     0.00  -0.02   0.02    -0.02   0.02  -0.01
     7   6    -0.03   0.02  -0.11     0.00   0.00   0.02     0.00  -0.01  -0.02
     8   1     0.15   0.19  -0.06    -0.02  -0.03   0.01     0.04   0.03  -0.01
     9   1    -0.25  -0.14  -0.30     0.04   0.02   0.05    -0.02  -0.03  -0.05
    10   1     0.02   0.16  -0.27     0.00  -0.02   0.04     0.01   0.00  -0.05
    11   7    -0.04  -0.18   0.25     0.01   0.03  -0.04    -0.01  -0.02   0.03
    12   8     0.01  -0.04   0.01     0.00   0.00   0.00     0.00   0.01   0.01
    13   8    -0.02  -0.01  -0.01     0.01   0.00   0.00    -0.02  -0.02   0.01
    14   6     0.01   0.04  -0.02    -0.03   0.00  -0.01     0.02   0.01   0.02
    15   1     0.01   0.04  -0.02    -0.02   0.01  -0.03     0.01   0.01   0.01
    16   6     0.01   0.05  -0.03    -0.03  -0.01   0.01     0.02   0.01   0.01
    17   1     0.01   0.06  -0.05    -0.04   0.00   0.01     0.02   0.00   0.02
    18   6     0.01   0.03  -0.01    -0.04   0.01  -0.01     0.02   0.00   0.02
    19   1     0.00   0.04  -0.03    -0.06   0.00   0.01     0.03   0.00   0.03
    20   6     0.03   0.07  -0.01    -0.03   0.03   0.00     0.02   0.00   0.00
    21   1    -0.05   0.06  -0.17     0.00   0.06   0.15     0.17   0.09   0.52
[...]
 0002457,-0.00000101,0.00000401,-0.00000333,0.00000363,0.00003343,-0.00
 002665,0.00009606,-0.00009544,-0.00003612,-0.00000523,0.00000046,0.000
 00038,0.00002820,0.00002635,-0.00003626,-0.00000256,-0.00000034,-0.000
 00231,0.00000392,-0.00000376,0.00000429,0.00000369,-0.00000049,-0.0000
 0403,-0.00000148,0.00000102,0.00000073,-0.00006968,0.00004691,0.000014
 22,-0.00006631,0.00013913,0.00002724,-0.00002994,0.00001602,0.00000741
 ,-0.00000858,-0.00000001,0.00000546,-0.00001016,0.00000685,0.00000303,
 -0.00010683,0.00006537,-0.00002935,-0.00003841,-0.00003922,0.00000669,
 0.00000132,-0.00000132,0.00000897,0.00000016,0.00000382,0.00000314,-0.
 00000342,-0.00000057,-0.00000308,0.00000029,-0.00000016,0.00000055,-0.
 00000146,0.00000182,0.00000189,-0.00000314,0.00000052,0.00000041,0.000
 19283,0.00004091,-0.00029183,-0.00004012,0.00002965,-0.00001389,-0.000
 03969,0.00102716,0.00023733,-0.00064867,0.00035889,0.00000713,0.000119
 37,0.00040189,0.00047546,0.01994476,-0.03615791,-0.11217494,0.03490349
 ,-0.02202092,0.54928741,-0.00009608,0.00001674,0.00001383,0.00004091,-
 0.00000035,-0.00001144,-0.00000347,-0.00001647,0.00004001,-0.00015133,
 0.00001398,0.00002122,0.00001208,0.00000355,-0.00000025,0.00001183,-0.
 00000729,0.00000505,-0.00001048,-0.00001851,0.00000280,-0.00000495,-0.
 00000047,-0.00000307,-0.00000136,0.00000586,-0.00000123,0.00000242,-0.
 00000187,-0.00000124,0.00009385,-0.00003378,0.00000219,0.00007880,-0.0
 0002968,-0.00011043,0.00008531,-0.00000352,-0.00000611,-0.00000162,-0.
 00001110,0.00000899,0.00001547,-0.00001460,-0.00000701,0.00014474,-0.0
 0002928,-0.00005543,0.00001149,-0.00000867,-0.00000967,-0.00000575,0.0
 0002465,-0.00003459,-0.00000536,-0.00000778,-0.00000018,0.00001099,-0.
 00000823,0.00002717,0.00000167,0.00000147,-0.00000547,0.00000260,-0.00
 000455,-0.00000538,0.00001376,-0.00000817,-0.00000313,-0.00030753,-0.0
 0003347,-0.00011944,-0.00000663,0.00000750,0.00000105,-0.00110537,0.00
 083963,0.00158895,-0.00028665,0.00075055,-0.00056989,-0.00063922,-0.00
 012937,0.00050209,-0.00104289,-0.00644636,0.00845277,-0.04743942,0.007
 27283,-0.02141621,0.04783501,0.00000246,0.00004656,0.00003225,-0.00003
 108,-0.00000915,-0.00000825,0.00000576,-0.00000345,-0.00001184,-0.0000
 2064,0.00008828,0.00004793,-0.00000368,-0.00000467,0.00000066,0.000006
 76,-0.00000836,-0.00000761,0.00000409,0.00001120,0.00001683,-0.0000036
 8,-0.00000009,-0.00000636,-0.00000186,-0.00000188,0.00000056,-0.000000
 28,-0.00000112,-0.00000172,0.00000706,-0.00003212,-0.00002108,0.000021
 20,-0.00006237,-0.00009183,-0.00000939,-0.00001314,-0.00000985,-0.0000
 0084,-0.00002045,-0.00002405,0.00000299,-0.00000039,-0.00000085,0.0000
 0402,0.00002606,0.00002565,-0.00002429,-0.00000263,-0.00000872,-0.0000
 0139,-0.00000967,0.00001919,-0.00000048,0.00000356,-0.00000406,-0.0000
 0447,0.00000061,-0.00001029,-0.00000126,0.00000026,0.00000282,-0.00000
 039,0.00000007,0.00000062,-0.00000378,0.00000368,0.00000158,0.00007783
 ,-0.00024088,0.00010826,-0.00000988,0.00001504,-0.00000516,0.00145982,
 0.00023051,-0.00088428,0.00049210,-0.00031918,0.00041792,0.00008898,-0
 .00029964,0.00042312,-0.00425161,0.00910338,-0.03077217,0.00687390,-0.
 04615898,0.02455116,-0.00539173,0.04943404,0.00004142,0.00001561,0.000
 00688,-0.00004007,0.00000520,0.00000648,0.00000234,0.00000115,-0.00004
 715,0.00004557,0.00003481,0.00000213,-0.00000871,-0.00000250,-0.000000
 43,-0.00000747,0.00000708,-0.00000774,0.00000497,0.00000887,-0.0000025
 4,0.00000090,-0.00000023,0.00000159,-0.00000017,-0.00000323,0.00000003
 ,-0.00000066,0.00000069,0.00000033,-0.00002302,0.00000454,-0.00000550,
 -0.00001790,-0.00003521,0.00006046,-0.00003694,-0.00000385,0.00000088,
 0.00002962,0.00003350,-0.00001376,-0.00001490,0.00001149,0.00000322,-0
 .00019657,0.00001938,0.00001958,-0.00000052,0.00000832,0.00000175,-0.0
 0000664,-0.00002482,0.00002527,0.00000289,0.00000622,-0.00000295,-0.00
 000462,0.00000266,-0.00001532,-0.00000204,-0.00000066,0.00000240,-0.00
 000140,0.00000279,0.00000226,-0.00000732,0.00000496,0.00000270,0.00014
 191,0.00025565,0.00037690,0.00002091,-0.00001518,-0.00001653,-0.001011
 43,0.00016030,0.00038010,-0.00001413,-0.00019209,0.00011702,0.00016090
 ,0.00043100,-0.00034385,-0.00383474,0.00377143,-0.01441897,-0.01975276
 ,0.02561119,-0.31600492,0.02366292,-0.02690613,0.34167788,0.00009400,0
 .00001932,0.00000750,-0.00005140,-0.00002627,-0.00000843,0.00003304,0.
 00000832,-0.00001242,0.00017447,-0.00002074,-0.00001205,-0.00000724,-0
 .00000028,-0.00000163,0.00001584,0.00000054,-0.00003153,0.00001284,0.0
 0003169,0.00001177,0.00000175,-0.00000192,-0.00000190,-0.00000039,-0.0
 0000803,0.00000064,-0.00000300,-0.00000016,-0.00000030,-0.00009904,0.0
 0000946,-0.00001863,-0.00013988,-0.00001034,0.00003684,-0.00008534,-0.
 00000730,0.00000119,0.00000457,-0.00000506,-0.00001484,-0.00001230,0.0
 0001068,0.00000629,-0.00012990,0.00005523,0.00004374,0.00000598,-0.000
 04192,-0.00001788,0.00000225,-0.00001088,0.00002242,0.00000250,0.00000
 657,0.00000182,-0.00000881,0.00000125,-0.00001773,-0.00000244,-0.00000
 132,0.00000454,-0.00000113,0.00000328,0.00000334,-0.00000982,0.0000069
 8,0.00000121,0.00021307,0.00007128,-0.00006344,-0.00003265,0.00000773,
 0.00000323,0.00040137,-0.00002112,0.00073423,-0.00000585,-0.00001881,-
 0.00005584,0.00022339,0.00022278,0.00000230,-0.00984763,-0.00082007,-0
 .00393690,-0.30206762,0.06104993,-0.06465719,0.00103463,-0.00051087,0.
 00049247,0.32238558,-0.00001292,-0.00005786,-0.00003823,0.00004075,0.0
 0001604,0.00001056,-0.00002276,0.00001540,0.00001955,0.00011893,-0.000
 14624,-0.00004923,-0.00000065,0.00000310,0.00000003,-0.00002678,-0.000
 02207,0.00002242,-0.00000011,0.00000227,-0.00000113,0.00000132,0.00000
 079,0.00000169,0.00000108,0.00000056,0.00000055,-0.00000012,-0.0000001
 8,0.00000028,-0.00005542,0.00004714,0.00001995,-0.00012285,0.00008835,
 0.00002311,0.00000698,0.00001421,0.00000925,0.00000712,0.00004342,0.00
 006448,-0.00000324,-0.00000115,-0.00000131,-0.00004777,-0.00006904,-0.
 00003975,0.00000161,0.00008408,0.00001236,0.00001528,0.00001207,-0.000
 02079,-0.00000100,-0.00000681,0.00000325,0.00000283,0.00000406,0.00000
 275,0.00000267,-0.00000033,-0.00000152,0.00000036,-0.00000084,-0.00000
 146,0.00000307,-0.00000226,-0.00000024,0.00010438,0.00033703,0.0000420
 1,0.00005761,-0.00003569,0.00001036,-0.00206393,-0.00075367,-0.0012952
 6,-0.00002098,0.00000762,0.00004073,0.00009004,0.00041658,0.00001625,0
 .02972398,-0.00688555,0.00939807,0.05490617,-0.05946989,0.01343699,0.0
 0213042,-0.00165845,0.00067261,-0.06496097,0.06474017,0.00000880,-0.00
 000532,-0.00000283,-0.00000347,0.00000963,0.00000295,-0.00000565,0.000
 00366,-0.00001523,0.00000930,0.00001160,0.00000151,-0.00000227,-0.0000
 0220,0.00000121,-0.00001227,-0.00000177,0.00001248,0.00000138,0.000000
 31,-0.00000099,0.00000124,0.00000123,0.00000033,0.00000002,-0.00000011
 ,0.00000098,-0.00000022,0.00000053,0.00000042,-0.00000520,0.00000351,0
 .00000050,0.00001525,-0.00000284,0.00002480,-0.00000819,0.00000143,-0.
 00000060,0.00001704,0.00003855,-0.00000677,-0.00000706,0.00000392,0.00
 000207,-0.00009130,-0.00003330,0.00000122,-0.00000647,0.00003749,0.000
 02872,0.00000572,-0.00001076,0.00000867,0.00000184,0.00000153,-0.00000
 186,-0.00000199,0.00000308,-0.00000543,-0.00000012,0.00000002,0.000001
 57,-0.00000097,0.00000061,0.00000132,-0.00000300,0.00000196,0.00000086
 ,0.00011447,0.00015566,0.00025634,0.00003597,-0.00001591,-0.00000998,-
 0.00112908,-0.00033167,-0.00094314,0.00002503,-0.00027147,0.00034243,-
 0.00007955,0.00037564,-0.00027900,0.01654151,-0.00214959,0.00273169,-0
 .06900269,0.01599059,-0.06634085,-0.02945102,0.00650329,-0.00468932,0.
 07157690,-0.01369129,0.06637194,-0.00004747,0.00007158,0.00005058,-0.0
 0002219,0.00001018,-0.00000775,0.00002278,-0.00004011,-0.00005441,-0.0
 0021650,0.00027224,0.00009708,0.00000325,-0.00000580,0.00000180,0.0000
 2369,0.00000771,0.00000876,-0.00000757,-0.00002360,-0.00000831,-0.0000
 0394,0.00000009,-0.00000114,-0.00000078,0.00000414,-0.00000067,0.00000
 243,0.00000040,0.00000019,0.00014153,-0.00007896,-0.00001651,0.0001706
 4,-0.00011553,-0.00014795,0.00004914,-0.00001716,-0.00001567,0.0000350
 3,-0.00000517,0.00001605,-0.00000150,0.00000113,-0.00000228,-0.0000433
 1,0.00000850,-0.00000273,0.00000986,-0.00000719,-0.00000052,-0.0000165
 4,-0.00002134,0.00000977,0.00000026,0.00000279,-0.00000613,0.00000182,
 -0.00000064,0.00000105,-0.00000112,0.00000084,-0.00000028,0.00000004,-
 0.00000187,-0.00000024,0.,-0.00000068,-0.00000015,0.00000649,0.0000876
 3,-0.00011456,-0.00002035,0.00000600,-0.00000404,-0.00026962,0.0015662
 1,0.00008198,0.00006191,-0.00020893,-0.00002696,-0.00194679,0.00105799
 ,-0.00066069,0.00667429,0.00583621,-0.00823024,-0.14336341,-0.12055541
 ,0.04881750,0.00108661,0.00281493,-0.00123805,-0.01455575,-0.02228896,
 0.00958913,0.15410157,0.00010567,-0.00001338,-0.00001249,-0.00003347,-
 0.00003450,-0.00001940,0.00003265,0.00004376,0.00002621,0.00036049,-0.
 00013816,-0.00003021,-0.00000855,0.00000019,-0.00000056,0.00000693,-0.
 00004784,-0.00003243,0.00001616,0.00004312,0.00002201,0.00000324,-0.00
 000132,-0.00000306,-0.00000138,-0.00000861,0.00000143,-0.00000416,-0.0
 0000135,-0.00000044,-0.00016742,0.00003347,-0.00001417,-0.00056033,-0.
 00005634,-0.00007475,-0.00010470,0.00000004,0.00000419,-0.00000651,0.0
 0002248,0.00002113,-0.00001706,0.00001157,0.00000946,-0.00019638,0.000
 05312,0.00002478,-0.00000487,0.00000243,-0.00001946,0.00001805,-0.0000
 0185,0.00001769,0.00000103,0.00000149,0.00000657,-0.00000989,0.0000057
 3,-0.00002486,-0.00000020,-0.00000190,0.00000547,-0.00000111,0.0000026
 7,0.00000369,-0.00001194,0.00000787,0.00000160,0.00034333,0.00030922,-
 0.00000109,0.00001369,-0.00002534,0.00001635,-0.00043186,-0.00070865,0
 .00017918,-0.00003299,0.00016017,-0.00003416,0.00143135,-0.00001709,0.
 00059470,-0.02124302,-0.02026781,0.01133900,-0.12191183,-0.19967162,0.
 06000222,-0.00082150,-0.00131283,0.00023867,0.00494096,0.00702771,-0.0
 0298332,0.13299959,0.21417820,-0.00005928,0.00002340,0.00002538,0.0000
 2530,-0.00002347,-0.00002180,-0.00000193,0.00001716,0.00004793,-0.0000
 6768,0.00002543,0.00003317,0.00000807,-0.00000067,0.00000124,0.0000008
 8,-0.00003449,0.00000359,-0.00000318,-0.00000308,0.00001863,-0.0000048
 6,0.00000075,-0.00000779,-0.00000187,0.00000404,0.00000064,0.00000081,
 -0.00000237,-0.00000215,0.00004834,-0.00004473,-0.00000102,0.00013983,
 -0.00002468,-0.00023275,0.00004426,-0.00000646,-0.00001245,-0.00002487
 ,-0.00002505,-0.00001431,0.00001459,-0.00001266,-0.00000271,0.00013887
 ,-0.00001465,-0.00002839,-0.00001165,-0.00000265,-0.00001369,0.0000053
 8,0.00002243,-0.00001250,-0.00000470,-0.00000591,-0.00000016,0.0000033
 7,-0.00000327,0.00000871,0.00000164,0.00000107,-0.00000098,0.00000158,
 -0.00000366,-0.00000247,0.00000531,-0.00000260,-0.00000137,-0.00017412
 ,-0.00025986,0.00004519,0.00000406,0.00000586,0.00000277,0.00081736,0.
 00058262,0.00023469,0.00019845,0.00013708,0.00000385,-0.00086967,0.000
 01775,0.00031214,-0.01300483,-0.01262470,0.00569827,0.04720770,0.05771
 211,-0.06209574,0.01928941,0.02471364,-0.00792499,-0.00439384,-0.00723
 077,0.00181461,-0.05145549,-0.06260455,0.06780623,0.00237444,0.0010668
 9,0.00051664,-0.00159346,-0.00048205,-0.00050646,0.00174452,-0.0002993
 8,-0.00124137,0.00200358,0.00191931,0.00025365,-0.00018235,-0.00006188
 ,-0.00003683,-0.00019321,-0.00003301,-0.00058266,0.00029319,0.00068891
 ,0.00026816,0.00002171,-0.00001886,-0.00005882,-0.00002663,-0.00018618
 ,0.00001734,-0.00005837,0.00000252,-0.00001432,-0.00130282,-0.00040829
 ,-0.00051353,-0.00119837,-0.00151312,0.00092275,-0.00203230,-0.0003182
 2,-0.00004459,0.00014452,-0.00104555,-0.00080803,-0.00021071,0.0003363
 4,0.00007886,0.00029243,-0.00020251,0.00073294,-0.00077071,-0.00021424
 ,-0.00031936,-0.00039626,-0.00072379,0.00055476,0.00032732,0.00050538,
 0.00009074,-0.00013548,0.00011686,-0.00023307,-0.00008327,-0.00002473,
 0.00012249,-0.00012140,0.00011837,0.00012684,-0.00023869,0.00015904,0.
 00002083,-0.03431756,-0.02149122,-0.03714037,-0.00701270,0.00530521,0.
 00052159,-0.10505401,-0.03124647,-0.05238272,0.00151180,0.00150659,-0.
 00834713,-0.00974577,-0.00732848,-0.01161901,-0.19950609,0.10982373,-0
 .00485563,-0.01586821,0.01618177,-0.00778232,-0.00084724,-0.00063950,0
 .00041580,0.00012884,0.00383454,0.00170010,-0.00252874,0.00234684,0.00
 025867,0.46207477,-0.00042931,-0.00108911,-0.00066065,0.00065549,0.000
 42659,0.00002136,-0.00033736,0.00017608,0.00030153,0.00145711,-0.00237
 035,-0.00073532,0.00002788,0.00002912,0.00003543,-0.00052141,-0.000275
 25,0.00032054,-0.00007122,-0.00012072,-0.00006135,0.00002427,0.0000114
 2,0.00004206,0.00003152,0.00004891,-0.00000220,0.00000504,-0.00000114,
 0.00000808,-0.00054519,0.00076462,0.00029158,-0.00157361,0.00115483,0.
 00111952,0.00030904,0.00028992,0.00014602,0.00050539,0.00126318,0.0006
 7411,-0.00004718,-0.00002656,-0.00006522,0.00068382,-0.00256873,-0.000
 07376,0.00168717,0.00052572,0.00125320,0.00029297,-0.00002174,-0.00018
 748,-0.00009437,-0.00016359,0.00002078,0.00007302,0.00005324,0.0000483
 1,0.00006467,-0.00000989,-0.00003959,0.00002495,-0.00002747,-0.0000307
 1,0.00006943,-0.00004840,-0.00000337,0.00606658,0.01108111,0.01219831,
 0.00375041,-0.00112092,-0.00075971,-0.01760910,-0.11571865,-0.05121635
 ,0.00174583,0.00299742,-0.00197953,-0.02302424,-0.00961282,-0.03138743
 ,0.07316591,-0.14778241,-0.02954422,0.03529426,-0.00590945,0.00144748,
 0.00089201,-0.00075988,-0.00106572,0.00145489,-0.00571612,-0.00422766,
 -0.00138530,0.00139467,0.00101580,-0.06878333,0.24118048,0.00063306,-0
 .00001096,-0.00011265,-0.00002873,0.00017849,0.00026066,0.00014258,-0.
 00026707,-0.00015332,0.00095630,0.00015415,-0.00003975,-0.00012871,-0.
 00002340,-0.00003111,-0.00016171,-0.00010632,0.00020329,0.00009470,0.0
 0013992,0.00000683,0.00001073,0.00001659,0.00000474,-0.00000035,-0.000
 04660,0.00001449,-0.00000529,0.00001239,-0.00000197,-0.00045675,0.0002
 3548,-0.00001288,-0.00065296,-0.00036657,0.00075604,-0.00045944,0.0000
 0492,0.00007013,-0.00012423,-0.00027889,-0.00012669,-0.00013132,0.0001
 5637,-0.00000319,0.00032236,-0.00147137,0.00118774,0.00053956,0.000005
 91,0.00024259,-0.00008690,-0.00006993,0.00012017,0.00007090,0.00018346
 ,-0.00000289,-0.00006839,0.00006672,-0.00017966,-0.00003099,-0.0000020
 4,0.00004233,-0.00004096,0.00005086,0.00004537,-0.00010211,0.00005978,
 0.00003644,-0.00905343,-0.00076457,-0.00433035,0.00001466,0.00068278,0
 .00042332,-0.04413453,-0.06036322,-0.13579720,-0.03035571,-0.01942050,
 -0.02986290,-0.00500140,-0.00591649,-0.00286854,-0.03257286,-0.0082104
 0,-0.07634636,0.00529284,-0.00848652,0.01434792,-0.00162147,0.00262358
 ,0.00063479,0.00017488,-0.00295434,0.00027545,0.00080784,-0.00216403,-
 0.00105999,0.18637606,0.09841609,0.25220558,0.00109323,0.00048591,0.00
 024318,-0.00070464,-0.00033961,-0.00016757,0.00051013,0.00000420,-0.00
 021467,0.00114247,0.00075259,0.00015249,-0.00008355,-0.00002819,-0.000
 01528,0.00034968,0.00011268,-0.00044088,0.00013187,0.00030783,0.000121
 18,0.00001313,-0.00001852,-0.00002356,-0.00000843,-0.00008396,0.000003
 81,-0.00002918,0.00000225,-0.00000524,-0.00072262,-0.00016532,-0.00027
 102,-0.00065893,-0.00061950,0.00029957,-0.00096431,-0.00014737,-0.0000
 2957,0.00001355,-0.00015054,-0.00033852,-0.00013156,0.00013671,0.00007
 938,-0.00045126,0.00014903,0.00064600,0.00027787,-0.00052112,-0.000035
 78,-0.00001094,-0.00022337,0.00030330,0.00006769,0.00014011,0.00000904
 ,-0.00010259,0.00003446,-0.00021173,-0.00003402,-0.00001397,0.00006193
 ,-0.00002900,0.00004494,0.00005348,-0.00013211,0.00008897,0.00001907,0
 .00006599,-0.00278746,-0.00320410,-0.00135326,0.00072075,0.00019113,0.
 00462971,0.00938823,0.00673431,-0.00243735,-0.00078017,-0.00282594,-0.
 00124246,-0.00045197,-0.00112537,-0.28395826,-0.17551966,-0.25066848,0
 .01120325,-0.00029542,-0.00921060,0.00147318,-0.00095078,0.00119745,0.
 00232607,-0.00142071,0.00016682,0.00065425,0.00294919,0.00186408,-0.08
 749279,-0.01386004,-0.07021823,0.35659519,0.00027314,-0.00021495,-0.00
 011673,-0.00004691,-0.00002602,-0.00003551,0.00004652,0.00017009,0.000
 01660,0.00078357,-0.00047465,-0.00016417,-0.00004152,-0.00000590,0.000
 00200,0.00008295,-0.00003599,-0.00013740,0.00001444,0.00004182,0.00000
 352,0.00001694,-0.00000540,0.00001372,0.00001336,-0.00000899,-0.000004
 42,-0.00000798,0.00000485,0.00000082,-0.00042799,0.00021998,0.00005805
 ,-0.00060280,0.00032332,0.00019647,-0.00026543,0.00006074,0.00003839,0
 .00001418,0.00001333,-0.00006438,-0.00007260,0.00005458,0.00002423,-0.
 00043087,-0.00002707,0.00003949,-0.00002947,-0.00016810,-0.00006710,0.
 00000130,-0.00003415,0.00008029,0.00000924,0.00003419,0.00001561,-0.00
 002339,0.00001329,-0.00006738,-0.00000031,-0.00000408,0.00001248,-0.00
 001160,0.00001764,0.00001915,-0.00003422,0.00001693,0.00000798,0.00061
 721,0.00012430,0.00004138,-0.00002816,-0.00002046,-0.00000378,0.004377
 84,0.00298101,-0.00070185,-0.00093657,-0.00044337,-0.00023861,0.000628
 97,0.00047648,0.00042703,-0.15932735,-0.25837508,-0.22739878,-0.018402
 02,-0.01424530,-0.04326685,0.00106755,-0.00804395,-0.00305846,-0.00143
 484,0.00196554,0.00058296,0.00000851,-0.00098933,-0.00134886,-0.008891
 49,0.03194590,0.00793575,0.18305983,0.24465880,0.00080717,0.00016141,0
 .00006180,-0.00051773,-0.00014127,-0.00005733,0.00030381,0.00007632,-0
 .00028669,0.00113834,0.00013771,-0.00006466,-0.00010807,-0.00002106,-0
 .00001377,0.00017869,0.00002089,-0.00041409,0.00008612,0.00019406,0.00
 004381,0.00001590,-0.00001039,0.00000130,0.00000436,-0.00005621,-0.000
 00027,-0.00001802,0.00000737,-0.00000338,-0.00064171,0.00009258,-0.000
 07830,-0.00073453,-0.00018113,0.00042865,-0.00071477,-0.00004436,0.000
 02821,0.00006105,-0.00014588,-0.00021446,-0.00012392,0.00013568,0.0000
 3739,-0.00056106,0.00016940,0.00057170,0.00020955,-0.00039884,-0.00016
 792,-0.00007109,-0.00019068,0.00024096,0.00005670,0.00011318,0.0000090
 9,-0.00007034,0.00002314,-0.00016377,-0.00002648,-0.00001191,0.0000380
 7,-0.00002640,0.00004726,0.00003977,-0.00009287,0.00006144,0.00002129,
 0.00000240,-0.00203368,-0.00216574,-0.00092855,0.00056995,-0.00002414,
 0.00192045,0.00258553,0.01095143,-0.00061025,0.00004345,-0.00091649,-0
 .00087739,-0.00014291,-0.00132002,-0.23868358,-0.23725459,-0.39715058,
 -0.02279260,-0.03195272,-0.00735180,-0.00018579,-0.00071484,0.00017131
 ,0.00011924,0.00151806,0.00041393,0.00251302,-0.00449540,-0.00462179,-
 0.06649201,0.00468007,-0.01994844,0.32686034,0.26715837,0.42190493\\-0
 .00001275,-0.00000221,-0.00000407,-0.00000354,0.00000539,-0.00000137,-
 0.00000572,-0.00000280,-0.00000560,-0.00000619,0.00000611,0.00000366,-
 0.00000458,0.00000366,-0.00000679,-0.00000026,0.00000515,0.00000405,0.
 00000101,0.00000081,-0.00000301,0.00000430,-0.00000533,0.00000345,0.00
 000178,-0.00000187,0.00000757,0.00000345,-0.00000421,0.00000083,0.0000
 0705,0.00000126,0.00000392,0.00000445,-0.00000252,0.00000704,0.0000089
 5,0.00000039,-0.00000647,-0.00000565,-0.00000562,-0.00000886,-0.000002
 88,0.00000240,-0.00000949,-0.00000539,-0.00000010,-0.00000466,0.000000
 57,0.00000198,-0.00000238,0.00000591,0.00000372,-0.00000492,0.00000073
 ,-0.00000412,-0.00000746,-0.00000200,-0.00000616,-0.00001302,-0.000000
 87,-0.00000016,-0.00001348,-0.00000235,0.00000196,-0.00001397,0.000000
 34,-0.00000404,-0.00001385,0.00000777,-0.00000363,0.00000083,-0.000000
 16,-0.00000360,-0.00000163,0.00000281,0.00000062,0.00000690,0.00000299
 ,-0.00000259,0.00000585,0.00000149,0.00000050,0.00000630,0.00000104,0.
 00000410,0.00001039,0.00000025,-0.00000217,0.00001790,0.00000260,0.000
 00059,0.00000680,-0.00000121,0.00000371,0.00001484,0.00000344,0.000003
 34,0.00001171,-0.00000516,-0.00000044,0.00000069,-0.00000222,0.0000058
 8,0.00000831\\\@


 A MAN IS EXACTLY AS GREAT AS THE TIDE SURGING
 BENEATH HIM.      - BISMARCK
 Job cpu time:       0 days 23 hours 13 minutes 54.3 seconds.
 File lengths (MBytes):  RWF=   1401 Int=      0 D2E=      0 Chk=     34 Scr=      1
 Normal termination of Gaussian 09 at Fri Feb 25 02:11:49 2022.
