 Entering Gaussian System, Link 0=g09
 Input=b3lyp_diene_pm6_cpcmtoluene_water.com
 Output=b3lyp_diene_pm6_cpcmtoluene_water.log
 Initial command:
 /apps/applications/gaussian/G09.D01/2/default/g09/l1.exe "/local/713527.1.40core-192G.q/Gau-347177.inp" -scrdir="/local/713527.1.40core-192G.q/"
 Entering Link 1 = /apps/applications/gaussian/G09.D01/2/default/g09/l1.exe PID=    347178.
  
 Copyright (c) 1988,1990,1992,1993,1995,1998,2003,2009,2013,
            Gaussian, Inc.  All Rights Reserved.
  
 This is part of the Gaussian(R) 09 program.  It is based on
 the Gaussian(R) 03 system (copyright 2003, Gaussian, Inc.),
 the Gaussian(R) 98 system (copyright 1998, Gaussian, Inc.),
 the Gaussian(R) 94 system (copyright 1995, Gaussian, Inc.),
 the Gaussian 92(TM) system (copyright 1992, Gaussian, Inc.),
 the Gaussian 90(TM) system (copyright 1990, Gaussian, Inc.),
 the Gaussian 88(TM) system (copyright 1988, Gaussian, Inc.),
 the Gaussian 86(TM) system (copyright 1986, Carnegie Mellon
 University), and the Gaussian 82(TM) system (copyright 1983,
 Carnegie Mellon University). Gaussian is a federally registered
 trademark of Gaussian, Inc.
  
 This software contains proprietary and confidential information,
 including trade secrets, belonging to Gaussian, Inc.
  
 This software is provided under written license and may be
 used, copied, transmitted, or stored only in accord with that
 written license.
  
 The following legend is applicable only to US Government
 contracts under FAR:
  
                    RESTRICTED RIGHTS LEGEND
  
 Use, reproduction and disclosure by the US Government is
 subject to restrictions as set forth in subparagraphs (a)
 and (c) of the Commercial Computer Software - Restricted
 Rights clause in FAR 52.227-19.
  
 Gaussian, Inc.
 340 Quinnipiac St., Bldg. 40, Wallingford CT 06492
  
  
 ---------------------------------------------------------------
 Warning -- This program may not be used in any manner that
 competes with the business of Gaussian, Inc. or will provide
 assistance to any competitor of Gaussian, Inc.  The licensee
 of this program is prohibited from giving any competitor of
 Gaussian, Inc. access to this program.  By using this program,
 the user acknowledges that Gaussian, Inc. is engaged in the
 business of creating and licensing software in the field of
 computational chemistry and represents and warrants to the
 licensee that it is not a competitor of Gaussian, Inc. and that
 it will not use this program in any manner prohibited above.
 ---------------------------------------------------------------
  

 Cite this work as:
 Gaussian 09, Revision D.01,
 M. J. Frisch, G. W. Trucks, H. B. Schlegel, G. E. Scuseria, 
 M. A. Robb, J. R. Cheeseman, G. Scalmani, V. Barone, B. Mennucci, 
 G. A. Petersson, H. Nakatsuji, M. Caricato, X. Li, H. P. Hratchian, 
 A. F. Izmaylov, J. Bloino, G. Zheng, J. L. Sonnenberg, M. Hada, 
 M. Ehara, K. Toyota, R. Fukuda, J. Hasegawa, M. Ishida, T. Nakajima, 
 Y. Honda, O. Kitao, H. Nakai, T. Vreven, J. A. Montgomery, Jr., 
 J. E. Peralta, F. Ogliaro, M. Bearpark, J. J. Heyd, E. Brothers, 
 K. N. Kudin, V. N. Staroverov, T. Keith, R. Kobayashi, J. Normand, 
 K. Raghavachari, A. Rendell, J. C. Burant, S. S. Iyengar, J. Tomasi, 
 M. Cossi, N. Rega, J. M. Millam, M. Klene, J. E. Knox, J. B. Cross, 
 V. Bakken, C. Adamo, J. Jaramillo, R. Gomperts, R. E. Stratmann, 
 O. Yazyev, A. J. Austin, R. Cammi, C. Pomelli, J. W. Ochterski, 
 R. L. Martin, K. Morokuma, V. G. Zakrzewski, G. A. Voth, 
 P. Salvador, J. J. Dannenberg, S. Dapprich, A. D. Daniels, 
 O. Farkas, J. B. Foresman, J. V. Ortiz, J. Cioslowski, 
 and D. J. Fox, Gaussian, Inc., Wallingford CT, 2013.
 
 ******************************************
 Gaussian 09:  ES64L-G09RevD.01 24-Apr-2013
                27-Aug-2020 
 ******************************************
 %nprocshared=4
 Will use up to    4 processors via shared memory.
 %chk=b3lyp_diene_pm6_cpcmtoluene_water.chk
 ----------------------------------------------------------------------
 # opt freq b3lyp/6-31+g(d,p) scrf=(cpcm,solvent=water) geom=connectivi
 ty empiricaldispersion=gd3
 ----------------------------------------------------------------------
 1/14=-1,18=20,19=15,26=3,38=1,57=2/1,3;
 2/9=110,12=2,17=6,18=5,40=1/2;
 3/5=1,6=6,7=111,11=2,16=1,25=1,30=1,70=2101,71=1,72=1,74=-5,124=31/1,2,3;
 4//1;
 5/5=2,38=5,53=1/2;
 6/7=2,8=2,9=2,10=2,28=1/1;
 7//1,2,3,16;
 1/14=-1,18=20,19=15,26=3/3(2);
 2/9=110/2;
 99//99;
 2/9=110/2;
 3/5=1,6=6,7=111,11=2,16=1,25=1,30=1,70=2105,71=1,72=1,74=-5,124=31/1,2,3;
 4/5=5,16=3,69=1/1;
 5/5=2,38=5,53=1/2;
 7//1,2,3,16;
 1/14=-1,18=20,19=15,26=3/3(-5);
 2/9=110/2;
 6/7=2,8=2,9=2,10=2,19=2,28=1/1;
 99/9=1/99;
 -------------------
 Title Card Required
 -------------------
 Symbolic Z-matrix:
 Charge =  0 Multiplicity = 1
 C                     2.55892  -0.59435  -0.3305 
 H                     2.84627  -1.45295  -0.94318 
 C                     1.11455  -0.37387  -0.23877 
 H                     0.50812  -1.28837  -0.21303 
 C                     3.47704   0.15928   0.29073 
 H                     3.19364   1.00753   0.91818 
 C                     4.94268  -0.08744   0.20052 
 H                     5.37097  -0.29748   1.1922 
 H                     5.20223  -0.93583  -0.44703 
 H                     5.46936   0.7933   -0.1962 
 C                     0.53462   0.83221  -0.20262 
 H                     1.11011   1.75967  -0.24124 
 C                    -0.94111   1.05523  -0.1182 
 H                    -1.33409   1.53716  -1.03367 
 H                    -1.21538   1.6421    0.77892 
 C                    -2.92793  -0.40278   0.08946 
 C                    -3.78848   0.80822   0.06925 
 H                    -3.68734   1.38379  -0.86421 
 H                    -4.85551   0.53619   0.1534 
 H                    -3.57541   1.49326   0.90467 
 O                    -1.55755  -0.26628  -0.00029 
 O                    -3.29928  -1.55338   0.17928 
 

 GradGradGradGradGradGradGradGradGradGradGradGradGradGradGradGradGradGrad
 Berny optimization.
 Initialization pass.
                           ----------------------------
                           !    Initial Parameters    !
                           ! (Angstroms and Degrees)  !
 --------------------------                            --------------------------
 ! Name  Definition              Value          Derivative Info.                !
 --------------------------------------------------------------------------------
 ! R1    R(1,2)                  1.0932         estimate D2E/DX2                !
 ! R2    R(1,3)                  1.464          estimate D2E/DX2                !
 ! R3    R(1,5)                  1.3404         estimate D2E/DX2                !
 ! R4    R(3,4)                  1.0976         estimate D2E/DX2                !
 ! R5    R(3,11)                 1.3388         estimate D2E/DX2                !
 ! R6    R(5,6)                  1.0925         estimate D2E/DX2                !
 ! R7    R(5,7)                  1.489          estimate D2E/DX2                !
 ! R8    R(7,8)                  1.1004         estimate D2E/DX2                !
 ! R9    R(7,9)                  1.0984         estimate D2E/DX2                !
 ! R10   R(7,10)                 1.1002         estimate D2E/DX2                !
 ! R11   R(11,12)                1.0922         estimate D2E/DX2                !
 ! R12   R(11,13)                1.4949         estimate D2E/DX2                !
 ! R13   R(13,14)                1.1067         estimate D2E/DX2                !
 ! R14   R(13,15)                1.1066         estimate D2E/DX2                !
 ! R15   R(13,21)                1.463          estimate D2E/DX2                !
 ! R16   R(16,17)                1.4858         estimate D2E/DX2                !
 ! R17   R(16,21)                1.3801         estimate D2E/DX2                !
 ! R18   R(16,22)                1.2124         estimate D2E/DX2                !
 ! R19   R(17,18)                1.1013         estimate D2E/DX2                !
 ! R20   R(17,19)                1.1044         estimate D2E/DX2                !
 ! R21   R(17,20)                1.1012         estimate D2E/DX2                !
 ! A1    A(2,1,3)              114.3759         estimate D2E/DX2                !
 ! A2    A(2,1,5)              121.4166         estimate D2E/DX2                !
 ! A3    A(3,1,5)              124.1974         estimate D2E/DX2                !
 ! A4    A(1,3,4)              114.9044         estimate D2E/DX2                !
 ! A5    A(1,3,11)             124.3854         estimate D2E/DX2                !
 ! A6    A(4,3,11)             120.7057         estimate D2E/DX2                !
 ! A7    A(1,5,6)              121.6698         estimate D2E/DX2                !
 ! A8    A(1,5,7)              123.5697         estimate D2E/DX2                !
 ! A9    A(6,5,7)              114.7579         estimate D2E/DX2                !
 ! A10   A(5,7,8)              111.108          estimate D2E/DX2                !
 ! A11   A(5,7,9)              113.3467         estimate D2E/DX2                !
 ! A12   A(5,7,10)             111.1248         estimate D2E/DX2                !
 ! A13   A(8,7,9)              106.9711         estimate D2E/DX2                !
 ! A14   A(8,7,10)             106.9429         estimate D2E/DX2                !
 ! A15   A(9,7,10)             107.0144         estimate D2E/DX2                !
 ! A16   A(3,11,12)            122.399          estimate D2E/DX2                !
 ! A17   A(3,11,13)            124.3034         estimate D2E/DX2                !
 ! A18   A(12,11,13)           113.2958         estimate D2E/DX2                !
 ! A19   A(11,13,14)           111.6417         estimate D2E/DX2                !
 ! A20   A(11,13,15)           111.6902         estimate D2E/DX2                !
 ! A21   A(11,13,21)           106.6035         estimate D2E/DX2                !
 ! A22   A(14,13,15)           110.5901         estimate D2E/DX2                !
 ! A23   A(14,13,21)           108.0843         estimate D2E/DX2                !
 ! A24   A(15,13,21)           108.0168         estimate D2E/DX2                !
 ! A25   A(17,16,21)           119.5793         estimate D2E/DX2                !
 ! A26   A(17,16,22)           126.6652         estimate D2E/DX2                !
 ! A27   A(21,16,22)           113.7555         estimate D2E/DX2                !
 ! A28   A(16,17,18)           112.6011         estimate D2E/DX2                !
 ! A29   A(16,17,19)           110.9658         estimate D2E/DX2                !
 ! A30   A(16,17,20)           112.6231         estimate D2E/DX2                !
 ! A31   A(18,17,19)           106.3826         estimate D2E/DX2                !
 ! A32   A(18,17,20)           107.4664         estimate D2E/DX2                !
 ! A33   A(19,17,20)           106.4019         estimate D2E/DX2                !
 ! A34   A(13,21,16)           120.8624         estimate D2E/DX2                !
 ! D1    D(2,1,3,4)             35.832          estimate D2E/DX2                !
 ! D2    D(2,1,3,11)          -143.3984         estimate D2E/DX2                !
 ! D3    D(5,1,3,4)           -143.0227         estimate D2E/DX2                !
 ! D4    D(5,1,3,11)            37.7469         estimate D2E/DX2                !
 ! D5    D(2,1,5,6)           -178.9044         estimate D2E/DX2                !
 ! D6    D(2,1,5,7)              0.4741         estimate D2E/DX2                !
 ! D7    D(3,1,5,6)             -0.1268         estimate D2E/DX2                !
 ! D8    D(3,1,5,7)            179.2517         estimate D2E/DX2                !
 ! D9    D(1,3,11,12)            0.0899         estimate D2E/DX2                !
 ! D10   D(1,3,11,13)          179.5687         estimate D2E/DX2                !
 ! D11   D(4,3,11,12)         -179.0982         estimate D2E/DX2                !
 ! D12   D(4,3,11,13)            0.3806         estimate D2E/DX2                !
 ! D13   D(1,5,7,8)           -119.0783         estimate D2E/DX2                !
 ! D14   D(1,5,7,9)              1.413          estimate D2E/DX2                !
 ! D15   D(1,5,7,10)           121.9728         estimate D2E/DX2                !
 ! D16   D(6,5,7,8)             60.3393         estimate D2E/DX2                !
 ! D17   D(6,5,7,9)           -179.1694         estimate D2E/DX2                !
 ! D18   D(6,5,7,10)           -58.6097         estimate D2E/DX2                !
 ! D19   D(3,11,13,14)        -114.2983         estimate D2E/DX2                !
 ! D20   D(3,11,13,15)         121.2998         estimate D2E/DX2                !
 ! D21   D(3,11,13,21)           3.5282         estimate D2E/DX2                !
 ! D22   D(12,11,13,14)         65.2226         estimate D2E/DX2                !
 ! D23   D(12,11,13,15)        -59.1794         estimate D2E/DX2                !
 ! D24   D(12,11,13,21)       -176.9509         estimate D2E/DX2                !
 ! D25   D(11,13,21,16)       -179.58           estimate D2E/DX2                !
 ! D26   D(14,13,21,16)        -59.4333         estimate D2E/DX2                !
 ! D27   D(15,13,21,16)         60.2521         estimate D2E/DX2                !
 ! D28   D(21,16,17,18)         61.1254         estimate D2E/DX2                !
 ! D29   D(21,16,17,19)       -179.7517         estimate D2E/DX2                !
 ! D30   D(21,16,17,20)        -60.5895         estimate D2E/DX2                !
 ! D31   D(22,16,17,18)       -118.8598         estimate D2E/DX2                !
 ! D32   D(22,16,17,19)          0.2631         estimate D2E/DX2                !
 ! D33   D(22,16,17,20)        119.4253         estimate D2E/DX2                !
 ! D34   D(17,16,21,13)         -0.1428         estimate D2E/DX2                !
 ! D35   D(22,16,21,13)        179.8443         estimate D2E/DX2                !
 --------------------------------------------------------------------------------
 Trust Radius=3.00D-01 FncErr=1.00D-07 GrdErr=1.00D-06
 Number of steps in this run=    100 maximum allowed number of steps=    132.
 GradGradGradGradGradGradGradGradGradGradGradGradGradGradGradGradGradGrad

                          Input orientation:                          
 ---------------------------------------------------------------------
 Center     Atomic      Atomic             Coordinates (Angstroms)
 Number     Number       Type             X           Y           Z
 ---------------------------------------------------------------------
      1          6           0        2.558923   -0.594345   -0.330502
      2          1           0        2.846274   -1.452949   -0.943183
      3          6           0        1.114552   -0.373872   -0.238765
      4          1           0        0.508115   -1.288366   -0.213032
      5          6           0        3.477035    0.159280    0.290725
      6          1           0        3.193636    1.007526    0.918175
      7          6           0        4.942676   -0.087443    0.200520
      8          1           0        5.370969   -0.297480    1.192203
      9          1           0        5.202225   -0.935827   -0.447031
     10          1           0        5.469363    0.793301   -0.196199
     11          6           0        0.534615    0.832205   -0.202615
     12          1           0        1.110106    1.759665   -0.241237
     13          6           0       -0.941113    1.055226   -0.118200
     14          1           0       -1.334093    1.537162   -1.033671
     15          1           0       -1.215378    1.642096    0.778922
     16          6           0       -2.927929   -0.402781    0.089459
     17          6           0       -3.788479    0.808220    0.069252
     18          1           0       -3.687338    1.383788   -0.864214
     19          1           0       -4.855514    0.536191    0.153403
     20          1           0       -3.575412    1.493264    0.904674
     21          8           0       -1.557545   -0.266283   -0.000287
     22          8           0       -3.299284   -1.553381    0.179280
 ---------------------------------------------------------------------
                    Distance matrix (angstroms):
                    1          2          3          4          5
     1  C    0.000000
     2  H    1.093229   0.000000
     3  C    1.463978   2.158581   0.000000
     4  H    2.168243   2.455035   1.097601   0.000000
     5  C    1.340449   2.125952   2.479100   3.341248   0.000000
     6  H    2.127920   3.104714   2.751247   3.709821   1.092488
     7  C    2.494236   2.750921   3.863877   4.612870   1.488997
     8  H    3.211598   3.502723   4.491168   5.157896   2.146690
     9  H    2.667815   2.462537   4.131372   4.713142   2.172516
    10  H    3.227113   3.533302   4.508712   5.380298   2.146730
    11  C    2.479763   3.333787   1.338751   2.120762   3.058439
    12  H    2.765574   3.718588   2.133543   3.107037   2.906298
    13  C    3.875101   4.616908   2.506515   2.757114   4.526585
    14  H    4.493700   5.140469   3.206211   3.471424   5.176827
    15  H    4.525245   5.389060   3.244748   3.541470   4.945283
    16  C    5.506234   5.959079   4.055887   3.561202   6.432728
    17  C    6.512795   7.082221   5.052913   4.789162   7.297799
    18  H    6.573708   7.123300   5.151573   5.016600   7.359453
    19  H    7.515727   8.029740   6.051752   5.677306   8.342199
    20  H    6.596502   7.302931   5.175849   5.065760   7.203711
    21  O    4.142701   4.657344   2.684874   2.314490   5.060908
    22  O    5.958038   6.248031   4.587805   3.836721   6.990288
                    6          7          8          9         10
     6  H    0.000000
     7  C    2.184749   0.000000
     8  H    2.553216   1.100448   0.000000
     9  H    3.110440   1.098382   1.767215   0.000000
    10  H    2.542962   1.100225   1.768373   1.767530   0.000000
    11  C    2.890900   4.520981   5.158684   4.997225   4.934906
    12  H    2.500209   4.277330   4.943840   4.904433   4.465312
    13  C    4.262921   6.002187   6.587059   6.466299   6.416299
    14  H    4.958886   6.600030   7.299197   7.013079   6.895049
    15  H    4.456621   6.422420   6.878424   7.023836   6.808603
    16  C    6.336347   7.877702   8.372505   8.165253   8.486856
    17  C    7.036357   8.777956   9.294035   9.172841   9.261659
    18  H    7.118025   8.819032   9.439727   9.196683   9.200005
    19  H    8.099126   9.818129  10.312859  10.182606  10.333993
    20  H    6.786467   8.692082   9.128372   9.207307   9.138371
    21  O    5.003987   6.505781   7.030456   6.807522   7.109046
    22  O    7.018705   8.371340   8.819104   8.546888   9.084992
                   11         12         13         14         15
    11  C    0.000000
    12  H    1.092183   0.000000
    13  C    1.494870   2.172296   0.000000
    14  H    2.163259   2.579063   1.106699   0.000000
    15  H    2.163750   2.542130   1.106556   1.819505   0.000000
    16  C    3.687778   4.592522   2.473124   2.750475   2.754943
    17  C    4.331700   4.999779   2.864200   2.787796   2.796396
    18  H    4.308926   4.852304   2.864654   2.364318   2.979464
    19  H    5.409978   6.102561   3.957992   3.848570   3.855501
    20  H    4.307599   4.830959   2.859664   2.963548   2.368064
    21  O    2.371655   3.358405   1.462969   2.090509   2.089535
    22  O    4.531627   5.531350   3.529064   3.858067   3.861775
                   16         17         18         19         20
    16  C    0.000000
    17  C    1.485758   0.000000
    18  H    2.162874   1.101302   0.000000
    19  H    2.145074   1.104375   1.765956   0.000000
    20  H    2.163053   1.101187   1.775803   1.766085   0.000000
    21  O    1.380086   2.477188   2.829332   3.397673   2.826083
    22  O    1.212375   2.414245   3.141087   2.605539   3.143961
                   21         22
    21  O    0.000000
    22  O    2.173136   0.000000
 Stoichiometry    C8H12O2
 Framework group  C1[X(C8H12O2)]
 Deg. of freedom    60
 Full point group                 C1      NOp   1
 Largest Abelian subgroup         C1      NOp   1
 Largest concise Abelian subgroup C1      NOp   1
                         Standard orientation:                         
 ---------------------------------------------------------------------
 Center     Atomic      Atomic             Coordinates (Angstroms)
 Number     Number       Type             X           Y           Z
 ---------------------------------------------------------------------
      1          6           0       -2.558923    0.594345   -0.330502
      2          1           0       -2.846274    1.452949   -0.943183
      3          6           0       -1.114552    0.373872   -0.238765
      4          1           0       -0.508115    1.288366   -0.213032
      5          6           0       -3.477035   -0.159280    0.290725
      6          1           0       -3.193636   -1.007526    0.918175
      7          6           0       -4.942676    0.087443    0.200520
      8          1           0       -5.370969    0.297480    1.192203
      9          1           0       -5.202225    0.935827   -0.447031
     10          1           0       -5.469363   -0.793301   -0.196199
     11          6           0       -0.534615   -0.832205   -0.202615
     12          1           0       -1.110106   -1.759665   -0.241237
     13          6           0        0.941113   -1.055226   -0.118200
     14          1           0        1.334093   -1.537162   -1.033671
     15          1           0        1.215378   -1.642096    0.778922
     16          6           0        2.927929    0.402781    0.089459
     17          6           0        3.788479   -0.808220    0.069252
     18          1           0        3.687338   -1.383788   -0.864214
     19          1           0        4.855514   -0.536191    0.153403
     20          1           0        3.575412   -1.493264    0.904674
     21          8           0        1.557545    0.266283   -0.000287
     22          8           0        3.299284    1.553381    0.179280
 ---------------------------------------------------------------------
 Rotational constants (GHZ):      4.6936959      0.4193357      0.3918593
 Standard basis: 6-31+G(d,p) (6D, 7F)
 There are   250 symmetry adapted cartesian basis functions of A   symmetry.
 There are   250 symmetry adapted basis functions of A   symmetry.
   250 basis functions,   404 primitive gaussians,   250 cartesian basis functions
    38 alpha electrons       38 beta electrons
       nuclear repulsion energy       485.9655774709 Hartrees.
 NAtoms=   22 NActive=   22 NUniq=   22 SFac= 1.00D+00 NAtFMM=   60 NAOKFM=F Big=F
 Integral buffers will be    131072 words long.
 Raffenetti 2 integral format.
 Two-electron integral symmetry is turned on.
 Nuclear repulsion after empirical dispersion term =      485.9508125827 Hartrees.
 ------------------------------------------------------------------------------
 Polarizable Continuum Model (PCM)
 =================================
 Model                : C-PCM.
 Atomic radii         : UFF (Universal Force Field).
 Polarization charges : Total charges.
 Charge compensation  : None.
 Solution method      : On-the-fly selection.
 Cavity type          : Scaled VdW (van der Waals Surface) (Alpha=1.100).
 Cavity algorithm     : GePol (No added spheres)
                        Default sphere list used, NSphG=   22.
                        Lebedev-Laikov grids with approx.  5.0 points / Ang**2.
                        Smoothing algorithm: Karplus/York (Gamma=1.0000).
                        Polarization charges: spherical gaussians, with
                                              point-specific exponents (IZeta= 3).
                        Self-potential: point-specific (ISelfS= 7).
                        Self-field    : sphere-specific E.n sum rule (ISelfD= 2).
 1st derivatives      : Analytical E(r).r(x)/FMM algorithm (CHGder, D1EAlg=3).
                        Cavity 1st derivative terms included.
 Solvent              : Water, Eps=  78.355300 Eps(inf)=   1.777849
 ------------------------------------------------------------------------------
 One-electron integrals computed using PRISM.
 NBasis=   250 RedAO= T EigKep=  5.10D-06  NBF=   250
 NBsUse=   250 1.00D-06 EigRej= -1.00D+00 NBFU=   250
 ExpMin= 4.38D-02 ExpMax= 5.48D+03 ExpMxC= 8.25D+02 IAcc=2 IRadAn=         4 AccDes= 0.00D+00
 Harris functional with IExCor=  402 and IRadAn=       4 diagonalized for initial guess.
 HarFok:  IExCor=  402 AccDes= 0.00D+00 IRadAn=         4 IDoV= 1 UseB2=F ITyADJ=14
 ICtDFT=  3500011 ScaDFX=  1.000000  1.000000  1.000000  1.000000
 FoFCou: FMM=F IPFlag=           0 FMFlag=      100000 FMFlg1=           0
         NFxFlg=           0 DoJE=T BraDBF=F KetDBF=T FulRan=T
         wScrn=  0.000000 ICntrl=     500 IOpCl=  0 I1Cent=   200000004 NGrid=           0
         NMat0=    1 NMatS0=      1 NMatT0=    0 NMatD0=    1 NMtDS0=    0 NMtDT0=    0
 Petite list used in FoFCou.
 Requested convergence on RMS density matrix=1.00D-08 within 128 cycles.
 Requested convergence on MAX density matrix=1.00D-06.
 Requested convergence on             energy=1.00D-06.
 No special actions if energy rises.
 Inv3:  Mode=1 IEnd=     9623043.
 Iteration    1 A*A^-1 deviation from unit magnitude is 6.00D-15 for   1787.
 Iteration    1 A*A^-1 deviation from orthogonality  is 4.58D-15 for   1787   1340.
 Iteration    1 A^-1*A deviation from unit magnitude is 6.00D-15 for   1787.
 Iteration    1 A^-1*A deviation from orthogonality  is 1.91D-15 for   1786   1322.
 Error on total polarization charges =  0.01711
 SCF Done:  E(RB3LYP) =  -462.548120377     A.U. after   14 cycles
            NFock= 14  Conv=0.22D-08     -V/T= 2.0098

 **********************************************************************

            Population analysis using the SCF density.

 **********************************************************************

 Orbital symmetries:
       Occupied  (A) (A) (A) (A) (A) (A) (A) (A) (A) (A) (A) (A)
                 (A) (A) (A) (A) (A) (A) (A) (A) (A) (A) (A) (A)
                 (A) (A) (A) (A) (A) (A) (A) (A) (A) (A) (A) (A)
                 (A) (A)
       Virtual   (A) (A) (A) (A) (A) (A) (A) (A) (A) (A) (A) (A)
                 (A) (A) (A) (A) (A) (A) (A) (A) (A) (A) (A) (A)
                 (A) (A) (A) (A) (A) (A) (A) (A) (A) (A) (A) (A)
                 (A) (A) (A) (A) (A) (A) (A) (A) (A) (A) (A) (A)
                 (A) (A) (A) (A) (A) (A) (A) (A) (A) (A) (A) (A)
                 (A) (A) (A) (A) (A) (A) (A) (A) (A) (A) (A) (A)
                 (A) (A) (A) (A) (A) (A) (A) (A) (A) (A) (A) (A)
                 (A) (A) (A) (A) (A) (A) (A) (A) (A) (A) (A) (A)
                 (A) (A) (A) (A) (A) (A) (A) (A) (A) (A) (A) (A)
                 (A) (A) (A) (A) (A) (A) (A) (A) (A) (A) (A) (A)
                 (A) (A) (A) (A) (A) (A) (A) (A) (A) (A) (A) (A)
                 (A) (A) (A) (A) (A) (A) (A) (A) (A) (A) (A) (A)
                 (A) (A) (A) (A) (A) (A) (A) (A) (A) (A) (A) (A)
                 (A) (A) (A) (A) (A) (A) (A) (A) (A) (A) (A) (A)
                 (A) (A) (A) (A) (A) (A) (A) (A) (A) (A) (A) (A)
                 (A) (A) (A) (A) (A) (A) (A) (A) (A) (A) (A) (A)
                 (A) (A) (A) (A) (A) (A) (A) (A) (A) (A) (A) (A)
                 (A) (A) (A) (A) (A) (A) (A) (A)
 The electronic state is 1-A.
 Alpha  occ. eigenvalues --  -19.20221 -19.15710 -10.33800 -10.26046 -10.21008
 Alpha  occ. eigenvalues --  -10.20021 -10.19640 -10.19626 -10.19189 -10.18365
 Alpha  occ. eigenvalues --   -1.10799  -1.02755  -0.82327  -0.78460  -0.76232
 Alpha  occ. eigenvalues --   -0.72620  -0.66253  -0.60467  -0.57539  -0.52970
 Alpha  occ. eigenvalues --   -0.51374  -0.49997  -0.48940  -0.46387  -0.44892
 Alpha  occ. eigenvalues --   -0.44421  -0.41913  -0.41262  -0.40806  -0.39420
 Alpha  occ. eigenvalues --   -0.39278  -0.36229  -0.35592  -0.34728  -0.31318
 Alpha  occ. eigenvalues --   -0.29966  -0.29458  -0.23057
 Alpha virt. eigenvalues --   -0.02972  -0.01472   0.00422   0.01635   0.01765
 Alpha virt. eigenvalues --    0.03177   0.03477   0.03888   0.04472   0.05299
 Alpha virt. eigenvalues --    0.05545   0.06207   0.06619   0.07364   0.07783
 Alpha virt. eigenvalues --    0.08081   0.08983   0.09361   0.09721   0.10145
 Alpha virt. eigenvalues --    0.11443   0.11553   0.12098   0.13582   0.14154
 Alpha virt. eigenvalues --    0.14759   0.15972   0.16324   0.17378   0.17595
 Alpha virt. eigenvalues --    0.18253   0.19627   0.20176   0.20736   0.21391
 Alpha virt. eigenvalues --    0.22286   0.22902   0.23866   0.24050   0.24358
 Alpha virt. eigenvalues --    0.24934   0.25386   0.25736   0.26370   0.26968
 Alpha virt. eigenvalues --    0.27498   0.28416   0.28459   0.29425   0.29713
 Alpha virt. eigenvalues --    0.30733   0.31376   0.32512   0.33940   0.34741
 Alpha virt. eigenvalues --    0.35623   0.37137   0.39058   0.41596   0.42809
 Alpha virt. eigenvalues --    0.43704   0.46962   0.49000   0.51474   0.61306
 Alpha virt. eigenvalues --    0.61571   0.64289   0.64640   0.66417   0.66738
 Alpha virt. eigenvalues --    0.68078   0.69052   0.70956   0.73065   0.73714
 Alpha virt. eigenvalues --    0.75243   0.75603   0.76585   0.76926   0.79943
 Alpha virt. eigenvalues --    0.80232   0.82506   0.83573   0.87298   0.89978
 Alpha virt. eigenvalues --    0.90665   0.92185   0.94496   0.95046   0.95590
 Alpha virt. eigenvalues --    0.96979   0.97913   0.98107   1.02081   1.04118
 Alpha virt. eigenvalues --    1.05636   1.07173   1.10622   1.11498   1.12511
 Alpha virt. eigenvalues --    1.16103   1.18195   1.19504   1.21500   1.23141
 Alpha virt. eigenvalues --    1.24036   1.25705   1.28030   1.29020   1.31669
 Alpha virt. eigenvalues --    1.33584   1.34304   1.38108   1.38768   1.40460
 Alpha virt. eigenvalues --    1.43651   1.44575   1.45893   1.48925   1.53301
 Alpha virt. eigenvalues --    1.56914   1.57815   1.64868   1.68645   1.70312
 Alpha virt. eigenvalues --    1.72852   1.77265   1.79150   1.80365   1.82234
 Alpha virt. eigenvalues --    1.83476   1.83903   1.87138   1.90086   1.93650
 Alpha virt. eigenvalues --    1.94046   1.95577   1.97275   1.98320   2.01952
 Alpha virt. eigenvalues --    2.02290   2.04709   2.05938   2.06917   2.07674
 Alpha virt. eigenvalues --    2.09027   2.10769   2.11964   2.13199   2.15071
 Alpha virt. eigenvalues --    2.16641   2.18025   2.21670   2.22354   2.25938
 Alpha virt. eigenvalues --    2.26850   2.32950   2.38657   2.39685   2.40593
 Alpha virt. eigenvalues --    2.42768   2.47189   2.51096   2.52721   2.53635
 Alpha virt. eigenvalues --    2.54861   2.55450   2.57853   2.59297   2.60672
 Alpha virt. eigenvalues --    2.63179   2.64666   2.66675   2.70577   2.71419
 Alpha virt. eigenvalues --    2.76398   2.76998   2.77707   2.79177   2.82722
 Alpha virt. eigenvalues --    2.85806   2.86289   2.87258   2.87762   2.93916
 Alpha virt. eigenvalues --    2.97603   3.03718   3.09772   3.14747   3.21025
 Alpha virt. eigenvalues --    3.22827   3.25085   3.31293   3.38662   3.39746
 Alpha virt. eigenvalues --    3.43071   3.43591   3.44907   3.47117   3.47206
 Alpha virt. eigenvalues --    3.49262   3.66898   4.25219   4.31678   4.34955
 Alpha virt. eigenvalues --    4.36697   4.40678   4.49119   4.50767   4.60357
 Alpha virt. eigenvalues --    4.64714   4.72834
          Condensed to atoms (all electrons):
               1          2          3          4          5          6
     1  C    9.152357   0.236999  -3.194086   0.131679  -0.284102  -0.018115
     2  H    0.236999   0.563634   0.056251  -0.004557   0.019062   0.004481
     3  C   -3.194086   0.056251   8.160032   0.204766   0.646662  -0.032643
     4  H    0.131679  -0.004557   0.204766   0.550559  -0.001413   0.000075
     5  C   -0.284102   0.019062   0.646662  -0.001413   6.358188   0.333683
     6  H   -0.018115   0.004481  -0.032643   0.000075   0.333683   0.556180
     7  C    0.737704  -0.046577  -0.609401   0.011834  -0.870423   0.007488
     8  H    0.021896   0.000120  -0.020269   0.000008  -0.098724  -0.001820
     9  H    0.023509   0.002913  -0.017039  -0.000003  -0.151691   0.003644
    10  H    0.010950   0.000105  -0.003578   0.000000  -0.130843  -0.002386
    11  C   -0.409283   0.024828   0.626560  -0.009314   0.069734  -0.007290
    12  H    0.050247   0.000067  -0.051204   0.004487  -0.003820   0.000807
    13  C    0.003958   0.006435  -0.027611  -0.029391  -0.066330   0.017096
    14  H    0.001052   0.000008  -0.009771   0.000074   0.004216   0.000001
    15  H    0.006514   0.000000   0.010209  -0.000018  -0.004659   0.000003
    16  C   -0.035128   0.000317  -0.056339  -0.006703   0.001804  -0.000082
    17  C   -0.005851  -0.000086   0.017170  -0.000050  -0.000897   0.000024
    18  H   -0.000224   0.000000   0.000822  -0.000001  -0.000087   0.000000
    19  H   -0.000090   0.000000  -0.000555   0.000000  -0.000002   0.000000
    20  H    0.000046   0.000000   0.001243  -0.000001   0.000129   0.000000
    21  O    0.165567   0.000558   0.041541  -0.004905  -0.001791   0.000009
    22  O   -0.012283   0.000002  -0.015743   0.001177   0.000151   0.000000
               7          8          9         10         11         12
     1  C    0.737704   0.021896   0.023509   0.010950  -0.409283   0.050247
     2  H   -0.046577   0.000120   0.002913   0.000105   0.024828   0.000067
     3  C   -0.609401  -0.020269  -0.017039  -0.003578   0.626560  -0.051204
     4  H    0.011834   0.000008  -0.000003   0.000000  -0.009314   0.004487
     5  C   -0.870423  -0.098724  -0.151691  -0.130843   0.069734  -0.003820
     6  H    0.007488  -0.001820   0.003644  -0.002386  -0.007290   0.000807
     7  C    6.159449   0.441767   0.499067   0.480496  -0.036657   0.008746
     8  H    0.441767   0.549511  -0.027764  -0.031308   0.004951   0.000003
     9  H    0.499067  -0.027764   0.537518  -0.027647   0.000786   0.000000
    10  H    0.480496  -0.031308  -0.027647   0.549669  -0.005789   0.000003
    11  C   -0.036657   0.004951   0.000786  -0.005789   6.155967   0.240124
    12  H    0.008746   0.000003   0.000000   0.000003   0.240124   0.544007
    13  C    0.005960   0.000679   0.000621  -0.000340  -0.601446   0.061690
    14  H    0.000168   0.000000   0.000000   0.000000   0.062501  -0.000290
    15  H   -0.000248   0.000000   0.000000   0.000000  -0.103164  -0.001337
    16  C   -0.000710  -0.000004   0.000000  -0.000001   0.185185  -0.005464
    17  C   -0.000224   0.000000   0.000000   0.000000  -0.030738   0.003085
    18  H   -0.000005   0.000000   0.000000   0.000000  -0.004613  -0.000002
    19  H    0.000000   0.000000   0.000000   0.000000  -0.005674   0.000000
    20  H    0.000007   0.000000   0.000000   0.000000   0.017154  -0.000002
    21  O    0.001185   0.000000   0.000001   0.000000  -0.159391   0.001921
    22  O   -0.000003   0.000000   0.000000   0.000000   0.024548   0.000054
              13         14         15         16         17         18
     1  C    0.003958   0.001052   0.006514  -0.035128  -0.005851  -0.000224
     2  H    0.006435   0.000008   0.000000   0.000317  -0.000086   0.000000
     3  C   -0.027611  -0.009771   0.010209  -0.056339   0.017170   0.000822
     4  H   -0.029391   0.000074  -0.000018  -0.006703  -0.000050  -0.000001
     5  C   -0.066330   0.004216  -0.004659   0.001804  -0.000897  -0.000087
     6  H    0.017096   0.000001   0.000003  -0.000082   0.000024   0.000000
     7  C    0.005960   0.000168  -0.000248  -0.000710  -0.000224  -0.000005
     8  H    0.000679   0.000000   0.000000  -0.000004   0.000000   0.000000
     9  H    0.000621   0.000000   0.000000   0.000000   0.000000   0.000000
    10  H   -0.000340   0.000000   0.000000  -0.000001   0.000000   0.000000
    11  C   -0.601446   0.062501  -0.103164   0.185185  -0.030738  -0.004613
    12  H    0.061690  -0.000290  -0.001337  -0.005464   0.003085  -0.000002
    13  C    6.209016   0.298726   0.448113  -0.146405   0.001745   0.014360
    14  H    0.298726   0.562215  -0.041284   0.004477  -0.008473   0.001135
    15  H    0.448113  -0.041284   0.563988  -0.009086   0.006490  -0.000827
    16  C   -0.146405   0.004477  -0.009086   5.079311   0.025934  -0.037029
    17  C    0.001745  -0.008473   0.006490   0.025934   5.534450   0.377940
    18  H    0.014360   0.001135  -0.000827  -0.037029   0.377940   0.492674
    19  H   -0.001375   0.000033   0.000027  -0.047206   0.414509  -0.022989
    20  H   -0.005803  -0.000849   0.001174  -0.031423   0.369201  -0.022088
    21  O    0.014237  -0.040129  -0.039992   0.099672  -0.197570  -0.000278
    22  O    0.003641  -0.000194  -0.000260   0.460095  -0.084089   0.002383
              19         20         21         22
     1  C   -0.000090   0.000046   0.165567  -0.012283
     2  H    0.000000   0.000000   0.000558   0.000002
     3  C   -0.000555   0.001243   0.041541  -0.015743
     4  H    0.000000  -0.000001  -0.004905   0.001177
     5  C   -0.000002   0.000129  -0.001791   0.000151
     6  H    0.000000   0.000000   0.000009   0.000000
     7  C    0.000000   0.000007   0.001185  -0.000003
     8  H    0.000000   0.000000   0.000000   0.000000
     9  H    0.000000   0.000000   0.000001   0.000000
    10  H    0.000000   0.000000   0.000000   0.000000
    11  C   -0.005674   0.017154  -0.159391   0.024548
    12  H    0.000000  -0.000002   0.001921   0.000054
    13  C   -0.001375  -0.005803   0.014237   0.003641
    14  H    0.000033  -0.000849  -0.040129  -0.000194
    15  H    0.000027   0.001174  -0.039992  -0.000260
    16  C   -0.047206  -0.031423   0.099672   0.460095
    17  C    0.414509   0.369201  -0.197570  -0.084089
    18  H   -0.022989  -0.022088  -0.000278   0.002383
    19  H    0.493036  -0.023011   0.007140  -0.006029
    20  H   -0.023011   0.492719   0.000339   0.002419
    21  O    0.007140   0.000339   8.639994  -0.141978
    22  O   -0.006029   0.002419  -0.141978   8.281891
 Mulliken charges:
               1
     1  C   -0.583319
     2  H    0.135441
     3  C    0.272983
     4  H    0.151697
     5  C    0.181152
     6  H    0.138843
     7  C   -0.789624
     8  H    0.160954
     9  H    0.156084
    10  H    0.160668
    11  C   -0.038978
    12  H    0.146879
    13  C   -0.207574
    14  H    0.166383
    15  H    0.164357
    16  C    0.518783
    17  C   -0.422571
    18  H    0.198827
    19  H    0.192185
    20  H    0.198746
    21  O   -0.386132
    22  O   -0.515782
 Sum of Mulliken charges =   0.00000
 Mulliken charges with hydrogens summed into heavy atoms:
               1
     1  C   -0.447878
     3  C    0.424679
     5  C    0.319994
     7  C   -0.311918
    11  C    0.107901
    13  C    0.123166
    16  C    0.518783
    17  C    0.167187
    21  O   -0.386132
    22  O   -0.515782
 Electronic spatial extent (au):  <R**2>=           2786.7184
 Charge=              0.0000 electrons
 Dipole moment (field-independent basis, Debye):
    X=             -1.0814    Y=             -6.1995    Z=             -0.2820  Tot=              6.2994
 Quadrupole moment (field-independent basis, Debye-Ang):
   XX=            -56.6543   YY=            -62.8205   ZZ=            -61.6371
   XY=            -16.1682   XZ=             -1.5364   YZ=             -2.1593
 Traceless Quadrupole moment (field-independent basis, Debye-Ang):
   XX=              3.7163   YY=             -2.4498   ZZ=             -1.2665
   XY=            -16.1682   XZ=             -1.5364   YZ=             -2.1593
 Octapole moment (field-independent basis, Debye-Ang**2):
  XXX=             -1.5860  YYY=            -13.6997  ZZZ=              2.1814  XYY=            -11.9846
  XXY=            -54.5165  XXZ=             -0.7017  XZZ=             12.5463  YZZ=             -1.3369
  YYZ=             -2.4872  XYZ=              1.9378
 Hexadecapole moment (field-independent basis, Debye-Ang**3):
 XXXX=          -3185.4998 YYYY=           -342.5702 ZZZZ=           -110.7132 XXXY=           -167.5334
 XXXZ=            -21.0223 YYYX=            -30.6710 YYYZ=             -5.3692 ZZZX=             -4.1422
 ZZZY=             -1.2432 XXYY=           -661.0229 XXZZ=           -568.3595 YYZZ=            -69.9450
 XXYZ=            -20.0975 YYXZ=              1.4591 ZZXY=             -4.8601
 N-N= 4.859508125827D+02 E-N=-2.047836680325D+03  KE= 4.580510423961D+02
 D1PCM: C-PCM CHGder 1st derivatives, ID1Alg=3 FixD1E=F DoIter=F DoCFld=F I1PDM=0.
 Calling FoFJK, ICntrl=      2127 FMM=F ISym2X=0 I1Cent= 0 IOpClX= 0 NMat=1 NMatS=1 NMatT=0.
 ***** Axes restored to original set *****
 -------------------------------------------------------------------
 Center     Atomic                   Forces (Hartrees/Bohr)
 Number     Number              X              Y              Z
 -------------------------------------------------------------------
      1        6          -0.005991738    0.001829974    0.001155079
      2        1           0.004361283    0.001313679    0.003696140
      3        6           0.001336387   -0.006249781   -0.001265937
      4        1           0.000754381    0.008179903   -0.002004021
      5        6           0.006310536   -0.002077578   -0.001977306
      6        1          -0.004364125   -0.003232714   -0.001014983
      7        6           0.012581924   -0.001512660   -0.001311236
      8        1          -0.000178454    0.002038408   -0.000856347
      9        1          -0.003247286    0.001037375    0.000525770
     10        1          -0.000134932   -0.000298138    0.001924542
     11        6          -0.005671514    0.007208295    0.000516390
     12        1           0.001869988   -0.004095793   -0.001598170
     13        6          -0.009059607   -0.011354084    0.002680192
     14        1           0.003682723    0.001134002    0.007143133
     15        1           0.002679908    0.000523766   -0.007433338
     16        6           0.032653123   -0.008243773   -0.001677729
     17        6          -0.021049329    0.014416604    0.000452009
     18        1           0.004065043   -0.003102693    0.003559847
     19        1           0.009595852   -0.003154563   -0.000417650
     20        1           0.003626898   -0.003506797   -0.003644719
     21        8          -0.018084145    0.015331702    0.000195812
     22        8          -0.015736917   -0.006185134    0.001352522
 -------------------------------------------------------------------
 Cartesian Forces:  Max     0.032653123 RMS     0.007509777

 GradGradGradGradGradGradGradGradGradGradGradGradGradGradGradGradGradGrad
 Berny optimization.
 FormGI is forming the generalized inverse of G from B-inverse, IUseBI=4.
 Internal  Forces:  Max     0.019579385 RMS     0.005151335
 Search for a local minimum.
 Step number   1 out of a maximum of  100
 All quantities printed in internal units (Hartrees-Bohrs-Radians)
 Mixed Optimization -- RFO/linear search
 Second derivative matrix not updated -- first step.
 ITU=  0
     Eigenvalues ---    0.00834   0.00859   0.00911   0.00954   0.01158
     Eigenvalues ---    0.01242   0.01745   0.01760   0.01955   0.02113
     Eigenvalues ---    0.02115   0.02877   0.02899   0.06797   0.07000
     Eigenvalues ---    0.07010   0.07219   0.07269   0.07289   0.11176
     Eigenvalues ---    0.13643   0.15998   0.15999   0.15999   0.16000
     Eigenvalues ---    0.16000   0.16000   0.16000   0.16000   0.16000
     Eigenvalues ---    0.16000   0.22000   0.22000   0.22000   0.22001
     Eigenvalues ---    0.22082   0.25000   0.25000   0.25000   0.32921
     Eigenvalues ---    0.32952   0.32967   0.33203   0.33539   0.33551
     Eigenvalues ---    0.33560   0.33633   0.33657   0.33862   0.33919
     Eigenvalues ---    0.33949   0.34442   0.34527   0.34562   0.36471
     Eigenvalues ---    0.36595   0.49086   0.57104   0.57486   0.98843
 RFO step:  Lambda=-1.00840813D-02 EMin= 8.33802762D-03
 Linear search not attempted -- first point.
 Iteration  1 RMS(Cart)=  0.11964213 RMS(Int)=  0.00366794
 Iteration  2 RMS(Cart)=  0.00629315 RMS(Int)=  0.00037180
 Iteration  3 RMS(Cart)=  0.00001755 RMS(Int)=  0.00037169
 Iteration  4 RMS(Cart)=  0.00000001 RMS(Int)=  0.00037169
 Variable       Old X    -DE/DX   Delta X   Delta X   Delta X     New X
                                 (Linear)    (Quad)   (Total)
    R1        2.06590  -0.00196   0.00000  -0.00552  -0.00552   2.06038
    R2        2.76652   0.00921   0.00000   0.02458   0.02458   2.79110
    R3        2.53308   0.00399   0.00000   0.00687   0.00687   2.53995
    R4        2.07416  -0.00728   0.00000  -0.02082  -0.02082   2.05334
    R5        2.52987   0.00404   0.00000   0.00691   0.00691   2.53679
    R6        2.06450  -0.00196   0.00000  -0.00551  -0.00551   2.05899
    R7        2.81380   0.00865   0.00000   0.02503   0.02503   2.83883
    R8        2.07955  -0.00123   0.00000  -0.00355  -0.00355   2.07599
    R9        2.07564  -0.00188   0.00000  -0.00539  -0.00539   2.07025
   R10        2.07912  -0.00099   0.00000  -0.00287  -0.00287   2.07625
   R11        2.06393  -0.00244   0.00000  -0.00685  -0.00685   2.05708
   R12        2.82490   0.00704   0.00000   0.02073   0.02073   2.84563
   R13        2.09136  -0.00672   0.00000  -0.01979  -0.01979   2.07157
   R14        2.09109  -0.00642   0.00000  -0.01888  -0.01888   2.07221
   R15        2.76461  -0.00295   0.00000  -0.00784  -0.00784   2.75677
   R16        2.80768   0.00597   0.00000   0.01708   0.01708   2.82476
   R17        2.60799  -0.01212   0.00000  -0.02419  -0.02419   2.58379
   R18        2.29106   0.01079   0.00000   0.01081   0.01081   2.30186
   R19        2.08116  -0.00427   0.00000  -0.01235  -0.01235   2.06881
   R20        2.08697  -0.00853   0.00000  -0.02492  -0.02492   2.06205
   R21        2.08094  -0.00425   0.00000  -0.01229  -0.01229   2.06866
    A1        1.99624   0.00221   0.00000   0.01775   0.01774   2.01398
    A2        2.11912  -0.00847   0.00000  -0.04502  -0.04502   2.07410
    A3        2.16765   0.00626   0.00000   0.02718   0.02718   2.19483
    A4        2.00546   0.00255   0.00000   0.01709   0.01709   2.02255
    A5        2.17093   0.00278   0.00000   0.01209   0.01209   2.18302
    A6        2.10671  -0.00533   0.00000  -0.02921  -0.02921   2.07750
    A7        2.12354  -0.00809   0.00000  -0.04308  -0.04308   2.08046
    A8        2.15670   0.00589   0.00000   0.02558   0.02558   2.18228
    A9        2.00290   0.00221   0.00000   0.01749   0.01749   2.02039
   A10        1.93920   0.00048   0.00000   0.00204   0.00205   1.94125
   A11        1.97827  -0.00380   0.00000  -0.02072  -0.02071   1.95757
   A12        1.93949   0.00076   0.00000   0.00364   0.00365   1.94315
   A13        1.86700   0.00212   0.00000   0.01408   0.01409   1.88109
   A14        1.86651  -0.00130   0.00000  -0.01079  -0.01079   1.85572
   A15        1.86775   0.00193   0.00000   0.01279   0.01280   1.88056
   A16        2.13627  -0.00905   0.00000  -0.04539  -0.04539   2.09087
   A17        2.16950   0.01018   0.00000   0.04426   0.04426   2.21376
   A18        1.97738  -0.00113   0.00000   0.00113   0.00113   1.97852
   A19        1.94852  -0.00485   0.00000  -0.02864  -0.03010   1.91841
   A20        1.94936  -0.00467   0.00000  -0.02658  -0.02817   1.92119
   A21        1.86058   0.01564   0.00000   0.07935   0.07887   1.93946
   A22        1.93016  -0.00123   0.00000  -0.04062  -0.04210   1.88806
   A23        1.88643  -0.00215   0.00000   0.01078   0.01090   1.89732
   A24        1.88525  -0.00197   0.00000   0.01319   0.01317   1.89842
   A25        2.08705  -0.00917   0.00000  -0.03528  -0.03528   2.05178
   A26        2.21073  -0.01040   0.00000  -0.04000  -0.04000   2.17072
   A27        1.98541   0.01958   0.00000   0.07528   0.07528   2.06069
   A28        1.96526  -0.00339   0.00000  -0.02271  -0.02309   1.94217
   A29        1.93672  -0.00527   0.00000  -0.02555  -0.02570   1.91102
   A30        1.96564  -0.00334   0.00000  -0.02231  -0.02268   1.94296
   A31        1.85673   0.00560   0.00000   0.03783   0.03769   1.89442
   A32        1.87564   0.00192   0.00000   0.00186   0.00128   1.87693
   A33        1.85706   0.00561   0.00000   0.03805   0.03791   1.89498
   A34        2.10945   0.00006   0.00000   0.00021   0.00021   2.10966
    D1        0.62539  -0.00068   0.00000  -0.02692  -0.02698   0.59841
    D2       -2.50277  -0.00056   0.00000  -0.02401  -0.02404  -2.52681
    D3       -2.49622  -0.00046   0.00000  -0.02127  -0.02125  -2.51747
    D4        0.65881  -0.00034   0.00000  -0.01837  -0.01831   0.64050
    D5       -3.12247   0.00114   0.00000   0.03111   0.03107  -3.09141
    D6        0.00827   0.00117   0.00000   0.03089   0.03085   0.03913
    D7       -0.00221   0.00104   0.00000   0.02584   0.02588   0.02366
    D8        3.12853   0.00106   0.00000   0.02562   0.02566  -3.12899
    D9        0.00157   0.00120   0.00000   0.03070   0.03071   0.03228
   D10        3.13406   0.00121   0.00000   0.02981   0.02983  -3.11929
   D11       -3.12585   0.00126   0.00000   0.03341   0.03339  -3.09246
   D12        0.00664   0.00127   0.00000   0.03252   0.03251   0.03915
   D13       -2.07831  -0.00044   0.00000  -0.00711  -0.00711  -2.08542
   D14        0.02466  -0.00002   0.00000  -0.00193  -0.00193   0.02273
   D15        2.12883   0.00037   0.00000   0.00272   0.00272   2.13154
   D16        1.05312  -0.00048   0.00000  -0.00767  -0.00767   1.04545
   D17       -3.12710  -0.00005   0.00000  -0.00249  -0.00249  -3.12958
   D18       -1.02293   0.00034   0.00000   0.00217   0.00216  -1.02077
   D19       -1.99488  -0.00434   0.00000  -0.04736  -0.04649  -2.04137
   D20        2.11708   0.00444   0.00000   0.04761   0.04677   2.16385
   D21        0.06158  -0.00011   0.00000  -0.00192  -0.00195   0.05963
   D22        1.13835  -0.00438   0.00000  -0.04843  -0.04756   1.09078
   D23       -1.03287   0.00440   0.00000   0.04654   0.04570  -0.98718
   D24       -3.08838  -0.00015   0.00000  -0.00299  -0.00302  -3.09140
   D25       -3.13426   0.00023   0.00000   0.00847   0.00853  -3.12573
   D26       -1.03731   0.00198   0.00000   0.02415   0.02501  -1.01230
   D27        1.05160  -0.00180   0.00000  -0.01082  -0.01175   1.03984
   D28        1.06684  -0.00122   0.00000  -0.01434  -0.01418   1.05266
   D29       -3.13726   0.00001   0.00000   0.00099   0.00098  -3.13627
   D30       -1.05749   0.00128   0.00000   0.01684   0.01666  -1.04082
   D31       -2.07450  -0.00124   0.00000  -0.01546  -0.01528  -2.08978
   D32        0.00459  -0.00001   0.00000  -0.00012  -0.00011   0.00448
   D33        2.08436   0.00126   0.00000   0.01573   0.01556   2.09993
   D34       -0.00249   0.00010   0.00000   0.00332   0.00329   0.00080
   D35        3.13887   0.00012   0.00000   0.00428   0.00431  -3.14001
         Item               Value     Threshold  Converged?
 Maximum Force            0.019579     0.000450     NO 
 RMS     Force            0.005151     0.000300     NO 
 Maximum Displacement     0.540501     0.001800     NO 
 RMS     Displacement     0.120057     0.001200     NO 
 Predicted change in Energy=-5.328287D-03
 GradGradGradGradGradGradGradGradGradGradGradGradGradGradGradGradGradGrad

                          Input orientation:                          
 ---------------------------------------------------------------------
 Center     Atomic      Atomic             Coordinates (Angstroms)
 Number     Number       Type             X           Y           Z
 ---------------------------------------------------------------------
      1          6           0        2.614247   -0.613114   -0.332628
      2          1           0        2.965463   -1.450202   -0.936532
      3          6           0        1.147450   -0.455705   -0.260393
      4          1           0        0.570540   -1.376437   -0.269806
      5          6           0        3.518730    0.158119    0.294799
      6          1           0        3.172986    0.967071    0.937620
      7          6           0        5.008682   -0.007206    0.197613
      8          1           0        5.451377   -0.210303    1.182308
      9          1           0        5.290654   -0.827521   -0.471534
     10          1           0        5.489045    0.908368   -0.174045
     11          6           0        0.499419    0.718576   -0.203977
     12          1           0        1.062516    1.649470   -0.240251
     13          6           0       -0.988834    0.924540   -0.102751
     14          1           0       -1.354681    1.448922   -0.993195
     15          1           0       -1.225243    1.536510    0.775916
     16          6           0       -3.053291   -0.395806    0.095886
     17          6           0       -3.792002    0.903395    0.067462
     18          1           0       -3.603741    1.447163   -0.863876
     19          1           0       -4.863696    0.714765    0.148588
     20          1           0       -3.488473    1.552084    0.895357
     21          8           0       -1.689438   -0.350008    0.010579
     22          8           0       -3.585305   -1.487481    0.190537
 ---------------------------------------------------------------------
                    Distance matrix (angstroms):
                    1          2          3          4          5
     1  C    0.000000
     2  H    1.090306   0.000000
     3  C    1.476986   2.179761   0.000000
     4  H    2.182509   2.487091   1.086582   0.000000
     5  C    1.344082   2.099756   2.511571   3.371271   0.000000
     6  H    2.103023   3.065733   2.749968   3.704407   1.089570
     7  C    2.526183   2.746500   3.914081   4.668016   1.502242
     8  H    3.241388   3.493794   4.545921   5.224085   2.158363
     9  H    2.688572   2.451625   4.165209   4.756204   2.167594
    10  H    3.256458   3.537330   4.551659   5.424131   2.159821
    11  C    2.502488   3.364760   1.342409   2.097253   3.111130
    12  H    2.745121   3.703239   2.106984   3.065783   2.922909
    13  C    3.924208   4.687329   2.548261   2.784610   4.589508
    14  H    4.521142   5.203054   3.228817   3.494627   5.203387
    15  H    4.537779   5.423555   3.266884   3.578217   4.963539
    16  C    5.687867   6.197018   4.216248   3.771939   6.598323
    17  C    6.595445   7.225701   5.133501   4.933879   7.352138
    18  H    6.571936   7.180142   5.153534   5.074472   7.330331
    19  H    7.610155   8.195139   6.137682   5.837731   8.402161
    20  H    6.590844   7.350022   5.182544   5.139011   7.169708
    21  O    4.325358   4.876018   2.851759   2.497935   5.240610
    22  O    6.282727   6.647122   4.864861   4.182738   7.292886
                    6          7          8          9         10
     6  H    0.000000
     7  C    2.206039   0.000000
     8  H    2.576267   1.098567   0.000000
     9  H    3.113004   1.095529   1.772564   0.000000
    10  H    2.569704   1.098706   1.758561   1.772335   0.000000
    11  C    2.917697   4.584920   5.225561   5.041620   4.993324
    12  H    2.511400   4.302154   4.974388   4.905724   4.488628
    13  C    4.290096   6.076887   6.664500   6.529753   6.478291
    14  H    4.945704   6.635564   7.335411   7.043777   6.913739
    15  H    4.437885   6.448202   6.913304   7.042847   6.810188
    16  C    6.429033   8.071974   8.575785   8.374351   8.645532
    17  C    7.019422   8.848625   9.376741   9.261815   9.284190
    18  H    7.028506   8.798623   9.430229   9.189036   9.134819
    19  H    8.079263   9.898863  10.407933  10.289510  10.359577
    20  H    6.687231   8.667172   9.116429   9.198042   9.063875
    21  O    5.122232   6.709494   7.237659   7.012997   7.290282
    22  O    7.228931   8.720543   9.180218   8.925050   9.392382
                   11         12         13         14         15
    11  C    0.000000
    12  H    1.088558   0.000000
    13  C    1.505843   2.180014   0.000000
    14  H    2.143351   2.539682   1.096226   0.000000
    15  H    2.145615   2.505832   1.096564   1.776002   0.000000
    16  C    3.735439   4.608254   2.458608   2.733934   2.745549
    17  C    4.303967   4.921144   2.808411   2.713509   2.736968
    18  H    4.219268   4.712089   2.773118   2.252776   2.890355
    19  H    5.374692   6.012059   3.888668   3.762426   3.782479
    20  H    4.219781   4.691544   2.763735   2.851376   2.266433
    21  O    2.445199   3.410876   1.458822   2.087049   2.088101
    22  O    4.659109   5.623902   3.556055   3.872902   3.880345
                   16         17         18         19         20
    16  C    0.000000
    17  C    1.494799   0.000000
    18  H    2.149575   1.094768   0.000000
    19  H    2.124550   1.091188   1.774536   0.000000
    20  H    2.150072   1.094685   1.766124   1.774825   0.000000
    21  O    1.367285   2.448475   2.767499   3.350925   2.763568
    22  O    1.218094   2.402948   3.118375   2.546749   3.121715
                   21         22
    21  O    0.000000
    22  O    2.218229   0.000000
 Stoichiometry    C8H12O2
 Framework group  C1[X(C8H12O2)]
 Deg. of freedom    60
 Full point group                 C1      NOp   1
 Largest Abelian subgroup         C1      NOp   1
 Largest concise Abelian subgroup C1      NOp   1
                         Standard orientation:                         
 ---------------------------------------------------------------------
 Center     Atomic      Atomic             Coordinates (Angstroms)
 Number     Number       Type             X           Y           Z
 ---------------------------------------------------------------------
      1          6           0       -2.652237    0.616009   -0.318454
      2          1           0       -3.001581    1.465082   -0.906502
      3          6           0       -1.185880    0.452140   -0.251874
      4          1           0       -0.605708    1.370848   -0.245799
      5          6           0       -3.558305   -0.163207    0.296705
      6          1           0       -3.214260   -0.984832    0.924182
      7          6           0       -5.047834    0.009108    0.205366
      8          1           0       -5.487979    0.195986    1.194405
      9          1           0       -5.328115    0.842343   -0.448352
     10          1           0       -5.532148   -0.897915   -0.181810
     11          6           0       -0.541940   -0.725250   -0.217866
     12          1           0       -1.108421   -1.653343   -0.269830
     13          6           0        0.945753   -0.938263   -0.123217
     14          1           0        1.308078   -1.447799   -1.023664
     15          1           0        1.181602   -1.566804    0.743827
     16          6           0        3.015272    0.370983    0.095227
     17          6           0        3.749289   -0.930097    0.041984
     18          1           0        3.557366   -1.456320   -0.898638
     19          1           0        4.821797   -0.746749    0.124445
     20          1           0        3.444979   -1.592527    0.858635
     21          8           0        1.651109    0.331550    0.011719
     22          8           0        3.551352    1.458887    0.208515
 ---------------------------------------------------------------------
 Rotational constants (GHZ):      4.9327936      0.3979645      0.3746711
 Standard basis: 6-31+G(d,p) (6D, 7F)
 There are   250 symmetry adapted cartesian basis functions of A   symmetry.
 There are   250 symmetry adapted basis functions of A   symmetry.
   250 basis functions,   404 primitive gaussians,   250 cartesian basis functions
    38 alpha electrons       38 beta electrons
       nuclear repulsion energy       481.6735400598 Hartrees.
 NAtoms=   22 NActive=   22 NUniq=   22 SFac= 1.00D+00 NAtFMM=   60 NAOKFM=F Big=F
 Integral buffers will be    131072 words long.
 Raffenetti 2 integral format.
 Two-electron integral symmetry is turned on.
 Nuclear repulsion after empirical dispersion term =      481.6588191551 Hartrees.
 ------------------------------------------------------------------------------
 Polarizable Continuum Model (PCM)
 =================================
 Model                : C-PCM.
 Atomic radii         : UFF (Universal Force Field).
 Polarization charges : Total charges.
 Charge compensation  : None.
 Solution method      : On-the-fly selection.
 Cavity type          : Scaled VdW (van der Waals Surface) (Alpha=1.100).
 Cavity algorithm     : GePol (No added spheres)
                        Default sphere list used, NSphG=   22.
                        Lebedev-Laikov grids with approx.  5.0 points / Ang**2.
                        Smoothing algorithm: Karplus/York (Gamma=1.0000).
                        Polarization charges: spherical gaussians, with
                                              point-specific exponents (IZeta= 3).
                        Self-potential: point-specific (ISelfS= 7).
                        Self-field    : sphere-specific E.n sum rule (ISelfD= 2).
 1st derivatives      : Analytical E(r).r(x)/FMM algorithm (CHGder, D1EAlg=3).
                        Cavity 1st derivative terms included.
 Solvent              : Water, Eps=  78.355300 Eps(inf)=   1.777849
 ------------------------------------------------------------------------------
 One-electron integrals computed using PRISM.
 NBasis=   250 RedAO= T EigKep=  5.32D-06  NBF=   250
 NBsUse=   250 1.00D-06 EigRej= -1.00D+00 NBFU=   250
 Initial guess from the checkpoint file:  "b3lyp_diene_pm6_cpcmtoluene_water.chk"
 B after Tr=     0.000000    0.000000    0.000000
         Rot=    0.999902   -0.013238   -0.000746    0.004386 Ang=  -1.60 deg.
 ExpMin= 4.38D-02 ExpMax= 5.48D+03 ExpMxC= 8.25D+02 IAcc=2 IRadAn=         4 AccDes= 0.00D+00
 Harris functional with IExCor=  402 and IRadAn=       4 diagonalized for initial guess.
 HarFok:  IExCor=  402 AccDes= 0.00D+00 IRadAn=         4 IDoV= 1 UseB2=F ITyADJ=14
 ICtDFT=  3500011 ScaDFX=  1.000000  1.000000  1.000000  1.000000
 FoFCou: FMM=F IPFlag=           0 FMFlag=      100000 FMFlg1=           0
         NFxFlg=           0 DoJE=T BraDBF=F KetDBF=T FulRan=T
         wScrn=  0.000000 ICntrl=     500 IOpCl=  0 I1Cent=   200000004 NGrid=           0
         NMat0=    1 NMatS0=      1 NMatT0=    0 NMatD0=    1 NMtDS0=    0 NMtDT0=    0
 Petite list used in FoFCou.
 Requested convergence on RMS density matrix=1.00D-08 within 128 cycles.
 Requested convergence on MAX density matrix=1.00D-06.
 Requested convergence on             energy=1.00D-06.
 No special actions if energy rises.
 Inv3:  Mode=1 IEnd=     9806592.
 Iteration    1 A*A^-1 deviation from unit magnitude is 5.77D-15 for   1806.
 Iteration    1 A*A^-1 deviation from orthogonality  is 2.28D-15 for   1802   1328.
 Iteration    1 A^-1*A deviation from unit magnitude is 5.77D-15 for   1806.
 Iteration    1 A^-1*A deviation from orthogonality  is 1.95D-15 for   1714   1110.
 Error on total polarization charges =  0.01719
 SCF Done:  E(RB3LYP) =  -462.552493484     A.U. after   11 cycles
            NFock= 11  Conv=0.97D-08     -V/T= 2.0099
 D1PCM: C-PCM CHGder 1st derivatives, ID1Alg=3 FixD1E=F DoIter=F DoCFld=F I1PDM=0.
 Calling FoFJK, ICntrl=      2127 FMM=F ISym2X=0 I1Cent= 0 IOpClX= 0 NMat=1 NMatS=1 NMatT=0.
 ***** Axes restored to original set *****
 -------------------------------------------------------------------
 Center     Atomic                   Forces (Hartrees/Bohr)
 Number     Number              X              Y              Z
 -------------------------------------------------------------------
      1        6          -0.004068284    0.001007720    0.000218945
      2        1           0.000686595   -0.000754051    0.000460264
      3        6           0.003128614    0.000729771    0.000247967
      4        1          -0.001601856   -0.000730607   -0.000657609
      5        6           0.002133140    0.000182711   -0.000817924
      6        1          -0.001198589    0.000137506    0.000487989
      7        6           0.001734183   -0.000874365   -0.000500928
      8        1          -0.000704893    0.000553018   -0.000035589
      9        1          -0.001037048    0.000010860   -0.000019562
     10        1          -0.001036180   -0.000003424    0.000345679
     11        6          -0.004463270   -0.002261439    0.001209799
     12        1          -0.000398532    0.000749810   -0.000171173
     13        6          -0.000529459   -0.004642085    0.000044539
     14        1           0.000804348    0.000995815    0.000231630
     15        1           0.001184007    0.000660830   -0.000321719
     16        6           0.012212881   -0.001318344   -0.000629496
     17        6          -0.008663203    0.006165926    0.000201742
     18        1           0.000750448   -0.000367575    0.000281965
     19        1           0.001249249   -0.001147940    0.000000031
     20        1           0.000695801   -0.000405330   -0.000432778
     21        8          -0.002590185    0.001162402    0.000017764
     22        8           0.001712233    0.000148793   -0.000161534
 -------------------------------------------------------------------
 Cartesian Forces:  Max     0.012212881 RMS     0.002397818

 GradGradGradGradGradGradGradGradGradGradGradGradGradGradGradGradGradGrad
 Berny optimization.
 Using GEDIIS/GDIIS optimizer.
 FormGI is forming the generalized inverse of G from B-inverse, IUseBI=4.
 Internal  Forces:  Max     0.008300479 RMS     0.002274866
 Search for a local minimum.
 Step number   2 out of a maximum of  100
 All quantities printed in internal units (Hartrees-Bohrs-Radians)
 Mixed Optimization -- RFO/linear search
 Update second derivatives using D2CorX and points    1    2
 DE= -4.37D-03 DEPred=-5.33D-03 R= 8.21D-01
 TightC=F SS=  1.41D+00  RLast= 2.46D-01 DXNew= 5.0454D-01 7.3656D-01
 Trust test= 8.21D-01 RLast= 2.46D-01 DXMaxT set to 5.05D-01
 ITU=  1  0
 Use linear search instead of GDIIS.
     Eigenvalues ---    0.00834   0.00859   0.00911   0.00954   0.01180
     Eigenvalues ---    0.01234   0.01716   0.01727   0.01955   0.02086
     Eigenvalues ---    0.02095   0.02876   0.02908   0.06165   0.07111
     Eigenvalues ---    0.07240   0.07306   0.07403   0.07484   0.11271
     Eigenvalues ---    0.13999   0.14649   0.15998   0.15999   0.16000
     Eigenvalues ---    0.16000   0.16000   0.16000   0.16000   0.16000
     Eigenvalues ---    0.16080   0.21655   0.22000   0.22001   0.22005
     Eigenvalues ---    0.23248   0.24100   0.25000   0.29025   0.32021
     Eigenvalues ---    0.32960   0.33065   0.33378   0.33396   0.33543
     Eigenvalues ---    0.33562   0.33634   0.33660   0.33842   0.33875
     Eigenvalues ---    0.34423   0.34504   0.34551   0.35344   0.36310
     Eigenvalues ---    0.41300   0.48519   0.57139   0.57663   0.98956
 RFO step:  Lambda=-1.34517195D-03 EMin= 8.33706385D-03
 Quartic linear search produced a step of -0.10108.
 Iteration  1 RMS(Cart)=  0.05153837 RMS(Int)=  0.00080228
 Iteration  2 RMS(Cart)=  0.00142840 RMS(Int)=  0.00006275
 Iteration  3 RMS(Cart)=  0.00000085 RMS(Int)=  0.00006275
 Variable       Old X    -DE/DX   Delta X   Delta X   Delta X     New X
                                 (Linear)    (Quad)   (Total)
    R1        2.06038   0.00055   0.00056   0.00014   0.00070   2.06108
    R2        2.79110  -0.00350  -0.00248  -0.00291  -0.00540   2.78570
    R3        2.53995  -0.00034  -0.00069   0.00106   0.00037   2.54031
    R4        2.05334   0.00148   0.00210  -0.00091   0.00120   2.05454
    R5        2.53679  -0.00114  -0.00070  -0.00018  -0.00088   2.53591
    R6        2.05899   0.00077   0.00056   0.00072   0.00128   2.06026
    R7        2.83883  -0.00099  -0.00253   0.00314   0.00061   2.83944
    R8        2.07599  -0.00042   0.00036  -0.00193  -0.00157   2.07442
    R9        2.07025  -0.00026   0.00055  -0.00193  -0.00138   2.06887
   R10        2.07625  -0.00058   0.00029  -0.00219  -0.00190   2.07436
   R11        2.05708   0.00044   0.00069  -0.00044   0.00025   2.05733
   R12        2.84563  -0.00663  -0.00210  -0.01320  -0.01530   2.83033
   R13        2.07157   0.00002   0.00200  -0.00450  -0.00250   2.06907
   R14        2.07221  -0.00015   0.00191  -0.00474  -0.00283   2.06937
   R15        2.75677  -0.00636   0.00079  -0.01733  -0.01654   2.74023
   R16        2.82476   0.00665  -0.00173   0.02145   0.01972   2.84448
   R17        2.58379  -0.00809   0.00245  -0.02032  -0.01787   2.56592
   R18        2.30186  -0.00090  -0.00109   0.00169   0.00060   2.30246
   R19        2.06881  -0.00029   0.00125  -0.00362  -0.00237   2.06644
   R20        2.06205  -0.00103   0.00252  -0.00851  -0.00599   2.05606
   R21        2.06866  -0.00037   0.00124  -0.00382  -0.00258   2.06608
    A1        2.01398   0.00085  -0.00179   0.00835   0.00656   2.02053
    A2        2.07410  -0.00031   0.00455  -0.01243  -0.00788   2.06622
    A3        2.19483  -0.00054  -0.00275   0.00403   0.00128   2.19611
    A4        2.02255   0.00100  -0.00173   0.00937   0.00764   2.03020
    A5        2.18302  -0.00008  -0.00122   0.00245   0.00123   2.18425
    A6        2.07750  -0.00092   0.00295  -0.01185  -0.00889   2.06861
    A7        2.08046  -0.00089   0.00435  -0.01500  -0.01065   2.06981
    A8        2.18228  -0.00029  -0.00259   0.00470   0.00212   2.18440
    A9        2.02039   0.00117  -0.00177   0.01029   0.00853   2.02892
   A10        1.94125  -0.00050  -0.00021  -0.00231  -0.00253   1.93872
   A11        1.95757  -0.00095   0.00209  -0.00945  -0.00737   1.95019
   A12        1.94315  -0.00099  -0.00037  -0.00530  -0.00568   1.93746
   A13        1.88109   0.00101  -0.00142   0.00996   0.00853   1.88962
   A14        1.85572   0.00056   0.00109  -0.00050   0.00058   1.85629
   A15        1.88056   0.00107  -0.00129   0.00882   0.00750   1.88806
   A16        2.09087   0.00213   0.00459  -0.00066   0.00392   2.09480
   A17        2.21376  -0.00278  -0.00447  -0.00113  -0.00560   2.20816
   A18        1.97852   0.00066  -0.00011   0.00178   0.00167   1.98018
   A19        1.91841   0.00131   0.00304  -0.00473  -0.00148   1.91694
   A20        1.92119   0.00086   0.00285  -0.00800  -0.00494   1.91625
   A21        1.93946  -0.00830  -0.00797  -0.01681  -0.02472   1.91474
   A22        1.88806  -0.00062   0.00426  -0.00699  -0.00273   1.88532
   A23        1.89732   0.00342  -0.00110   0.01847   0.01727   1.91459
   A24        1.89842   0.00357  -0.00133   0.01882   0.01736   1.91578
   A25        2.05178   0.00745   0.00357   0.01847   0.02203   2.07381
   A26        2.17072  -0.00203   0.00404  -0.01643  -0.01239   2.15834
   A27        2.06069  -0.00542  -0.00761  -0.00204  -0.00965   2.05104
   A28        1.94217  -0.00056   0.00233  -0.00880  -0.00646   1.93571
   A29        1.91102  -0.00152   0.00260  -0.01372  -0.01113   1.89989
   A30        1.94296  -0.00047   0.00229  -0.00812  -0.00582   1.93714
   A31        1.89442   0.00120  -0.00381   0.01578   0.01196   1.90638
   A32        1.87693   0.00027  -0.00013   0.00047   0.00036   1.87729
   A33        1.89498   0.00119  -0.00383   0.01591   0.01207   1.90705
   A34        2.10966   0.00553  -0.00002   0.01976   0.01974   2.12940
    D1        0.59841  -0.00060   0.00273  -0.04333  -0.04060   0.55781
    D2       -2.52681  -0.00057   0.00243  -0.04155  -0.03912  -2.56593
    D3       -2.51747  -0.00056   0.00215  -0.04073  -0.03859  -2.55605
    D4        0.64050  -0.00053   0.00185  -0.03896  -0.03711   0.60339
    D5       -3.09141   0.00016  -0.00314   0.01193   0.00879  -3.08261
    D6        0.03913   0.00016  -0.00312   0.01126   0.00814   0.04727
    D7        0.02366   0.00014  -0.00262   0.00954   0.00693   0.03059
    D8       -3.12899   0.00013  -0.00259   0.00887   0.00628  -3.12271
    D9        0.03228   0.00004  -0.00310   0.00775   0.00465   0.03693
   D10       -3.11929   0.00002  -0.00302   0.00650   0.00349  -3.11580
   D11       -3.09246   0.00006  -0.00338   0.00939   0.00601  -3.08645
   D12        0.03915   0.00004  -0.00329   0.00814   0.00485   0.04400
   D13       -2.08542  -0.00026   0.00072  -0.01016  -0.00943  -2.09485
   D14        0.02273   0.00002   0.00020  -0.00556  -0.00537   0.01736
   D15        2.13154   0.00002  -0.00027  -0.00457  -0.00484   2.12670
   D16        1.04545  -0.00028   0.00077  -0.01095  -0.01017   1.03528
   D17       -3.12958   0.00001   0.00025  -0.00636  -0.00611  -3.13570
   D18       -1.02077   0.00001  -0.00022  -0.00536  -0.00558  -1.02635
   D19       -2.04137   0.00019   0.00470  -0.01622  -0.01163  -2.05300
   D20        2.16385  -0.00039  -0.00473   0.00026  -0.00434   2.15951
   D21        0.05963  -0.00003   0.00020  -0.00708  -0.00690   0.05273
   D22        1.09078   0.00017   0.00481  -0.01741  -0.01271   1.07807
   D23       -0.98718  -0.00041  -0.00462  -0.00093  -0.00543  -0.99260
   D24       -3.09140  -0.00005   0.00031  -0.00827  -0.00798  -3.09938
   D25       -3.12573  -0.00004  -0.00086   0.01066   0.00978  -3.11595
   D26       -1.01230  -0.00139  -0.00253   0.00632   0.00350  -1.00879
   D27        1.03984   0.00179   0.00119   0.01885   0.02034   1.06018
   D28        1.05266  -0.00018   0.00143  -0.00560  -0.00417   1.04848
   D29       -3.13627  -0.00002  -0.00010  -0.00048  -0.00058  -3.13685
   D30       -1.04082   0.00017  -0.00168   0.00521   0.00354  -1.03728
   D31       -2.08978  -0.00011   0.00154  -0.00120   0.00033  -2.08944
   D32        0.00448   0.00004   0.00001   0.00392   0.00393   0.00841
   D33        2.09993   0.00024  -0.00157   0.00962   0.00805   2.10798
   D34        0.00080   0.00016  -0.00033   0.00830   0.00798   0.00878
   D35       -3.14001   0.00010  -0.00044   0.00419   0.00375  -3.13625
         Item               Value     Threshold  Converged?
 Maximum Force            0.008300     0.000450     NO 
 RMS     Force            0.002275     0.000300     NO 
 Maximum Displacement     0.188281     0.001800     NO 
 RMS     Displacement     0.052023     0.001200     NO 
 Predicted change in Energy=-7.503547D-04
 GradGradGradGradGradGradGradGradGradGradGradGradGradGradGradGradGradGrad

                          Input orientation:                          
 ---------------------------------------------------------------------
 Center     Atomic      Atomic             Coordinates (Angstroms)
 Number     Number       Type             X           Y           Z
 ---------------------------------------------------------------------
      1          6           0        2.594681   -0.618113   -0.318185
      2          1           0        2.937069   -1.478515   -0.894430
      3          6           0        1.133812   -0.433293   -0.249196
      4          1           0        0.531952   -1.338532   -0.267765
      5          6           0        3.514912    0.154581    0.284471
      6          1           0        3.174375    0.982323    0.906975
      7          6           0        5.002271   -0.034107    0.185169
      8          1           0        5.445070   -0.208444    1.174391
      9          1           0        5.261554   -0.879255   -0.460646
     10          1           0        5.487091    0.865122   -0.216436
     11          6           0        0.507132    0.751667   -0.186285
     12          1           0        1.083190    1.674911   -0.218327
     13          6           0       -0.970487    0.974153   -0.084353
     14          1           0       -1.325921    1.518014   -0.965657
     15          1           0       -1.194176    1.579521    0.800327
     16          6           0       -3.004658   -0.392377    0.083644
     17          6           0       -3.818694    0.873432    0.055212
     18          1           0       -3.646748    1.427245   -0.871879
     19          1           0       -4.873099    0.615131    0.127976
     20          1           0       -3.550054    1.530582    0.886679
     21          8           0       -1.651825   -0.302403    0.009887
     22          8           0       -3.491043   -1.506447    0.166104
 ---------------------------------------------------------------------
                    Distance matrix (angstroms):
                    1          2          3          4          5
     1  C    0.000000
     2  H    1.090678   0.000000
     3  C    1.474129   2.181869   0.000000
     4  H    2.185496   2.489356   1.087215   0.000000
     5  C    1.344276   2.095403   2.509987   3.381184   0.000000
     6  H    2.097251   3.058938   2.739452   3.707935   1.090245
     7  C    2.528027   2.741698   3.913183   4.678721   1.502565
     8  H    3.243506   3.490440   4.545779   5.243629   2.156213
     9  H    2.683412   2.439367   4.157144   4.755762   2.162123
    10  H    3.252135   3.529154   4.542907   5.423295   2.155288
    11  C    2.500311   3.373392   1.341944   2.091934   3.102396
    12  H    2.748188   3.719956   2.109037   3.063845   2.911611
    13  C    3.911573   4.684100   2.536956   2.763960   4.574552
    14  H    4.511472   5.211271   3.220435   3.478304   5.182223
    15  H    4.520631   5.412114   3.251530   3.554628   4.946926
    16  C    5.618275   6.118860   4.152034   3.677813   6.545555
    17  C    6.595113   7.216219   5.131034   4.891342   7.372319
    18  H    6.591320   7.196569   5.167503   5.047377   7.365202
    19  H    7.582064   8.150300   6.109372   5.760902   8.402103
    20  H    6.620148   7.369517   5.204384   5.121263   7.222865
    21  O    4.270844   4.822756   2.800719   2.433009   5.194170
    22  O    6.169254   6.515070   4.765859   4.049805   7.201141
                    6          7          8          9         10
     6  H    0.000000
     7  C    2.212541   0.000000
     8  H    2.577886   1.097736   0.000000
     9  H    3.113226   1.094797   1.776799   0.000000
    10  H    2.573800   1.097702   1.757472   1.775770   0.000000
    11  C    2.891817   4.578394   5.211188   5.033856   4.981343
    12  H    2.473669   4.294502   4.951029   4.903183   4.477735
    13  C    4.261769   6.063255   6.643970   6.512683   6.459849
    14  H    4.903711   6.616608   7.307995   7.028283   6.885110
    15  H    4.410472   6.432587   6.885952   7.022257   6.795845
    16  C    6.383426   8.015583   8.521823   8.298407   8.589596
    17  C    7.045593   8.868480   9.393634   9.262231   9.309754
    18  H    7.063285   8.835068   9.461705   9.211238   9.174564
    19  H    8.093424   9.896854  10.403744  10.261133  10.368928
    20  H    6.746773   8.722536   9.166202   9.234015   9.128510
    21  O    5.074199   6.661809   7.192414   6.953342   7.237296
    22  O    7.153367   8.620007   9.086009   8.797393   9.293953
                   11         12         13         14         15
    11  C    0.000000
    12  H    1.088691   0.000000
    13  C    1.497748   2.174074   0.000000
    14  H    2.134196   2.527239   1.094905   0.000000
    15  H    2.133822   2.496629   1.095065   1.771959   0.000000
    16  C    3.703291   4.590791   2.456314   2.751142   2.771256
    17  C    4.334273   4.974501   2.853403   2.769761   2.818129
    18  H    4.263938   4.781295   2.826282   2.324494   2.972301
    19  H    5.391131   6.059739   3.924840   3.820171   3.862199
    20  H    4.268340   4.765378   2.811883   2.894491   2.357968
    21  O    2.410527   3.382626   1.450068   2.090890   2.091860
    22  O    4.605286   5.585018   3.545321   3.887929   3.898850
                   16         17         18         19         20
    16  C    0.000000
    17  C    1.505236   0.000000
    18  H    2.153214   1.093514   0.000000
    19  H    2.123231   1.088019   1.778533   0.000000
    20  H    2.154087   1.093321   1.764244   1.778800   0.000000
    21  O    1.357827   2.465759   2.783688   3.351481   2.780625
    22  O    1.218409   2.404886   3.115799   2.532316   3.121899
                   21         22
    21  O    0.000000
    22  O    2.203825   0.000000
 Stoichiometry    C8H12O2
 Framework group  C1[X(C8H12O2)]
 Deg. of freedom    60
 Full point group                 C1      NOp   1
 Largest Abelian subgroup         C1      NOp   1
 Largest concise Abelian subgroup C1      NOp   1
[...]
 0.00001457,-0.00000700,-0.00012234,0.00001150,0.00000939,0.00004331,-0
 .00002804,-0.00000824,-0.12259112,-0.25322190,0.00196451,0.13239271,0.
 27065445,-0.00327104,-0.00021615,-0.00736505,0.00038037,-0.00023510,0.
 00013428,0.00213666,-0.00323317,0.00631304,0.00034089,-0.00139633,0.01
 044519,-0.00018176,0.00175376,0.00034778,-0.00076570,-0.00022714,0.000
 15050,0.00000495,-0.00040621,0.00010710,0.00004314,0.00002419,0.000013
 55,0.00008009,0.00003724,-0.00004576,-0.00012018,-0.00002524,-0.000018
 07,0.00299623,0.00310232,-0.03699927,-0.00319696,-0.00122229,0.0236962
 6,0.00356728,0.00021039,0.00137785,0.00023985,0.00003754,-0.00057323,-
 0.01887466,0.01040446,0.00254589,-0.00066565,-0.00217012,-0.00035588,-
 0.00026270,-0.00088735,0.00003019,-0.00002119,-0.00018444,-0.00003398,
 0.00011185,0.00025371,-0.00005375,0.00012730,-0.00007126,0.00001634,0.
 00008806,-0.00006574,-0.00005259,0.00021058,-0.00004856,-0.00007568,-0
 .21563494,0.03340653,0.00945493,-0.00993496,0.00275220,0.00059601,0.49
 465096,-0.00192156,-0.00384504,-0.00043072,0.00153078,-0.00029668,-0.0
 0015501,0.03082334,-0.00025978,-0.00174651,0.00021177,-0.00105169,-0.0
 0001099,0.00011879,-0.00032516,-0.00019939,0.00007667,0.00014144,0.000
 36587,0.00026252,0.00080348,-0.00004833,0.00022085,-0.00009905,0.00004
 996,-0.00001698,-0.00006468,-0.00003089,0.00042595,-0.00007347,-0.0001
 0020,0.01853272,-0.09082155,-0.00202923,-0.02519897,0.00394466,0.00176
 706,-0.06186512,0.47504719,0.00185830,0.00093648,0.01296839,-0.0014570
 7,0.00016179,-0.00014823,0.00130061,-0.00137671,0.00420145,-0.00017209
 ,0.00088081,-0.00666633,0.00068757,-0.00126282,-0.00056232,0.00021872,
 -0.00001629,0.00021393,0.00013260,0.00089592,-0.00059869,-0.00004006,-
 0.00013860,-0.00003025,-0.00000377,-0.00008885,0.00002941,0.00034729,0
 .00000726,-0.00000179,0.01003131,-0.00332589,-0.07187204,-0.00044107,-
 0.00023618,0.00141925,0.00714412,0.00183842,0.57215643,-0.00015215,0.0
 0051761,0.00220238,-0.00069236,0.00005281,0.00015622,-0.00227073,-0.00
 222617,-0.00061127,0.00009021,0.00015630,-0.00101013,0.00024235,0.0003
 4010,-0.00000191,0.00006611,-0.00008022,0.00002968,-0.00010424,-0.0001
 3224,-0.00016062,-0.00013641,0.00002510,-0.00002130,-0.00002327,0.0000
 2424,0.00003104,-0.00012637,0.00004224,0.00005780,-0.01361710,0.019749
 28,-0.02324627,0.00034732,-0.00065677,0.00083970,-0.07641040,0.0470002
 4,-0.07428989,0.08905520,0.00028949,-0.00011885,-0.00032607,0.00002258
 ,0.00001560,-0.00001158,-0.00026653,0.00144478,0.00014299,-0.00023646,
 0.00002369,0.00049519,-0.00013419,-0.00000320,-0.00003027,-0.00003438,
 -0.00003706,0.00002361,0.00000127,-0.00005498,-0.00000697,-0.00002421,
 0.00001085,-0.00000449,-0.00000027,0.00001195,0.00000201,-0.00003933,0
 .00000585,0.00001097,0.00665144,-0.00163503,0.00363772,0.00038124,0.00
 020052,-0.00012995,0.04003069,-0.11094063,0.09905834,-0.04369255,0.132
 26928,-0.00023142,-0.00006431,-0.00052289,0.00007064,-0.00005743,0.000
 03857,0.00082009,-0.00065324,-0.00012717,0.00002688,-0.00004279,0.0001
 3813,0.00006552,0.00011392,0.00001012,-0.00000061,-0.00001263,0.000016
 60,-0.00001459,-0.00003251,0.00000188,-0.00000680,0.00000943,0.0000020
 4,-0.00000335,0.00000554,0.,-0.00001501,-0.00000040,0.00000451,0.00080
 231,-0.00306896,0.00600593,-0.00078524,0.00018473,0.00013697,-0.067214
 48,0.10366311,-0.21205191,0.07375667,-0.11465722,0.22183558,-0.0007267
 9,-0.00007005,-0.00290606,-0.00007067,0.00007551,0.00014622,-0.0020501
 5,-0.00182569,0.00082512,0.00018857,-0.00007918,0.00093137,-0.00007076
 ,0.00069098,0.00023674,0.00000870,0.00004547,-0.00014430,-0.00016919,-
 0.00051043,0.00015933,-0.00010428,0.00008315,-0.00001164,-0.00003391,0
 .00005592,0.00002245,-0.00027051,0.00004341,0.00005967,-0.00983319,0.0
 1924622,0.02654528,0.00033267,-0.00059920,-0.00085895,-0.05988581,0.03
 007608,0.05327182,0.00390305,-0.00401803,-0.00985251,0.07114059,0.0006
 7376,-0.00009971,0.00027697,-0.00000202,0.00002585,-0.00002777,-0.0005
 0549,0.00166239,0.00012258,-0.00024922,0.00013404,-0.00034355,-0.00013
 826,-0.00020942,-0.00007262,-0.00000017,0.00002379,-0.00002341,0.00000
 523,-0.00002676,0.00001907,-0.00001002,0.00000218,-0.00000468,-0.00000
 581,0.00000237,0.00000475,-0.00002415,0.00000622,0.00000935,0.00607461
 ,-0.00187747,-0.00498790,0.00015534,0.00019963,0.00018759,0.02431469,-
 0.10321749,-0.09921592,-0.00250811,0.00984595,0.01324030,-0.02494947,0
 .12366850,0.00034583,0.00007585,-0.00004054,0.00006760,-0.00003240,0.0
 0000421,-0.00061246,0.00125501,-0.00017267,-0.00003810,-0.00000686,0.0
 0005900,-0.00007401,-0.00018215,-0.00007419,-0.00001283,-0.00003118,0.
 00002897,0.00002934,0.00005401,-0.00002221,0.00001260,-0.00000640,0.00
 000620,0.00000774,-0.00000483,-0.00000715,0.00003213,-0.00001259,-0.00
 000962,0.00165915,-0.00003681,0.00218600,0.00078647,-0.00009480,0.0001
 9394,0.04643880,-0.10423599,-0.23486010,0.00625940,-0.01175888,-0.0216
 1328,-0.05264535,0.11532826,0.24637225,-0.00044287,0.00086076,0.000520
 32,0.00062648,-0.00023658,-0.00018976,0.00115660,-0.00122545,-0.000280
 27,-0.00106503,0.00114208,0.00007716,0.00051090,-0.00060031,-0.0000805
 0,-0.00010474,0.00000542,-0.00005011,0.00018449,0.00048123,0.00014254,
 0.00029613,-0.00009940,0.00004357,0.00007552,-0.00008935,-0.00005874,0
 .00036476,-0.00004954,-0.00010972,-0.00075232,0.00495250,0.00003512,0.
 00299705,0.00003379,-0.00020150,-0.03185883,-0.03517003,0.00100138,0.0
 0381358,0.00785141,-0.00223279,0.00389342,0.00809338,0.00176735,0.5600
 9410,-0.00018154,0.00072799,0.00016650,0.00023398,-0.00009486,-0.00006
 937,0.00167016,-0.00060399,-0.00024012,-0.00062134,0.00121177,0.000150
 42,0.00031219,-0.00027726,-0.00008346,-0.00002603,0.00002531,-0.000003
 25,0.00008104,0.00018429,0.00010803,0.00012749,-0.00003825,0.00001507,
 0.00002049,-0.00003375,-0.00002258,0.00013239,-0.00001653,-0.00004021,
 -0.00111835,-0.00464243,-0.00008780,-0.00045114,0.00058865,0.00002563,
 -0.03680913,-0.00889968,0.00081488,-0.00058320,0.00031515,0.00069318,-
 0.00055433,0.00032645,-0.00076205,0.11691833,0.90109235,0.00001245,0.0
 0002321,0.00007705,-0.00002310,0.00000480,0.00000194,-0.00001270,0.000
 02244,-0.00003213,-0.00005714,0.00002151,-0.00020019,0.00000623,0.0000
 0774,0.00000013,0.00000576,-0.00000800,-0.00000075,-0.00000470,-0.0000
 0703,-0.00000676,-0.00000935,0.00000365,0.00000011,-0.00000098,0.00000
 169,0.00000031,-0.00000701,0.00000294,0.00000226,0.00019058,0.00019510
 ,-0.00035934,0.00007671,-0.00002223,0.00069666,0.00100300,0.00040803,-
 0.01152538,0.00166777,0.00135991,0.00088568,-0.00225524,-0.00200265,0.
 00084826,-0.00817975,-0.01797495,0.22553160,0.00002617,-0.00015265,-0.
 00004549,-0.00009190,0.00003264,0.00002603,-0.00050340,0.00009976,0.00
 007522,0.00006869,-0.00026696,-0.00003059,-0.00007073,0.00009151,0.000
 03075,0.00001577,-0.00000296,0.00000295,-0.00002600,-0.00006147,-0.000
 03667,-0.00004224,0.00001273,-0.00000402,-0.00000868,0.00001183,0.0000
 0766,-0.00004792,0.00000668,0.00001429,0.00008593,0.00063690,-0.000020
 02,-0.00017534,-0.00003855,0.00003331,-0.00258124,0.00477010,0.0000898
 3,-0.00133813,-0.00025623,-0.00062012,-0.00096870,-0.00033443,0.000545
 26,-0.12349981,0.05386507,-0.00104253,0.58049781,-0.00001072,-0.000038
 13,0.00001373,-0.00000144,0.00000176,0.00000130,-0.00013258,0.00014664
 ,0.00001899,-0.00001028,-0.00006251,-0.00002324,-0.00001380,-0.0000006
 3,0.00000168,-0.00000083,-0.00000204,0.00000158,-0.00000279,0.00000080
 ,-0.00000855,-0.00000386,0.00000052,0.00000072,-0.00000006,0.00000030,
 -0.00000017,0.00000025,-0.00000003,0.00000044,0.00025231,0.00001048,-0
 .00003868,0.00000602,-0.00000648,0.00000529,0.00054510,-0.00066233,-0.
 00010772,-0.00085173,0.00039025,-0.00026461,-0.00092253,0.00035808,0.0
 0023412,0.04991216,-0.14921308,0.00014442,0.06240256,0.50707624,0.0000
 0290,-0.00001845,0.00003518,-0.00000383,0.00000031,0.00000137,0.000056
 61,-0.00001480,-0.00004819,0.00000885,-0.00001093,0.00001370,0.0000050
 6,-0.00000298,0.00000183,0.00000142,0.00000129,0.00000037,-0.00000235,
 0.00000143,-0.00000432,0.00000044,-0.00000090,0.00000077,-0.00000021,-
 0.00000045,0.00000113,0.00000059,0.00000102,0.00000057,-0.00012544,-0.
 00009297,-0.00054763,-0.00001560,0.00000312,-0.00004120,0.00014489,0.0
 0009872,-0.00015590,0.00076466,0.00028827,0.00005782,-0.00051938,-0.00
 026835,-0.00016732,-0.00048613,-0.00079344,-0.09475048,-0.00421905,0.0
 0277369,0.53779200,0.00000178,-0.00000090,-0.00000667,0.00002092,-0.00
 000485,-0.00000571,0.00009218,-0.00003260,-0.00001714,0.00001558,-0.00
 000586,0.00001785,0.00000088,-0.00001593,-0.00000505,-0.00000242,0.000
 00234,-0.00000064,0.00000515,0.00001174,0.00000744,0.00000824,-0.00000
 292,0.00000067,0.00000188,-0.00000235,-0.00000161,0.00000952,-0.000001
 77,-0.00000356,-0.00017878,-0.00025540,0.00007463,0.00000305,0.0000115
 7,-0.00001007,-0.00123594,0.00158474,-0.00110225,-0.00185289,-0.000012
 62,0.00030109,0.00021296,-0.00017750,0.00007998,0.00471437,0.00462423,
 -0.02014632,-0.05429374,-0.01814501,0.03660407,0.05491649,-0.00000019,
 -0.00000142,0.00002462,-0.00000429,0.00000015,0.00000124,-0.00003885,-
 0.00000752,0.00000468,-0.00001950,0.00000472,-0.00002081,0.00000482,0.
 00000202,0.00000176,-0.00000003,-0.00000126,-0.00000040,-0.00000050,-0
 .00000090,-0.00000481,-0.00000159,0.00000032,-0.00000012,-0.00000012,0
 .00000023,0.00000038,-0.00000126,0.00000055,0.00000087,-0.00001142,0.0
 0009625,-0.00010067,0.00001952,-0.00000423,0.00001243,0.00001415,0.000
 50425,0.00014097,0.00023477,0.00039062,-0.00005461,0.00014046,0.000018
 62,-0.00012548,-0.00769669,-0.01423302,0.02613243,-0.01937807,-0.10964
 596,0.11941489,0.02122977,0.11964004,-0.00001323,-0.00002054,-0.000026
 23,0.00002646,-0.00000647,-0.00000495,0.00013379,0.00004191,0.00000305
 ,-0.00000302,-0.00001275,0.00000816,0.00000196,-0.00001408,-0.00000412
 ,-0.00000337,0.00000159,-0.00000047,0.00000494,0.00001141,0.00000477,0
 .00000710,-0.00000222,0.00000122,0.00000176,-0.00000194,-0.00000151,0.
 00000905,-0.00000158,-0.00000303,-0.00003694,-0.00034174,0.00024382,0.
 00000622,0.00001676,-0.00001133,0.00077124,0.00004768,-0.00006371,0.00
 007019,-0.00008737,0.00066027,0.00006402,0.00013141,-0.00030183,-0.000
 41364,-0.00044791,0.00231696,0.03688432,0.11674326,-0.23963107,-0.0407
 2351,-0.12708561,0.25822786,0.00002212,-0.00004585,-0.00001394,-0.0000
 2258,0.00000810,0.00000660,-0.00012283,0.00006926,0.00001067,0.0000202
 8,-0.00007193,-0.00000843,-0.00002236,0.00002312,0.00000480,0.00000345
 ,-0.00000128,0.00000180,-0.00000659,-0.00001667,-0.00000786,-0.0000110
 0,0.00000338,-0.00000152,-0.00000227,0.00000306,0.00000207,-0.00001243
 ,0.00000146,0.00000375,0.00014876,-0.00004717,0.00000468,-0.00006801,-
 0.00000133,0.00001031,0.00106950,0.00134470,-0.00001992,0.00009275,-0.
 00005220,-0.00003956,0.00010992,-0.00005751,0.00002919,-0.01777084,-0.
 00783463,0.00123790,-0.31204578,-0.06488033,0.01951179,-0.00177866,-0.
 00026083,0.00001274,0.33469865,0.00000131,0.00006164,0.00000610,-0.000
 00539,-0.00000103,-0.00000061,-0.00005951,-0.00008751,-0.00001061,-0.0
 0002280,0.00007751,0.00001077,0.00001545,-0.00000129,-0.00000257,-0.00
 000010,0.00000029,-0.00000212,0.00000020,-0.00000128,0.00000764,0.0000
 0284,-0.00000034,-0.00000011,0.00000028,-0.00000040,-0.00000036,-0.000
 00018,0.00000047,-0.00000023,0.00008942,0.00043893,-0.00003623,0.00006
 150,-0.00001558,-0.00000727,-0.00173350,-0.00182822,0.00014497,-0.0000
 4474,0.00018378,-0.00040549,0.00008350,0.00013652,0.00034666,0.0295383
 6,0.00673493,-0.00247872,-0.07247076,-0.06436350,0.00482207,-0.0145841
 0,-0.00357957,-0.00089184,0.07065287,0.06931512,-0.00000405,-0.0000021
 8,-0.00006367,0.00000630,0.00000063,-0.00000087,-0.00001269,0.00001740
 ,0.00002579,0.00000077,-0.00000822,0.00003634,-0.00000620,0.00000391,0
 .00000014,-0.00000038,0.00000209,-0.00000253,-0.00000024,-0.00000534,0
 .00000703,0.00000154,0.00000011,-0.00000007,0.00000015,0.00000009,-0.0
 0000023,-0.00000130,-0.00000010,-0.00000055,0.00005518,0.00000977,0.00
 027230,-0.00000121,-0.00000076,-0.00001663,-0.00002955,-0.00000595,-0.
 00061674,-0.00017156,-0.00018946,0.00013296,0.00016286,0.00012554,0.00
 022084,-0.00104561,0.00026301,-0.00263701,0.01987028,0.00430198,-0.048
 49123,0.02654510,0.00517306,-0.00027980,-0.02117828,-0.00547235,0.0465
 2624,0.00001067,0.00001688,0.00003740,0.00001867,-0.00000682,-0.000006
 93,0.00007474,-0.00002485,-0.00001733,0.00000769,0.00000361,-0.0000084
 0,0.00000249,-0.00002738,-0.00000934,-0.00000252,-0.00000002,0.0000022
 8,0.00000875,0.00002174,0.00000076,0.00000902,-0.00000399,0.00000101,0
 .00000247,-0.00000310,-0.00000188,0.00001450,-0.00000355,-0.00000368,-
 0.00018138,-0.00022534,-0.00007195,0.00001535,0.00001334,0.00000464,-0
 .00157644,0.00168519,0.00148370,0.00001736,-0.00010781,-0.00008564,-0.
 00195160,-0.00009989,-0.00021197,0.00700044,0.00669156,0.01877338,-0.0
 6658883,-0.03907395,-0.05309450,0.00055444,0.00297567,0.00408739,-0.00
 457776,-0.01722472,-0.02392341,0.06847195,-0.00000203,-0.00000493,-0.0
 0004563,-0.00000195,0.00000177,0.00000222,-0.00008536,0.00000866,0.000
 01491,-0.00001428,-0.00000898,0.00002767,-0.00000403,0.00000851,0.0000
 0329,0.00000033,0.00000104,-0.00000298,-0.00000168,-0.00000944,0.00000
 162,-0.00000147,0.00000098,-0.00000023,-0.00000040,0.00000088,0.000000
 49,-0.00000534,0.00000106,0.00000079,0.00004506,0.00018272,0.00020513,
 0.00001227,-0.00000834,-0.00001852,-0.00003207,0.00054724,-0.00028166,
 0.00010590,0.00000400,0.00010039,0.00026858,0.00060006,0.00022174,-0.0
 1078479,-0.01629199,-0.02234454,-0.03984388,-0.14071030,-0.12800199,0.
 00415216,0.01105397,0.01285571,-0.00074031,-0.00388296,-0.00431952,0.0
 4357735,0.15271600,0.00001092,0.00002261,-0.00002901,-0.00001850,0.000
 00627,0.00000424,-0.00015534,-0.00002865,0.00002356,-0.00000015,0.0000
 1303,0.00001011,-0.00000685,0.00001648,0.00000063,0.00000231,-0.000000
 05,-0.00000136,-0.00000461,-0.00001543,0.00000169,-0.00000546,0.000002
 41,-0.00000086,-0.00000152,0.00000198,0.00000102,-0.00000959,0.0000016
 1,0.00000219,0.00007813,0.00038621,0.00011613,0.00000204,-0.00001895,-
 0.00000685,-0.00080288,-0.00018016,0.00029704,-0.00012460,-0.00013450,
 -0.00050312,0.00025938,0.00010820,0.00064461,0.00071696,0.00242630,0.0
 0257634,-0.05256806,-0.12599017,-0.19937175,-0.00695361,-0.01707851,-0
 .01988099,0.00058192,0.00352474,0.00309399,0.05839304,0.13595495,0.214
 37998,0.00039818,-0.00203444,-0.00066081,-0.00048208,0.00023973,0.0001
 9099,-0.00036165,0.00154259,0.00037253,-0.00265686,-0.00074945,0.00015
 601,-0.00068640,0.00068779,0.00006251,0.00016397,0.00003544,0.00023956
 ,-0.00015595,-0.00037061,-0.00023801,-0.00035053,0.00010947,-0.0000439
 3,-0.00010977,0.00010431,0.00006965,-0.00035752,0.00003885,0.00011605,
 -0.02444881,-0.04916994,0.00086167,-0.00883485,0.00258141,0.00098776,-
 0.08241327,-0.02676563,0.00002589,0.00050245,-0.00391552,0.00459597,-0
 .00214766,-0.00776863,-0.00392770,-0.24614811,0.06338175,0.00236962,-0
 .03179673,0.00063398,0.00086521,-0.00127619,-0.00019635,-0.00042902,-0
 .00255063,0.00608454,-0.00016169,-0.00118060,-0.00016175,0.00066325,0.
 47714356,0.00029587,0.00059125,-0.00002937,-0.00020462,0.00002748,0.00
 005596,0.00242139,-0.00140863,-0.00046793,0.00234333,0.00097597,-0.000
 03025,0.00003635,0.00003710,-0.00007214,0.00001675,0.00001937,0.000044
 05,-0.00001868,-0.00008147,0.00003926,-0.00004637,0.00002460,-0.000009
 56,-0.00002712,0.00002184,0.00001068,-0.00008245,0.00001526,0.00002480
 ,-0.00947461,-0.00181645,0.00045680,0.00096612,0.00098435,0.00006958,-
 0.01314839,-0.17222966,0.00151609,-0.01636519,-0.03071598,0.00107299,-
 0.01596229,-0.02982189,-0.00015738,0.00922556,-0.10674239,0.00093004,0
 .02475124,0.00850649,-0.00058819,-0.00104381,-0.00005518,0.00068029,0.
 00292156,-0.00481349,0.00031092,-0.00136008,0.00032307,-0.00062249,0.0
 9487982,0.35575576,0.00014643,0.00009201,0.00023275,0.00005931,-0.0000
 1570,-0.00001256,-0.00004597,-0.00012199,0.00007824,0.00041746,0.00019
 450,-0.00057334,0.00006011,-0.00008451,-0.00002715,-0.00000900,0.00001
 179,-0.00003592,0.00000941,0.00001495,-0.00000539,0.00000271,0.0000002
 7,-0.00000002,0.00000035,-0.00000328,-0.00000015,0.00000681,0.00000155
 ,-0.00000172,0.00152515,0.00256232,0.00222510,0.00038905,-0.00020287,0
 .00102968,-0.00031127,0.00123762,-0.05949118,0.01436951,0.02309733,0.0
 0515889,-0.01427657,-0.02364974,0.00705732,0.00323329,-0.00028350,-0.0
 4882316,-0.00003604,0.00004426,0.01762544,0.00284590,-0.00245674,-0.00
 019539,0.00004615,0.00031609,0.00206366,-0.00248648,0.00220433,-0.0001
 9346,-0.00940995,-0.00556384,0.06102689,0.00015537,-0.00023022,-0.0001
 8999,-0.00023579,0.00008949,0.00007023,-0.00016150,0.00029754,0.000034
 15,0.00037810,-0.00022037,-0.00001973,-0.00016133,0.00022519,0.0000251
 1,0.00004339,0.00000207,0.00003156,-0.00006474,-0.00017359,-0.00004343
 ,-0.00010903,0.00003731,-0.00001675,-0.00003054,0.00003413,0.00002215,
 -0.00013738,0.00001844,0.00004127,0.00041164,-0.00409432,-0.00009886,-
 0.00157155,0.00033719,0.00015209,0.00129064,0.01227386,-0.00006702,-0.
 00140632,-0.00243779,0.00066294,-0.00150668,-0.00248635,-0.00053842,-0
 .16408530,-0.19987898,0.00639543,0.01338478,0.01029754,0.00050000,0.00
 006116,0.00299052,-0.00045845,0.00282632,-0.00038447,-0.00010604,-0.00
 014942,0.00351770,-0.00005676,-0.07225055,-0.08012439,0.00346366,0.223
 31872,0.00016942,-0.00033570,-0.00021090,-0.00025994,0.00010053,0.0000
 7627,-0.00048559,0.00031791,0.00007961,0.00042742,-0.00044428,-0.00004
 954,-0.00020190,0.00026689,0.00003709,0.00004330,-0.00000612,0.0000305
 7,-0.00007668,-0.00019448,-0.00005410,-0.00012224,0.00004100,-0.000018
 62,-0.00003145,0.00003717,0.00002506,-0.00015012,0.00002051,0.00004544
 ,0.00074488,-0.00294557,-0.00009263,-0.00128965,0.00013997,0.00013225,
 0.00504625,0.01362685,-0.00034530,-0.00110767,-0.00160652,0.00023060,-
 0.00131808,-0.00175791,-0.00006785,-0.17306282,-0.61011966,0.01558022,
 -0.01387505,-0.05178656,0.00238862,0.00266909,-0.00418269,-0.00161597,
 -0.00101746,0.00162596,-0.00020461,0.00317616,-0.00453303,0.00160413,-
 0.07918739,-0.01959739,0.00260514,0.25990951,0.68133312,-0.00001156,0.
 00001443,0.00002450,0.00000805,-0.00000385,-0.00000297,0.00002812,-0.0
 0004189,-0.00000202,-0.00000213,0.00001626,0.00002686,0.00000851,-0.00
 001631,0.00000259,-0.00000126,0.00000054,0.00000061,0.00000309,0.00001
 371,-0.00000212,0.00000469,-0.00000162,0.00000097,0.00000121,-0.000001
 23,-0.00000083,0.00000673,-0.00000145,-0.00000139,-0.00003593,0.000039
 51,0.00021124,0.00002494,0.00000278,-0.00018004,-0.00001999,-0.0003030
 7,0.00735867,-0.00056748,-0.00077958,-0.00026757,0.00078573,0.00104258
 ,-0.00035269,0.00579081,0.01614561,-0.07460209,0.00104269,0.00214767,0
 .02767890,0.00249940,-0.00397958,-0.00106166,-0.00019483,0.00012945,-0
 .00026996,-0.00286209,0.00342181,-0.00116410,0.00329445,0.00232970,0.0
 1286148,-0.00980316,-0.02017550,0.02974161\\-0.00000118,-0.00000451,0.
 00000464,-0.00000271,-0.00000914,0.00001166,-0.00000099,-0.00000258,0.
 00000457,-0.00000205,-0.00000207,0.00001205,0.00000037,-0.00000151,-0.
 00000198,0.00000161,0.00000307,-0.00000813,-0.00000022,-0.00000418,-0.
 00000141,0.00000052,0.00000315,-0.00000134,-0.00000178,-0.00000882,0.0
 0000520,0.00000034,-0.00000841,-0.00000873,0.00000027,-0.00000106,-0.0
 0000372,0.00000149,-0.00000179,-0.00001134,0.00000105,0.00000194,-0.00
 000439,0.00000056,-0.00000481,-0.00000852,0.00000200,0.00000863,-0.000
 00822,-0.00000020,0.00000470,0.00000803,0.00000064,0.00000492,-0.00000
 133,0.00000057,-0.00000227,-0.00000556,0.00000053,0.00000676,0.0000017
 2,0.00000237,0.00001110,-0.00000649,-0.00000122,0.00000215,0.00000630,
 -0.00000196,0.00000472,0.00001698\\\@


 FLOATING POINT NUMBERS ARE LIKE SANDPILES:
 EVERY TIME THAT YOU MOVE ONE, YOU LOSE A LITTLE SAND 
 AND YOU PICK UP A LITTLE DIRT.
 Job cpu time:       0 days  0 hours 19 minutes  2.4 seconds.
 File lengths (MBytes):  RWF=    172 Int=      0 D2E=      0 Chk=     12 Scr=      1
 Normal termination of Gaussian 09 at Thu Aug 27 17:13:22 2020.
