 Entering Gaussian System, Link 0=g09
 Input=b3lyp_cyclohexene_pm6_cpcmtoluene_2_water.com
 Output=b3lyp_cyclohexene_pm6_cpcmtoluene_2_water.log
 Initial command:
 /apps/applications/gaussian/G09.D01/2/default/g09/l1.exe "/local/713522.1.40core-192G.q/Gau-89802.inp" -scrdir="/local/713522.1.40core-192G.q/"
 Entering Link 1 = /apps/applications/gaussian/G09.D01/2/default/g09/l1.exe PID=     89803.
  
 Copyright (c) 1988,1990,1992,1993,1995,1998,2003,2009,2013,
            Gaussian, Inc.  All Rights Reserved.
  
 This is part of the Gaussian(R) 09 program.  It is based on
 the Gaussian(R) 03 system (copyright 2003, Gaussian, Inc.),
 the Gaussian(R) 98 system (copyright 1998, Gaussian, Inc.),
 the Gaussian(R) 94 system (copyright 1995, Gaussian, Inc.),
 the Gaussian 92(TM) system (copyright 1992, Gaussian, Inc.),
 the Gaussian 90(TM) system (copyright 1990, Gaussian, Inc.),
 the Gaussian 88(TM) system (copyright 1988, Gaussian, Inc.),
 the Gaussian 86(TM) system (copyright 1986, Carnegie Mellon
 University), and the Gaussian 82(TM) system (copyright 1983,
 Carnegie Mellon University). Gaussian is a federally registered
 trademark of Gaussian, Inc.
  
 This software contains proprietary and confidential information,
 including trade secrets, belonging to Gaussian, Inc.
  
 This software is provided under written license and may be
 used, copied, transmitted, or stored only in accord with that
 written license.
  
 The following legend is applicable only to US Government
 contracts under FAR:
  
                    RESTRICTED RIGHTS LEGEND
  
 Use, reproduction and disclosure by the US Government is
 subject to restrictions as set forth in subparagraphs (a)
 and (c) of the Commercial Computer Software - Restricted
 Rights clause in FAR 52.227-19.
  
 Gaussian, Inc.
 340 Quinnipiac St., Bldg. 40, Wallingford CT 06492
  
  
 ---------------------------------------------------------------
 Warning -- This program may not be used in any manner that
 competes with the business of Gaussian, Inc. or will provide
 assistance to any competitor of Gaussian, Inc.  The licensee
 of this program is prohibited from giving any competitor of
 Gaussian, Inc. access to this program.  By using this program,
 the user acknowledges that Gaussian, Inc. is engaged in the
 business of creating and licensing software in the field of
 computational chemistry and represents and warrants to the
 licensee that it is not a competitor of Gaussian, Inc. and that
 it will not use this program in any manner prohibited above.
 ---------------------------------------------------------------
  

 Cite this work as:
 Gaussian 09, Revision D.01,
 M. J. Frisch, G. W. Trucks, H. B. Schlegel, G. E. Scuseria, 
 M. A. Robb, J. R. Cheeseman, G. Scalmani, V. Barone, B. Mennucci, 
 G. A. Petersson, H. Nakatsuji, M. Caricato, X. Li, H. P. Hratchian, 
 A. F. Izmaylov, J. Bloino, G. Zheng, J. L. Sonnenberg, M. Hada, 
 M. Ehara, K. Toyota, R. Fukuda, J. Hasegawa, M. Ishida, T. Nakajima, 
 Y. Honda, O. Kitao, H. Nakai, T. Vreven, J. A. Montgomery, Jr., 
 J. E. Peralta, F. Ogliaro, M. Bearpark, J. J. Heyd, E. Brothers, 
 K. N. Kudin, V. N. Staroverov, T. Keith, R. Kobayashi, J. Normand, 
 K. Raghavachari, A. Rendell, J. C. Burant, S. S. Iyengar, J. Tomasi, 
 M. Cossi, N. Rega, J. M. Millam, M. Klene, J. E. Knox, J. B. Cross, 
 V. Bakken, C. Adamo, J. Jaramillo, R. Gomperts, R. E. Stratmann, 
 O. Yazyev, A. J. Austin, R. Cammi, C. Pomelli, J. W. Ochterski, 
 R. L. Martin, K. Morokuma, V. G. Zakrzewski, G. A. Voth, 
 P. Salvador, J. J. Dannenberg, S. Dapprich, A. D. Daniels, 
 O. Farkas, J. B. Foresman, J. V. Ortiz, J. Cioslowski, 
 and D. J. Fox, Gaussian, Inc., Wallingford CT, 2013.
 
 ******************************************
 Gaussian 09:  ES64L-G09RevD.01 24-Apr-2013
                27-Aug-2020 
 ******************************************
 %nprocshared=4
 Will use up to    4 processors via shared memory.
 %chk=b3lyp_cyclohexene_pm6_cpcmtoluene_2_water.chk
 ----------------------------------------------------------------------
 # opt freq b3lyp/6-31+g(d,p) scrf=(cpcm,solvent=water) geom=connectivi
 ty empiricaldispersion=gd3
 ----------------------------------------------------------------------
 1/14=-1,18=20,19=15,26=3,38=1,57=2/1,3;
 2/9=110,12=2,17=6,18=5,40=1/2;
 3/5=1,6=6,7=111,11=2,16=1,25=1,30=1,70=2101,71=1,72=1,74=-5,124=31/1,2,3;
 4//1;
 5/5=2,38=5,53=1/2;
 6/7=2,8=2,9=2,10=2,28=1/1;
 7//1,2,3,16;
 1/14=-1,18=20,19=15,26=3/3(2);
 2/9=110/2;
 99//99;
 2/9=110/2;
 3/5=1,6=6,7=111,11=2,16=1,25=1,30=1,70=2105,71=1,72=1,74=-5,124=31/1,2,3;
 4/5=5,16=3,69=1/1;
 5/5=2,38=5,53=1/2;
 7//1,2,3,16;
 1/14=-1,18=20,19=15,26=3/3(-5);
 2/9=110/2;
 6/7=2,8=2,9=2,10=2,19=2,28=1/1;
 99/9=1/99;
 -------------------
 Title Card Required
 -------------------
 Symbolic Z-matrix:
 Charge =  0 Multiplicity = 1
 C                    -2.8838    0.25434  -0.21289 
 C                    -1.55436   0.84508  -0.69982 
 C                    -0.56497  -0.3506   -0.74793 
 C                    -1.35188  -1.55891  -0.21953 
 H                    -1.71106   1.22821  -1.74056 
 H                    -0.30769  -0.56493  -1.81827 
 C                    -3.74087  -2.02894   0.55319 
 H                    -3.74036  -2.04033   1.65752 
 H                    -4.73409  -1.69037   0.20856 
 H                    -3.5775   -3.06087   0.19453 
 N                    -2.68621  -1.13345   0.0376 
 O                    -0.9636   -2.69034  -0.05331 
 O                    -3.94196   0.81844  -0.06184 
 C                     0.73978  -0.19489   0.06057 
 H                     1.11307  -1.22561   0.32029 
 C                    -1.16384   2.03736   0.20996 
 H                    -2.11818   2.50324   0.58188 
 C                    -0.34999   1.59282   1.39694 
 H                    -0.50794   2.16365   2.31074 
 C                     0.5181    0.58157   1.32969 
 H                     1.1237    0.26921   2.17852 
 C                    -0.40148   3.10848  -0.57741 
 H                    -0.99083   3.49567  -1.41593 
 H                    -0.14733   3.96192   0.06382 
 H                     0.54738   2.72142  -0.98507 
 C                     1.81467   0.48456  -0.80829 
 H                     1.9634   -0.03006  -1.77348 
 H                     1.61187   1.56807  -0.96867 
 C                     3.87741  -0.59967  -0.09959 
 C                     5.08381  -0.34058   0.72418 
 H                     5.16079  -1.06659   1.55162 
 H                     6.00385  -0.4412    0.12361 
 H                     5.09038   0.66785   1.17032 
 O                     3.56722  -1.58951  -0.72362 
 O                     3.07441   0.52278  -0.08335 
 

 GradGradGradGradGradGradGradGradGradGradGradGradGradGradGradGradGradGrad
 Berny optimization.
 Initialization pass.
                           ----------------------------
                           !    Initial Parameters    !
                           ! (Angstroms and Degrees)  !
 --------------------------                            --------------------------
 ! Name  Definition              Value          Derivative Info.                !
 --------------------------------------------------------------------------------
 ! R1    R(1,2)                  1.5341         estimate D2E/DX2                !
 ! R2    R(1,11)                 1.424          estimate D2E/DX2                !
 ! R3    R(1,13)                 1.2086         estimate D2E/DX2                !
 ! R4    R(2,3)                  1.5527         estimate D2E/DX2                !
 ! R5    R(2,5)                  1.12           estimate D2E/DX2                !
 ! R6    R(2,16)                 1.5498         estimate D2E/DX2                !
 ! R7    R(3,4)                  1.5357         estimate D2E/DX2                !
 ! R8    R(3,6)                  1.1215         estimate D2E/DX2                !
 ! R9    R(3,14)                 1.5428         estimate D2E/DX2                !
 ! R10   R(4,11)                 1.4239         estimate D2E/DX2                !
 ! R11   R(4,12)                 1.2077         estimate D2E/DX2                !
 ! R12   R(7,8)                  1.1044         estimate D2E/DX2                !
 ! R13   R(7,9)                  1.1045         estimate D2E/DX2                !
 ! R14   R(7,10)                 1.1046         estimate D2E/DX2                !
 ! R15   R(7,11)                 1.4765         estimate D2E/DX2                !
 ! R16   R(14,15)                1.1266         estimate D2E/DX2                !
 ! R17   R(14,20)                1.5042         estimate D2E/DX2                !
 ! R18   R(14,26)                1.5401         estimate D2E/DX2                !
 ! R19   R(16,17)                1.1252         estimate D2E/DX2                !
 ! R20   R(16,18)                1.5063         estimate D2E/DX2                !
 ! R21   R(16,22)                1.5325         estimate D2E/DX2                !
 ! R22   R(18,19)                1.089          estimate D2E/DX2                !
 ! R23   R(18,20)                1.3344         estimate D2E/DX2                !
 ! R24   R(20,21)                1.0885         estimate D2E/DX2                !
 ! R25   R(22,23)                1.0956         estimate D2E/DX2                !
 ! R26   R(22,24)                1.0973         estimate D2E/DX2                !
 ! R27   R(22,25)                1.1029         estimate D2E/DX2                !
 ! R28   R(26,27)                1.1039         estimate D2E/DX2                !
 ! R29   R(26,28)                1.1139         estimate D2E/DX2                !
 ! R30   R(26,35)                1.4539         estimate D2E/DX2                !
 ! R31   R(29,30)                1.4836         estimate D2E/DX2                !
 ! R32   R(29,34)                1.2105         estimate D2E/DX2                !
 ! R33   R(29,35)                1.3802         estimate D2E/DX2                !
 ! R34   R(30,31)                1.1035         estimate D2E/DX2                !
 ! R35   R(30,32)                1.1033         estimate D2E/DX2                !
 ! R36   R(30,33)                1.1027         estimate D2E/DX2                !
 ! A1    A(2,1,11)             108.112          estimate D2E/DX2                !
 ! A2    A(2,1,13)             128.2179         estimate D2E/DX2                !
 ! A3    A(11,1,13)            123.6674         estimate D2E/DX2                !
 ! A4    A(1,2,3)              105.3966         estimate D2E/DX2                !
 ! A5    A(1,2,5)              107.7834         estimate D2E/DX2                !
 ! A6    A(1,2,16)             109.1648         estimate D2E/DX2                !
 ! A7    A(3,2,5)              108.8915         estimate D2E/DX2                !
 ! A8    A(3,2,16)             116.7473         estimate D2E/DX2                !
 ! A9    A(5,2,16)             108.5163         estimate D2E/DX2                !
 ! A10   A(2,3,4)              105.5885         estimate D2E/DX2                !
 ! A11   A(2,3,6)              108.8391         estimate D2E/DX2                !
 ! A12   A(2,3,14)             116.4188         estimate D2E/DX2                !
 ! A13   A(4,3,6)              107.1908         estimate D2E/DX2                !
 ! A14   A(4,3,14)             109.4168         estimate D2E/DX2                !
 ! A15   A(6,3,14)             108.9909         estimate D2E/DX2                !
 ! A16   A(3,4,11)             107.8902         estimate D2E/DX2                !
 ! A17   A(3,4,12)             128.2969         estimate D2E/DX2                !
 ! A18   A(11,4,12)            123.8037         estimate D2E/DX2                !
 ! A19   A(8,7,9)              108.396          estimate D2E/DX2                !
 ! A20   A(8,7,10)             108.3588         estimate D2E/DX2                !
 ! A21   A(8,7,11)             110.8003         estimate D2E/DX2                !
 ! A22   A(9,7,10)             108.5447         estimate D2E/DX2                !
 ! A23   A(9,7,11)             110.3322         estimate D2E/DX2                !
 ! A24   A(10,7,11)            110.3386         estimate D2E/DX2                !
 ! A25   A(1,11,4)             112.9209         estimate D2E/DX2                !
 ! A26   A(1,11,7)             123.6004         estimate D2E/DX2                !
 ! A27   A(4,11,7)             123.4485         estimate D2E/DX2                !
 ! A28   A(3,14,15)            107.9801         estimate D2E/DX2                !
 ! A29   A(3,14,20)            111.6909         estimate D2E/DX2                !
 ! A30   A(3,14,26)            109.8234         estimate D2E/DX2                !
 ! A31   A(15,14,20)           109.0621         estimate D2E/DX2                !
 ! A32   A(15,14,26)           107.6036         estimate D2E/DX2                !
 ! A33   A(20,14,26)           110.555          estimate D2E/DX2                !
 ! A34   A(2,16,17)            107.3885         estimate D2E/DX2                !
 ! A35   A(2,16,18)            111.8209         estimate D2E/DX2                !
 ! A36   A(2,16,22)            111.1904         estimate D2E/DX2                !
 ! A37   A(17,16,18)           108.6612         estimate D2E/DX2                !
 ! A38   A(17,16,22)           107.5993         estimate D2E/DX2                !
 ! A39   A(18,16,22)           110.0212         estimate D2E/DX2                !
 ! A40   A(16,18,19)           115.3528         estimate D2E/DX2                !
 ! A41   A(16,18,20)           122.372          estimate D2E/DX2                !
 ! A42   A(19,18,20)           122.2691         estimate D2E/DX2                !
 ! A43   A(14,20,18)           121.9757         estimate D2E/DX2                !
 ! A44   A(14,20,21)           115.3289         estimate D2E/DX2                !
 ! A45   A(18,20,21)           122.6899         estimate D2E/DX2                !
 ! A46   A(16,22,23)           111.8782         estimate D2E/DX2                !
 ! A47   A(16,22,24)           111.0134         estimate D2E/DX2                !
 ! A48   A(16,22,25)           111.8767         estimate D2E/DX2                !
 ! A49   A(23,22,24)           107.2753         estimate D2E/DX2                !
 ! A50   A(23,22,25)           107.694          estimate D2E/DX2                !
 ! A51   A(24,22,25)           106.8397         estimate D2E/DX2                !
 ! A52   A(14,26,27)           112.4354         estimate D2E/DX2                !
 ! A53   A(14,26,28)           112.5367         estimate D2E/DX2                !
 ! A54   A(14,26,35)           109.5736         estimate D2E/DX2                !
 ! A55   A(27,26,28)           110.6158         estimate D2E/DX2                !
 ! A56   A(27,26,35)           109.3585         estimate D2E/DX2                !
 ! A57   A(28,26,35)           101.7687         estimate D2E/DX2                !
 ! A58   A(30,29,34)           129.5969         estimate D2E/DX2                !
 ! A59   A(30,29,35)           108.9375         estimate D2E/DX2                !
 ! A60   A(34,29,35)           121.4639         estimate D2E/DX2                !
 ! A61   A(29,30,31)           110.988          estimate D2E/DX2                !
 ! A62   A(29,30,32)           111.0953         estimate D2E/DX2                !
 ! A63   A(29,30,33)           112.904          estimate D2E/DX2                !
 ! A64   A(31,30,32)           106.8566         estimate D2E/DX2                !
 ! A65   A(31,30,33)           107.3303         estimate D2E/DX2                !
 ! A66   A(32,30,33)           107.3772         estimate D2E/DX2                !
 ! A67   A(26,35,29)           118.4795         estimate D2E/DX2                !
 ! D1    D(11,1,2,3)             1.5739         estimate D2E/DX2                !
 ! D2    D(11,1,2,5)           117.7422         estimate D2E/DX2                !
 ! D3    D(11,1,2,16)         -124.5765         estimate D2E/DX2                !
 ! D4    D(13,1,2,3)          -177.843          estimate D2E/DX2                !
 ! D5    D(13,1,2,5)           -61.6748         estimate D2E/DX2                !
 ! D6    D(13,1,2,16)           56.0065         estimate D2E/DX2                !
 ! D7    D(2,1,11,4)             0.3624         estimate D2E/DX2                !
 ! D8    D(2,1,11,7)           178.4192         estimate D2E/DX2                !
 ! D9    D(13,1,11,4)          179.812          estimate D2E/DX2                !
 ! D10   D(13,1,11,7)           -2.1311         estimate D2E/DX2                !
 ! D11   D(1,2,3,4)             -2.7567         estimate D2E/DX2                !
 ! D12   D(1,2,3,6)            112.0399         estimate D2E/DX2                !
 ! D13   D(1,2,3,14)          -124.3566         estimate D2E/DX2                !
 ! D14   D(5,2,3,4)           -118.1648         estimate D2E/DX2                !
 ! D15   D(5,2,3,6)             -3.3682         estimate D2E/DX2                !
 ! D16   D(5,2,3,14)           120.2353         estimate D2E/DX2                !
 ! D17   D(16,2,3,4)           118.5819         estimate D2E/DX2                !
 ! D18   D(16,2,3,6)          -126.6215         estimate D2E/DX2                !
 ! D19   D(16,2,3,14)           -3.018          estimate D2E/DX2                !
 ! D20   D(1,2,16,17)          -30.2632         estimate D2E/DX2                !
 ! D21   D(1,2,16,18)           88.8515         estimate D2E/DX2                !
 ! D22   D(1,2,16,22)         -147.7292         estimate D2E/DX2                !
 ! D23   D(3,2,16,17)         -149.5981         estimate D2E/DX2                !
 ! D24   D(3,2,16,18)          -30.4834         estimate D2E/DX2                !
 ! D25   D(3,2,16,22)           92.9359         estimate D2E/DX2                !
 ! D26   D(5,2,16,17)           86.9556         estimate D2E/DX2                !
 ! D27   D(5,2,16,18)         -153.9297         estimate D2E/DX2                !
 ! D28   D(5,2,16,22)          -30.5104         estimate D2E/DX2                !
 ! D29   D(2,3,4,11)             3.0375         estimate D2E/DX2                !
 ! D30   D(2,3,4,12)          -178.0432         estimate D2E/DX2                !
 ! D31   D(6,3,4,11)          -112.89           estimate D2E/DX2                !
 ! D32   D(6,3,4,12)            66.0293         estimate D2E/DX2                !
 ! D33   D(14,3,4,11)          129.0609         estimate D2E/DX2                !
 ! D34   D(14,3,4,12)          -52.0198         estimate D2E/DX2                !
 ! D35   D(2,3,14,15)          154.8688         estimate D2E/DX2                !
 ! D36   D(2,3,14,20)           34.9604         estimate D2E/DX2                !
 ! D37   D(2,3,14,26)          -88.0678         estimate D2E/DX2                !
 ! D38   D(4,3,14,15)           35.3126         estimate D2E/DX2                !
 ! D39   D(4,3,14,20)          -84.5959         estimate D2E/DX2                !
 ! D40   D(4,3,14,26)          152.376          estimate D2E/DX2                !
 ! D41   D(6,3,14,15)          -81.6061         estimate D2E/DX2                !
 ! D42   D(6,3,14,20)          158.4855         estimate D2E/DX2                !
 ! D43   D(6,3,14,26)           35.4573         estimate D2E/DX2                !
 ! D44   D(3,4,11,1)            -2.1866         estimate D2E/DX2                !
 ! D45   D(3,4,11,7)           179.7532         estimate D2E/DX2                !
 ! D46   D(12,4,11,1)          178.8341         estimate D2E/DX2                !
 ! D47   D(12,4,11,7)            0.7739         estimate D2E/DX2                !
 ! D48   D(8,7,11,1)           -89.2268         estimate D2E/DX2                !
 ! D49   D(8,7,11,4)            88.6281         estimate D2E/DX2                !
 ! D50   D(9,7,11,1)            30.8246         estimate D2E/DX2                !
 ! D51   D(9,7,11,4)          -151.3205         estimate D2E/DX2                !
 ! D52   D(10,7,11,1)          150.764          estimate D2E/DX2                !
 ! D53   D(10,7,11,4)          -31.3811         estimate D2E/DX2                !
 ! D54   D(3,14,20,18)         -35.3383         estimate D2E/DX2                !
 ! D55   D(3,14,20,21)         145.4909         estimate D2E/DX2                !
 ! D56   D(15,14,20,18)       -154.6084         estimate D2E/DX2                !
 ! D57   D(15,14,20,21)         26.2208         estimate D2E/DX2                !
 ! D58   D(26,14,20,18)         87.2728         estimate D2E/DX2                !
 ! D59   D(26,14,20,21)        -91.898          estimate D2E/DX2                !
 ! D60   D(3,14,26,27)         -53.2117         estimate D2E/DX2                !
 ! D61   D(3,14,26,28)          72.5039         estimate D2E/DX2                !
 ! D62   D(3,14,26,35)        -175.0436         estimate D2E/DX2                !
 ! D63   D(15,14,26,27)         64.087          estimate D2E/DX2                !
 ! D64   D(15,14,26,28)       -170.1974         estimate D2E/DX2                !
 ! D65   D(15,14,26,35)        -57.7449         estimate D2E/DX2                !
 ! D66   D(20,14,26,27)       -176.9064         estimate D2E/DX2                !
 ! D67   D(20,14,26,28)        -51.1908         estimate D2E/DX2                !
 ! D68   D(20,14,26,35)         61.2617         estimate D2E/DX2                !
 ! D69   D(2,16,18,19)        -146.5767         estimate D2E/DX2                !
 ! D70   D(2,16,18,20)          34.3051         estimate D2E/DX2                !
 ! D71   D(17,16,18,19)        -28.2173         estimate D2E/DX2                !
 ! D72   D(17,16,18,20)        152.6646         estimate D2E/DX2                !
 ! D73   D(22,16,18,19)         89.346          estimate D2E/DX2                !
 ! D74   D(22,16,18,20)        -89.7722         estimate D2E/DX2                !
 ! D75   D(2,16,22,23)          58.8432         estimate D2E/DX2                !
 ! D76   D(2,16,22,24)         178.6489         estimate D2E/DX2                !
 ! D77   D(2,16,22,25)         -62.0989         estimate D2E/DX2                !
 ! D78   D(17,16,22,23)        -58.4946         estimate D2E/DX2                !
 ! D79   D(17,16,22,24)         61.3111         estimate D2E/DX2                !
 ! D80   D(17,16,22,25)       -179.4367         estimate D2E/DX2                !
 ! D81   D(18,16,22,23)       -176.7148         estimate D2E/DX2                !
 ! D82   D(18,16,22,24)        -56.9091         estimate D2E/DX2                !
 ! D83   D(18,16,22,25)         62.3431         estimate D2E/DX2                !
 ! D84   D(16,18,20,14)         -0.4002         estimate D2E/DX2                !
 ! D85   D(16,18,20,21)        178.7093         estimate D2E/DX2                !
 ! D86   D(19,18,20,14)       -179.4577         estimate D2E/DX2                !
 ! D87   D(19,18,20,21)         -0.3483         estimate D2E/DX2                !
 ! D88   D(14,26,35,29)         82.6578         estimate D2E/DX2                !
 ! D89   D(27,26,35,29)        -41.0011         estimate D2E/DX2                !
 ! D90   D(28,26,35,29)       -158.0281         estimate D2E/DX2                !
 ! D91   D(34,29,30,31)        -59.8031         estimate D2E/DX2                !
 ! D92   D(34,29,30,32)         58.94           estimate D2E/DX2                !
 ! D93   D(34,29,30,33)        179.6372         estimate D2E/DX2                !
 ! D94   D(35,29,30,31)        120.6789         estimate D2E/DX2                !
 ! D95   D(35,29,30,32)       -120.5779         estimate D2E/DX2                !
 ! D96   D(35,29,30,33)          0.1193         estimate D2E/DX2                !
 ! D97   D(30,29,35,26)       -178.7721         estimate D2E/DX2                !
 ! D98   D(34,29,35,26)          1.6633         estimate D2E/DX2                !
 --------------------------------------------------------------------------------
 Trust Radius=3.00D-01 FncErr=1.00D-07 GrdErr=1.00D-06
 Number of steps in this run=    210 maximum allowed number of steps=    210.
 GradGradGradGradGradGradGradGradGradGradGradGradGradGradGradGradGradGrad

                          Input orientation:                          
 ---------------------------------------------------------------------
 Center     Atomic      Atomic             Coordinates (Angstroms)
 Number     Number       Type             X           Y           Z
 ---------------------------------------------------------------------
      1          6           0       -2.883796    0.254338   -0.212888
      2          6           0       -1.554364    0.845080   -0.699824
      3          6           0       -0.564971   -0.350597   -0.747927
      4          6           0       -1.351875   -1.558913   -0.219534
      5          1           0       -1.711060    1.228208   -1.740558
      6          1           0       -0.307694   -0.564925   -1.818273
      7          6           0       -3.740865   -2.028939    0.553190
      8          1           0       -3.740361   -2.040331    1.657517
      9          1           0       -4.734095   -1.690369    0.208559
     10          1           0       -3.577503   -3.060867    0.194531
     11          7           0       -2.686213   -1.133446    0.037597
     12          8           0       -0.963595   -2.690337   -0.053308
     13          8           0       -3.941955    0.818439   -0.061842
     14          6           0        0.739778   -0.194886    0.060570
     15          1           0        1.113066   -1.225612    0.320288
     16          6           0       -1.163844    2.037359    0.209955
     17          1           0       -2.118184    2.503241    0.581880
     18          6           0       -0.349992    1.592816    1.396942
     19          1           0       -0.507941    2.163652    2.310735
     20          6           0        0.518099    0.581574    1.329688
     21          1           0        1.123695    0.269206    2.178524
     22          6           0       -0.401478    3.108484   -0.577413
     23          1           0       -0.990828    3.495673   -1.415930
     24          1           0       -0.147333    3.961923    0.063819
     25          1           0        0.547383    2.721416   -0.985073
     26          6           0        1.814672    0.484562   -0.808288
     27          1           0        1.963403   -0.030055   -1.773480
     28          1           0        1.611867    1.568068   -0.968669
     29          6           0        3.877408   -0.599668   -0.099585
     30          6           0        5.083807   -0.340576    0.724175
     31          1           0        5.160793   -1.066595    1.551615
     32          1           0        6.003851   -0.441204    0.123610
     33          1           0        5.090382    0.667853    1.170319
     34          8           0        3.567219   -1.589506   -0.723619
     35          8           0        3.074405    0.522784   -0.083351
 ---------------------------------------------------------------------
                    Distance matrix (angstroms):
                    1          2          3          4          5
     1  C    0.000000
     2  C    1.534103   0.000000
     3  C    2.455435   1.552693   0.000000
     4  C    2.373753   2.459850   1.535723   0.000000
     5  H    2.158126   1.120030   2.188941   3.195398   0.000000
     6  H    3.144003   2.189344   1.121503   2.152741   2.278333
     7  C    2.556325   3.822410   3.820476   2.554467   4.471062
     8  H    3.081822   4.319865   4.327177   3.075703   5.133062
     9  H    2.717188   4.167055   4.482349   3.411738   4.632050
    10  H    3.411423   4.488807   4.160425   2.716751   5.062049
    11  N    1.423983   2.395712   2.393652   1.423937   3.112903
    12  O    3.519055   3.642275   2.473010   1.207689   4.331341
    13  O    1.208605   2.471502   3.638871   3.519259   2.821859
    14  C    3.661539   2.631124   1.542817   2.512775   3.357956
    15  H    4.295280   3.527545   2.173141   2.545276   4.271300
    16  C    2.513204   1.549753   2.641689   3.626705   2.181438
    17  H    2.505071   2.170289   3.510733   4.210771   2.680518
    18  C    3.286828   2.531017   2.902332   3.681054   3.439382
    19  H    3.957125   3.449217   3.959812   4.579517   4.328455
    20  C    3.749602   2.912638   2.521600   3.237063   3.848856
    21  H    4.666804   3.973477   3.435093   3.901429   4.930996
    22  C    3.800122   2.543055   3.467138   4.776602   2.569698
    23  H    3.941686   2.802860   3.927006   5.206780   2.401149
    24  H    4.616382   3.503940   4.408081   5.657812   3.629630
    25  H    4.296014   2.831845   3.275795   4.744939   2.810870
    26  C    4.741635   3.390006   2.522664   3.814373   3.721951
    27  H    5.100163   3.780646   2.747213   3.967773   3.884068
    28  H    4.744268   3.258835   2.910090   4.372983   3.428288
    29  C    6.815867   5.652586   4.496345   5.317889   6.104498
    30  C    8.044545   6.891942   5.837455   6.617623   7.396365
    31  H    8.341088   7.335994   6.211676   6.767140   7.957819
    32  H    8.921170   7.710978   6.627006   7.448069   8.110605
    33  H    8.103812   6.905179   6.058046   6.956497   7.419354
    34  O    6.728759   5.670837   4.313987   4.944949   6.069094
    35  O    5.965652   4.680750   3.801252   4.893257   5.113182
                    6          7          8          9         10
     6  H    0.000000
     7  C    4.421972   0.000000
     8  H    5.103052   1.104386   0.000000
     9  H    4.996769   1.104494   1.791497   0.000000
    10  H    4.579602   1.104626   1.791185   1.793367   0.000000
    11  N    3.069987   1.476494   2.134903   2.129134   2.129314
    12  O    2.839487   2.918650   3.325637   3.909627   2.651647
    13  O    4.266919   2.919977   3.342065   2.644753   3.904813
    14  C    2.182700   4.866476   5.101721   5.676412   5.183696
    15  H    2.651134   4.925467   5.099775   5.866666   5.038394
    16  C    3.408604   4.826347   5.036013   5.161652   5.640735
    17  H    4.295608   4.813998   4.942924   4.956685   5.765323
    18  C    3.872369   5.032598   4.976169   5.604634   5.789593
    19  H    4.953175   5.578403   5.343099   6.093685   6.418421
    20  C    3.450515   5.055344   5.011620   5.831312   5.597313
    21  H    4.326550   5.620242   5.409663   6.483394   6.093183
    22  C    3.878461   6.230801   6.530953   6.512934   6.981685
    23  H    4.137271   6.477768   6.903140   6.598943   7.229985
    24  H    4.905134   7.003098   7.174732   7.280641   7.816824
    25  H    3.496486   6.581884   6.931253   6.984455   7.200066
    26  C    2.574088   6.247824   6.581312   6.975002   6.530794
    27  H    2.333661   6.476697   6.953120   7.179248   6.615174
    28  H    2.992691   6.626179   6.968769   7.230111   7.050506
    29  C    4.524398   7.778625   7.949423   8.685768   7.856189
    30  C    5.965120   8.986359   9.034724   9.923659   9.093888
    31  H    6.442994   9.009022   8.954882  10.005084   9.065132
    32  H    6.604681   9.882557   9.992985  10.810694   9.933278
    33  H    6.292110   9.254429   9.249521  10.149214   9.486187
    34  O    4.154875   7.431785   7.698947   8.354097   7.352207
    35  O    3.953689   7.305093   7.486068   8.121326   7.560929
                   11         12         13         14         15
    11  N    0.000000
    12  O    2.323701   0.000000
    13  O    2.323065   4.602414   0.000000
    14  C    3.552300   3.023528   4.791705   0.000000
    15  H    3.810896   2.568563   5.466023   1.126585   0.000000
    16  C    3.521551   4.739253   3.045905   2.937518   3.980386
    17  H    3.720805   5.358152   2.564971   3.964795   4.941027
    18  C    3.839043   4.563456   3.953468   2.483821   3.353097
    19  H    4.558824   5.418259   4.385336   3.490379   4.251665
    20  C    3.857254   3.848831   4.678092   1.504225   2.153786
    21  H    4.589815   4.254027   5.566121   2.201932   2.384876
    22  C    4.857182   5.849529   4.247952   3.552709   4.678044
    23  H    5.139632   6.334367   4.208359   4.335352   5.452647
    24  H    5.692924   6.703176   4.929142   4.250416   5.344614
    25  H    5.134390   5.695464   4.962644   3.104062   4.195592
    26  C    4.857102   4.285878   5.814414   1.540117   2.165786
    27  H    5.110421   4.313167   6.206682   2.210920   2.556618
    28  H    5.175349   5.060129   5.677078   2.219883   3.116867
    29  C    6.586718   5.273362   7.947005   3.167684   2.865255
    30  C    7.840487   6.534289   9.133757   4.396838   4.088178
    31  H    7.992010   6.536088   9.434862   4.746416   4.233857
    32  H    8.718016   7.323606  10.026971   5.270210   4.957192
    33  H    8.062454   7.030316   9.117237   4.572047   4.486291
    34  O    6.316079   4.710565   7.913523   3.248744   2.691659
    35  O    5.995202   5.160474   7.022619   2.446681   2.658320
                   16         17         18         19         20
    16  C    0.000000
    17  H    1.125228   0.000000
    18  C    1.506291   2.149349   0.000000
    19  H    2.204413   2.386869   1.088953   0.000000
    20  C    2.490390   3.346940   1.334435   2.125602   0.000000
    21  H    3.497780   4.248525   2.129452   2.503726   1.088505
    22  C    1.532468   2.158091   2.489574   3.040632   3.296654
    23  H    2.190917   2.499419   3.455978   3.986915   4.278697
    24  H    2.181421   2.506071   2.725978   2.900422   3.670420
    25  H    2.196434   3.099708   2.784424   3.505305   3.152443
    26  C    3.509922   4.634111   3.282840   4.235821   2.502290
    27  H    4.241213   5.350202   4.247009   5.253637   3.477448
    28  H    3.051878   4.146327   3.073373   3.950038   2.729825
    29  C    5.697714   6.785246   4.991742   5.716368   3.837071
    30  C    6.704636   7.744431   5.806616   6.328979   4.697094
    31  H    7.171863   8.165024   6.120878   6.568509   4.931564
    32  H    7.584628   8.651429   6.791902   7.346579   5.709131
    33  H    6.474040   7.461792   5.523095   5.905860   4.575873
    34  O    6.033960   7.125918   5.474349   6.316679   4.269285
    35  O    4.510291   5.597117   3.881073   4.610564   2.921444
                   21         22         23         24         25
    21  H    0.000000
    22  C    4.240618   0.000000
    23  H    5.272703   1.095609   0.000000
    24  H    4.441131   1.097327   1.765936   0.000000
    25  H    4.043985   1.102881   1.775163   1.766823   0.000000
    26  C    3.073251   3.442323   4.160150   4.086817   2.576973
    27  H    4.051296   4.107757   4.613684   4.875117   3.193320
    28  H    3.439503   2.565058   3.269514   3.145053   1.569588
    29  C    3.677996   5.682216   6.496484   6.085504   4.785682
    30  C    4.262564   6.608971   7.496536   6.805321   5.733800
    31  H    4.298318   7.273438   8.213590   7.461617   6.485936
    32  H    5.342591   7.356627   8.172804   7.564930   6.403467
    33  H    4.112177   6.258736   7.187932   6.285610   5.431544
    34  O    4.224696   6.151670   6.863974   6.725795   5.269897
    35  O    2.997607   4.360241   5.209602   4.714757   3.468851
                   26         27         28         29         30
    26  C    0.000000
    27  H    1.103878   0.000000
    28  H    1.113929   1.823539   0.000000
    29  C    2.435712   2.605724   3.253777   0.000000
    30  C    3.703585   4.008943   4.308481   1.483613   0.000000
    31  H    4.378556   4.727999   5.088041   2.142792   1.103489
    32  H    4.390296   4.482545   4.951744   2.143988   1.103307
    33  H    3.831287   4.350980   4.181593   2.165773   1.102731
    34  O    2.716680   2.471097   3.722059   1.210543   2.440486
    35  O    1.453933   2.096781   2.003852   1.380209   2.331348
                   31         32         33         34         35
    31  H    0.000000
    32  H    1.772303   0.000000
    33  H    1.777260   1.777648   0.000000
    34  O    2.826589   2.823751   3.317031   0.000000
    35  O    3.090672   3.090916   2.378423   2.261543   0.000000
 Stoichiometry    C13H17NO4
 Framework group  C1[X(C13H17NO4)]
 Deg. of freedom    99
 Full point group                 C1      NOp   1
 Largest Abelian subgroup         C1      NOp   1
 Largest concise Abelian subgroup C1      NOp   1
                         Standard orientation:                         
 ---------------------------------------------------------------------
 Center     Atomic      Atomic             Coordinates (Angstroms)
 Number     Number       Type             X           Y           Z
 ---------------------------------------------------------------------
      1          6           0       -2.883796    0.254338   -0.212888
      2          6           0       -1.554364    0.845080   -0.699824
      3          6           0       -0.564971   -0.350597   -0.747927
      4          6           0       -1.351875   -1.558913   -0.219534
      5          1           0       -1.711060    1.228208   -1.740558
      6          1           0       -0.307694   -0.564925   -1.818273
      7          6           0       -3.740865   -2.028939    0.553190
      8          1           0       -3.740361   -2.040331    1.657517
      9          1           0       -4.734095   -1.690369    0.208559
     10          1           0       -3.577503   -3.060867    0.194531
     11          7           0       -2.686213   -1.133446    0.037597
     12          8           0       -0.963595   -2.690337   -0.053308
     13          8           0       -3.941955    0.818439   -0.061842
     14          6           0        0.739778   -0.194886    0.060570
     15          1           0        1.113066   -1.225612    0.320288
     16          6           0       -1.163844    2.037359    0.209955
     17          1           0       -2.118184    2.503241    0.581880
     18          6           0       -0.349992    1.592816    1.396942
     19          1           0       -0.507941    2.163652    2.310735
     20          6           0        0.518099    0.581574    1.329688
     21          1           0        1.123695    0.269206    2.178524
     22          6           0       -0.401478    3.108484   -0.577413
     23          1           0       -0.990828    3.495673   -1.415930
     24          1           0       -0.147333    3.961923    0.063819
     25          1           0        0.547383    2.721416   -0.985073
     26          6           0        1.814672    0.484562   -0.808288
     27          1           0        1.963403   -0.030055   -1.773480
     28          1           0        1.611867    1.568068   -0.968669
     29          6           0        3.877408   -0.599668   -0.099585
     30          6           0        5.083807   -0.340576    0.724175
     31          1           0        5.160793   -1.066595    1.551615
     32          1           0        6.003851   -0.441204    0.123610
     33          1           0        5.090382    0.667853    1.170319
     34          8           0        3.567219   -1.589506   -0.723619
     35          8           0        3.074405    0.522784   -0.083351
 ---------------------------------------------------------------------
 Rotational constants (GHZ):      0.7448112      0.2690621      0.2181422
 Standard basis: 6-31+G(d,p) (6D, 7F)
 There are   427 symmetry adapted cartesian basis functions of A   symmetry.
 There are   427 symmetry adapted basis functions of A   symmetry.
   427 basis functions,   695 primitive gaussians,   427 cartesian basis functions
    67 alpha electrons       67 beta electrons
       nuclear repulsion energy      1384.1313226682 Hartrees.
 NAtoms=   35 NActive=   35 NUniq=   35 SFac= 1.00D+00 NAtFMM=   60 NAOKFM=F Big=F
 Integral buffers will be    131072 words long.
 Raffenetti 2 integral format.
 Two-electron integral symmetry is turned on.
 Nuclear repulsion after empirical dispersion term =     1384.0925780673 Hartrees.
 ------------------------------------------------------------------------------
 Polarizable Continuum Model (PCM)
 =================================
 Model                : C-PCM.
 Atomic radii         : UFF (Universal Force Field).
 Polarization charges : Total charges.
 Charge compensation  : None.
 Solution method      : On-the-fly selection.
 Cavity type          : Scaled VdW (van der Waals Surface) (Alpha=1.100).
 Cavity algorithm     : GePol (No added spheres)
                        Default sphere list used, NSphG=   35.
                        Lebedev-Laikov grids with approx.  5.0 points / Ang**2.
                        Smoothing algorithm: Karplus/York (Gamma=1.0000).
                        Polarization charges: spherical gaussians, with
                                              point-specific exponents (IZeta= 3).
                        Self-potential: point-specific (ISelfS= 7).
                        Self-field    : sphere-specific E.n sum rule (ISelfD= 2).
 1st derivatives      : Analytical E(r).r(x)/FMM algorithm (CHGder, D1EAlg=3).
                        Cavity 1st derivative terms included.
 Solvent              : Water, Eps=  78.355300 Eps(inf)=   1.777849
 ------------------------------------------------------------------------------
 One-electron integrals computed using PRISM.
 NBasis=   427 RedAO= T EigKep=  2.13D-06  NBF=   427
 NBsUse=   427 1.00D-06 EigRej= -1.00D+00 NBFU=   427
 ExpMin= 4.38D-02 ExpMax= 5.48D+03 ExpMxC= 8.25D+02 IAcc=2 IRadAn=         4 AccDes= 0.00D+00
 Harris functional with IExCor=  402 and IRadAn=       4 diagonalized for initial guess.
 HarFok:  IExCor=  402 AccDes= 0.00D+00 IRadAn=         4 IDoV= 1 UseB2=F ITyADJ=14
 ICtDFT=  3500011 ScaDFX=  1.000000  1.000000  1.000000  1.000000
 FoFCou: FMM=F IPFlag=           0 FMFlag=      100000 FMFlg1=           0
         NFxFlg=           0 DoJE=T BraDBF=F KetDBF=T FulRan=T
         wScrn=  0.000000 ICntrl=     500 IOpCl=  0 I1Cent=   200000004 NGrid=           0
         NMat0=    1 NMatS0=      1 NMatT0=    0 NMatD0=    1 NMtDS0=    0 NMtDT0=    0
 Petite list used in FoFCou.
 Requested convergence on RMS density matrix=1.00D-08 within 128 cycles.
 Requested convergence on MAX density matrix=1.00D-06.
 Requested convergence on             energy=1.00D-06.
 No special actions if energy rises.
 Inv3:  Mode=1 IEnd=    18630192.
 Iteration    1 A*A^-1 deviation from unit magnitude is 8.33D-15 for   2480.
 Iteration    1 A*A^-1 deviation from orthogonality  is 2.89D-15 for   1253   1127.
 Iteration    1 A^-1*A deviation from unit magnitude is 8.33D-15 for   2480.
 Iteration    1 A^-1*A deviation from orthogonality  is 1.68D-15 for   1253   1127.
 Error on total polarization charges =  0.01740
 SCF Done:  E(RB3LYP) =  -861.398569066     A.U. after   15 cycles
            NFock= 15  Conv=0.20D-08     -V/T= 2.0098

 **********************************************************************

            Population analysis using the SCF density.

 **********************************************************************

 Orbital symmetries:
       Occupied  (A) (A) (A) (A) (A) (A) (A) (A) (A) (A) (A) (A)
                 (A) (A) (A) (A) (A) (A) (A) (A) (A) (A) (A) (A)
                 (A) (A) (A) (A) (A) (A) (A) (A) (A) (A) (A) (A)
                 (A) (A) (A) (A) (A) (A) (A) (A) (A) (A) (A) (A)
                 (A) (A) (A) (A) (A) (A) (A) (A) (A) (A) (A) (A)
                 (A) (A) (A) (A) (A) (A) (A)
       Virtual   (A) (A) (A) (A) (A) (A) (A) (A) (A) (A) (A) (A)
                 (A) (A) (A) (A) (A) (A) (A) (A) (A) (A) (A) (A)
                 (A) (A) (A) (A) (A) (A) (A) (A) (A) (A) (A) (A)
                 (A) (A) (A) (A) (A) (A) (A) (A) (A) (A) (A) (A)
                 (A) (A) (A) (A) (A) (A) (A) (A) (A) (A) (A) (A)
                 (A) (A) (A) (A) (A) (A) (A) (A) (A) (A) (A) (A)
                 (A) (A) (A) (A) (A) (A) (A) (A) (A) (A) (A) (A)
                 (A) (A) (A) (A) (A) (A) (A) (A) (A) (A) (A) (A)
                 (A) (A) (A) (A) (A) (A) (A) (A) (A) (A) (A) (A)
                 (A) (A) (A) (A) (A) (A) (A) (A) (A) (A) (A) (A)
                 (A) (A) (A) (A) (A) (A) (A) (A) (A) (A) (A) (A)
                 (A) (A) (A) (A) (A) (A) (A) (A) (A) (A) (A) (A)
                 (A) (A) (A) (A) (A) (A) (A) (A) (A) (A) (A) (A)
                 (A) (A) (A) (A) (A) (A) (A) (A) (A) (A) (A) (A)
                 (A) (A) (A) (A) (A) (A) (A) (A) (A) (A) (A) (A)
                 (A) (A) (A) (A) (A) (A) (A) (A) (A) (A) (A) (A)
                 (A) (A) (A) (A) (A) (A) (A) (A) (A) (A) (A) (A)
                 (A) (A) (A) (A) (A) (A) (A) (A) (A) (A) (A) (A)
                 (A) (A) (A) (A) (A) (A) (A) (A) (A) (A) (A) (A)
                 (A) (A) (A) (A) (A) (A) (A) (A) (A) (A) (A) (A)
                 (A) (A) (A) (A) (A) (A) (A) (A) (A) (A) (A) (A)
                 (A) (A) (A) (A) (A) (A) (A) (A) (A) (A) (A) (A)
                 (A) (A) (A) (A) (A) (A) (A) (A) (A) (A) (A) (A)
                 (A) (A) (A) (A) (A) (A) (A) (A) (A) (A) (A) (A)
                 (A) (A) (A) (A) (A) (A) (A) (A) (A) (A) (A) (A)
                 (A) (A) (A) (A) (A) (A) (A) (A) (A) (A) (A) (A)
                 (A) (A) (A) (A) (A) (A) (A) (A) (A) (A) (A) (A)
                 (A) (A) (A) (A) (A) (A) (A) (A) (A) (A) (A) (A)
                 (A) (A) (A) (A) (A) (A) (A) (A) (A) (A) (A) (A)
                 (A) (A) (A) (A) (A) (A) (A) (A) (A) (A) (A) (A)
 The electronic state is 1-A.
 Alpha  occ. eigenvalues --  -19.20350 -19.16614 -19.16501 -19.16316 -14.40484
 Alpha  occ. eigenvalues --  -10.33712 -10.32436 -10.32306 -10.25463 -10.23487
 Alpha  occ. eigenvalues --  -10.22853 -10.22481 -10.21849 -10.21447 -10.20384
 Alpha  occ. eigenvalues --  -10.19838 -10.19711 -10.18598  -1.11131  -1.08685
 Alpha  occ. eigenvalues --   -1.07354  -1.03116  -0.95923  -0.87058  -0.80454
 Alpha  occ. eigenvalues --   -0.79312  -0.76949  -0.73069  -0.70664  -0.69539
 Alpha  occ. eigenvalues --   -0.65423  -0.61925  -0.61700  -0.57487  -0.55648
 Alpha  occ. eigenvalues --   -0.52903  -0.51470  -0.50888  -0.49760  -0.49303
 Alpha  occ. eigenvalues --   -0.48575  -0.47894  -0.47215  -0.45655  -0.45044
 Alpha  occ. eigenvalues --   -0.44626  -0.43702  -0.43500  -0.42987  -0.42075
 Alpha  occ. eigenvalues --   -0.40744  -0.40593  -0.40403  -0.39336  -0.38555
 Alpha  occ. eigenvalues --   -0.38059  -0.37020  -0.36636  -0.34953  -0.33784
 Alpha  occ. eigenvalues --   -0.32180  -0.31619  -0.30730  -0.29717  -0.29066
 Alpha  occ. eigenvalues --   -0.27735  -0.26183
 Alpha virt. eigenvalues --   -0.03813  -0.01541  -0.00911  -0.00525   0.00200
 Alpha virt. eigenvalues --    0.00954   0.01540   0.02053   0.02447   0.03154
 Alpha virt. eigenvalues --    0.03778   0.04379   0.04566   0.05317   0.05390
 Alpha virt. eigenvalues --    0.06217   0.06344   0.06671   0.07559   0.07790
 Alpha virt. eigenvalues --    0.07870   0.08310   0.08713   0.09226   0.09645
 Alpha virt. eigenvalues --    0.10002   0.10164   0.10968   0.11578   0.12307
 Alpha virt. eigenvalues --    0.12404   0.12766   0.13191   0.13672   0.14236
 Alpha virt. eigenvalues --    0.14453   0.14534   0.15254   0.15424   0.16120
 Alpha virt. eigenvalues --    0.16348   0.16593   0.17423   0.17514   0.17714
 Alpha virt. eigenvalues --    0.18375   0.18761   0.19118   0.19629   0.19819
 Alpha virt. eigenvalues --    0.20398   0.20456   0.20518   0.20958   0.21401
 Alpha virt. eigenvalues --    0.21675   0.22020   0.22142   0.22617   0.23190
 Alpha virt. eigenvalues --    0.23334   0.23684   0.24142   0.24624   0.24788
 Alpha virt. eigenvalues --    0.25446   0.25715   0.26095   0.26393   0.26848
 Alpha virt. eigenvalues --    0.27309   0.27589   0.27738   0.28601   0.29327
 Alpha virt. eigenvalues --    0.29652   0.29954   0.30471   0.30851   0.31095
 Alpha virt. eigenvalues --    0.31917   0.33008   0.33157   0.33196   0.33331
 Alpha virt. eigenvalues --    0.33774   0.34065   0.34608   0.34733   0.35201
 Alpha virt. eigenvalues --    0.35621   0.36770   0.37271   0.37478   0.37872
 Alpha virt. eigenvalues --    0.38309   0.39008   0.39407   0.41006   0.42220
 Alpha virt. eigenvalues --    0.42578   0.43415   0.43683   0.45048   0.45210
 Alpha virt. eigenvalues --    0.47465   0.47678   0.48600   0.48981   0.50412
 Alpha virt. eigenvalues --    0.51022   0.55909   0.61350   0.64008   0.64794
 Alpha virt. eigenvalues --    0.66705   0.67424   0.67962   0.68897   0.69923
 Alpha virt. eigenvalues --    0.70276   0.70717   0.72262   0.72553   0.73583
 Alpha virt. eigenvalues --    0.74808   0.75292   0.75661   0.76677   0.77594
 Alpha virt. eigenvalues --    0.78883   0.79978   0.80452   0.82414   0.82901
 Alpha virt. eigenvalues --    0.83555   0.84145   0.85270   0.86238   0.86899
 Alpha virt. eigenvalues --    0.88510   0.88567   0.90162   0.91812   0.92908
 Alpha virt. eigenvalues --    0.93328   0.94386   0.95378   0.96887   0.97921
 Alpha virt. eigenvalues --    0.98126   0.99127   1.00163   1.00544   1.01886
 Alpha virt. eigenvalues --    1.02400   1.03862   1.05669   1.06719   1.07628
 Alpha virt. eigenvalues --    1.08659   1.09058   1.09574   1.11689   1.12019
 Alpha virt. eigenvalues --    1.12478   1.15467   1.17048   1.18107   1.19315
 Alpha virt. eigenvalues --    1.20725   1.23312   1.24282   1.25083   1.25723
 Alpha virt. eigenvalues --    1.25934   1.26601   1.27219   1.27473   1.30495
 Alpha virt. eigenvalues --    1.31306   1.32622   1.33248   1.34202   1.35245
 Alpha virt. eigenvalues --    1.35615   1.36234   1.36955   1.37284   1.38056
 Alpha virt. eigenvalues --    1.39872   1.40456   1.41295   1.43685   1.43783
 Alpha virt. eigenvalues --    1.46693   1.47685   1.49631   1.52862   1.54196
 Alpha virt. eigenvalues --    1.54874   1.56766   1.58433   1.60900   1.63105
 Alpha virt. eigenvalues --    1.63616   1.65066   1.65315   1.67716   1.68588
 Alpha virt. eigenvalues --    1.69859   1.71262   1.72781   1.73099   1.74990
 Alpha virt. eigenvalues --    1.75976   1.78859   1.79321   1.80027   1.82010
 Alpha virt. eigenvalues --    1.83982   1.84791   1.85078   1.85499   1.86710
 Alpha virt. eigenvalues --    1.86841   1.88075   1.88562   1.90902   1.91586
 Alpha virt. eigenvalues --    1.92279   1.93410   1.94324   1.94865   1.96198
 Alpha virt. eigenvalues --    1.98067   1.99130   1.99571   2.01300   2.02667
 Alpha virt. eigenvalues --    2.03184   2.03278   2.03916   2.05482   2.06686
 Alpha virt. eigenvalues --    2.07139   2.08562   2.09221   2.09456   2.10019
 Alpha virt. eigenvalues --    2.10960   2.11631   2.11901   2.13210   2.14080
 Alpha virt. eigenvalues --    2.16119   2.17944   2.18175   2.19172   2.20867
 Alpha virt. eigenvalues --    2.23583   2.24007   2.25485   2.29694   2.32423
 Alpha virt. eigenvalues --    2.33524   2.34170   2.36298   2.37003   2.37689
 Alpha virt. eigenvalues --    2.39707   2.40243   2.41296   2.43900   2.45424
 Alpha virt. eigenvalues --    2.46775   2.48041   2.48889   2.50313   2.51645
 Alpha virt. eigenvalues --    2.53117   2.53943   2.55211   2.55932   2.58292
 Alpha virt. eigenvalues --    2.60755   2.62657   2.64007   2.64593   2.65141
 Alpha virt. eigenvalues --    2.66577   2.67370   2.68240   2.68985   2.70260
 Alpha virt. eigenvalues --    2.71282   2.72166   2.72588   2.73248   2.75968
 Alpha virt. eigenvalues --    2.76870   2.78751   2.79928   2.82430   2.82893
 Alpha virt. eigenvalues --    2.84709   2.85480   2.86291   2.87622   2.88760
 Alpha virt. eigenvalues --    2.89809   2.91622   2.94080   2.95708   2.96584
 Alpha virt. eigenvalues --    3.01781   3.05005   3.06654   3.09886   3.10656
 Alpha virt. eigenvalues --    3.16331   3.19536   3.19905   3.24550   3.24996
 Alpha virt. eigenvalues --    3.26011   3.27908   3.30456   3.30853   3.34410
 Alpha virt. eigenvalues --    3.36442   3.39073   3.41422   3.42692   3.42872
 Alpha virt. eigenvalues --    3.43206   3.45463   3.47097   3.48575   3.48962
 Alpha virt. eigenvalues --    3.53263   3.67355   4.18176   4.29689   4.33848
 Alpha virt. eigenvalues --    4.37505   4.38923   4.46127   4.50139   4.51036
 Alpha virt. eigenvalues --    4.52218   4.56150   4.57693   4.66622   4.67843
 Alpha virt. eigenvalues --    4.77034   4.77666   4.79906   4.93580   5.15797
          Condensed to atoms (all electrons):
               1          2          3          4          5          6
     1  C    8.159706  -2.550474   0.821013  -1.342594  -0.017552  -0.036137
     2  C   -2.550474  10.445406  -2.553328   1.283086   0.320775   0.026545
     3  C    0.821013  -2.553328  16.747116  -3.322649   0.015472   0.346776
     4  C   -1.342594   1.283086  -3.322649   8.525715  -0.038126  -0.010829
     5  H   -0.017552   0.320775   0.015472  -0.038126   0.528256  -0.006220
     6  H   -0.036137   0.026545   0.346776  -0.010829  -0.006220   0.527287
     7  C   -0.119095  -0.033549  -0.110644  -0.100419   0.004046   0.003987
     8  H    0.004094  -0.011850  -0.003286  -0.000245  -0.000004  -0.000005
     9  H   -0.009417   0.006930  -0.007013   0.003536   0.000008   0.000011
    10  H    0.000704  -0.002877   0.000934  -0.007327   0.000009   0.000012
    11  N    0.243656  -0.482824  -0.651136   0.310707   0.022585   0.022757
    12  O    0.111492  -0.108745  -0.033398   0.344633  -0.000540  -0.001716
    13  O    0.342764   0.056796  -0.085323   0.098942  -0.001847  -0.000526
    14  C    0.744314   0.506382  -6.831267   0.710545  -0.025282  -0.104045
    15  H    0.000900  -0.006867  -0.123332   0.072691  -0.000107   0.000353
    16  C    0.023753  -0.983656   0.574075   0.078645  -0.030531   0.016795
    17  H    0.039840  -0.111569   0.015614   0.008013   0.000933  -0.000116
    18  C    0.174321   0.149262  -1.034520  -0.013052   0.012038  -0.022404
    19  H    0.005739  -0.010909   0.031789  -0.005629  -0.000123   0.000009
    20  C   -0.241963  -0.370989   0.564691  -0.012537  -0.002456   0.030360
    21  H   -0.006990   0.002040   0.009304   0.005114   0.000011  -0.000122
    22  C   -0.527892   0.392392   0.277701   0.032415   0.005953   0.011486
    23  H    0.009183  -0.004422   0.002883  -0.000360   0.002795  -0.000015
    24  H   -0.021961  -0.019168   0.034787   0.001599   0.000385   0.000002
    25  H    0.002526   0.061219  -0.052715   0.009310  -0.000217  -0.000214
    26  C   -0.042438  -0.066607   1.815135  -0.812836   0.025562   0.003577
    27  H    0.000141   0.023439   0.027352  -0.007348  -0.000002   0.004444
    28  H    0.003404  -0.008671   0.019647   0.005926  -0.000255   0.000121
    29  C   -0.002711   0.008738  -0.274060   0.016259   0.000145   0.000571
    30  C   -0.000623  -0.011373   0.043534   0.012207   0.000006  -0.000289
    31  H    0.000011  -0.000056  -0.000123  -0.000022   0.000000   0.000000
    32  H   -0.000003  -0.000014   0.000634   0.000099   0.000000   0.000000
    33  H   -0.000003  -0.000180   0.001241   0.000071   0.000000   0.000000
    34  O   -0.000575  -0.002465  -0.033090  -0.003035   0.000003   0.000047
    35  O   -0.006101   0.010675   0.162811  -0.027247   0.000097   0.001247
               7          8          9         10         11         12
     1  C   -0.119095   0.004094  -0.009417   0.000704   0.243656   0.111492
     2  C   -0.033549  -0.011850   0.006930  -0.002877  -0.482824  -0.108745
     3  C   -0.110644  -0.003286  -0.007013   0.000934  -0.651136  -0.033398
     4  C   -0.100419  -0.000245   0.003536  -0.007327   0.310707   0.344633
     5  H    0.004046  -0.000004   0.000008   0.000009   0.022585  -0.000540
     6  H    0.003987  -0.000005   0.000011   0.000012   0.022757  -0.001716
     7  C    5.186087   0.405218   0.410170   0.409541   0.220056  -0.037936
     8  H    0.405218   0.517693  -0.027072  -0.027119  -0.040299   0.001199
     9  H    0.410170  -0.027072   0.505481  -0.022949  -0.043772   0.000504
    10  H    0.409541  -0.027119  -0.022949   0.505935  -0.043164   0.004495
    11  N    0.220056  -0.040299  -0.043772  -0.043164   7.451146  -0.100022
    12  O   -0.037936   0.001199   0.000504   0.004495  -0.100022   8.324667
    13  O   -0.036819   0.001098   0.004332   0.000474  -0.108967  -0.002477
    14  C    0.039990   0.000724  -0.001112   0.002644   0.144277   0.023926
    15  H   -0.000058   0.000000   0.000000  -0.000001   0.000602   0.004419
    16  C    0.004755   0.002109   0.000515  -0.000632   0.035937  -0.005452
    17  H   -0.000857   0.000001  -0.000002   0.000000   0.000590   0.000057
    18  C    0.004523  -0.000637  -0.000687   0.000718   0.005379   0.005579
    19  H   -0.000731   0.000001   0.000000   0.000000  -0.001371   0.000017
    20  C   -0.007981   0.001832   0.000657  -0.000801   0.075027   0.013911
    21  H   -0.000212   0.000000   0.000000   0.000000  -0.000920   0.000002
    22  C    0.006454  -0.000151   0.000083   0.000040   0.025117  -0.000400
    23  H    0.000071   0.000000   0.000000   0.000000  -0.000197   0.000000
    24  H    0.000033   0.000000   0.000000   0.000000   0.000354  -0.000002
    25  H    0.000013   0.000000   0.000000   0.000000  -0.000191   0.000014
    26  C    0.008728   0.000043  -0.000013  -0.000040   0.019091  -0.012529
    27  H    0.000008   0.000000   0.000000   0.000000   0.000008   0.000052
    28  H    0.000024   0.000000   0.000000   0.000000  -0.000189  -0.000084
    29  C    0.000219  -0.000005  -0.000001   0.000010   0.001373   0.001549
    30  C   -0.000086   0.000000   0.000000   0.000000  -0.000819  -0.000799
    31  H    0.000000   0.000000   0.000000   0.000000   0.000000   0.000002
    32  H    0.000000   0.000000   0.000000   0.000000   0.000000   0.000000
    33  H    0.000000   0.000000   0.000000   0.000000   0.000000   0.000000
    34  O   -0.000057   0.000000   0.000000   0.000000  -0.000032  -0.001002
    35  O    0.000132   0.000000   0.000000   0.000000   0.000790   0.000130
              13         14         15         16         17         18
     1  C    0.342764   0.744314   0.000900   0.023753   0.039840   0.174321
     2  C    0.056796   0.506382  -0.006867  -0.983656  -0.111569   0.149262
     3  C   -0.085323  -6.831267  -0.123332   0.574075   0.015614  -1.034520
     4  C    0.098942   0.710545   0.072691   0.078645   0.008013  -0.013052
     5  H   -0.001847  -0.025282  -0.000107  -0.030531   0.000933   0.012038
     6  H   -0.000526  -0.104045   0.000353   0.016795  -0.000116  -0.022404
     7  C   -0.036819   0.039990  -0.000058   0.004755  -0.000857   0.004523
     8  H    0.001098   0.000724   0.000000   0.002109   0.000001  -0.000637
     9  H    0.004332  -0.001112   0.000000   0.000515  -0.000002  -0.000687
    10  H    0.000474   0.002644  -0.000001  -0.000632   0.000000   0.000718
    11  N   -0.108967   0.144277   0.000602   0.035937   0.000590   0.005379
    12  O   -0.002477   0.023926   0.004419  -0.005452   0.000057   0.005579
    13  O    8.338465  -0.007318   0.000014  -0.066018   0.003097   0.006133
    14  C   -0.007318  15.360746   0.327553  -0.910123   0.019042   1.105414
    15  H    0.000014   0.327553   0.542138   0.010969   0.000004   0.012256
    16  C   -0.066018  -0.910123   0.010969   7.668748   0.319445  -0.179633
    17  H    0.003097   0.019042   0.000004   0.319445   0.570961   0.053500
    18  C    0.006133   1.105414   0.012256  -0.179633   0.053500   6.355583
    19  H    0.000128  -0.000840  -0.000109  -0.074430  -0.006689   0.301743
    20  C    0.003722  -1.789885   0.076774   0.259950   0.001022  -0.257518
    21  H    0.000030  -0.109622  -0.006612   0.019730  -0.000128  -0.005278
    22  C   -0.007298  -0.394808  -0.004354  -0.649118  -0.053704  -0.271175
    23  H   -0.000162  -0.004539   0.000001  -0.065587  -0.003452  -0.026275
    24  H    0.000190  -0.044546   0.000000  -0.087066  -0.004337  -0.031646
    25  H   -0.000066   0.167858  -0.000057  -0.233714   0.005210   0.083960
    26  C    0.001814  -2.639201  -0.056605   0.168282  -0.013879  -0.332707
    27  H    0.000000  -0.151876  -0.003823  -0.000991   0.000002  -0.006174
    28  H   -0.000008  -0.063815   0.004360   0.034686  -0.000035   0.010271
    29  C   -0.000058   0.132148  -0.007895   0.004043  -0.000140   0.018424
    30  C   -0.000001   0.028647  -0.003416   0.008316   0.000017   0.003443
    31  H    0.000000  -0.003798   0.000020   0.000115   0.000000   0.000790
    32  H    0.000000   0.004283   0.000001  -0.000028   0.000000  -0.000186
    33  H    0.000000   0.000009  -0.000004   0.000163   0.000000   0.000099
    34  O    0.000001   0.008007  -0.001175   0.001648   0.000000  -0.006870
    35  O   -0.000006  -0.352134  -0.013052  -0.009084  -0.000052  -0.079279
              19         20         21         22         23         24
     1  C    0.005739  -0.241963  -0.006990  -0.527892   0.009183  -0.021961
     2  C   -0.010909  -0.370989   0.002040   0.392392  -0.004422  -0.019168
     3  C    0.031789   0.564691   0.009304   0.277701   0.002883   0.034787
     4  C   -0.005629  -0.012537   0.005114   0.032415  -0.000360   0.001599
     5  H   -0.000123  -0.002456   0.000011   0.005953   0.002795   0.000385
     6  H    0.000009   0.030360  -0.000122   0.011486  -0.000015   0.000002
     7  C   -0.000731  -0.007981  -0.000212   0.006454   0.000071   0.000033
     8  H    0.000001   0.001832   0.000000  -0.000151   0.000000   0.000000
     9  H    0.000000   0.000657   0.000000   0.000083   0.000000   0.000000
    10  H    0.000000  -0.000801   0.000000   0.000040   0.000000   0.000000
    11  N   -0.001371   0.075027  -0.000920   0.025117  -0.000197   0.000354
    12  O    0.000017   0.013911   0.000002  -0.000400   0.000000  -0.000002
    13  O    0.000128   0.003722   0.000030  -0.007298  -0.000162   0.000190
    14  C   -0.000840  -1.789885  -0.109622  -0.394808  -0.004539  -0.044546
    15  H   -0.000109   0.076774  -0.006612  -0.004354   0.000001   0.000000
    16  C   -0.074430   0.259950   0.019730  -0.649118  -0.065587  -0.087066
    17  H   -0.006689   0.001022  -0.000128  -0.053704  -0.003452  -0.004337
    18  C    0.301743  -0.257518  -0.005278  -0.271175  -0.026275  -0.031646
    19  H    0.552986   0.056834  -0.006568   0.006638  -0.000080   0.001164
    20  C    0.056834   7.468141   0.354915   0.148295   0.002349   0.026936
    21  H   -0.006568   0.354915   0.558532   0.004235   0.000004  -0.000006
    22  C    0.006638   0.148295   0.004235   6.128331   0.435683   0.490564
    23  H   -0.000080   0.002349   0.000004   0.435683   0.541829  -0.026748
    24  H    0.001164   0.026936  -0.000006   0.490564  -0.026748   0.540082
    25  H   -0.000103  -0.057255  -0.000080   0.452830  -0.029203  -0.029441
    26  C    0.007147  -0.112186   0.032493   0.030246   0.008421   0.009798
    27  H    0.000005  -0.004445  -0.000138  -0.000998  -0.000006   0.000001
    28  H   -0.000112  -0.010601   0.000015  -0.044245   0.000127   0.000260
    29  C   -0.000431   0.041451   0.004633  -0.005761   0.000208   0.000127
    30  C    0.000174   0.006416  -0.002469   0.000040  -0.000017   0.000006
    31  H    0.000000   0.003564  -0.000009  -0.000016   0.000000   0.000000
    32  H    0.000000  -0.001875   0.000000  -0.000003   0.000000   0.000000
    33  H    0.000000   0.001531  -0.000002  -0.000036   0.000000   0.000000
    34  O   -0.000004   0.040606  -0.000114   0.000853  -0.000001  -0.000001
    35  O    0.000046   0.022208   0.004948   0.018219  -0.000046   0.000171
              25         26         27         28         29         30
     1  C    0.002526  -0.042438   0.000141   0.003404  -0.002711  -0.000623
     2  C    0.061219  -0.066607   0.023439  -0.008671   0.008738  -0.011373
     3  C   -0.052715   1.815135   0.027352   0.019647  -0.274060   0.043534
     4  C    0.009310  -0.812836  -0.007348   0.005926   0.016259   0.012207
     5  H   -0.000217   0.025562  -0.000002  -0.000255   0.000145   0.000006
     6  H   -0.000214   0.003577   0.004444   0.000121   0.000571  -0.000289
     7  C    0.000013   0.008728   0.000008   0.000024   0.000219  -0.000086
     8  H    0.000000   0.000043   0.000000   0.000000  -0.000005   0.000000
     9  H    0.000000  -0.000013   0.000000   0.000000  -0.000001   0.000000
    10  H    0.000000  -0.000040   0.000000   0.000000   0.000010   0.000000
    11  N   -0.000191   0.019091   0.000008  -0.000189   0.001373  -0.000819
    12  O    0.000014  -0.012529   0.000052  -0.000084   0.001549  -0.000799
    13  O   -0.000066   0.001814   0.000000  -0.000008  -0.000058  -0.000001
    14  C    0.167858  -2.639201  -0.151876  -0.063815   0.132148   0.028647
    15  H   -0.000057  -0.056605  -0.003823   0.004360  -0.007895  -0.003416
    16  C   -0.233714   0.168282  -0.000991   0.034686   0.004043   0.008316
    17  H    0.005210  -0.013879   0.000002  -0.000035  -0.000140   0.000017
    18  C    0.083960  -0.332707  -0.006174   0.010271   0.018424   0.003443
    19  H   -0.000103   0.007147   0.000005  -0.000112  -0.000431   0.000174
    20  C   -0.057255  -0.112186  -0.004445  -0.010601   0.041451   0.006416
    21  H   -0.000080   0.032493  -0.000138   0.000015   0.004633  -0.002469
    22  C    0.452830   0.030246  -0.000998  -0.044245  -0.005761   0.000040
    23  H   -0.029203   0.008421  -0.000006   0.000127   0.000208  -0.000017
    24  H   -0.029441   0.009798   0.000001   0.000260   0.000127   0.000006
    25  H    0.594506  -0.107167   0.000455   0.008541  -0.003958   0.000564
    26  C   -0.107167   7.181966   0.463780   0.426329  -0.142328  -0.111700
    27  H    0.000455   0.463780   0.546246  -0.034344   0.001670   0.004412
    28  H    0.008541   0.426329  -0.034344   0.593222  -0.002199  -0.002898
    29  C   -0.003958  -0.142328   0.001670  -0.002199   5.782649  -0.317565
    30  C    0.000564  -0.111700   0.004412  -0.002898  -0.317565   5.697267
    31  H    0.000000  -0.002076  -0.000007   0.000002  -0.084405   0.437870
    32  H    0.000000  -0.000466   0.000017   0.000010  -0.060509   0.412039
    33  H    0.000000  -0.000698  -0.000004  -0.000063  -0.093179   0.449829
    34  O    0.000009  -0.078749   0.003290  -0.000478   0.446723  -0.008711
    35  O   -0.000828   0.355827  -0.029478  -0.067116   0.022744  -0.138233
              31         32         33         34         35
     1  C    0.000011  -0.000003  -0.000003  -0.000575  -0.006101
     2  C   -0.000056  -0.000014  -0.000180  -0.002465   0.010675
     3  C   -0.000123   0.000634   0.001241  -0.033090   0.162811
     4  C   -0.000022   0.000099   0.000071  -0.003035  -0.027247
     5  H    0.000000   0.000000   0.000000   0.000003   0.000097
     6  H    0.000000   0.000000   0.000000   0.000047   0.001247
     7  C    0.000000   0.000000   0.000000  -0.000057   0.000132
     8  H    0.000000   0.000000   0.000000   0.000000   0.000000
     9  H    0.000000   0.000000   0.000000   0.000000   0.000000
    10  H    0.000000   0.000000   0.000000   0.000000   0.000000
    11  N    0.000000   0.000000   0.000000  -0.000032   0.000790
    12  O    0.000002   0.000000   0.000000  -0.001002   0.000130
    13  O    0.000000   0.000000   0.000000   0.000001  -0.000006
    14  C   -0.003798   0.004283   0.000009   0.008007  -0.352134
    15  H    0.000020   0.000001  -0.000004  -0.001175  -0.013052
    16  C    0.000115  -0.000028   0.000163   0.001648  -0.009084
    17  H    0.000000   0.000000   0.000000   0.000000  -0.000052
    18  C    0.000790  -0.000186   0.000099  -0.006870  -0.079279
    19  H    0.000000   0.000000   0.000000  -0.000004   0.000046
    20  C    0.003564  -0.001875   0.001531   0.040606   0.022208
    21  H   -0.000009   0.000000  -0.000002  -0.000114   0.004948
    22  C   -0.000016  -0.000003  -0.000036   0.000853   0.018219
    23  H    0.000000   0.000000   0.000000  -0.000001  -0.000046
    24  H    0.000000   0.000000   0.000000  -0.000001   0.000171
    25  H    0.000000   0.000000   0.000000   0.000009  -0.000828
    26  C   -0.002076  -0.000466  -0.000698  -0.078749   0.355827
    27  H   -0.000007   0.000017  -0.000004   0.003290  -0.029478
    28  H    0.000002   0.000010  -0.000063  -0.000478  -0.067116
    29  C   -0.084405  -0.060509  -0.093179   0.446723   0.022744
    30  C    0.437870   0.412039   0.449829  -0.008711  -0.138233
    31  H    0.492777  -0.020117  -0.024055  -0.001016   0.003855
    32  H   -0.020117   0.492261  -0.024306  -0.001873   0.003767
    33  H   -0.024055  -0.024306   0.501812   0.005688  -0.003754
    34  O   -0.001016  -0.001873   0.005688   8.253397  -0.130903
    35  O    0.003855   0.003767  -0.003754  -0.130903   8.517612
 Mulliken charges:
               1
     1  C    0.238969
     2  C    0.046907
     3  C   -0.396624
     4  C    0.184745
     5  H    0.184186
     6  H    0.186255
     7  C   -0.255610
     8  H    0.176662
     9  H    0.179812
    10  H    0.179394
    11  N   -0.105551
    12  O   -0.531544
    13  O   -0.541106
    14  C    0.107705
    15  H    0.174413
    16  C    0.063383
    17  H    0.157614
    18  C   -0.035395
    19  H    0.143709
    20  C   -0.330700
    21  H    0.143267
    22  C   -0.507616
    23  H    0.157557
    24  H    0.158464
    25  H    0.128193
    26  C   -0.026012
    27  H    0.164311
    28  H    0.128166
    29  C    0.511521
    30  C   -0.505790
    31  H    0.196695
    32  H    0.196269
    33  H    0.185842
    34  O   -0.490121
    35  O   -0.267969
 Sum of Mulliken charges =   0.00000
 Mulliken charges with hydrogens summed into heavy atoms:
               1
     1  C    0.238969
     2  C    0.231092
     3  C   -0.210369
     4  C    0.184745
     7  C    0.280258
    11  N   -0.105551
    12  O   -0.531544
    13  O   -0.541106
    14  C    0.282118
    16  C    0.220998
    18  C    0.108314
    20  C   -0.187433
    22  C   -0.063403
    26  C    0.266465
    29  C    0.511521
    30  C    0.073016
    34  O   -0.490121
    35  O   -0.267969
 Electronic spatial extent (au):  <R**2>=           5050.2152
 Charge=              0.0000 electrons
 Dipole moment (field-independent basis, Debye):
    X=              1.6093    Y=              3.7035    Z=              0.3767  Tot=              4.0556
 Quadrupole moment (field-independent basis, Debye-Ang):
   XX=           -107.8168   YY=           -118.8212   ZZ=           -100.8417
   XY=             14.0152   XZ=              6.4475   YZ=             -4.4337
 Traceless Quadrupole moment (field-independent basis, Debye-Ang):
   XX=              1.3431   YY=             -9.6613   ZZ=              8.3182
   XY=             14.0152   XZ=              6.4475   YZ=             -4.4337
 Octapole moment (field-independent basis, Debye-Ang**2):
  XXX=            132.7293  YYY=             40.2962  ZZZ=             -3.4984  XYY=            -25.6166
  XXY=            -40.3367  XXZ=             34.5833  XZZ=              0.7396  YZZ=              0.1456
  YYZ=              8.5490  XYZ=            -10.8688
 Hexadecapole moment (field-independent basis, Debye-Ang**3):
 XXXX=          -4287.4269 YYYY=          -1695.9299 ZZZZ=           -446.2546 XXXY=            277.8667
 XXXZ=            100.2184 YYYX=             39.4719 YYYZ=             -5.7530 ZZZX=              5.4934
 ZZZY=              1.3122 XXYY=          -1071.6672 XXZZ=           -808.6956 YYZZ=           -335.2286
 XXYZ=            -64.8558 YYXZ=              9.4169 ZZXY=              1.0800
 N-N= 1.384092578067D+03 E-N=-4.773548735726D+03  KE= 8.530327213332D+02
 D1PCM: C-PCM CHGder 1st derivatives, ID1Alg=3 FixD1E=F DoIter=F DoCFld=F I1PDM=0.
 Calling FoFJK, ICntrl=      2127 FMM=F ISym2X=0 I1Cent= 0 IOpClX= 0 NMat=1 NMatS=1 NMatT=0.
 ***** Axes restored to original set *****
 -------------------------------------------------------------------
 Center     Atomic                   Forces (Hartrees/Bohr)
 Number     Number              X              Y              Z
 -------------------------------------------------------------------
      1        6           0.020786318   -0.034729623   -0.003318813
      2        6          -0.005914269    0.001869272   -0.011525896
      3        6          -0.000587893   -0.005170394   -0.011164445
      4        6          -0.031739984    0.027180766   -0.002340703
      5        1          -0.001637855   -0.004720273    0.015029638
      6        1          -0.003842094   -0.000612200    0.015368598
      7        6          -0.001797538   -0.001639376    0.000202899
      8        1           0.001421122    0.001301188   -0.006636371
      9        1           0.009938499    0.000847978    0.000998497
     10        1           0.002444617    0.009637009    0.001124482
     11        7           0.007431905    0.005240919   -0.003385425
     12        8           0.007308275   -0.013487369    0.002459545
     13        8          -0.011533654    0.008812153    0.002517432
     14        6           0.007027206   -0.011279762   -0.002705165
     15        1          -0.005212243    0.017072388   -0.007112324
     16        6          -0.011684934    0.007487083    0.002909931
     17        1           0.014462778   -0.006703134   -0.006683590
     18        6          -0.006069658    0.001777866    0.004840769
     19        1           0.003795019   -0.002097515    0.000883493
     20        6           0.003044267   -0.005852259    0.005946975
     21        1          -0.002177583    0.004279684    0.001377034
     22        6           0.006070925    0.010051695   -0.004379164
     23        1          -0.001444802   -0.001179700    0.000185480
     24        1          -0.000589588   -0.001587213    0.000275472
     25        1          -0.011001364    0.006610607    0.002370283
     26        6           0.011692338    0.006435732   -0.001115260
     27        1          -0.002045601    0.002533937    0.005968998
     28        1           0.002416433   -0.022215601   -0.000465355
     29        6          -0.023432208    0.028134011   -0.002519650
     30        6           0.022662917    0.001069428    0.014101015
     31        1          -0.002109120    0.001042303   -0.006101791
     32        1          -0.006201339   -0.002065612    0.000697180
     33        1          -0.003610978   -0.006764180   -0.005104072
     34        8           0.005472368   -0.011765542   -0.001602044
     35        8           0.006657717   -0.009514269   -0.001097655
 -------------------------------------------------------------------
 Cartesian Forces:  Max     0.034729623 RMS     0.009695496

 GradGradGradGradGradGradGradGradGradGradGradGradGradGradGradGradGradGrad
 Berny optimization.
 FormGI is forming the generalized inverse of G from B-inverse, IUseBI=4.
 GSVD:  received Info=                   1 from GESDD.
 Internal  Forces:  Max     0.024524328 RMS     0.006078774
 Search for a local minimum.
 Step number   1 out of a maximum of  210
 All quantities printed in internal units (Hartrees-Bohrs-Radians)
 Mixed Optimization -- RFO/linear search
 Second derivative matrix not updated -- first step.
 ITU=  0
     Eigenvalues ---    0.00235   0.00298   0.00336   0.00597   0.00633
     Eigenvalues ---    0.00680   0.00713   0.00874   0.00978   0.00983
     Eigenvalues ---    0.01191   0.01206   0.01254   0.01386   0.01880
     Eigenvalues ---    0.01954   0.02879   0.03602   0.03868   0.04348
     Eigenvalues ---    0.04400   0.04762   0.04907   0.04915   0.05327
     Eigenvalues ---    0.05328   0.05462   0.05591   0.05767   0.05795
     Eigenvalues ---    0.06004   0.07034   0.07102   0.07264   0.07312
     Eigenvalues ---    0.07358   0.09701   0.11608   0.13689   0.14130
     Eigenvalues ---    0.14721   0.15999   0.15999   0.16000   0.16000
     Eigenvalues ---    0.16000   0.16000   0.16000   0.16000   0.16000
     Eigenvalues ---    0.16000   0.16000   0.17160   0.18093   0.19475
     Eigenvalues ---    0.22049   0.23568   0.24977   0.24992   0.24998
     Eigenvalues ---    0.24999   0.25000   0.25000   0.25454   0.25765
     Eigenvalues ---    0.27688   0.28126   0.28509   0.28851   0.29197
     Eigenvalues ---    0.30158   0.30905   0.31039   0.31184   0.31412
     Eigenvalues ---    0.31561   0.32188   0.33176   0.33190   0.33202
     Eigenvalues ---    0.33257   0.33299   0.33319   0.33366   0.33382
     Eigenvalues ---    0.33979   0.34159   0.34172   0.34934   0.34974
     Eigenvalues ---    0.34986   0.37734   0.38751   0.40910   0.49064
     Eigenvalues ---    0.55181   0.99699   1.00616   1.01053
 RFO step:  Lambda=-3.29322881D-02 EMin= 2.35274089D-03
 Linear search not attempted -- first point.
 Iteration  1 RMS(Cart)=  0.20498474 RMS(Int)=  0.00775854
 Iteration  2 RMS(Cart)=  0.01526837 RMS(Int)=  0.00054655
 Iteration  3 RMS(Cart)=  0.00010479 RMS(Int)=  0.00054403
 Iteration  4 RMS(Cart)=  0.00000009 RMS(Int)=  0.00054403
 Variable       Old X    -DE/DX   Delta X   Delta X   Delta X     New X
                                 (Linear)    (Quad)   (Total)
    R1        2.89903  -0.00527   0.00000  -0.01335  -0.01337   2.88567
    R2        2.69094  -0.02357   0.00000  -0.05804  -0.05793   2.63300
    R3        2.28393   0.01453   0.00000   0.01398   0.01398   2.29791
    R4        2.93416   0.00440   0.00000   0.02043   0.02047   2.95463
    R5        2.11655  -0.01535   0.00000  -0.04405  -0.04405   2.07250
    R6        2.92861   0.00698   0.00000   0.02044   0.02045   2.94906
    R7        2.90210  -0.00536   0.00000  -0.01418  -0.01423   2.88787
    R8        2.11933  -0.01543   0.00000  -0.04447  -0.04447   2.07486
    R9        2.91550   0.00718   0.00000   0.02097   0.02110   2.93660
   R10        2.69085  -0.02452   0.00000  -0.06038  -0.06029   2.63056
   R11        2.28220   0.01533   0.00000   0.01469   0.01469   2.29689
   R12        2.08699  -0.00664   0.00000  -0.01820  -0.01820   2.06878
   R13        2.08719  -0.00899   0.00000  -0.02465  -0.02465   2.06254
   R14        2.08744  -0.00901   0.00000  -0.02469  -0.02469   2.06275
   R15        2.79017  -0.01623   0.00000  -0.04241  -0.04241   2.74776
   R16        2.12894  -0.01899   0.00000  -0.05552  -0.05552   2.07342
   R17        2.84257   0.00857   0.00000   0.02646   0.02640   2.86897
   R18        2.91040   0.00072   0.00000   0.00226   0.00226   2.91266
   R19        2.12637  -0.01725   0.00000  -0.05024  -0.05024   2.07613
   R20        2.84648   0.00802   0.00000   0.02488   0.02477   2.87125
   R21        2.89595   0.00704   0.00000   0.02166   0.02166   2.91761
   R22        2.05782  -0.00091   0.00000  -0.00238  -0.00238   2.05545
   R23        2.52172   0.00750   0.00000   0.01433   0.01417   2.53589
   R24        2.05698  -0.00137   0.00000  -0.00357  -0.00357   2.05341
   R25        2.07040   0.00022   0.00000   0.00059   0.00059   2.07099
   R26        2.07365  -0.00121   0.00000  -0.00325  -0.00325   2.07040
   R27        2.08414  -0.01266   0.00000  -0.03454  -0.03454   2.04960
   R28        2.08603  -0.00667   0.00000  -0.01826  -0.01826   2.06777
   R29        2.10502  -0.02198   0.00000  -0.06195  -0.06195   2.04307
   R30        2.74754  -0.00130   0.00000  -0.00318  -0.00318   2.74436
   R31        2.80362   0.00955   0.00000   0.02550   0.02550   2.82912
   R32        2.28760   0.00904   0.00000   0.00878   0.00878   2.29638
   R33        2.60822  -0.01206   0.00000  -0.02302  -0.02302   2.58519
   R34        2.08529  -0.00541   0.00000  -0.01480  -0.01480   2.07049
   R35        2.08495  -0.00536   0.00000  -0.01464  -0.01464   2.07031
   R36        2.08386  -0.00827   0.00000  -0.02255  -0.02255   2.06131
    A1        1.88691   0.00513   0.00000   0.01987   0.01983   1.90674
    A2        2.23783  -0.00486   0.00000  -0.01801  -0.01807   2.21976
    A3        2.15840  -0.00026   0.00000  -0.00169  -0.00175   2.15665
    A4        1.83952  -0.00672   0.00000  -0.02064  -0.02067   1.81885
    A5        1.88117  -0.00043   0.00000  -0.02896  -0.02855   1.85262
    A6        1.90529   0.00115   0.00000  -0.01166  -0.01177   1.89352
    A7        1.90052   0.00319   0.00000   0.03360   0.03286   1.93338
    A8        2.03762   0.00475   0.00000   0.02259   0.02297   2.06059
    A9        1.89397  -0.00230   0.00000   0.00013  -0.00122   1.89274
   A10        1.84287  -0.00663   0.00000  -0.01927  -0.01923   1.82364
   A11        1.89960   0.00272   0.00000   0.03029   0.02945   1.92905
   A12        2.03189   0.00598   0.00000   0.03204   0.03238   2.06427
[...]
 .00002201,0.00000552,-0.00000719,-0.00000601,0.00000430,-0.00000518,-0
 .00000278,0.00000161,0.00000163,-0.00000197,-0.00000053,-0.00007349,-0
 .00002204,0.00004177,-0.00002991,-0.00009010,0.00000107,-0.00006727,0.
 00001317,0.00004111,-0.00098824,0.00010168,-0.00072704,0.00023570,0.00
 016933,-0.00016758,0.00001161,-0.00000687,-0.00000447,-0.00000669,0.00
 000952,-0.00000052,0.00000412,0.00000992,0.00005690,-0.00001596,0.0000
 1650,0.00001086,-0.00000426,0.00001753,-0.00015238,0.00001668,0.000006
 09,0.00000533,-0.00001137,-0.00000927,-0.00000090,-0.00000268,0.000007
 39,-0.00000746,0.00000100,0.00000537,0.00000120,0.00000563,-0.00000632
 ,0.00000285,0.00089677,-0.00095004,0.00523124,0.00040197,-0.00053938,0
 .00004556,0.00022860,0.00016587,0.00026782,-0.04884433,-0.00220022,-0.
 12117866,-0.02895016,-0.00809763,0.51611082,0.00002000,-0.00000489,-0.
 00001483,-0.00000671,-0.00001602,-0.00001181,-0.00006858,-0.00002194,0
 .00005069,0.00002376,0.00005662,-0.00003027,-0.00000769,0.00000454,0.0
 0000003,0.00000870,-0.00000303,-0.00000243,0.00000292,0.00000656,0.000
 00188,-0.00000230,-0.00000185,0.00000126,-0.00000169,-0.00000104,0.000
 00063,0.00000046,-0.00000043,-0.00000034,-0.00002171,-0.00000587,0.000
 01399,-0.00001035,-0.00002683,0.00000148,-0.00001879,0.00000421,0.0000
 1216,-0.00015012,0.00005226,-0.00016644,0.00007642,0.00003602,-0.00003
 895,0.00000161,-0.00000568,-0.00000054,-0.00000174,0.00000267,0.000000
 05,0.00000575,0.00000531,0.00003470,-0.00000195,0.00000697,0.00000166,
 0.00001847,0.00001096,-0.00006168,-0.00001752,-0.00000018,0.00003496,0
 .00000112,-0.00000273,-0.00000032,-0.00000177,0.00000188,-0.00000134,-
 0.00000021,0.00000217,0.00000013,0.00000101,-0.00000317,0.00000189,-0.
 00004313,-0.00031407,0.00098206,0.00006518,-0.00009725,0.00003564,0.00
 006514,0.00004435,0.00006701,0.01140594,-0.00754979,-0.02874516,-0.063
 55264,0.02362733,0.06427378,0.06733185,-0.00000689,0.00000242,0.000004
 24,-0.00000185,0.00000423,0.00000039,0.00001529,0.00002146,-0.00001418
 ,-0.00000613,-0.00002188,0.00000945,0.00000128,-0.00000064,0.00000047,
 -0.00000544,-0.00000082,0.00000161,-0.00000091,-0.00000181,-0.00000084
 ,0.00000059,0.00000070,-0.00000034,0.00000051,0.00000021,-0.00000010,-
 0.00000012,0.00000015,-0.00000010,0.00000728,0.00000157,-0.00000390,0.
 00000080,0.00000964,0.00000011,0.00000615,-0.00000144,-0.00000318,0.00
 001884,-0.00001723,0.00002191,0.00001786,0.00000529,-0.00001294,-0.000
 00132,-0.00000014,-0.00000120,0.00000124,-0.00000106,0.00000041,0.0000
 0032,-0.00000188,-0.00000439,-0.00000139,-0.00000259,-0.00000008,-0.00
 001571,0.00000777,0.00000918,0.00000374,0.00000186,-0.00000054,0.00000
 067,0.00000144,0.00000156,0.00000081,-0.00000119,0.00000082,0.00000028
 ,-0.00000086,-0.00000039,-0.00000078,0.00000187,-0.00000084,-0.0003747
 8,0.00004487,-0.00010534,0.00009347,-0.00005350,0.00004802,0.00001291,
 0.00000738,0.00002165,-0.00011893,-0.00444217,-0.00525206,0.02425572,-
 0.06409127,-0.07167632,-0.02261876,0.06668638,0.00001141,-0.00000146,-
 0.00000900,-0.00000741,-0.00001000,-0.00001117,-0.00003746,0.00000529,
 0.00004313,0.00001239,0.00003030,-0.00001577,-0.00000577,0.00000337,0.
 00000064,0.00000472,-0.00000161,-0.00000134,0.00000166,0.00000388,0.00
 000107,-0.00000127,-0.00000103,0.00000068,-0.00000098,-0.00000061,0.00
 000037,0.00000028,-0.00000031,-0.00000017,-0.00001172,-0.00000345,0.00
 000768,-0.00000594,-0.00001392,0.00000056,-0.00001100,0.00000202,0.000
 00777,-0.00012947,0.00003550,-0.00011576,0.00004114,0.00004593,-0.0000
 3437,-0.00000120,-0.00000455,-0.00000363,-0.00000076,0.00000202,0.0000
 0027,0.00000238,0.00000351,0.00001940,-0.00000325,0.00000322,0.0000024
 9,-0.00001112,-0.00002017,-0.00005270,-0.00002419,0.00001218,0.0000192
 8,0.00000047,-0.00000102,0.00000092,-0.00000050,0.00000078,-0.00000058
 ,-0.00000026,0.00000164,0.00000013,0.00000034,-0.00000159,0.00000032,-
 0.00049181,-0.00001058,0.00061974,0.00014786,-0.00004807,0.00009490,0.
 00002115,0.00001908,0.00003063,0.00655600,-0.00578993,-0.01669594,0.06
 554954,-0.07071322,-0.27583512,-0.07043613,0.07858772,0.29691221,0.000
 05361,0.00000104,-0.00003564,-0.00000497,-0.00003317,-0.00000687,-0.00
 008658,-0.00007606,0.00009143,0.00003997,0.00015124,-0.00004416,-0.000
 01294,0.00000578,-0.00000303,0.00003368,0.00000989,0.00001892,0.000006
 37,0.00001674,0.00000240,-0.00000521,-0.00000426,0.00000282,-0.0000044
 0,-0.00000272,0.00000152,0.00000080,-0.00000164,-0.00000045,-0.0000519
 7,-0.00002682,0.00003182,-0.00001023,-0.00007694,-0.00000419,-0.000050
 79,0.00000634,0.00002814,-0.00002347,0.00003771,-0.00014526,0.00001191
 ,-0.00000312,0.00003335,0.00001651,0.00000124,-0.00000256,-0.00000775,
 0.00000592,-0.00000028,0.00000059,0.00000339,0.00003880,-0.00000505,0.
 00001786,0.00000455,-0.00002369,-0.00007320,-0.00006806,0.00001863,0.0
 0000349,-0.00001132,0.00000086,-0.00000372,-0.00002012,-0.00000990,0.0
 0001181,-0.00000402,-0.00000472,0.00000761,0.00000608,0.00000005,-0.00
 001905,0.00001389,0.00107021,0.00108352,0.00009469,-0.00018527,-0.0000
 3203,-0.00012981,-0.00046241,0.00000742,-0.00026272,-0.01224046,0.0244
 0048,0.00243914,-0.12478440,0.12095797,-0.00732945,-0.00422490,0.00515
 943,-0.00075467,0.13325289,-0.00000423,-0.00000065,0.00000289,0.000003
 46,0.00000563,0.00000156,0.00001667,0.00000323,-0.00001815,-0.00000027
 ,-0.00001598,0.00000540,0.00000158,-0.00000080,0.00000032,-0.00000444,
 -0.00000007,-0.00000143,-0.00000066,-0.00000163,-0.00000047,0.00000042
 ,0.00000038,-0.00000032,0.00000039,0.00000015,-0.00000002,-0.00000011,
 0.00000013,0.00000001,0.00000424,0.00000238,-0.00000232,0.00000008,0.0
 0000674,-0.00000009,0.00000492,-0.00000055,-0.00000264,0.00009435,-0.0
 0000182,0.00004490,0.00000490,-0.00001297,0.00000170,0.00000015,-0.000
 00009,0.00000007,0.00000036,-0.00000077,0.00000011,0.00000107,0.000000
 99,-0.00000015,-0.00000015,-0.00000068,-0.00000022,-0.00000387,0.00000
 968,0.00000248,-0.00000149,-0.00000195,0.00000139,0.00000223,0.0000011
 5,-0.00000086,-0.00000026,-0.00000034,0.00000085,-0.00000074,0.0000000
 2,0.00000035,-0.00000020,-0.00000085,0.00000090,-0.00043273,0.00042933
 ,-0.00043357,0.00007985,-0.00001481,0.00003923,-0.00007188,0.00002453,
 -0.00002993,-0.00568222,0.00336232,-0.00103039,0.12764907,-0.25292071,
 0.01148462,0.00259978,-0.00549694,0.00115072,-0.13547582,0.26810231,0.
 00003322,-0.00000369,-0.00002244,-0.00000256,-0.00002325,-0.00000699,-
 0.00009072,-0.00008298,0.00007685,0.00001620,0.00010671,-0.00003893,-0
 .00000789,0.00000408,-0.00000159,0.00002049,0.00000643,0.00001340,0.00
 000404,0.00001142,0.00000290,-0.00000357,-0.00000305,0.00000194,-0.000
 00284,-0.00000168,0.00000104,0.00000060,-0.00000103,-0.00000030,-0.000
 03610,-0.00001793,0.00002296,-0.00000308,-0.00005221,-0.00000209,-0.00
 003248,0.00000532,0.00001842,-0.00013461,0.00005915,-0.00021324,0.0000
 0304,-0.00000574,0.00001726,0.00000794,-0.00000151,-0.00000114,-0.0000
 0392,0.00000394,0.00000061,0.00000059,0.00000657,0.00002547,-0.0000034
 3,0.00000987,0.00000308,-0.00001160,-0.00004115,-0.00005732,-0.0000020
 1,0.00000873,0.00000533,0.00000266,-0.00000239,-0.00001075,-0.00000543
 ,0.00000607,-0.00000219,-0.00000290,0.00000451,0.00000341,0.00000010,-
 0.00001093,0.00000807,-0.00008654,0.00057135,0.00074060,-0.00000028,-0
 .00001488,-0.00001731,-0.00022963,0.00002099,-0.00011702,-0.00822896,0
 .01692183,-0.00214694,-0.00526415,0.00767503,-0.04734641,0.01523121,-0
 .02501440,0.00410476,0.00983216,-0.01030277,0.04756036,0.00001444,0.00
 000022,-0.00000767,-0.00000168,-0.00000482,-0.00000176,0.00003091,0.00
 001762,0.00000262,0.00002756,0.00001938,-0.00000498,-0.00000427,0.0000
 0143,-0.00000077,0.00000654,0.00000399,-0.00000697,0.00000182,0.000003
 35,-0.00000019,-0.00000097,-0.00000089,0.00000053,-0.00000102,-0.00000
 048,0.00000020,0.00000021,-0.00000033,-0.00000009,-0.00001022,-0.00000
 084,0.00000500,-0.00001013,-0.00001214,-0.00000169,-0.00001242,0.00000
 149,0.00000566,0.00018051,-0.00002444,0.00008408,0.00002347,0.00001542
 ,-0.00000223,0.00000986,-0.00000061,-0.00000109,-0.00000273,0.00000193
 ,-0.00000140,0.00000280,0.00000824,0.00002235,-0.00000277,0.00000604,0
 .00000178,-0.00001760,-0.00002148,-0.00002256,0.00001433,-0.00000462,-
 0.00000827,-0.00000349,-0.00000205,-0.00000474,-0.00000200,0.00000336,
 -0.00000228,-0.00000039,0.00000108,0.00000199,0.00000091,-0.00000460,0
 .00000152,0.00035635,0.00022457,-0.00044624,-0.00000605,0.00003865,0.0
 0006795,-0.00006225,-0.00001507,-0.00006078,-0.01298606,-0.02043468,0.
 01558993,-0.13180228,-0.10844278,0.05947418,-0.00438184,-0.00544007,0.
 00282711,0.01178942,0.01210522,-0.00773754,0.13860658,-0.00000807,0.00
 000096,0.00000695,0.00000161,0.00001033,0.00000415,0.00003970,0.000022
 72,-0.00003514,-0.00000552,-0.00003403,0.00001418,0.00000295,-0.000001
 72,0.00000007,-0.00000537,-0.00000200,0.00000177,-0.00000146,-0.000003
 07,-0.00000120,0.00000105,0.00000098,-0.00000049,0.00000062,0.00000034
 ,-0.00000012,-0.00000009,0.00000023,0.00000001,0.00000964,0.00000397,-
 0.00000666,0.00000065,0.00001511,0.00000004,0.00000879,-0.00000169,-0.
 00000530,0.00012886,-0.00001735,0.00010815,-0.00000511,-0.00000029,-0.
 00000037,-0.00000294,0.00000011,-0.00000043,0.00000092,-0.00000147,0.0
 0000010,0.00000040,-0.00000834,-0.00000229,0.00000149,-0.00000188,-0.0
 0000110,-0.00000964,0.00001698,0.00002004,-0.00000270,-0.00000084,0.00
 000275,0.00000148,0.00000132,0.00000079,0.00000056,-0.00000092,0.00000
 114,-0.00000027,-0.00000061,-0.00000033,-0.00000103,0.00000166,-0.0000
 0066,-0.00028043,0.00020049,-0.00070804,-0.00001544,0.00003925,0.00004
 423,-0.00002145,-0.00000313,0.00001597,-0.00193867,-0.00556101,-0.0008
 6223,-0.10972820,-0.19188596,0.08316606,0.00615703,0.00740792,-0.00369
 144,-0.01558558,-0.01564400,0.00985886,0.12120004,0.20423263,0.0000041
 1,0.00000150,-0.00000205,-0.00000072,-0.00000112,0.00000015,0.00002239
 ,0.00001109,-0.00000401,0.00001187,0.00000473,0.00000140,-0.00000086,0
 .00000021,-0.00000025,0.00000248,0.00000344,-0.00000393,0.00000025,0.0
 0000090,-0.00000053,-0.00000032,-0.00000027,0.00000009,-0.00000023,-0.
 00000018,0.00000010,0.00000002,-0.00000009,-0.00000007,-0.00000313,-0.
 00000027,0.00000121,-0.00000410,-0.00000460,-0.00000173,-0.00000384,-0
 .00000005,0.00000097,0.00008066,-0.00000865,0.00005500,0.00001051,-0.0
 0000221,-0.00000220,0.00000095,-0.00000154,0.00000091,-0.00000111,0.00
 000066,-0.00000059,-0.00000027,0.00000481,0.00000769,-0.00000053,0.000
 00307,0.00000001,-0.00000973,-0.00001498,-0.00001284,-0.00000189,0.000
 00040,-0.00000209,-0.00000032,-0.00000062,-0.00000137,-0.00000103,0.00
 000101,-0.00000068,0.00000006,0.00000008,0.00000057,0.00000007,-0.0000
 0132,0.00000038,0.00027479,-0.00003592,-0.00022113,-0.00000599,0.00001
 354,0.00002405,-0.00001315,-0.00000160,-0.00002315,-0.01144717,-0.0158
 2837,0.00968322,0.05979103,0.08262540,-0.08479947,0.01664240,0.0225519
 7,-0.01066867,-0.00036470,-0.00046406,-0.00112056,-0.06347287,-0.08808
 204,0.09220065,0.00024849,0.00000224,-0.00017533,-0.00013440,-0.000129
 27,-0.00018908,0.00009372,0.00064827,0.00007290,0.00057660,0.00035223,
 -0.00015770,-0.00010738,0.00005286,0.00000099,-0.00001843,-0.00001559,
 -0.00004861,0.00003026,0.00006409,0.00000222,-0.00002140,-0.00001682,0
 .00001005,-0.00001872,-0.00001065,0.00000799,0.00000677,-0.00000462,-0
 .00000366,-0.00021397,-0.00001537,0.00013745,-0.00023625,-0.00022583,-
 0.00002934,-0.00023829,0.00003605,0.00013564,-0.00059245,-0.00184901,0
 .00104937,-0.00016540,0.00184808,-0.00085234,0.00005856,-0.00004061,-0
 .00000824,-0.00002830,0.00002940,-0.00000803,0.00008716,0.00012592,0.0
 0045651,-0.00012127,0.00006570,0.00006286,-0.00027795,0.00039497,-0.00
 079264,0.00008864,-0.00005744,0.00011912,-0.00002601,-0.00004072,-0.00
 003853,-0.00001836,0.00003527,-0.00002665,-0.00000097,0.00002096,0.000
 01339,0.00000989,-0.00002961,0.00002005,-0.00084812,-0.00002037,0.0003
 3506,-0.00022939,0.00127894,0.00174914,0.00072144,0.00100683,0.0016925
 8,-0.16767115,-0.15682315,-0.08968891,-0.00184442,-0.03188874,-0.02335
 466,-0.00542529,-0.00240523,-0.00273592,0.00235112,-0.00045874,0.00165
 875,-0.00229310,-0.00167468,-0.00212989,0.14655347,-0.00053940,-0.0000
 3616,0.00035289,0.00003850,0.00033446,0.00002049,0.00109517,0.00105702
 ,-0.00106061,-0.00028978,-0.00165863,0.00052555,0.00012062,-0.00004700
 ,0.00004379,-0.00039241,-0.00009908,-0.00011162,-0.00006615,-0.0001625
 6,-0.00003688,0.00005300,0.00004383,-0.00002865,0.00004094,0.00002482,
 -0.00001382,-0.00000501,0.00001760,0.00000340,0.00049180,0.00029612,-0
 .00030304,0.00000161,0.00083987,0.00003540,0.00049769,-0.00004893,-0.0
 0027728,0.00089002,-0.00033576,0.00228233,0.00098433,-0.00002050,-0.00
 071438,-0.00020599,-0.00008329,0.00002677,0.00008907,-0.00006155,0.000
 02062,0.00004609,0.00015875,-0.00034682,0.00004975,-0.00017094,-0.0000
 4328,0.00018207,0.00082030,0.00057742,-0.00005245,-0.00012593,0.000270
 46,0.00007922,0.00007308,0.00016639,0.00007953,-0.00012224,0.00006747,
 0.00002848,-0.00006020,-0.00005278,-0.00003110,0.00016448,-0.00010157,
 -0.01843037,-0.00028636,-0.01067967,0.00315917,-0.00064135,0.00257610,
 0.00155327,0.00014524,0.00095316,-0.17433735,-0.51662652,-0.20043654,-
 0.01118155,-0.01315199,-0.01589478,-0.00236717,0.00041271,0.00025262,-
 0.00067042,0.00142107,0.00026143,-0.00051906,0.00136302,-0.00083878,0.
 17352631,0.64044845,-0.00012155,0.00000736,0.00009137,0.00004038,0.000
 08579,0.00009755,0.00048157,0.00012747,-0.00037133,-0.00006439,-0.0004
 1699,0.00016361,0.00004760,-0.00002631,-0.00000002,-0.00000427,-0.0000
 2867,0.00002990,-0.00001550,-0.00003881,-0.00001516,0.00001395,0.00001
 116,-0.00000704,0.00000939,0.00000521,-0.00000336,-0.00000181,0.000003
 80,0.00000046,0.00011085,0.00006604,-0.00007673,0.00000387,0.00019581,
 0.00000930,0.00011399,-0.00001732,-0.00007122,0.00130016,0.00051230,0.
 00086703,0.00047243,-0.00052897,-0.00031454,-0.00004306,0.00000920,0.0
 0000993,0.00001147,-0.00002005,-0.00000308,-0.00000042,-0.00006714,-0.
 00007775,0.00003802,-0.00001349,-0.00002393,-0.00027570,0.00013761,0.0
 0035532,-0.00006947,0.00001797,0.00002132,0.00003215,0.00000513,0.0000
 1002,0.00001083,-0.00002087,0.00001346,-0.00000019,-0.00001204,-0.0000
 0475,-0.00001085,0.00003371,-0.00000951,-0.00174304,0.00180998,-0.0070
 9752,0.00037695,0.00155264,0.00154247,0.00084146,0.00075199,0.00167280
 ,-0.09302425,-0.19109976,-0.17399866,-0.01927533,-0.02912426,0.0071686
 4,0.00102695,0.00002209,0.00028780,0.00105374,0.00012313,0.00057296,-0
 .00489558,-0.00075313,-0.00479322,0.10890586,0.23536311,0.14731692,0.0
 0159377,-0.00025478,-0.00114481,-0.00026617,-0.00160277,-0.00048042,-0
 .00588040,-0.00490820,0.00653250,0.00057694,0.00605446,-0.00230206,-0.
 00043264,0.00026824,-0.00004749,0.00144147,0.00036596,0.00060787,0.000
 22564,0.00061207,0.00018678,-0.00019215,-0.00016603,0.00010264,-0.0001
 3797,-0.00008062,0.00004376,0.00003316,-0.00005184,-0.00001702,-0.0019
 0169,-0.00089222,0.00119813,-0.00005646,-0.00279077,-0.00005883,-0.001
 64928,0.00030723,0.00097207,-0.03934293,0.00043602,-0.02156233,0.00236
 703,0.00034201,-0.00032457,0.00029642,-0.00007180,-0.00015270,-0.00014
 548,0.00023920,0.00005968,-0.00033216,0.00028437,0.00036842,-0.0002504
 2,0.00022337,0.00023494,0.00022396,-0.00171348,-0.00191966,-0.00051686
 ,0.00055251,0.00007253,-0.00005472,-0.00007160,-0.00018902,-0.00018738
 ,0.00021693,-0.00011027,-0.00006415,0.00019222,0.00008903,0.00009047,-
 0.00044207,0.00019703,-0.12557645,-0.01916240,-0.04823898,-0.01071625,
 -0.00464185,-0.01085933,-0.01972913,0.00107337,-0.01343435,-0.14763363
 ,0.05777557,-0.03840142,-0.02675518,0.03492951,-0.01570654,-0.00108940
 ,0.00140109,-0.00050565,-0.00644753,-0.00043092,-0.00492077,0.00053557
 ,0.00173088,0.00062026,0.02970494,0.02608169,0.00465385,0.35226906,-0.
 00064101,0.00010473,0.00034284,-0.00041328,-0.00018106,-0.00007312,-0.
 00089696,0.00207476,-0.00044991,-0.00038776,-0.00144143,0.00052396,0.0
 0007467,-0.00002291,0.00005040,-0.00039185,-0.00014766,0.00030861,-0.0
 0006230,-0.00015906,-0.00003159,0.00005072,0.00004436,-0.00002760,0.00
 004155,0.00002695,-0.00001486,-0.00000607,0.00001674,0.00000409,0.0004
 9084,0.00028271,-0.00028443,0.00008207,0.00079777,0.00006158,0.0004440
 7,-0.00006376,-0.00020931,-0.00591770,0.00073738,-0.00336466,0.0013138
 2,0.00062143,-0.00187688,-0.00034750,-0.00017253,0.00013109,0.00011676
 ,-0.00002656,0.00000371,-0.00005854,0.00037257,-0.00039752,0.00006018,
 -0.00020023,-0.00005765,0.00124452,0.00098897,0.00048590,0.00019508,-0
 .00027799,0.00033737,-0.00011768,-0.00002231,0.00040651,0.00018329,-0.
 00019667,0.00002597,0.00013485,-0.00012939,-0.00012995,0.00003953,0.00
 038652,-0.00029344,-0.00284948,-0.09015418,-0.01093802,-0.01671576,0.0
 0276794,-0.00718100,0.03347445,0.00456020,0.02025006,0.05912724,-0.184
 93187,0.00869896,0.00942460,-0.00030655,0.00423055,0.00042204,-0.00048
 246,0.00015317,0.00019569,0.00074558,0.00003731,0.00127694,-0.00014969
 ,0.00006388,0.01621832,-0.11388188,-0.01867368,-0.09580533,0.37841955,
 0.00015372,0.00005539,-0.00009328,0.00010234,-0.00031587,0.00027930,0.
 00250544,0.00063247,-0.00027686,0.00049371,0.00045496,0.00028378,0.000
 02600,0.00000245,-0.00000697,0.00080211,0.00019737,0.00028694,0.000007
 32,0.00005822,-0.00004087,-0.00000980,-0.00000597,0.00000571,-0.000019
 36,-0.00001420,0.00000883,0.00000401,-0.00000510,-0.00000200,-0.000182
 49,-0.00007408,0.00004602,-0.00010612,-0.00025692,-0.00006760,-0.00020
 656,0.00001740,0.00008959,0.00394943,-0.00197903,0.01093957,-0.0008530
 4,-0.00068592,0.00096889,-0.00009818,-0.00027808,0.00010253,-0.0000146
 6,0.00002740,0.00002836,0.00026690,0.00076764,0.00050433,0.00006961,0.
 00016858,-0.00006414,0.00142060,-0.00136294,-0.00145269,0.00037971,0.0
 0019387,0.00119688,0.00019956,0.00004423,-0.00011866,-0.00012009,0.000
 03090,0.00005135,-0.00004974,0.00005463,0.00004042,0.00000401,-0.00020
 245,0.00011436,-0.04259004,-0.01891957,-0.09827751,-0.03362653,-0.0006
 3463,-0.01768679,-0.01671881,-0.00146903,-0.00873918,-0.03803349,0.008
 16690,-0.08318193,-0.02118613,0.01916063,0.00119023,0.00109562,0.00080
 952,0.00128948,-0.00450614,-0.00057326,-0.00207421,-0.00140520,0.00090
 573,-0.00031784,0.00380959,-0.01285890,0.02663696,0.14443670,0.0078876
 6,0.16833702\\-0.00000805,-0.00000590,0.00000034,0.00000547,0.00000232
 ,0.00000185,0.00000370,-0.00000426,-0.00000329,0.00000095,0.00000744,0
 .00000226,-0.00000071,-0.00000051,0.00000117,0.00000390,-0.00000141,0.
 00000177,0.00000759,-0.00001347,-0.00000442,0.00000296,0.00000029,-0.0
 0000161,0.00000237,-0.00000193,-0.00000192,0.00000087,-0.00000159,0.00
 000036,-0.00000917,0.00001134,0.00000999,-0.00000425,-0.00000291,0.000
 00347,0.00001262,-0.00000682,-0.00000821,-0.00000330,-0.00000104,-0.00
 000054,-0.00000119,0.00000141,-0.00000128,-0.00000339,-0.00000276,0.00
 000261,-0.00000167,-0.00000125,-0.00000282,-0.00000112,-0.00000081,-0.
 00000311,-0.00000371,0.00000076,-0.00000200,-0.00000339,0.00000385,-0.
 00000147,-0.00000090,0.00000013,-0.00000079,-0.00000033,-0.00000041,-0
 .00000320,-0.00000161,-0.00000179,-0.00000156,-0.00000122,-0.00000066,
 -0.00000241,-0.00000241,-0.00000022,-0.00000240,0.00000028,0.00001171,
 -0.00000273,-0.00000198,0.00000218,0.00000091,-0.00000462,-0.00000282,
 0.00000054,0.00001652,-0.00001604,0.00000166,0.00000139,0.00000699,0.0
 0000159,0.00000179,0.00000169,0.00000270,0.00000261,0.00000140,0.00000
 626,-0.00000278,0.00000094,0.00000270,0.00000137,0.00001029,0.00000657
 ,-0.00000859,0.00000386,-0.00000297\\\@


 Some scientists claim that hydrogen, because it is so
 plentiful, is the basic building block of the universe. 
 I dispute that. I say that stupidity is far more
 abundant than hydrogen, and THAT is the basic building 
 block of the universe.
                   --Frank Zappa
 Job cpu time:       0 days  2 hours 58 minutes 28.6 seconds.
 File lengths (MBytes):  RWF=    659 Int=      0 D2E=      0 Chk=     24 Scr=      1
 Normal termination of Gaussian 09 at Thu Aug 27 19:40:51 2020.
