 Entering Gaussian System, Link 0=g09
 Input=b3lyp_TS2_scan2_diene_dienophile_pm6_cpcmtoluene_2_water.com
 Output=b3lyp_TS2_scan2_diene_dienophile_pm6_cpcmtoluene_2_water.log
 Initial command:
 /apps/applications/gaussian/G09.D01/2/default/g09/l1.exe "/local/713540.1.40core-192G.q/Gau-231055.inp" -scrdir="/local/713540.1.40core-192G.q/"
 Entering Link 1 = /apps/applications/gaussian/G09.D01/2/default/g09/l1.exe PID=    231056.
  
 Copyright (c) 1988,1990,1992,1993,1995,1998,2003,2009,2013,
            Gaussian, Inc.  All Rights Reserved.
  
 This is part of the Gaussian(R) 09 program.  It is based on
 the Gaussian(R) 03 system (copyright 2003, Gaussian, Inc.),
 the Gaussian(R) 98 system (copyright 1998, Gaussian, Inc.),
 the Gaussian(R) 94 system (copyright 1995, Gaussian, Inc.),
 the Gaussian 92(TM) system (copyright 1992, Gaussian, Inc.),
 the Gaussian 90(TM) system (copyright 1990, Gaussian, Inc.),
 the Gaussian 88(TM) system (copyright 1988, Gaussian, Inc.),
 the Gaussian 86(TM) system (copyright 1986, Carnegie Mellon
 University), and the Gaussian 82(TM) system (copyright 1983,
 Carnegie Mellon University). Gaussian is a federally registered
 trademark of Gaussian, Inc.
  
 This software contains proprietary and confidential information,
 including trade secrets, belonging to Gaussian, Inc.
  
 This software is provided under written license and may be
 used, copied, transmitted, or stored only in accord with that
 written license.
  
 The following legend is applicable only to US Government
 contracts under FAR:
  
                    RESTRICTED RIGHTS LEGEND
  
 Use, reproduction and disclosure by the US Government is
 subject to restrictions as set forth in subparagraphs (a)
 and (c) of the Commercial Computer Software - Restricted
 Rights clause in FAR 52.227-19.
  
 Gaussian, Inc.
 340 Quinnipiac St., Bldg. 40, Wallingford CT 06492
  
  
 ---------------------------------------------------------------
 Warning -- This program may not be used in any manner that
 competes with the business of Gaussian, Inc. or will provide
 assistance to any competitor of Gaussian, Inc.  The licensee
 of this program is prohibited from giving any competitor of
 Gaussian, Inc. access to this program.  By using this program,
 the user acknowledges that Gaussian, Inc. is engaged in the
 business of creating and licensing software in the field of
 computational chemistry and represents and warrants to the
 licensee that it is not a competitor of Gaussian, Inc. and that
 it will not use this program in any manner prohibited above.
 ---------------------------------------------------------------
  

 Cite this work as:
 Gaussian 09, Revision D.01,
 M. J. Frisch, G. W. Trucks, H. B. Schlegel, G. E. Scuseria, 
 M. A. Robb, J. R. Cheeseman, G. Scalmani, V. Barone, B. Mennucci, 
 G. A. Petersson, H. Nakatsuji, M. Caricato, X. Li, H. P. Hratchian, 
 A. F. Izmaylov, J. Bloino, G. Zheng, J. L. Sonnenberg, M. Hada, 
 M. Ehara, K. Toyota, R. Fukuda, J. Hasegawa, M. Ishida, T. Nakajima, 
 Y. Honda, O. Kitao, H. Nakai, T. Vreven, J. A. Montgomery, Jr., 
 J. E. Peralta, F. Ogliaro, M. Bearpark, J. J. Heyd, E. Brothers, 
 K. N. Kudin, V. N. Staroverov, T. Keith, R. Kobayashi, J. Normand, 
 K. Raghavachari, A. Rendell, J. C. Burant, S. S. Iyengar, J. Tomasi, 
 M. Cossi, N. Rega, J. M. Millam, M. Klene, J. E. Knox, J. B. Cross, 
 V. Bakken, C. Adamo, J. Jaramillo, R. Gomperts, R. E. Stratmann, 
 O. Yazyev, A. J. Austin, R. Cammi, C. Pomelli, J. W. Ochterski, 
 R. L. Martin, K. Morokuma, V. G. Zakrzewski, G. A. Voth, 
 P. Salvador, J. J. Dannenberg, S. Dapprich, A. D. Daniels, 
 O. Farkas, J. B. Foresman, J. V. Ortiz, J. Cioslowski, 
 and D. J. Fox, Gaussian, Inc., Wallingford CT, 2013.
 
 ******************************************
 Gaussian 09:  ES64L-G09RevD.01 24-Apr-2013
                27-Aug-2020 
 ******************************************
 %nprocshared=4
 Will use up to    4 processors via shared memory.
 ----------------------------------------------------------------------
 # opt=(calcfc,ts,noeigentest) b3lyp/6-31+g(d,p) scrf=(cpcm,solvent=wat
 er) geom=connectivity empiricaldispersion=gd3
 ----------------------------------------------------------------------
 1/5=1,10=4,11=1,14=-1,18=20,26=3,38=1,57=2/1,3;
 2/9=110,12=2,17=6,18=5,40=1/2;
 3/5=1,6=6,7=111,11=2,16=1,25=1,30=1,70=2101,71=2,72=1,74=-5,124=31,140=1/1,2,3;
 4//1;
 5/5=2,38=5,53=1/2;
 8/6=4,10=90,11=11/1;
 11/6=1,8=1,9=11,15=111,16=1/1,2,10;
 10/6=1,13=1/2;
 6/7=2,8=2,9=2,10=2,28=1/1;
 7/10=1,18=20,25=1/1,2,3,16;
 1/5=1,10=4,11=1,14=-1,18=20,26=3/3(2);
 2/9=110/2;
 99//99;
 2/9=110/2;
 3/5=1,6=6,7=111,11=2,16=1,25=1,30=1,70=2105,71=1,72=1,74=-5,124=31/1,2,3;
 4/5=5,16=3,69=1/1;
 5/5=2,38=5,53=1/2;
 7//1,2,3,16;
 1/5=1,11=1,14=-1,18=20,26=3/3(-5);
 2/9=110/2;
 6/7=2,8=2,9=2,10=2,19=2,28=1/1;
 99/9=1/99;
 -------------------
 Title Card Required
 -------------------
 Symbolic Z-matrix:
 Charge =  0 Multiplicity = 1
 C                    -2.32519   0.80866  -0.64201 
 C                    -1.34175  -0.21283  -1.04985 
 C                    -0.05884   0.15323  -0.63322 
 C                    -0.16849   1.5315    0.01379 
 H                    -1.58092  -0.94655  -1.80173 
 H                     0.85674  -0.11508  -1.15642 
 C                    -2.12209   3.08778   0.57448 
 H                    -1.62019   3.97972   0.15979 
 H                    -3.19896   3.14963   0.33188 
 H                    -2.00944   3.10398   1.67236 
 N                    -1.54957   1.85616   0.00537 
 O                     0.71243   2.24053   0.4529 
 O                    -3.52649   0.87189  -0.76281 
 C                    -1.01674  -2.6593    0.22948 
 H                    -1.09188  -3.62321  -0.28144 
 C                     0.26869  -2.1801    0.54361 
 H                     1.13419  -2.80168   0.27955 
 C                    -2.14465  -1.88985   0.41679 
 H                    -2.14721  -1.05779   1.13192 
 C                    -3.47683  -2.28229  -0.10169 
 H                    -4.06017  -1.40341  -0.43608 
 H                    -3.43457  -2.97826  -0.95116 
 H                    -4.08016  -2.77092   0.68208 
 C                     0.49035  -0.8831    1.00801 
 H                    -0.26762  -0.39583   1.63943 
 C                     1.89775  -0.44965   1.33015 
 H                     2.2787   -0.93681   2.25102 
 H                     1.98924   0.65003   1.43185 
 C                     3.59426  -0.15251  -0.47639 
 C                     3.69738   1.29317  -0.17678 
 H                     4.35613   1.48533   0.68645 
 H                     4.12775   1.84927  -1.02674 
 H                     2.72275   1.77339   0.05121 
 O                     2.76764  -0.96529   0.28469 
 O                     4.18512  -0.76504  -1.33976 
 
 Add virtual bond connecting atoms C24        and C3         Dist= 3.81D+00.
 Add virtual bond connecting atoms H33        and O12        Dist= 3.97D+00.

 GradGradGradGradGradGradGradGradGradGradGradGradGradGradGradGradGradGrad
 Berny optimization.
 Initialization pass.
                           ----------------------------
                           !    Initial Parameters    !
                           ! (Angstroms and Degrees)  !
 --------------------------                            --------------------------
 ! Name  Definition              Value          Derivative Info.                !
 --------------------------------------------------------------------------------
 ! R1    R(1,2)                  1.4754         calculate D2E/DX2 analytically  !
 ! R2    R(1,11)                 1.4553         calculate D2E/DX2 analytically  !
 ! R3    R(1,13)                 1.209          calculate D2E/DX2 analytically  !
 ! R4    R(2,3)                  1.3977         calculate D2E/DX2 analytically  !
 ! R5    R(2,5)                  1.0774         calculate D2E/DX2 analytically  !
 ! R6    R(3,4)                  1.5265         calculate D2E/DX2 analytically  !
 ! R7    R(3,6)                  1.0881         calculate D2E/DX2 analytically  !
 ! R8    R(3,24)                 2.0172         calculate D2E/DX2 analytically  !
 ! R9    R(4,11)                 1.4187         calculate D2E/DX2 analytically  !
 ! R10   R(4,12)                 1.2131         calculate D2E/DX2 analytically  !
 ! R11   R(7,8)                  1.1043         calculate D2E/DX2 analytically  !
 ! R12   R(7,9)                  1.1056         calculate D2E/DX2 analytically  !
 ! R13   R(7,10)                 1.1038         calculate D2E/DX2 analytically  !
 ! R14   R(7,11)                 1.4726         calculate D2E/DX2 analytically  !
 ! R15   R(12,33)                2.1026         calculate D2E/DX2 analytically  !
 ! R16   R(14,15)                1.0935         calculate D2E/DX2 analytically  !
 ! R17   R(14,16)                1.4074         calculate D2E/DX2 analytically  !
 ! R18   R(14,18)                1.3782         calculate D2E/DX2 analytically  !
 ! R19   R(16,17)                1.0978         calculate D2E/DX2 analytically  !
 ! R20   R(16,24)                1.3954         calculate D2E/DX2 analytically  !
 ! R21   R(18,19)                1.0971         calculate D2E/DX2 analytically  !
 ! R22   R(18,20)                1.4824         calculate D2E/DX2 analytically  !
 ! R23   R(20,21)                1.1066         calculate D2E/DX2 analytically  !
 ! R24   R(20,22)                1.099          calculate D2E/DX2 analytically  !
 ! R25   R(20,23)                1.1032         calculate D2E/DX2 analytically  !
 ! R26   R(24,25)                1.1003         calculate D2E/DX2 analytically  !
 ! R27   R(24,26)                1.5074         calculate D2E/DX2 analytically  !
 ! R28   R(26,27)                1.1093         calculate D2E/DX2 analytically  !
 ! R29   R(26,28)                1.1082         calculate D2E/DX2 analytically  !
 ! R30   R(26,34)                1.4545         calculate D2E/DX2 analytically  !
 ! R31   R(29,30)                1.48           calculate D2E/DX2 analytically  !
 ! R32   R(29,34)                1.3868         calculate D2E/DX2 analytically  !
 ! R33   R(29,35)                1.2123         calculate D2E/DX2 analytically  !
 ! R34   R(30,31)                1.1027         calculate D2E/DX2 analytically  !
 ! R35   R(30,32)                1.1031         calculate D2E/DX2 analytically  !
 ! R36   R(30,33)                1.1102         calculate D2E/DX2 analytically  !
 ! A1    A(2,1,11)             105.429          calculate D2E/DX2 analytically  !
 ! A2    A(2,1,13)             132.1351         calculate D2E/DX2 analytically  !
 ! A3    A(11,1,13)            122.4359         calculate D2E/DX2 analytically  !
 ! A4    A(1,2,3)              110.3707         calculate D2E/DX2 analytically  !
 ! A5    A(1,2,5)              121.0914         calculate D2E/DX2 analytically  !
 ! A6    A(3,2,5)              126.1664         calculate D2E/DX2 analytically  !
 ! A7    A(2,3,4)              107.2708         calculate D2E/DX2 analytically  !
 ! A8    A(2,3,6)              124.363          calculate D2E/DX2 analytically  !
 ! A9    A(2,3,24)             110.9699         calculate D2E/DX2 analytically  !
 ! A10   A(4,3,6)              119.1351         calculate D2E/DX2 analytically  !
 ! A11   A(4,3,24)              97.9645         calculate D2E/DX2 analytically  !
 ! A12   A(6,3,24)              92.0311         calculate D2E/DX2 analytically  !
 ! A13   A(3,4,11)             105.9036         calculate D2E/DX2 analytically  !
 ! A14   A(3,4,12)             128.9754         calculate D2E/DX2 analytically  !
 ! A15   A(11,4,12)            125.1204         calculate D2E/DX2 analytically  !
 ! A16   A(8,7,9)              108.3675         calculate D2E/DX2 analytically  !
 ! A17   A(8,7,10)             108.378          calculate D2E/DX2 analytically  !
 ! A18   A(8,7,11)             110.7138         calculate D2E/DX2 analytically  !
 ! A19   A(9,7,10)             108.4725         calculate D2E/DX2 analytically  !
 ! A20   A(9,7,11)             109.9183         calculate D2E/DX2 analytically  !
 ! A21   A(10,7,11)            110.9158         calculate D2E/DX2 analytically  !
 ! A22   A(1,11,4)             110.8996         calculate D2E/DX2 analytically  !
 ! A23   A(1,11,7)             124.5202         calculate D2E/DX2 analytically  !
 ! A24   A(4,11,7)             124.5802         calculate D2E/DX2 analytically  !
 ! A25   A(4,12,33)            119.6893         calculate D2E/DX2 analytically  !
 ! A26   A(15,14,16)           117.8517         calculate D2E/DX2 analytically  !
 ! A27   A(15,14,18)           119.9605         calculate D2E/DX2 analytically  !
 ! A28   A(16,14,18)           121.8079         calculate D2E/DX2 analytically  !
 ! A29   A(14,16,17)           118.2687         calculate D2E/DX2 analytically  !
 ! A30   A(14,16,24)           122.4037         calculate D2E/DX2 analytically  !
 ! A31   A(17,16,24)           118.7579         calculate D2E/DX2 analytically  !
 ! A32   A(14,18,19)           120.9249         calculate D2E/DX2 analytically  !
 ! A33   A(14,18,20)           122.6929         calculate D2E/DX2 analytically  !
 ! A34   A(19,18,20)           115.255          calculate D2E/DX2 analytically  !
 ! A35   A(18,20,21)           111.664          calculate D2E/DX2 analytically  !
 ! A36   A(18,20,22)           113.7937         calculate D2E/DX2 analytically  !
 ! A37   A(18,20,23)           111.1152         calculate D2E/DX2 analytically  !
 ! A38   A(21,20,22)           106.8378         calculate D2E/DX2 analytically  !
 ! A39   A(21,20,23)           106.1503         calculate D2E/DX2 analytically  !
 ! A40   A(22,20,23)           106.8393         calculate D2E/DX2 analytically  !
 ! A41   A(3,24,16)             99.4095         calculate D2E/DX2 analytically  !
 ! A42   A(3,24,25)             92.971          calculate D2E/DX2 analytically  !
 ! A43   A(3,24,26)            106.2797         calculate D2E/DX2 analytically  !
 ! A44   A(16,24,25)           119.5512         calculate D2E/DX2 analytically  !
 ! A45   A(16,24,26)           119.1243         calculate D2E/DX2 analytically  !
 ! A46   A(25,24,26)           113.1532         calculate D2E/DX2 analytically  !
 ! A47   A(24,26,27)           111.8245         calculate D2E/DX2 analytically  !
 ! A48   A(24,26,28)           112.4595         calculate D2E/DX2 analytically  !
 ! A49   A(24,26,34)           107.628          calculate D2E/DX2 analytically  !
 ! A50   A(27,26,28)           109.3459         calculate D2E/DX2 analytically  !
 ! A51   A(27,26,34)           103.6277         calculate D2E/DX2 analytically  !
 ! A52   A(28,26,34)           111.6164         calculate D2E/DX2 analytically  !
 ! A53   A(30,29,34)           120.1942         calculate D2E/DX2 analytically  !
 ! A54   A(30,29,35)           127.1389         calculate D2E/DX2 analytically  !
 ! A55   A(34,29,35)           112.6583         calculate D2E/DX2 analytically  !
 ! A56   A(29,30,31)           111.7344         calculate D2E/DX2 analytically  !
 ! A57   A(29,30,32)           111.323          calculate D2E/DX2 analytically  !
 ! A58   A(29,30,33)           113.762          calculate D2E/DX2 analytically  !
 ! A59   A(31,30,32)           106.3942         calculate D2E/DX2 analytically  !
 ! A60   A(31,30,33)           106.7566         calculate D2E/DX2 analytically  !
 ! A61   A(32,30,33)           106.4198         calculate D2E/DX2 analytically  !
 ! A62   A(26,34,29)           122.9008         calculate D2E/DX2 analytically  !
 ! A63   L(12,33,30,15,-1)     167.0974         calculate D2E/DX2 analytically  !
 ! A64   L(12,33,30,15,-2)     180.5572         calculate D2E/DX2 analytically  !
 ! D1    D(11,1,2,3)             2.3273         calculate D2E/DX2 analytically  !
 ! D2    D(11,1,2,5)          -161.213          calculate D2E/DX2 analytically  !
 ! D3    D(13,1,2,3)          -177.648          calculate D2E/DX2 analytically  !
 ! D4    D(13,1,2,5)            18.8118         calculate D2E/DX2 analytically  !
 ! D5    D(2,1,11,4)            -0.0303         calculate D2E/DX2 analytically  !
 ! D6    D(2,1,11,7)           179.9419         calculate D2E/DX2 analytically  !
 ! D7    D(13,1,11,4)          179.948          calculate D2E/DX2 analytically  !
 ! D8    D(13,1,11,7)           -0.0798         calculate D2E/DX2 analytically  !
 ! D9    D(1,2,3,4)             -3.5554         calculate D2E/DX2 analytically  !
 ! D10   D(1,2,3,6)           -149.6788         calculate D2E/DX2 analytically  !
 ! D11   D(1,2,3,24)           102.3799         calculate D2E/DX2 analytically  !
 ! D12   D(5,2,3,4)            158.9537         calculate D2E/DX2 analytically  !
 ! D13   D(5,2,3,6)             12.8304         calculate D2E/DX2 analytically  !
 ! D14   D(5,2,3,24)           -95.1109         calculate D2E/DX2 analytically  !
 ! D15   D(2,3,4,11)             3.4322         calculate D2E/DX2 analytically  !
 ! D16   D(2,3,4,12)          -176.2975         calculate D2E/DX2 analytically  !
 ! D17   D(6,3,4,11)           151.6441         calculate D2E/DX2 analytically  !
 ! D18   D(6,3,4,12)           -28.0856         calculate D2E/DX2 analytically  !
 ! D19   D(24,3,4,11)         -111.524          calculate D2E/DX2 analytically  !
 ! D20   D(24,3,4,12)           68.7463         calculate D2E/DX2 analytically  !
 ! D21   D(2,3,24,16)           53.5747         calculate D2E/DX2 analytically  !
 ! D22   D(2,3,24,25)          -67.0359         calculate D2E/DX2 analytically  !
 ! D23   D(2,3,24,26)          177.793          calculate D2E/DX2 analytically  !
 ! D24   D(4,3,24,16)          165.5783         calculate D2E/DX2 analytically  !
 ! D25   D(4,3,24,25)           44.9677         calculate D2E/DX2 analytically  !
 ! D26   D(4,3,24,26)          -70.2034         calculate D2E/DX2 analytically  !
 ! D27   D(6,3,24,16)          -74.6276         calculate D2E/DX2 analytically  !
 ! D28   D(6,3,24,25)          164.7617         calculate D2E/DX2 analytically  !
 ! D29   D(6,3,24,26)           49.5906         calculate D2E/DX2 analytically  !
 ! D30   D(3,4,11,1)            -2.0307         calculate D2E/DX2 analytically  !
 ! D31   D(3,4,11,7)           177.9971         calculate D2E/DX2 analytically  !
 ! D32   D(12,4,11,1)          177.7124         calculate D2E/DX2 analytically  !
 ! D33   D(12,4,11,7)           -2.2598         calculate D2E/DX2 analytically  !
 ! D34   D(3,4,12,33)           11.5087         calculate D2E/DX2 analytically  !
 ! D35   D(11,4,12,33)        -168.1734         calculate D2E/DX2 analytically  !
 ! D36   D(8,7,11,1)          -126.2879         calculate D2E/DX2 analytically  !
 ! D37   D(8,7,11,4)            53.6806         calculate D2E/DX2 analytically  !
 ! D38   D(9,7,11,1)            -6.5954         calculate D2E/DX2 analytically  !
 ! D39   D(9,7,11,4)           173.3731         calculate D2E/DX2 analytically  !
 ! D40   D(10,7,11,1)          113.3562         calculate D2E/DX2 analytically  !
 ! D41   D(10,7,11,4)          -66.6754         calculate D2E/DX2 analytically  !
 ! D42   D(4,12,30,29)         -21.2929         calculate D2E/DX2 analytically  !
 ! D43   D(4,12,30,31)        -142.1895         calculate D2E/DX2 analytically  !
 ! D44   D(4,12,30,32)          99.605          calculate D2E/DX2 analytically  !
 ! D45   D(15,14,16,17)         -1.1206         calculate D2E/DX2 analytically  !
 ! D46   D(15,14,16,24)        170.1095         calculate D2E/DX2 analytically  !
 ! D47   D(18,14,16,17)       -174.0384         calculate D2E/DX2 analytically  !
 ! D48   D(18,14,16,24)         -2.8084         calculate D2E/DX2 analytically  !
 ! D49   D(15,14,18,19)        164.5108         calculate D2E/DX2 analytically  !
 ! D50   D(15,14,18,20)         -2.7722         calculate D2E/DX2 analytically  !
 ! D51   D(16,14,18,19)        -22.7175         calculate D2E/DX2 analytically  !
 ! D52   D(16,14,18,20)        169.9995         calculate D2E/DX2 analytically  !
 ! D53   D(14,16,24,3)         -65.6861         calculate D2E/DX2 analytically  !
 ! D54   D(14,16,24,25)         33.193          calculate D2E/DX2 analytically  !
 ! D55   D(14,16,24,26)        179.6303         calculate D2E/DX2 analytically  !
 ! D56   D(17,16,24,3)         105.5028         calculate D2E/DX2 analytically  !
 ! D57   D(17,16,24,25)       -155.6181         calculate D2E/DX2 analytically  !
 ! D58   D(17,16,24,26)         -9.1808         calculate D2E/DX2 analytically  !
 ! D59   D(14,18,20,21)       -144.2048         calculate D2E/DX2 analytically  !
 ! D60   D(14,18,20,22)        -23.1555         calculate D2E/DX2 analytically  !
 ! D61   D(14,18,20,23)         97.4856         calculate D2E/DX2 analytically  !
 ! D62   D(19,18,20,21)         47.8472         calculate D2E/DX2 analytically  !
 ! D63   D(19,18,20,22)        168.8965         calculate D2E/DX2 analytically  !
 ! D64   D(19,18,20,23)        -70.4625         calculate D2E/DX2 analytically  !
 ! D65   D(3,24,26,27)         177.6155         calculate D2E/DX2 analytically  !
 ! D66   D(3,24,26,28)          54.1329         calculate D2E/DX2 analytically  !
 ! D67   D(3,24,26,34)         -69.2083         calculate D2E/DX2 analytically  !
 ! D68   D(16,24,26,27)        -71.4269         calculate D2E/DX2 analytically  !
 ! D69   D(16,24,26,28)        165.0905         calculate D2E/DX2 analytically  !
 ! D70   D(16,24,26,34)         41.7493         calculate D2E/DX2 analytically  !
 ! D71   D(25,24,26,27)         77.0353         calculate D2E/DX2 analytically  !
 ! D72   D(25,24,26,28)        -46.4473         calculate D2E/DX2 analytically  !
 ! D73   D(25,24,26,34)       -169.7885         calculate D2E/DX2 analytically  !
 ! D74   D(24,26,34,29)        123.6378         calculate D2E/DX2 analytically  !
 ! D75   D(27,26,34,29)       -117.78           calculate D2E/DX2 analytically  !
 ! D76   D(28,26,34,29)         -0.2171         calculate D2E/DX2 analytically  !
 ! D77   D(34,29,30,31)         78.6767         calculate D2E/DX2 analytically  !
 ! D78   D(34,29,30,32)       -162.5214         calculate D2E/DX2 analytically  !
 ! D79   D(34,29,30,33)        -42.2958         calculate D2E/DX2 analytically  !
 ! D80   D(35,29,30,31)       -100.1744         calculate D2E/DX2 analytically  !
 ! D81   D(35,29,30,32)         18.6275         calculate D2E/DX2 analytically  !
 ! D82   D(35,29,30,33)        138.8531         calculate D2E/DX2 analytically  !
 ! D83   D(30,29,34,26)          4.644          calculate D2E/DX2 analytically  !
 ! D84   D(35,29,34,26)       -176.3485         calculate D2E/DX2 analytically  !
 --------------------------------------------------------------------------------
 Trust Radius=3.00D-01 FncErr=1.00D-07 GrdErr=1.00D-06
 Number of steps in this run=    194 maximum allowed number of steps=    210.
 Search for a saddle point of order  1.
 GradGradGradGradGradGradGradGradGradGradGradGradGradGradGradGradGradGrad

                          Input orientation:                          
 ---------------------------------------------------------------------
 Center     Atomic      Atomic             Coordinates (Angstroms)
 Number     Number       Type             X           Y           Z
 ---------------------------------------------------------------------
      1          6           0       -2.325188    0.808657   -0.642013
      2          6           0       -1.341749   -0.212826   -1.049849
      3          6           0       -0.058844    0.153234   -0.633217
      4          6           0       -0.168493    1.531501    0.013790
      5          1           0       -1.580916   -0.946552   -1.801734
      6          1           0        0.856742   -0.115081   -1.156421
      7          6           0       -2.122094    3.087777    0.574475
      8          1           0       -1.620187    3.979717    0.159787
      9          1           0       -3.198955    3.149634    0.331877
     10          1           0       -2.009442    3.103975    1.672358
     11          7           0       -1.549568    1.856161    0.005373
     12          8           0        0.712427    2.240534    0.452904
     13          8           0       -3.526488    0.871889   -0.762809
     14          6           0       -1.016740   -2.659300    0.229482
     15          1           0       -1.091880   -3.623208   -0.281440
     16          6           0        0.268692   -2.180095    0.543607
     17          1           0        1.134193   -2.801682    0.279546
     18          6           0       -2.144650   -1.889846    0.416787
     19          1           0       -2.147208   -1.057790    1.131916
     20          6           0       -3.476826   -2.282292   -0.101688
     21          1           0       -4.060173   -1.403410   -0.436081
     22          1           0       -3.434569   -2.978264   -0.951164
     23          1           0       -4.080164   -2.770916    0.682084
     24          6           0        0.490354   -0.883098    1.008014
     25          1           0       -0.267621   -0.395826    1.639428
     26          6           0        1.897745   -0.449651    1.330150
     27          1           0        2.278704   -0.936808    2.251019
     28          1           0        1.989235    0.650030    1.431853
     29          6           0        3.594256   -0.152510   -0.476387
     30          6           0        3.697376    1.293171   -0.176777
     31          1           0        4.356127    1.485327    0.686452
     32          1           0        4.127749    1.849271   -1.026736
     33          1           0        2.722751    1.773392    0.051208
     34          8           0        2.767635   -0.965290    0.284693
     35          8           0        4.185119   -0.765041   -1.339764
 ---------------------------------------------------------------------
                    Distance matrix (angstroms):
                    1          2          3          4          5
     1  C    0.000000
     2  C    1.475436   0.000000
     3  C    2.359231   1.397651   0.000000
     4  C    2.367259   2.355957   1.526519   0.000000
     5  H    2.231513   1.077444   2.211711   3.381096   0.000000
     6  H    3.352997   2.203242   1.088133   2.265333   2.655174
     7  C    2.591424   3.760498   3.785111   2.559867   4.713285
     8  H    3.345972   4.372432   4.208161   2.849999   5.302569
     9  H    2.681810   4.082220   4.446360   3.450106   4.893780
    10  H    3.274827   4.342510   4.222248   2.934726   5.353477
    11  N    1.455321   2.331821   2.351599   1.418747   3.334939
    12  O    3.532169   3.535093   2.476154   1.213082   4.527729
    13  O    1.209013   2.456030   3.543701   3.509177   2.858556
    14  C    3.807659   2.779848   3.093891   4.281222   2.716181
    15  H    4.614378   3.504796   3.930957   5.245077   3.116879
    16  C    4.131168   3.000462   2.633746   3.774623   3.231610
    17  H    5.084401   3.820963   3.314816   4.532559   3.891664
    18  C    2.904405   2.368136   3.102784   3.971551   2.475770
    19  H    2.581109   2.474435   2.990575   3.445279   2.989877
    20  C    3.342482   3.120938   4.230474   5.050091   2.875558
    21  H    2.818833   3.030517   4.297981   4.895024   2.867131
    22  H    3.958165   3.469479   4.615505   5.651227   2.878776
    23  H    4.200776   4.128236   5.143120   5.853083   3.967858
    24  C    3.675854   2.835607   2.017236   2.693111   3.491256
    25  H    3.299899   2.901629   2.347333   2.523314   3.724196
    26  C    4.827621   4.026761   2.836639   3.150731   4.707089
    27  H    5.710701   4.952531   3.869256   4.133584   5.596568
    28  H    4.789606   4.242502   2.950584   2.728312   5.074558
    29  C    5.999258   4.969572   3.669225   4.151439   5.400875
    30  C    6.059907   5.331328   3.951833   3.877894   5.959632
    31  H    6.845632   6.193889   4.796662   4.574581   6.881394
    32  H    6.547617   5.845356   4.534199   4.431858   6.403601
    33  H    5.185842   4.655915   3.290991   2.901586   5.417845
    34  O    5.471976   4.385686   3.175317   3.863703   4.823217
    35  O    6.734054   5.561948   4.399279   5.104914   5.787359
                    6          7          8          9         10
     6  H    0.000000
     7  C    4.704016   0.000000
     8  H    4.963361   1.104280   0.000000
     9  H    5.414986   1.105581   1.791971   0.000000
    10  H    5.155514   1.103766   1.790618   1.792740   0.000000
    11  N    3.320525   1.472597   2.130333   2.121357   2.132455
    12  O    2.856515   2.960931   2.924340   4.017464   3.105023
    13  O    4.510182   2.944624   3.760819   2.548281   3.635062
    14  C    3.450176   5.862570   6.666750   6.206147   6.023511
    15  H    4.107271   6.843336   7.634020   7.119502   7.065001
    16  C    2.738646   5.785092   6.454337   6.362029   5.863904
    17  H    3.058890   6.736180   7.320405   7.361866   6.833678
    18  C    3.825327   4.980171   5.898549   5.149284   5.151018
    19  H    3.892159   4.182953   5.157447   4.410062   4.198970
    20  C    4.958737   5.579439   6.536684   5.456282   5.857673
    21  H    5.133686   4.994811   5.940256   4.696985   5.382149
    22  H    5.162877   6.391167   7.275967   6.265209   6.775506
    23  H    5.899712   6.178179   7.203841   5.996006   6.307367
    24  C    2.325698   4.772912   5.368505   5.507367   4.752587
    25  H    3.026513   4.087626   4.812915   4.782541   3.909429
    26  C    2.716369   5.407730   5.776235   6.318841   5.292587
    27  H    3.782573   6.194765   6.614138   7.098370   5.920386
    28  H    2.926960   4.856000   5.072760   5.863044   4.697777
    29  C    2.820963   6.654354   6.683594   7.596391   6.828121
    30  C    3.318445   6.136059   5.967184   7.159928   6.266265
    31  H    4.266519   6.674409   6.497360   7.744347   6.641724
    32  H    3.817720   6.569499   6.243829   7.564216   6.820887
    33  H    2.916623   5.047171   4.872450   6.086002   5.176121
    34  O    2.539917   6.357734   6.612237   7.248105   6.426896
    35  O    3.396197   7.634753   7.646107   8.523122   7.900301
                   11         12         13         14         15
    11  N    0.000000
    12  O    2.337659   0.000000
    13  O    2.338185   4.617310   0.000000
    14  C    4.552309   5.200799   4.444409   0.000000
    15  H    5.505926   6.178855   5.134679   1.093529   0.000000
    16  C    4.459499   4.443770   5.042293   1.407355   2.148123
    17  H    5.382680   5.062794   6.025245   2.156222   2.438239
    18  C    3.815226   5.022373   3.305768   1.378159   2.144852
    19  H    3.180783   4.417863   3.035796   2.158050   3.113304
    20  C    4.566462   6.189779   3.223105   2.510743   2.741958
    21  H    4.137973   6.070118   2.359779   3.358976   3.709741
    22  H    5.276349   6.812109   3.855853   2.709531   2.520451
    23  H    5.317113   6.938017   3.957815   3.098689   3.253402
    24  C    3.559510   3.180337   4.727665   2.456082   3.416776
    25  H    3.063490   3.052659   4.242412   2.769917   3.845144
    26  C    4.353822   3.067839   5.962319   3.819456   4.648284
    27  H    5.243974   3.972649   6.786369   4.232439   4.999093
    28  H    4.001590   2.262362   5.940451   4.629605   5.539784
    29  C    5.543084   3.859427   7.199752   5.295614   5.834691
    30  C    5.280204   3.194357   7.259829   6.165222   6.864307
    31  H    5.956393   3.728462   8.038177   6.801063   7.530918
    32  H    5.770375   3.742572   7.720899   6.954931   7.599212
    33  H    4.273366   2.102614   6.366186   5.802097   6.617050
    34  O    5.164963   3.811756   6.639915   4.146590   4.720264
    35  O    6.447226   4.930186   7.904511   5.754137   6.093922
                   16         17         18         19         20
    16  C    0.000000
    17  H    1.097812   0.000000
    18  C    2.434039   3.406037   0.000000
    19  H    2.728049   3.812517   1.097148   0.000000
    20  C    3.802072   4.655814   1.482404   2.188394   0.000000
    21  H    4.505785   5.426668   2.152494   2.497499   1.106592
    22  H    4.072537   4.734914   2.172518   3.112032   1.098987
    23  H    4.390990   5.229962   2.143101   2.621730   1.103208
    24  C    1.395353   2.150851   2.882072   2.646243   4.350598
    25  H    2.161497   3.098791   2.692617   2.056359   4.109652
    26  C    2.503378   2.686788   4.387408   4.095214   5.856172
    27  H    2.915676   2.945228   4.882494   4.566807   6.361736
    28  H    3.429119   3.738078   4.956847   4.485172   6.389686
    29  C    4.026272   3.693434   6.062272   6.030803   7.394361
    30  C    4.933397   4.852418   6.679310   6.434194   8.016155
    31  H    5.492071   5.378185   7.329708   6.997089   8.727615
    32  H    5.796041   5.683231   7.443638   7.244713   8.703740
    33  H    4.679201   4.848397   6.102832   5.735854   7.409906
    34  O    2.790610   2.457742   5.000280   4.988189   6.393518
    35  O    4.570324   4.009766   6.664581   6.803916   7.908242
                   21         22         23         24         25
    21  H    0.000000
    22  H    1.771117   0.000000
    23  H    1.766569   1.768413   0.000000
    24  C    4.802440   4.861391   4.955777   0.000000
    25  H    4.439191   4.838358   4.592716   1.100293   0.000000
    26  C    6.286972   6.327073   6.445437   1.507447   2.188004
    27  H    6.900695   6.860248   6.801523   2.178564   2.674037
    28  H    6.655909   6.947009   7.007327   2.185581   2.496057
    29  C    7.756072   7.590433   8.191143   3.517302   4.410212
    30  C    8.216955   8.349220   8.817288   4.052760   4.676806
    31  H    8.968778   9.126904   9.449160   4.545002   5.081923
    32  H    8.830112   8.972149   9.572671   4.983642   5.609650
    33  H    7.505836   7.841911   8.205388   3.599446   4.021228
    34  O    6.879711   6.636772   7.092993   2.390807   3.372295
    35  O    8.319195   7.944118   8.742214   4.379188   5.370177
                   26         27         28         29         30
    26  C    0.000000
    27  H    1.109257   0.000000
    28  H    1.108157   1.809110   0.000000
    29  C    2.496000   3.128026   2.619455   0.000000
    30  C    2.923513   3.588820   2.432913   1.479998   0.000000
    31  H    3.194077   3.553913   2.618305   2.148290   1.102743
    32  H    3.976540   4.682401   3.472187   2.143508   1.103131
    33  H    2.694114   3.518740   1.925141   2.178756   1.110173
    34  O    1.454501   2.026401   2.128648   1.386779   2.485562
    35  O    3.529871   4.069109   3.808700   1.212326   2.413849
                   31         32         33         34         35
    31  H    0.000000
    32  H    1.766246   0.000000
    33  H    1.776073   1.772495   0.000000
    34  O    2.947921   3.389913   2.748983   0.000000
    35  O    3.032977   2.633611   3.242987   2.165230   0.000000
 Stoichiometry    C13H17NO4
 Framework group  C1[X(C13H17NO4)]
 Deg. of freedom    99
 Full point group                 C1      NOp   1
 Largest Abelian subgroup         C1      NOp   1
 Largest concise Abelian subgroup C1      NOp   1
                         Standard orientation:                         
 ---------------------------------------------------------------------
 Center     Atomic      Atomic             Coordinates (Angstroms)
 Number     Number       Type             X           Y           Z
 ---------------------------------------------------------------------
      1          6           0       -2.325188    0.808657   -0.642013
      2          6           0       -1.341749   -0.212826   -1.049849
      3          6           0       -0.058844    0.153234   -0.633217
      4          6           0       -0.168493    1.531501    0.013790
      5          1           0       -1.580916   -0.946552   -1.801734
      6          1           0        0.856742   -0.115081   -1.156421
      7          6           0       -2.122094    3.087777    0.574475
      8          1           0       -1.620187    3.979717    0.159787
      9          1           0       -3.198955    3.149634    0.331877
     10          1           0       -2.009442    3.103975    1.672358
     11          7           0       -1.549568    1.856161    0.005373
     12          8           0        0.712427    2.240534    0.452904
     13          8           0       -3.526488    0.871889   -0.762809
     14          6           0       -1.016740   -2.659300    0.229482
     15          1           0       -1.091880   -3.623208   -0.281440
     16          6           0        0.268692   -2.180095    0.543607
     17          1           0        1.134193   -2.801682    0.279546
     18          6           0       -2.144650   -1.889846    0.416787
     19          1           0       -2.147208   -1.057790    1.131916
     20          6           0       -3.476826   -2.282292   -0.101688
     21          1           0       -4.060173   -1.403410   -0.436081
     22          1           0       -3.434569   -2.978264   -0.951164
     23          1           0       -4.080164   -2.770916    0.682084
     24          6           0        0.490354   -0.883098    1.008014
     25          1           0       -0.267621   -0.395826    1.639428
     26          6           0        1.897745   -0.449651    1.330150
     27          1           0        2.278704   -0.936808    2.251019
     28          1           0        1.989235    0.650030    1.431853
     29          6           0        3.594256   -0.152510   -0.476387
     30          6           0        3.697376    1.293171   -0.176777
     31          1           0        4.356127    1.485327    0.686452
     32          1           0        4.127749    1.849271   -1.026736
     33          1           0        2.722751    1.773392    0.051208
     34          8           0        2.767635   -0.965290    0.284693
     35          8           0        4.185119   -0.765041   -1.339764
 ---------------------------------------------------------------------
 Rotational constants (GHZ):      0.6186657      0.3112395      0.2326722
 Standard basis: 6-31+G(d,p) (6D, 7F)
 There are   427 symmetry adapted cartesian basis functions of A   symmetry.
 There are   427 symmetry adapted basis functions of A   symmetry.
   427 basis functions,   695 primitive gaussians,   427 cartesian basis functions
    67 alpha electrons       67 beta electrons
       nuclear repulsion energy      1384.4406336193 Hartrees.
 NAtoms=   35 NActive=   35 NUniq=   35 SFac= 1.00D+00 NAtFMM=   60 NAOKFM=F Big=F
 Integral buffers will be    131072 words long.
 Raffenetti 2 integral format.
 Two-electron integral symmetry is turned on.
 Nuclear repulsion after empirical dispersion term =     1384.3986428799 Hartrees.
 Force inversion solution in PCM.
 ------------------------------------------------------------------------------
 Polarizable Continuum Model (PCM)
 =================================
 Model                : C-PCM.
 Atomic radii         : UFF (Universal Force Field).
 Polarization charges : Total charges.
 Charge compensation  : None.
 Solution method      : Matrix inversion.
 Cavity type          : Scaled VdW (van der Waals Surface) (Alpha=1.100).
 Cavity algorithm     : GePol (No added spheres)
                        Default sphere list used, NSphG=   35.
                        Lebedev-Laikov grids with approx.  5.0 points / Ang**2.
                        Smoothing algorithm: Karplus/York (Gamma=1.0000).
                        Polarization charges: spherical gaussians, with
                                              point-specific exponents (IZeta= 3).
                        Self-potential: point-specific (ISelfS= 7).
                        Self-field    : sphere-specific E.n sum rule (ISelfD= 2).
 1st derivatives      : Analytical E(r).r(x)/FMM algorithm (CHGder, D1EAlg=3).
                        Cavity 1st derivative terms included.
 2nd derivatives      : Analytical E(r).r(xy)/FMM algorithm (CHGder, D2EAlg=3).
                        Cavity 2nd derivative terms included.
 Solvent              : Water, Eps=  78.355300 Eps(inf)=   1.777849
 ------------------------------------------------------------------------------
 One-electron integrals computed using PRISM.
 NBasis=   427 RedAO= T EigKep=  2.75D-06  NBF=   427
 NBsUse=   427 1.00D-06 EigRej= -1.00D+00 NBFU=   427
 ExpMin= 4.38D-02 ExpMax= 5.48D+03 ExpMxC= 8.25D+02 IAcc=2 IRadAn=         4 AccDes= 0.00D+00
 Harris functional with IExCor=  402 and IRadAn=       4 diagonalized for initial guess.
 HarFok:  IExCor=  402 AccDes= 0.00D+00 IRadAn=         4 IDoV= 1 UseB2=F ITyADJ=14
 ICtDFT=  3500011 ScaDFX=  1.000000  1.000000  1.000000  1.000000
 FoFCou: FMM=F IPFlag=           0 FMFlag=      100000 FMFlg1=           0
         NFxFlg=           0 DoJE=T BraDBF=F KetDBF=T FulRan=T
         wScrn=  0.000000 ICntrl=     500 IOpCl=  0 I1Cent=   200000004 NGrid=           0
         NMat0=    1 NMatS0=      1 NMatT0=    0 NMatD0=    1 NMtDS0=    0 NMtDT0=    0
 Petite list used in FoFCou.
 Requested convergence on RMS density matrix=1.00D-08 within 128 cycles.
 Requested convergence on MAX density matrix=1.00D-06.
 Requested convergence on             energy=1.00D-06.
 No special actions if energy rises.
 Inv3:  Mode=1 IEnd=    18273072.
 Iteration    1 A*A^-1 deviation from unit magnitude is 9.33D-15 for   2458.
 Iteration    1 A*A^-1 deviation from orthogonality  is 2.50D-15 for   2453   1154.
 Iteration    1 A^-1*A deviation from unit magnitude is 9.33D-15 for   2458.
 Iteration    1 A^-1*A deviation from orthogonality  is 1.61D-15 for   1303    985.
 Error on total polarization charges =  0.01822
 SCF Done:  E(RB3LYP) =  -861.314086272     A.U. after   15 cycles
            NFock= 15  Conv=0.70D-08     -V/T= 2.0097
 DoSCS=F DFT=T ScalE2(SS,OS)=  1.000000  1.000000
 Range of M.O.s used for correlation:     1   427
 NBasis=   427 NAE=    67 NBE=    67 NFC=     0 NFV=     0
 NROrb=    427 NOA=    67 NOB=    67 NVA=   360 NVB=   360

 **** Warning!!: The largest alpha MO coefficient is  0.10728725D+03

 PrsmSu:  requested number of processors reduced to:   2 ShMem   1 Linda.
 Symmetrizing basis deriv contribution to polar:
 IMax=3 JMax=2 DiffMx= 0.00D+00
 G2DrvN: will do    12 centers at a time, making    3 passes.
 Calling FoFCou, ICntrl=  3107 FMM=F I1Cent=   0 AccDes= 0.00D+00.
 Calling FoFCou, ICntrl=  3107 FMM=F I1Cent=   0 AccDes= 0.00D+00.
 Calling FoFCou, ICntrl=  3107 FMM=F I1Cent=   0 AccDes= 0.00D+00.
 NEqPCM:  Using equilibrium solvation (IEInf=0, Eps=  78.3553, EpsInf=   1.7778)
 G2PCM: DoFxE=T DoFxN=T DoGrad=T DoDP/DQ/DG/TGxP=FFFF NFrqRd=   0 IEInf=0 SqF1=F DoCFld=F IF1Alg=4.
 End of G2Drv F.D. properties file   721 does not exist.
 End of G2Drv F.D. properties file   722 does not exist.
 End of G2Drv F.D. properties file   788 does not exist.
          IDoAtm=11111111111111111111111111111111111
 NEqPCM:  Using equilibrium solvation (IEInf=0, Eps=  78.3553, EpsInf=   1.7778)
          Differentiating once with respect to nuclear coordinates.
          There are   108 degrees of freedom in the 1st order CPHF.  IDoFFX=6 NUNeed=     0.
    105 vectors produced by pass  0 Test12= 2.41D-14 1.00D-09 XBig12= 2.79D-01 2.08D-01.
 AX will form    36 AO Fock derivatives at one time.
    105 vectors produced by pass  1 Test12= 2.41D-14 1.00D-09 XBig12= 1.67D-01 8.90D-02.
    102 vectors produced by pass  2 Test12= 2.41D-14 1.00D-09 XBig12= 1.65D-03 3.57D-03.
 PrRfSu:  requested number of processors reduced to:   3 ShMem   1 Linda.
 PrRfSu:  requested number of processors reduced to:   3 ShMem   1 Linda.
    102 vectors produced by pass  3 Test12= 2.41D-14 1.00D-09 XBig12= 5.51D-06 1.60D-04.
 PrRfSu:  requested number of processors reduced to:   3 ShMem   1 Linda.
 PrRfSu:  requested number of processors reduced to:   3 ShMem   1 Linda.
    102 vectors produced by pass  4 Test12= 2.41D-14 1.00D-09 XBig12= 1.01D-08 8.11D-06.
 PrRfSu:  requested number of processors reduced to:   3 ShMem   1 Linda.
 PrRfSu:  requested number of processors reduced to:   3 ShMem   1 Linda.
    100 vectors produced by pass  5 Test12= 2.41D-14 1.00D-09 XBig12= 1.79D-11 3.20D-07.
 PrRfSu:  requested number of processors reduced to:   3 ShMem   1 Linda.
     65 vectors produced by pass  6 Test12= 2.41D-14 1.00D-09 XBig12= 5.76D-13 5.85D-08.
     24 vectors produced by pass  7 Test12= 2.41D-14 1.00D-09 XBig12= 2.17D-15 4.00D-09.
     22 vectors produced by pass  8 Test12= 2.41D-14 1.00D-09 XBig12= 4.57D-15 5.91D-09.
     22 vectors produced by pass  9 Test12= 2.41D-14 1.00D-09 XBig12= 1.33D-14 7.68D-09.
     21 vectors produced by pass 10 Test12= 2.41D-14 1.00D-09 XBig12= 4.75D-15 5.50D-09.
     19 vectors produced by pass 11 Test12= 2.41D-14 1.00D-09 XBig12= 4.44D-15 4.25D-09.
     16 vectors produced by pass 12 Test12= 2.41D-14 1.00D-09 XBig12= 2.74D-15 5.34D-09.
     16 vectors produced by pass 13 Test12= 2.41D-14 1.00D-09 XBig12= 4.53D-15 5.37D-09.
     16 vectors produced by pass 14 Test12= 2.41D-14 1.00D-09 XBig12= 6.22D-15 4.70D-09.
     16 vectors produced by pass 15 Test12= 2.41D-14 1.00D-09 XBig12= 5.51D-15 4.74D-09.
     16 vectors produced by pass 16 Test12= 2.41D-14 1.00D-09 XBig12= 5.35D-15 4.26D-09.
     14 vectors produced by pass 17 Test12= 2.41D-14 1.00D-09 XBig12= 2.31D-15 3.33D-09.
     14 vectors produced by pass 18 Test12= 2.41D-14 1.00D-09 XBig12= 5.30D-15 4.39D-09.
      5 vectors produced by pass 19 Test12= 2.41D-14 1.00D-09 XBig12= 8.73D-16 1.91D-09.
      5 vectors produced by pass 20 Test12= 2.41D-14 1.00D-09 XBig12= 3.45D-15 3.33D-09.
      5 vectors produced by pass 21 Test12= 2.41D-14 1.00D-09 XBig12= 3.97D-15 3.66D-09.
      5 vectors produced by pass 22 Test12= 2.41D-14 1.00D-09 XBig12= 5.17D-15 4.55D-09.
      5 vectors produced by pass 23 Test12= 2.41D-14 1.00D-09 XBig12= 2.66D-15 2.89D-09.
      5 vectors produced by pass 24 Test12= 2.41D-14 1.00D-09 XBig12= 3.40D-15 3.68D-09.
      5 vectors produced by pass 25 Test12= 2.41D-14 1.00D-09 XBig12= 4.46D-15 3.65D-09.
      5 vectors produced by pass 26 Test12= 2.41D-14 1.00D-09 XBig12= 1.86D-15 2.29D-09.
      5 vectors produced by pass 27 Test12= 2.41D-14 1.00D-09 XBig12= 2.73D-15 2.75D-09.
      3 vectors produced by pass 28 Test12= 2.41D-14 1.00D-09 XBig12= 7.94D-16 1.77D-09.
      3 vectors produced by pass 29 Test12= 2.41D-14 1.00D-09 XBig12= 2.53D-15 2.66D-09.
      3 vectors produced by pass 30 Test12= 2.41D-14 1.00D-09 XBig12= 2.07D-15 2.74D-09.
      3 vectors produced by pass 31 Test12= 2.41D-14 1.00D-09 XBig12= 3.30D-15 3.52D-09.
      3 vectors produced by pass 32 Test12= 2.41D-14 1.00D-09 XBig12= 3.82D-15 3.73D-09.
      3 vectors produced by pass 33 Test12= 2.41D-14 1.00D-09 XBig12= 2.60D-15 2.98D-09.
      3 vectors produced by pass 34 Test12= 2.41D-14 1.00D-09 XBig12= 2.67D-15 2.95D-09.
      3 vectors produced by pass 35 Test12= 2.41D-14 1.00D-09 XBig12= 2.85D-15 3.00D-09.
      3 vectors produced by pass 36 Test12= 2.41D-14 1.00D-09 XBig12= 1.81D-15 2.74D-09.
      3 vectors produced by pass 37 Test12= 2.41D-14 1.00D-09 XBig12= 1.83D-15 2.42D-09.
      3 vectors produced by pass 38 Test12= 2.41D-14 1.00D-09 XBig12= 2.31D-15 3.02D-09.
      3 vectors produced by pass 39 Test12= 2.41D-14 1.00D-09 XBig12= 2.17D-15 2.76D-09.
      3 vectors produced by pass 40 Test12= 2.41D-14 1.00D-09 XBig12= 1.61D-15 2.27D-09.
      3 vectors produced by pass 41 Test12= 2.41D-14 1.00D-09 XBig12= 2.20D-15 3.29D-09.
      3 vectors produced by pass 42 Test12= 2.41D-14 1.00D-09 XBig12= 1.43D-15 2.11D-09.
      3 vectors produced by pass 43 Test12= 2.41D-14 1.00D-09 XBig12= 1.24D-15 2.30D-09.
      3 vectors produced by pass 44 Test12= 2.41D-14 1.00D-09 XBig12= 1.72D-15 2.44D-09.
      3 vectors produced by pass 45 Test12= 2.41D-14 1.00D-09 XBig12= 1.38D-15 2.30D-09.
      3 vectors produced by pass 46 Test12= 2.41D-14 1.00D-09 XBig12= 1.70D-15 2.36D-09.
      2 vectors produced by pass 47 Test12= 2.41D-14 1.00D-09 XBig12= 1.09D-15 1.97D-09.
 InvSVY:  IOpt=1 It=  1 EMax= 9.99D-16
 Solved reduced A of dimension  1001 with   108 vectors.
 End of Minotr F.D. properties file   721 does not exist.
 End of Minotr F.D. properties file   722 does not exist.
 End of Minotr F.D. properties file   788 does not exist.

 **********************************************************************

            Population analysis using the SCF density.

 **********************************************************************

 Orbital symmetries:
       Occupied  (A) (A) (A) (A) (A) (A) (A) (A) (A) (A) (A) (A)
                 (A) (A) (A) (A) (A) (A) (A) (A) (A) (A) (A) (A)
                 (A) (A) (A) (A) (A) (A) (A) (A) (A) (A) (A) (A)
                 (A) (A) (A) (A) (A) (A) (A) (A) (A) (A) (A) (A)
                 (A) (A) (A) (A) (A) (A) (A) (A) (A) (A) (A) (A)
                 (A) (A) (A) (A) (A) (A) (A)
       Virtual   (A) (A) (A) (A) (A) (A) (A) (A) (A) (A) (A) (A)
                 (A) (A) (A) (A) (A) (A) (A) (A) (A) (A) (A) (A)
                 (A) (A) (A) (A) (A) (A) (A) (A) (A) (A) (A) (A)
                 (A) (A) (A) (A) (A) (A) (A) (A) (A) (A) (A) (A)
                 (A) (A) (A) (A) (A) (A) (A) (A) (A) (A) (A) (A)
                 (A) (A) (A) (A) (A) (A) (A) (A) (A) (A) (A) (A)
                 (A) (A) (A) (A) (A) (A) (A) (A) (A) (A) (A) (A)
                 (A) (A) (A) (A) (A) (A) (A) (A) (A) (A) (A) (A)
                 (A) (A) (A) (A) (A) (A) (A) (A) (A) (A) (A) (A)
                 (A) (A) (A) (A) (A) (A) (A) (A) (A) (A) (A) (A)
                 (A) (A) (A) (A) (A) (A) (A) (A) (A) (A) (A) (A)
                 (A) (A) (A) (A) (A) (A) (A) (A) (A) (A) (A) (A)
                 (A) (A) (A) (A) (A) (A) (A) (A) (A) (A) (A) (A)
                 (A) (A) (A) (A) (A) (A) (A) (A) (A) (A) (A) (A)
                 (A) (A) (A) (A) (A) (A) (A) (A) (A) (A) (A) (A)
                 (A) (A) (A) (A) (A) (A) (A) (A) (A) (A) (A) (A)
                 (A) (A) (A) (A) (A) (A) (A) (A) (A) (A) (A) (A)
                 (A) (A) (A) (A) (A) (A) (A) (A) (A) (A) (A) (A)
                 (A) (A) (A) (A) (A) (A) (A) (A) (A) (A) (A) (A)
                 (A) (A) (A) (A) (A) (A) (A) (A) (A) (A) (A) (A)
                 (A) (A) (A) (A) (A) (A) (A) (A) (A) (A) (A) (A)
                 (A) (A) (A) (A) (A) (A) (A) (A) (A) (A) (A) (A)
                 (A) (A) (A) (A) (A) (A) (A) (A) (A) (A) (A) (A)
                 (A) (A) (A) (A) (A) (A) (A) (A) (A) (A) (A) (A)
                 (A) (A) (A) (A) (A) (A) (A) (A) (A) (A) (A) (A)
                 (A) (A) (A) (A) (A) (A) (A) (A) (A) (A) (A) (A)
                 (A) (A) (A) (A) (A) (A) (A) (A) (A) (A) (A) (A)
                 (A) (A) (A) (A) (A) (A) (A) (A) (A) (A) (A) (A)
                 (A) (A) (A) (A) (A) (A) (A) (A) (A) (A) (A) (A)
                 (A) (A) (A) (A) (A) (A) (A) (A) (A) (A) (A) (A)
 The electronic state is 1-A.
 Alpha  occ. eigenvalues --  -19.20392 -19.16604 -19.15873 -19.15716 -14.39067
 Alpha  occ. eigenvalues --  -10.33882 -10.32465 -10.31756 -10.26011 -10.23128
 Alpha  occ. eigenvalues --  -10.23061 -10.23054 -10.22957 -10.21165 -10.20805
 Alpha  occ. eigenvalues --  -10.20398 -10.20270 -10.18936  -1.10907  -1.08271
 Alpha  occ. eigenvalues --   -1.06910  -1.02848  -0.95311  -0.85398  -0.81281
 Alpha  occ. eigenvalues --   -0.79697  -0.76163  -0.73667  -0.70644  -0.68674
 Alpha  occ. eigenvalues --   -0.66481  -0.62306  -0.60178  -0.58067  -0.55919
 Alpha  occ. eigenvalues --   -0.53472  -0.52149  -0.50964  -0.50281  -0.49741
 Alpha  occ. eigenvalues --   -0.48597  -0.47200  -0.47024  -0.46024  -0.45218
 Alpha  occ. eigenvalues --   -0.44593  -0.43981  -0.43810  -0.42705  -0.41739
 Alpha  occ. eigenvalues --   -0.41373  -0.40558  -0.40148  -0.39672  -0.39483
 Alpha  occ. eigenvalues --   -0.38558  -0.37285  -0.36716  -0.36153  -0.35196
 Alpha  occ. eigenvalues --   -0.31108  -0.30848  -0.29535  -0.28680  -0.28016
 Alpha  occ. eigenvalues --   -0.26282  -0.23316
 Alpha virt. eigenvalues --   -0.08404  -0.04343  -0.01766   0.00091   0.00787
 Alpha virt. eigenvalues --    0.01118   0.01657   0.02169   0.02726   0.02983
 Alpha virt. eigenvalues --    0.03419   0.04120   0.04365   0.05214   0.05406
 Alpha virt. eigenvalues --    0.05897   0.06362   0.06620   0.06779   0.07169
 Alpha virt. eigenvalues --    0.08417   0.08589   0.08861   0.09079   0.09232
 Alpha virt. eigenvalues --    0.09996   0.10140   0.10202   0.10457   0.10800
 Alpha virt. eigenvalues --    0.11692   0.12163   0.12407   0.13107   0.13579
 Alpha virt. eigenvalues --    0.14168   0.14464   0.14649   0.14954   0.15704
 Alpha virt. eigenvalues --    0.15836   0.16357   0.16757   0.17102   0.17834
 Alpha virt. eigenvalues --    0.18056   0.18299   0.18841   0.19090   0.19706
 Alpha virt. eigenvalues --    0.20123   0.20371   0.20648   0.21204   0.21273
 Alpha virt. eigenvalues --    0.21933   0.22209   0.22632   0.23051   0.23547
 Alpha virt. eigenvalues --    0.23778   0.24165   0.24650   0.24947   0.25068
 Alpha virt. eigenvalues --    0.25314   0.25671   0.26179   0.26296   0.26644
 Alpha virt. eigenvalues --    0.27113   0.27802   0.27937   0.28132   0.29024
 Alpha virt. eigenvalues --    0.29276   0.29890   0.30507   0.30684   0.30900
 Alpha virt. eigenvalues --    0.31736   0.31985   0.32394   0.33013   0.33785
 Alpha virt. eigenvalues --    0.34465   0.35005   0.35357   0.35676   0.36050
 Alpha virt. eigenvalues --    0.36542   0.37039   0.37303   0.38100   0.38664
 Alpha virt. eigenvalues --    0.38834   0.39495   0.39868   0.41056   0.41167
 Alpha virt. eigenvalues --    0.42232   0.43854   0.44616   0.44904   0.45919
 Alpha virt. eigenvalues --    0.47023   0.47235   0.48483   0.48772   0.50940
 Alpha virt. eigenvalues --    0.54278   0.57796   0.61917   0.64565   0.65600
 Alpha virt. eigenvalues --    0.66427   0.67386   0.69402   0.69581   0.70479
 Alpha virt. eigenvalues --    0.71369   0.72357   0.72569   0.73429   0.73668
 Alpha virt. eigenvalues --    0.76228   0.76547   0.77428   0.77800   0.78708
 Alpha virt. eigenvalues --    0.79521   0.79903   0.81003   0.81671   0.83493
 Alpha virt. eigenvalues --    0.84188   0.85077   0.85530   0.86462   0.87399
 Alpha virt. eigenvalues --    0.88301   0.90584   0.91612   0.92082   0.93464
 Alpha virt. eigenvalues --    0.93732   0.94702   0.96162   0.97152   0.97311
 Alpha virt. eigenvalues --    0.98036   0.98652   0.99589   1.00290   1.01026
 Alpha virt. eigenvalues --    1.01426   1.03583   1.04298   1.05683   1.07315
 Alpha virt. eigenvalues --    1.09226   1.09610   1.11200   1.11825   1.13605
 Alpha virt. eigenvalues --    1.14152   1.15210   1.16755   1.17994   1.18177
 Alpha virt. eigenvalues --    1.21112   1.21422   1.23029   1.24027   1.24384
 Alpha virt. eigenvalues --    1.26467   1.27210   1.27903   1.28847   1.29672
 Alpha virt. eigenvalues --    1.30408   1.32450   1.32961   1.33418   1.34697
 Alpha virt. eigenvalues --    1.35489   1.36018   1.37118   1.38434   1.38561
 Alpha virt. eigenvalues --    1.39070   1.39417   1.40260   1.40920   1.42084
 Alpha virt. eigenvalues --    1.43356   1.45622   1.46324   1.47512   1.48939
 Alpha virt. eigenvalues --    1.51420   1.53195   1.54820   1.56358   1.57250
 Alpha virt. eigenvalues --    1.59776   1.61566   1.64944   1.66094   1.68045
 Alpha virt. eigenvalues --    1.68804   1.69698   1.71542   1.72242   1.74537
 Alpha virt. eigenvalues --    1.74778   1.77057   1.79022   1.80534   1.81697
 Alpha virt. eigenvalues --    1.82012   1.83391   1.84189   1.85452   1.86356
 Alpha virt. eigenvalues --    1.87697   1.88925   1.89392   1.90991   1.91346
 Alpha virt. eigenvalues --    1.92850   1.94721   1.96779   1.97863   1.98246
 Alpha virt. eigenvalues --    1.99546   2.00044   2.00726   2.02299   2.02656
 Alpha virt. eigenvalues --    2.03585   2.04006   2.05197   2.05384   2.06242
 Alpha virt. eigenvalues --    2.07074   2.08222   2.08782   2.09594   2.10926
 Alpha virt. eigenvalues --    2.11413   2.12089   2.13152   2.13427   2.13641
 Alpha virt. eigenvalues --    2.15139   2.16247   2.18064   2.19918   2.20166
 Alpha virt. eigenvalues --    2.21508   2.22815   2.24352   2.27332   2.28413
 Alpha virt. eigenvalues --    2.29631   2.32649   2.35037   2.37655   2.38860
 Alpha virt. eigenvalues --    2.39555   2.39822   2.40819   2.41550   2.42625
 Alpha virt. eigenvalues --    2.44293   2.45404   2.46421   2.48633   2.50091
 Alpha virt. eigenvalues --    2.50204   2.51700   2.53825   2.55009   2.57064
 Alpha virt. eigenvalues --    2.57994   2.59321   2.61210   2.62306   2.62722
 Alpha virt. eigenvalues --    2.64408   2.66334   2.67438   2.67889   2.69939
 Alpha virt. eigenvalues --    2.70501   2.71157   2.71273   2.73306   2.74031
 Alpha virt. eigenvalues --    2.74985   2.79012   2.79181   2.81321   2.81594
 Alpha virt. eigenvalues --    2.83192   2.83968   2.85160   2.85426   2.87213
 Alpha virt. eigenvalues --    2.88074   2.89120   2.92280   2.95570   2.96843
 Alpha virt. eigenvalues --    2.98740   3.02517   3.04903   3.05218   3.10771
 Alpha virt. eigenvalues --    3.16938   3.20032   3.21080   3.24156   3.26068
 Alpha virt. eigenvalues --    3.26761   3.29077   3.30217   3.32256   3.33395
 Alpha virt. eigenvalues --    3.37756   3.41450   3.43028   3.44415   3.44761
 Alpha virt. eigenvalues --    3.45921   3.47876   3.48463   3.51515   3.52953
 Alpha virt. eigenvalues --    3.66881   3.69023   4.26167   4.31178   4.37047
 Alpha virt. eigenvalues --    4.39758   4.40446   4.42246   4.43738   4.47159
 Alpha virt. eigenvalues --    4.50955   4.56135   4.58423   4.59941   4.65783
 Alpha virt. eigenvalues --    4.70964   4.76113   4.77355   4.87139   5.17966
          Condensed to atoms (all electrons):
               1          2          3          4          5          6
     1  C    7.490050  -2.719394   1.618489  -1.169700  -0.102839   0.032147
     2  C   -2.719394  14.314355  -6.279844   1.253067   0.320028   0.085366
     3  C    1.618489  -6.279844  12.699814  -1.670497   0.042943   0.186098
     4  C   -1.169700   1.253067  -1.670497   7.407987   0.017285  -0.044537
     5  H   -0.102839   0.320028   0.042943   0.017285   0.519180  -0.003708
     6  H    0.032147   0.085366   0.186098  -0.044537  -0.003708   0.527596
     7  C    0.032682  -0.095194  -0.065260  -0.187419  -0.000553   0.003507
     8  H   -0.001122  -0.001634   0.006627   0.003294   0.000004   0.000005
     9  H    0.003672  -0.003548  -0.005234  -0.007644  -0.000003   0.000003
    10  H   -0.005136   0.003135  -0.004878  -0.007616   0.000000  -0.000003
    11  N    0.334962  -0.542298  -0.235689   0.141532   0.016187   0.019616
    12  O    0.097855  -0.137397  -0.075053   0.407251  -0.000714   0.000586
    13  O    0.315977   0.011575  -0.134541   0.127774   0.003723  -0.000855
    14  C   -0.534278   0.411825  -0.315961   0.415871   0.001872  -0.006626
    15  H    0.009909   0.006851  -0.007688  -0.002156   0.000507  -0.000006
    16  C    0.116221   0.026366   0.412364  -0.962029  -0.013205   0.001241
    17  H   -0.003593  -0.042426   0.040570   0.017746  -0.000031   0.000638
    18  C    0.235431  -0.015471   0.016799  -0.222281   0.034192   0.010486
    19  H   -0.040127   0.029979  -0.012354   0.003646   0.001847  -0.000140
    20  C   -0.167481   0.368793  -0.358111   0.087391  -0.006742   0.003051
    21  H    0.018235  -0.026664   0.003932  -0.000789  -0.000257  -0.000003
    22  H   -0.013894   0.000340   0.010592   0.000354   0.000966  -0.000003
    23  H    0.007689   0.009444  -0.006616   0.001087  -0.000017   0.000001
    24  C    0.155191  -0.228190  -0.423280   0.334196  -0.018576   0.031454
    25  H   -0.013783  -0.017086   0.008198  -0.011872  -0.000131   0.002994
    26  C    0.067476  -0.401936   0.568348   0.051264   0.005754  -0.051299
    27  H    0.000348  -0.001163   0.008843   0.016557   0.000001  -0.000013
    28  H   -0.000590  -0.008733  -0.024836   0.023222   0.000000   0.000247
    29  C    0.031596  -0.272421  -0.002154   0.120568  -0.000537  -0.004164
    30  C   -0.004690   0.067180   0.108894  -0.145805   0.000120   0.001433
    31  H   -0.000264   0.000072  -0.007039   0.004112   0.000000   0.000023
    32  H    0.000120   0.001285   0.001624  -0.001821   0.000000   0.000031
    33  H   -0.001539   0.013788   0.009992   0.011650   0.000000  -0.000215
    34  O   -0.003486   0.052356  -0.006476   0.018675  -0.000028   0.008935
    35  O   -0.000552   0.003317  -0.009785  -0.002838  -0.000007   0.001171
               7          8          9         10         11         12
     1  C    0.032682  -0.001122   0.003672  -0.005136   0.334962   0.097855
     2  C   -0.095194  -0.001634  -0.003548   0.003135  -0.542298  -0.137397
     3  C   -0.065260   0.006627  -0.005234  -0.004878  -0.235689  -0.075053
     4  C   -0.187419   0.003294  -0.007644  -0.007616   0.141532   0.407251
     5  H   -0.000553   0.000004  -0.000003   0.000000   0.016187  -0.000714
     6  H    0.003507   0.000005   0.000003  -0.000003   0.019616   0.000586
     7  C    5.195413   0.399923   0.423656   0.404565   0.162705  -0.003768
     8  H    0.399923   0.525239  -0.024406  -0.031521  -0.048217   0.003178
     9  H    0.423656  -0.024406   0.502282  -0.025172  -0.049193  -0.000059
    10  H    0.404565  -0.031521  -0.025172   0.531196  -0.040941   0.002687
    11  N    0.162705  -0.048217  -0.049193  -0.040941   7.382037  -0.069261
    12  O   -0.003768   0.003178  -0.000059   0.002687  -0.069261   8.324092
    13  O   -0.061210   0.000474   0.007057   0.000371  -0.106647  -0.002204
    14  C   -0.010939   0.000459  -0.000268  -0.001311   0.003054   0.002735
    15  H    0.000065   0.000000   0.000000   0.000000   0.000154  -0.000008
    16  C   -0.008115  -0.000266   0.000187   0.001159   0.068156   0.026261
    17  H    0.000113   0.000000   0.000000   0.000000   0.000200  -0.000041
    18  C    0.010048  -0.001082  -0.000845   0.004441   0.030996   0.002047
    19  H   -0.000692   0.000003  -0.000003  -0.000045   0.006128   0.000085
    20  C   -0.002439   0.000019   0.000076  -0.000330  -0.017420  -0.000389
    21  H    0.000325   0.000000   0.000001  -0.000001  -0.001449   0.000002
    22  H   -0.000074   0.000000   0.000000   0.000000   0.000013   0.000000
    23  H    0.000173   0.000000   0.000000   0.000000   0.000091  -0.000001
    24  C    0.019742  -0.002728   0.000628   0.005083  -0.004155   0.101237
    25  H    0.002351   0.000011   0.000003  -0.000105   0.015448   0.002076
    26  C   -0.000966   0.001857   0.000034  -0.003768  -0.030028  -0.144843
    27  H    0.000328   0.000000   0.000000   0.000000   0.000208  -0.001009
    28  H   -0.000006   0.000000   0.000000  -0.000001  -0.002041  -0.005924
    29  C    0.000192   0.000071   0.000031  -0.000216  -0.001740   0.031558
    30  C   -0.002347  -0.000022  -0.000033   0.000197  -0.005613  -0.066493
    31  H    0.000027   0.000000   0.000000   0.000000   0.000100   0.001693
    32  H    0.000015   0.000000   0.000000   0.000000   0.000108   0.001880
    33  H    0.000534  -0.000001   0.000000   0.000001  -0.001150  -0.008509
    34  O    0.001296  -0.000001   0.000000   0.000001   0.003832   0.001026
    35  O   -0.000033   0.000000   0.000000   0.000000   0.000091  -0.000236
              13         14         15         16         17         18
     1  C    0.315977  -0.534278   0.009909   0.116221  -0.003593   0.235431
     2  C    0.011575   0.411825   0.006851   0.026366  -0.042426  -0.015471
     3  C   -0.134541  -0.315961  -0.007688   0.412364   0.040570   0.016799
     4  C    0.127774   0.415871  -0.002156  -0.962029   0.017746  -0.222281
     5  H    0.003723   0.001872   0.000507  -0.013205  -0.000031   0.034192
     6  H   -0.000855  -0.006626  -0.000006   0.001241   0.000638   0.010486
     7  C   -0.061210  -0.010939   0.000065  -0.008115   0.000113   0.010048
     8  H    0.000474   0.000459   0.000000  -0.000266   0.000000  -0.001082
     9  H    0.007057  -0.000268   0.000000   0.000187   0.000000  -0.000845
    10  H    0.000371  -0.001311   0.000000   0.001159   0.000000   0.004441
    11  N   -0.106647   0.003054   0.000154   0.068156   0.000200   0.030996
    12  O   -0.002204   0.002735  -0.000008   0.026261  -0.000041   0.002047
    13  O    8.412585  -0.018590  -0.000017   0.020217  -0.000006  -0.000960
    14  C   -0.018590   7.613217   0.329621  -1.767132  -0.043163  -1.410779
    15  H   -0.000017   0.329621   0.547910   0.024714  -0.007176  -0.060482
    16  C    0.020217  -1.767132   0.024714   9.835040   0.359563   0.799995
    17  H   -0.000006  -0.043163  -0.007176   0.359563   0.537205  -0.003054
    18  C   -0.000960  -1.410779  -0.060482   0.799995  -0.003054   8.443792
    19  H    0.001530   0.161172   0.003997  -0.079844   0.000020   0.118006
    20  C   -0.000368   0.602819  -0.014131  -0.297548   0.006057  -1.338725
    21  H    0.001509   0.004093   0.000111  -0.008982   0.000003  -0.149546
    22  H    0.001289   0.074161   0.001972  -0.021763  -0.000004  -0.205794
    23  H   -0.001022   0.026506   0.000306  -0.010042   0.000001  -0.110761
    24  C   -0.024642   0.487023   0.014049  -2.554027   0.013003  -0.269902
    25  H    0.000018  -0.053406   0.000015   0.136384   0.003681  -0.015418
    26  C   -0.003531   0.219248   0.004154  -0.180667  -0.043266  -0.306512
    27  H    0.000000   0.012284  -0.000002   0.002587   0.000146  -0.004241
    28  H    0.000010  -0.005435   0.000002  -0.012876   0.000137  -0.003684
    29  C    0.000223   0.038164   0.000381  -0.173108  -0.000805  -0.023213
    30  C   -0.000167  -0.028120  -0.000127   0.047621   0.000736   0.010843
    31  H    0.000000   0.000266   0.000000   0.000207   0.000000  -0.000093
    32  H    0.000000  -0.000137   0.000000  -0.000323   0.000000   0.000025
    33  H    0.000000   0.000345   0.000000   0.002866   0.000000   0.000869
    34  O   -0.000028   0.033426   0.000386   0.162341   0.004636  -0.005829
    35  O   -0.000001  -0.004612   0.000002   0.002169   0.000578   0.000996
              19         20         21         22         23         24
     1  C   -0.040127  -0.167481   0.018235  -0.013894   0.007689   0.155191
     2  C    0.029979   0.368793  -0.026664   0.000340   0.009444  -0.228190
     3  C   -0.012354  -0.358111   0.003932   0.010592  -0.006616  -0.423280
     4  C    0.003646   0.087391  -0.000789   0.000354   0.001087   0.334196
     5  H    0.001847  -0.006742  -0.000257   0.000966  -0.000017  -0.018576
     6  H   -0.000140   0.003051  -0.000003  -0.000003   0.000001   0.031454
     7  C   -0.000692  -0.002439   0.000325  -0.000074   0.000173   0.019742
     8  H    0.000003   0.000019   0.000000   0.000000   0.000000  -0.002728
     9  H   -0.000003   0.000076   0.000001   0.000000   0.000000   0.000628
    10  H   -0.000045  -0.000330  -0.000001   0.000000   0.000000   0.005083
    11  N    0.006128  -0.017420  -0.001449   0.000013   0.000091  -0.004155
    12  O    0.000085  -0.000389   0.000002   0.000000  -0.000001   0.101237
    13  O    0.001530  -0.000368   0.001509   0.001289  -0.001022  -0.024642
    14  C    0.161172   0.602819   0.004093   0.074161   0.026506   0.487023
    15  H    0.003997  -0.014131   0.000111   0.001972   0.000306   0.014049
    16  C   -0.079844  -0.297548  -0.008982  -0.021763  -0.010042  -2.554027
    17  H    0.000020   0.006057   0.000003  -0.000004   0.000001   0.013003
    18  C    0.118006  -1.338725  -0.149546  -0.205794  -0.110761  -0.269902
    19  H    0.571846   0.003977  -0.003325   0.004222  -0.000975   0.042067
    20  C    0.003977   6.443731   0.518211   0.498010   0.426740   0.090888
    21  H   -0.003325   0.518211   0.508969  -0.027379  -0.025160   0.002074
    22  H    0.004222   0.498010  -0.027379   0.534690  -0.025768   0.006977
    23  H   -0.000975   0.426740  -0.025160  -0.025768   0.534482   0.002316
    24  C    0.042067   0.090888   0.002074   0.006977   0.002316  11.743324
    25  H    0.004616   0.008506   0.000001   0.000000  -0.000002   0.159543
    26  C    0.029468  -0.108508  -0.000173   0.000447  -0.000621  -3.073538
    27  H   -0.000005  -0.000613   0.000000   0.000000   0.000000  -0.226475
    28  H    0.000003  -0.000501   0.000000   0.000000   0.000000  -0.142223
    29  C    0.000268  -0.004815   0.000002   0.000017   0.000000  -0.183586
    30  C   -0.000112   0.001162   0.000001  -0.000001  -0.000001   0.098211
    31  H    0.000000  -0.000003   0.000000   0.000000   0.000000  -0.005326
    32  H    0.000000   0.000002   0.000000   0.000000   0.000000   0.007839
    33  H    0.000000   0.000052   0.000000   0.000000   0.000000   0.016320
    34  O    0.000064  -0.000319   0.000001   0.000001  -0.000002  -0.435806
    35  O   -0.000001   0.000008   0.000000   0.000000   0.000000   0.000452
              25         26         27         28         29         30
     1  C   -0.013783   0.067476   0.000348  -0.000590   0.031596  -0.004690
     2  C   -0.017086  -0.401936  -0.001163  -0.008733  -0.272421   0.067180
     3  C    0.008198   0.568348   0.008843  -0.024836  -0.002154   0.108894
     4  C   -0.011872   0.051264   0.016557   0.023222   0.120568  -0.145805
     5  H   -0.000131   0.005754   0.000001   0.000000  -0.000537   0.000120
     6  H    0.002994  -0.051299  -0.000013   0.000247  -0.004164   0.001433
     7  C    0.002351  -0.000966   0.000328  -0.000006   0.000192  -0.002347
     8  H    0.000011   0.001857   0.000000   0.000000   0.000071  -0.000022
     9  H    0.000003   0.000034   0.000000   0.000000   0.000031  -0.000033
    10  H   -0.000105  -0.003768   0.000000  -0.000001  -0.000216   0.000197
    11  N    0.015448  -0.030028   0.000208  -0.002041  -0.001740  -0.005613
    12  O    0.002076  -0.144843  -0.001009  -0.005924   0.031558  -0.066493
    13  O    0.000018  -0.003531   0.000000   0.000010   0.000223  -0.000167
    14  C   -0.053406   0.219248   0.012284  -0.005435   0.038164  -0.028120
    15  H    0.000015   0.004154  -0.000002   0.000002   0.000381  -0.000127
    16  C    0.136384  -0.180667   0.002587  -0.012876  -0.173108   0.047621
    17  H    0.003681  -0.043266   0.000146   0.000137  -0.000805   0.000736
    18  C   -0.015418  -0.306512  -0.004241  -0.003684  -0.023213   0.010843
    19  H    0.004616   0.029468  -0.000005   0.000003   0.000268  -0.000112
    20  C    0.008506  -0.108508  -0.000613  -0.000501  -0.004815   0.001162
    21  H    0.000001  -0.000173   0.000000   0.000000   0.000002   0.000001
    22  H    0.000000   0.000447   0.000000   0.000000   0.000017  -0.000001
    23  H   -0.000002  -0.000621   0.000000   0.000000   0.000000  -0.000001
    24  C    0.159543  -3.073538  -0.226475  -0.142223  -0.183586   0.098211
    25  H    0.563714   0.023476   0.001215  -0.002774  -0.001788   0.000685
    26  C    0.023476   8.418729   0.557765   0.530820   0.235149  -0.105116
    27  H    0.001215   0.557765   0.545254  -0.032142   0.005394  -0.006825
    28  H   -0.002774   0.530820  -0.032142   0.548574   0.004591   0.004943
    29  C   -0.001788   0.235149   0.005394   0.004591   5.590834  -0.161731
    30  C    0.000685  -0.105116  -0.006825   0.004943  -0.161731   5.713102
    31  H    0.000001   0.005821   0.000102  -0.001113  -0.002764   0.355763
    32  H    0.000000  -0.005567  -0.000011   0.000063  -0.072019   0.420145
    33  H   -0.000011  -0.031896   0.000369   0.002923  -0.105385   0.420516
    34  O    0.010258   0.230157  -0.051470  -0.034584   0.102475  -0.201855
    35  O    0.000098   0.001429  -0.001080   0.000212   0.511606  -0.131758
              31         32         33         34         35
     1  C   -0.000264   0.000120  -0.001539  -0.003486  -0.000552
     2  C    0.000072   0.001285   0.013788   0.052356   0.003317
     3  C   -0.007039   0.001624   0.009992  -0.006476  -0.009785
     4  C    0.004112  -0.001821   0.011650   0.018675  -0.002838
     5  H    0.000000   0.000000   0.000000  -0.000028  -0.000007
     6  H    0.000023   0.000031  -0.000215   0.008935   0.001171
     7  C    0.000027   0.000015   0.000534   0.001296  -0.000033
     8  H    0.000000   0.000000  -0.000001  -0.000001   0.000000
     9  H    0.000000   0.000000   0.000000   0.000000   0.000000
    10  H    0.000000   0.000000   0.000001   0.000001   0.000000
    11  N    0.000100   0.000108  -0.001150   0.003832   0.000091
    12  O    0.001693   0.001880  -0.008509   0.001026  -0.000236
    13  O    0.000000   0.000000   0.000000  -0.000028  -0.000001
    14  C    0.000266  -0.000137   0.000345   0.033426  -0.004612
    15  H    0.000000   0.000000   0.000000   0.000386   0.000002
    16  C    0.000207  -0.000323   0.002866   0.162341   0.002169
    17  H    0.000000   0.000000   0.000000   0.004636   0.000578
    18  C   -0.000093   0.000025   0.000869  -0.005829   0.000996
    19  H    0.000000   0.000000   0.000000   0.000064  -0.000001
    20  C   -0.000003   0.000002   0.000052  -0.000319   0.000008
    21  H    0.000000   0.000000   0.000000   0.000001   0.000000
    22  H    0.000000   0.000000   0.000000   0.000001   0.000000
    23  H    0.000000   0.000000   0.000000  -0.000002   0.000000
    24  C   -0.005326   0.007839   0.016320  -0.435806   0.000452
    25  H    0.000001   0.000000  -0.000011   0.010258   0.000098
    26  C    0.005821  -0.005567  -0.031896   0.230157   0.001429
    27  H    0.000102  -0.000011   0.000369  -0.051470  -0.001080
    28  H   -0.001113   0.000063   0.002923  -0.034584   0.000212
    29  C   -0.002764  -0.072019  -0.105385   0.102475   0.511606
    30  C    0.355763   0.420145   0.420516  -0.201855  -0.131758
    31  H    0.483659  -0.020331  -0.022075   0.002359  -0.002828
    32  H   -0.020331   0.497923  -0.025138   0.007351  -0.002137
    33  H   -0.022075  -0.025138   0.506876   0.006253   0.007617
    34  O    0.002359   0.007351   0.006253   8.576031  -0.127836
    35  O   -0.002828  -0.002137   0.007617  -0.127836   8.231183
 Mulliken charges:
               1
     1  C    0.214420
     2  C   -0.185724
     3  C   -0.098830
     4  C   -0.027527
     5  H    0.182740
     6  H    0.194946
     7  C   -0.218645
     8  H    0.169835
     9  H    0.178777
    10  H    0.168207
    11  N   -0.029779
    12  O   -0.490342
    13  O   -0.549542
    14  C   -0.237402
    15  H    0.146687
    16  C    0.044271
    17  H    0.158530
    18  C    0.429704
    19  H    0.154676
    20  C   -0.741050
    21  H    0.186260
    22  H    0.160629
    23  H    0.172152
    24  C    0.260839
    25  H    0.173085
    26  C   -0.459163
    27  H    0.173650
    28  H    0.161717
    29  C    0.337327
    30  C   -0.390736
    31  H    0.207629
    32  H    0.189073
    33  H    0.194950
    34  O   -0.354141
    35  O   -0.477223
 Sum of Mulliken charges =   0.00000
 Mulliken charges with hydrogens summed into heavy atoms:
               1
     1  C    0.214420
     2  C   -0.002984
     3  C    0.096116
     4  C   -0.027527
     7  C    0.298174
    11  N   -0.029779
    12  O   -0.490342
    13  O   -0.549542
    14  C   -0.090715
    16  C    0.202801
    18  C    0.584380
    20  C   -0.222009
    24  C    0.433924
    26  C   -0.123796
    29  C    0.337327
    30  C    0.200916
    34  O   -0.354141
    35  O   -0.477223
 APT charges:
               1
     1  C   -0.107673
     2  C   -0.602926
     3  C   -0.082437
     4  C   -0.407931
     5  H    0.554093
     6  H    0.407484
     7  C   -1.608861
     8  H    0.569905
     9  H    0.725060
    10  H    0.414173
    11  N    0.140166
    12  O   -0.213823
    13  O   -0.038845
    14  C   -0.558593
    15  H    0.698188
    16  C   -0.610586
    17  H    0.562755
    18  C    0.632544
    19  H    0.153826
    20  C   -2.196139
    21  H    0.360020
    22  H    0.550806
    23  H    0.741921
    24  C    0.275138
    25  H    0.314353
    26  C   -1.263805
    27  H    0.670328
    28  H    0.319065
    29  C   -0.304632
    30  C   -1.222136
    31  H    0.721018
    32  H    0.692999
    33  H   -0.002290
    34  O   -0.316258
    35  O    0.033089
 Sum of APT charges =   0.00000
 APT charges with hydrogens summed into heavy atoms:
               1
     1  C   -0.107673
     2  C   -0.048832
     3  C    0.325047
     4  C   -0.407931
     7  C    0.100277
    11  N    0.140166
    12  O   -0.213823
    13  O   -0.038845
    14  C    0.139594
    16  C   -0.047830
    18  C    0.786371
    20  C   -0.543392
    24  C    0.589492
    26  C   -0.274412
    29  C   -0.304632
    30  C    0.189591
    34  O   -0.316258
    35  O    0.033089
 Electronic spatial extent (au):  <R**2>=           4788.6653
 Charge=              0.0000 electrons
 Dipole moment (field-independent basis, Debye):
    X=             -2.4692    Y=              0.1410    Z=              4.1221  Tot=              4.8072
 Quadrupole moment (field-independent basis, Debye-Ang):
   XX=           -132.4925   YY=           -103.4754   ZZ=           -107.8320
   XY=             14.4978   XZ=              7.5975   YZ=             -0.1074
 Traceless Quadrupole moment (field-independent basis, Debye-Ang):
   XX=            -17.8926   YY=             11.1246   ZZ=              6.7680
   XY=             14.4978   XZ=              7.5975   YZ=             -0.1074
 Octapole moment (field-independent basis, Debye-Ang**2):
  XXX=             -9.3130  YYY=              6.5450  ZZZ=             10.9648  XYY=            -31.1512
  XXY=             36.0412  XXZ=             77.5198  XZZ=             -5.8340  YZZ=              7.0387
  YYZ=             -6.9495  XYZ=            -24.2180
 Hexadecapole moment (field-independent basis, Debye-Ang**3):
 XXXX=          -4475.7252 YYYY=          -1861.6400 ZZZZ=           -479.7877 XXXY=            296.4575
 XXXZ=            160.5819 YYYX=            -55.8758 YYYZ=             32.1432 ZZZX=             32.9267
 ZZZY=              9.9868 XXYY=           -927.2269 XXZZ=           -794.7909 YYZZ=           -413.7563
 XXYZ=            -24.1949 YYXZ=             -3.5257 ZZXY=             11.2917
 N-N= 1.384398642880D+03 E-N=-4.773731851732D+03  KE= 8.530734052213D+02
  Exact polarizability:   0.000   0.000   0.000   0.000   0.000   0.000
 Approx polarizability: 335.772   3.937 322.613  20.157 -19.715 232.126
 D2PCM: C-PCM CHGder 2nd derivatives, FixD1E=F FixD2E=F DoIter=F DoCFld=F I1PDM=0
 Calling FoFJK, ICntrl=    100147 FMM=F ISym2X=0 I1Cent= 0 IOpClX= 0 NMat=1 NMatS=1 NMatT=0.
 ***** Axes restored to original set *****
 -------------------------------------------------------------------
 Center     Atomic                   Forces (Hartrees/Bohr)
 Number     Number              X              Y              Z
 -------------------------------------------------------------------
      1        6           0.042054012    0.018589844    0.008795038
      2        6          -0.020924938   -0.003573397   -0.002687719
      3        6           0.014886050    0.010604209    0.012966189
      4        6          -0.040239727   -0.008701935   -0.019789861
      5        1           0.000059154    0.002957741   -0.003764324
      6        1          -0.005874636    0.005344749   -0.002445775
      7        6           0.000324138   -0.000022913    0.001851663
      8        1          -0.001475726   -0.007417310    0.001333962
      9        1           0.009869548   -0.004986990   -0.000020897
     10        1          -0.000095304   -0.001073289   -0.006171276
     11        7           0.005834150   -0.008342120   -0.000005446
     12        8           0.007922609    0.011619443    0.006375027
     13        8          -0.021463621   -0.000814499   -0.005745543
     14        6           0.025254285   -0.006254449    0.008926509
     15        1          -0.001576373    0.004468305    0.000433151
     16        6          -0.008101995   -0.026665715    0.002466704
     17        1          -0.006029309    0.005708471    0.000529566
     18        6          -0.006423256    0.017161266   -0.005021161
     19        1           0.000982646   -0.009708253   -0.000922387
     20        6          -0.019418351   -0.001636026   -0.005718818
     21        1           0.005336131   -0.004365153    0.004245010
[...]
    21  H    0.012090  -0.020514   0.001367  -0.000132  -0.000062  -0.000003
    22  H   -0.006295   0.003940   0.005576  -0.000498   0.000502  -0.000001
    23  H    0.003475   0.011177  -0.006162   0.000947  -0.000018   0.000000
    24  C    0.162333  -0.077267  -0.367474   0.098399  -0.009924   0.057014
    25  H   -0.009872  -0.023102   0.014458  -0.010566  -0.000100   0.001834
    26  C    0.069580  -0.267217   0.493848  -0.002951   0.015648  -0.055194
    27  H    0.000511  -0.002185   0.013858  -0.001795   0.000001  -0.000015
    28  H   -0.003068   0.002790  -0.047326   0.046729  -0.000002   0.000195
    29  C    0.009621  -0.058306   0.024116   0.013634  -0.000002  -0.001461
    30  C   -0.002559   0.013898  -0.008455  -0.008955  -0.000018   0.000442
    31  H   -0.000022   0.000069   0.001276  -0.000861   0.000000  -0.000001
    32  H    0.000010   0.000080   0.000487  -0.000187   0.000000  -0.000001
    33  H   -0.000043   0.000734   0.000097   0.001026   0.000000   0.000004
    34  O   -0.004856   0.016029   0.028009  -0.017334   0.000054   0.006331
    35  O    0.000169  -0.004747  -0.002411  -0.000978   0.000001   0.000514
               7          8          9         10         11         12
     1  C   -0.091870  -0.010514   0.010435  -0.005603   0.255546   0.099801
     2  C   -0.040139   0.006952  -0.006883  -0.002017  -0.462443  -0.131095
     3  C   -0.116341  -0.012845   0.008529   0.002480  -0.415007  -0.052513
     4  C   -0.146539   0.010135  -0.022281  -0.005115   0.149357   0.435900
     5  H    0.000478  -0.000005   0.000001   0.000006   0.016772  -0.000600
     6  H    0.002708   0.000003  -0.000006   0.000006   0.020836   0.002458
     7  C    5.226107   0.417175   0.400500   0.420011   0.225568  -0.032775
     8  H    0.417175   0.504234  -0.022614  -0.026215  -0.050320   0.000276
     9  H    0.400500  -0.022614   0.518750  -0.030678  -0.036582   0.003538
    10  H    0.420011  -0.026215  -0.030678   0.524943  -0.051630   0.002196
    11  N    0.225568  -0.050320  -0.036582  -0.051630   7.544768  -0.125169
    12  O   -0.032775   0.000276   0.003538   0.002196  -0.125169   8.363340
    13  O   -0.053819   0.006041   0.000478   0.000729  -0.128727  -0.002436
    14  C    0.007004  -0.000164  -0.001555   0.000535   0.026201  -0.003005
    15  H    0.000113   0.000000   0.000000   0.000000   0.000383  -0.000004
    16  C   -0.027756  -0.000317   0.001415   0.000145   0.005537   0.010191
    17  H    0.000145   0.000000   0.000000   0.000000   0.000295  -0.000034
    18  C   -0.001746   0.000072   0.004260  -0.001465   0.028314   0.008000
    19  H    0.000572  -0.000026  -0.000035   0.000007   0.009458   0.000164
    20  C   -0.005874   0.000131   0.000087  -0.000059  -0.030282   0.001071
    21  H    0.000074  -0.000003   0.000000   0.000000  -0.001209   0.000005
    22  H   -0.000060   0.000000   0.000000   0.000000  -0.000018   0.000001
    23  H    0.000220   0.000000   0.000000   0.000000   0.000231  -0.000001
    24  C   -0.014107   0.001259   0.007803  -0.003201  -0.024707   0.214392
    25  H    0.001308  -0.000002  -0.000084   0.000010   0.011289   0.002365
    26  C    0.046470  -0.000683  -0.008421   0.002887   0.041816  -0.251084
    27  H    0.000260   0.000000   0.000000   0.000000   0.000376   0.000236
    28  H    0.000176   0.000000  -0.000006   0.000001  -0.001607  -0.004179
    29  C   -0.000375   0.000002  -0.000037   0.000008  -0.000335   0.004219
    30  C    0.000874  -0.000002  -0.000002   0.000001   0.000227  -0.009046
    31  H   -0.000007   0.000000   0.000000   0.000000  -0.000006   0.000060
    32  H   -0.000001   0.000000   0.000000   0.000000   0.000000   0.000008
    33  H    0.000062   0.000000   0.000000   0.000000   0.000083  -0.000372
    34  O    0.000613   0.000000   0.000001   0.000000   0.002503   0.002730
    35  O   -0.000006   0.000000   0.000000   0.000000   0.000005  -0.000031
              13         14         15         16         17         18
     1  C    0.436739  -0.192214   0.009549  -0.053516  -0.003851  -0.031915
     2  C   -0.078630   0.190513   0.011838  -0.057804  -0.026844  -0.029553
     3  C   -0.086734  -0.102052  -0.010662   0.277504   0.026146  -0.014776
     4  C    0.089837   0.190374  -0.003507  -0.469776   0.016472  -0.075259
     5  H    0.001990   0.006073   0.000238  -0.019899  -0.000003   0.040846
     6  H   -0.000686  -0.003116  -0.000002   0.002474   0.000220  -0.000024
     7  C   -0.053819   0.007004   0.000113  -0.027756   0.000145  -0.001746
     8  H    0.006041  -0.000164   0.000000  -0.000317   0.000000   0.000072
     9  H    0.000478  -0.001555   0.000000   0.001415   0.000000   0.004260
    10  H    0.000729   0.000535   0.000000   0.000145   0.000000  -0.001465
    11  N   -0.128727   0.026201   0.000383   0.005537   0.000295   0.028314
    12  O   -0.002436  -0.003005  -0.000004   0.010191  -0.000034   0.008000
    13  O    8.395825  -0.032960  -0.000016   0.021657  -0.000004   0.016490
    14  C   -0.032960   7.185147   0.358915  -1.595279  -0.050456  -1.141405
    15  H   -0.000016   0.358915   0.553503   0.009850  -0.007634  -0.061427
    16  C    0.021657  -1.595279   0.009850   9.150097   0.383757   0.608680
    17  H   -0.000004  -0.050456  -0.007634   0.383757   0.542414   0.000667
    18  C    0.016490  -1.141405  -0.061427   0.608680   0.000667   8.808643
    19  H    0.000583   0.144993   0.004538  -0.082970   0.000011   0.152185
    20  C   -0.006390   0.577083  -0.040341  -0.242010   0.008160  -1.872436
    21  H    0.003633   0.005854   0.000115  -0.010657   0.000003  -0.152636
    22  H    0.000799   0.062206   0.002798  -0.019824  -0.000004  -0.195622
    23  H   -0.000874   0.028888   0.000209  -0.004355   0.000000  -0.179283
    24  C   -0.020691   0.267019   0.009921  -1.826957  -0.015075   0.143463
    25  H    0.000061  -0.065158   0.000021   0.140617   0.004193  -0.000689
    26  C   -0.003577   0.400569   0.017910  -0.304480  -0.040317  -0.522752
    27  H    0.000000   0.015347  -0.000001   0.033551   0.000299   0.001256
    28  H    0.000009  -0.002873   0.000002  -0.025565   0.000090  -0.008063
    29  C    0.000023  -0.009976   0.000020  -0.093810   0.000398   0.000212
    30  C   -0.000005  -0.004480  -0.000023   0.016290  -0.000768  -0.001210
    31  H    0.000000  -0.000226   0.000000  -0.000585   0.000002  -0.000239
    32  H    0.000000   0.000091   0.000000   0.000083   0.000000  -0.000017
    33  H    0.000000   0.000573   0.000000   0.002762  -0.000001   0.000183
    34  O    0.000004   0.008205   0.000460   0.201893   0.006864  -0.003559
    35  O    0.000000  -0.008003   0.000004  -0.000092   0.000424   0.000279
              19         20         21         22         23         24
     1  C   -0.012129  -0.133350   0.012090  -0.006295   0.003475   0.162333
     2  C    0.013882   0.365487  -0.020514   0.003940   0.011177  -0.077267
     3  C   -0.003861  -0.237310   0.001367   0.005576  -0.006162  -0.367474
     4  C   -0.012149   0.067311  -0.000132  -0.000498   0.000947   0.098399
     5  H    0.001514  -0.027005  -0.000062   0.000502  -0.000018  -0.009924
     6  H   -0.000100   0.003827  -0.000003  -0.000001   0.000000   0.057014
     7  C    0.000572  -0.005874   0.000074  -0.000060   0.000220  -0.014107
     8  H   -0.000026   0.000131  -0.000003   0.000000   0.000000   0.001259
     9  H   -0.000035   0.000087   0.000000   0.000000   0.000000   0.007803
    10  H    0.000007  -0.000059   0.000000   0.000000   0.000000  -0.003201
    11  N    0.009458  -0.030282  -0.001209  -0.000018   0.000231  -0.024707
    12  O    0.000164   0.001071   0.000005   0.000001  -0.000001   0.214392
    13  O    0.000583  -0.006390   0.003633   0.000799  -0.000874  -0.020691
    14  C    0.144993   0.577083   0.005854   0.062206   0.028888   0.267019
    15  H    0.004538  -0.040341   0.000115   0.002798   0.000209   0.009921
    16  C   -0.082970  -0.242010  -0.010657  -0.019824  -0.004355  -1.826957
    17  H    0.000011   0.008160   0.000003  -0.000004   0.000000  -0.015075
    18  C    0.152185  -1.872436  -0.152636  -0.195622  -0.179283   0.143463
    19  H    0.576953  -0.028559  -0.002634   0.004324  -0.002017   0.023756
    20  C   -0.028559   6.942083   0.521730   0.494903   0.502312   0.093060
    21  H   -0.002634   0.521730   0.511494  -0.025891  -0.026435   0.002416
    22  H    0.004324   0.494903  -0.025891   0.533803  -0.024812   0.005318
    23  H   -0.002017   0.502312  -0.026435  -0.024812   0.534044  -0.005805
    24  C    0.023756   0.093060   0.002416   0.005318  -0.005805  15.006880
    25  H    0.003469   0.007381  -0.000001   0.000000   0.000000   0.126762
    26  C    0.058024  -0.274627  -0.000323   0.000821  -0.002541  -7.460292
    27  H   -0.000001  -0.000361   0.000000   0.000000   0.000000  -0.094487
    28  H    0.000005  -0.000833   0.000000   0.000000   0.000000  -0.267059
    29  C    0.000055   0.000490   0.000005   0.000005  -0.000002   0.258929
    30  C    0.000005  -0.000588  -0.000001   0.000000   0.000000  -0.242265
    31  H    0.000000  -0.000009   0.000000   0.000000   0.000000  -0.017888
    32  H    0.000000   0.000000   0.000000   0.000000   0.000000  -0.008123
    33  H    0.000000   0.000009   0.000000   0.000000   0.000000   0.017309
    34  O    0.000109  -0.002419   0.000001   0.000002  -0.000003  -0.434903
    35  O    0.000000  -0.000052   0.000000   0.000000   0.000000  -0.007371
              25         26         27         28         29         30
     1  C   -0.009872   0.069580   0.000511  -0.003068   0.009621  -0.002559
     2  C   -0.023102  -0.267217  -0.002185   0.002790  -0.058306   0.013898
     3  C    0.014458   0.493848   0.013858  -0.047326   0.024116  -0.008455
     4  C   -0.010566  -0.002951  -0.001795   0.046729   0.013634  -0.008955
     5  H   -0.000100   0.015648   0.000001  -0.000002  -0.000002  -0.000018
     6  H    0.001834  -0.055194  -0.000015   0.000195  -0.001461   0.000442
     7  C    0.001308   0.046470   0.000260   0.000176  -0.000375   0.000874
     8  H   -0.000002  -0.000683   0.000000   0.000000   0.000002  -0.000002
     9  H   -0.000084  -0.008421   0.000000  -0.000006  -0.000037  -0.000002
    10  H    0.000010   0.002887   0.000000   0.000001   0.000008   0.000001
    11  N    0.011289   0.041816   0.000376  -0.001607  -0.000335   0.000227
    12  O    0.002365  -0.251084   0.000236  -0.004179   0.004219  -0.009046
    13  O    0.000061  -0.003577   0.000000   0.000009   0.000023  -0.000005
    14  C   -0.065158   0.400569   0.015347  -0.002873  -0.009976  -0.004480
    15  H    0.000021   0.017910  -0.000001   0.000002   0.000020  -0.000023
    16  C    0.140617  -0.304480   0.033551  -0.025565  -0.093810   0.016290
    17  H    0.004193  -0.040317   0.000299   0.000090   0.000398  -0.000768
    18  C   -0.000689  -0.522752   0.001256  -0.008063   0.000212  -0.001210
    19  H    0.003469   0.058024  -0.000001   0.000005   0.000055   0.000005
    20  C    0.007381  -0.274627  -0.000361  -0.000833   0.000490  -0.000588
    21  H   -0.000001  -0.000323   0.000000   0.000000   0.000005  -0.000001
    22  H    0.000000   0.000821   0.000000   0.000000   0.000005   0.000000
    23  H    0.000000  -0.002541   0.000000   0.000000  -0.000002   0.000000
    24  C    0.126762  -7.460292  -0.094487  -0.267059   0.258929  -0.242265
    25  H    0.558185   0.062421   0.001210  -0.003097  -0.001048   0.001601
    26  C    0.062421  13.356062   0.376637   0.684973  -0.186445   0.231831
    27  H    0.001210   0.376637   0.549857  -0.039850   0.005645  -0.007469
    28  H   -0.003097   0.684973  -0.039850   0.533935  -0.018559   0.015690
    29  C   -0.001048  -0.186445   0.005645  -0.018559   5.044985   0.055678
    30  C    0.001601   0.231831  -0.007469   0.015690   0.055678   5.520243
    31  H   -0.000004   0.035693   0.000544  -0.001835  -0.047239   0.382717
    32  H    0.000000  -0.003636   0.000034   0.000102  -0.048866   0.419828
    33  H   -0.000001  -0.015125  -0.000195   0.000737  -0.028326   0.368642
    34  O    0.008486   0.205295  -0.030777  -0.041099   0.074689  -0.191233
    35  O    0.000052   0.022755  -0.000398   0.000177   0.512027  -0.121803
              31         32         33         34         35
     1  C   -0.000022   0.000010  -0.000043  -0.004856   0.000169
     2  C    0.000069   0.000080   0.000734   0.016029  -0.004747
     3  C    0.001276   0.000487   0.000097   0.028009  -0.002411
     4  C   -0.000861  -0.000187   0.001026  -0.017334  -0.000978
     5  H    0.000000   0.000000   0.000000   0.000054   0.000001
     6  H   -0.000001  -0.000001   0.000004   0.006331   0.000514
     7  C   -0.000007  -0.000001   0.000062   0.000613  -0.000006
     8  H    0.000000   0.000000   0.000000   0.000000   0.000000
     9  H    0.000000   0.000000   0.000000   0.000001   0.000000
    10  H    0.000000   0.000000   0.000000   0.000000   0.000000
    11  N   -0.000006   0.000000   0.000083   0.002503   0.000005
    12  O    0.000060   0.000008  -0.000372   0.002730  -0.000031
    13  O    0.000000   0.000000   0.000000   0.000004   0.000000
    14  C   -0.000226   0.000091   0.000573   0.008205  -0.008003
    15  H    0.000000   0.000000   0.000000   0.000460   0.000004
    16  C   -0.000585   0.000083   0.002762   0.201893  -0.000092
    17  H    0.000002   0.000000  -0.000001   0.006864   0.000424
    18  C   -0.000239  -0.000017   0.000183  -0.003559   0.000279
    19  H    0.000000   0.000000   0.000000   0.000109   0.000000
    20  C   -0.000009   0.000000   0.000009  -0.002419  -0.000052
    21  H    0.000000   0.000000   0.000000   0.000001   0.000000
    22  H    0.000000   0.000000   0.000000   0.000002   0.000000
    23  H    0.000000   0.000000   0.000000  -0.000003   0.000000
    24  C   -0.017888  -0.008123   0.017309  -0.434903  -0.007371
    25  H   -0.000004   0.000000  -0.000001   0.008486   0.000052
    26  C    0.035693  -0.003636  -0.015125   0.205295   0.022755
    27  H    0.000544   0.000034  -0.000195  -0.030777  -0.000398
    28  H   -0.001835   0.000102   0.000737  -0.041099   0.000177
    29  C   -0.047239  -0.048866  -0.028326   0.074689   0.512027
    30  C    0.382717   0.419828   0.368642  -0.191233  -0.121803
    31  H    0.499222  -0.021856  -0.023276  -0.002044   0.004209
    32  H   -0.021856   0.490312  -0.020505   0.010439  -0.007728
    33  H   -0.023276  -0.020505   0.491211   0.002503   0.001828
    34  O   -0.002044   0.010439   0.002503   8.668477  -0.131306
    35  O    0.004209  -0.007728   0.001828  -0.131306   8.252309
 Mulliken charges:
               1
     1  C    0.109812
     2  C   -0.020417
     3  C   -0.108730
     4  C    0.042710
     5  H    0.178799
     6  H    0.188938
     7  C   -0.219024
     8  H    0.177430
     9  H    0.173388
    10  H    0.172021
    11  N   -0.011522
    12  O   -0.538604
    13  O   -0.559347
    14  C   -0.262670
    15  H    0.143227
    16  C   -0.030851
    17  H    0.154430
    18  C    0.480523
    19  H    0.149876
    20  C   -0.682618
    21  H    0.181712
    22  H    0.158028
    23  H    0.170804
    24  C    0.401561
    25  H    0.167998
    26  C   -0.723575
    27  H    0.177912
    28  H    0.179408
    29  C    0.490026
    30  C   -0.429085
    31  H    0.192306
    32  H    0.189447
    33  H    0.200082
    34  O   -0.384167
    35  O   -0.509827
 Sum of Mulliken charges =   0.00000
 Mulliken charges with hydrogens summed into heavy atoms:
               1
     1  C    0.109812
     2  C    0.158382
     3  C    0.080208
     4  C    0.042710
     7  C    0.303816
    11  N   -0.011522
    12  O   -0.538604
    13  O   -0.559347
    14  C   -0.119442
    16  C    0.123579
    18  C    0.630398
    20  C   -0.172074
    24  C    0.569559
    26  C   -0.366254
    29  C    0.490026
    30  C    0.152750
    34  O   -0.384167
    35  O   -0.509827
 Electronic spatial extent (au):  <R**2>=           5291.6574
 Charge=              0.0000 electrons
 Dipole moment (field-independent basis, Debye):
    X=             -1.3367    Y=             -0.9312    Z=              5.5277  Tot=              5.7628
 Quadrupole moment (field-independent basis, Debye-Ang):
   XX=           -132.3132   YY=           -104.9858   ZZ=           -107.1855
   XY=             10.3891   XZ=             12.3875   YZ=              1.2025
 Traceless Quadrupole moment (field-independent basis, Debye-Ang):
   XX=            -17.4851   YY=              9.8424   ZZ=              7.6427
   XY=             10.3891   XZ=             12.3875   YZ=              1.2025
 Octapole moment (field-independent basis, Debye-Ang**2):
  XXX=             20.6135  YYY=            -12.1125  ZZZ=              7.6166  XYY=            -29.7700
  XXY=             41.5989  XXZ=            108.8233  XZZ=            -11.1682  YZZ=             10.0518
  YYZ=             -3.3634  XYZ=            -17.7265
 Hexadecapole moment (field-independent basis, Debye-Ang**3):
 XXXX=          -5401.8339 YYYY=          -1812.0378 ZZZZ=           -457.2191 XXXY=            272.3022
 XXXZ=            253.4260 YYYX=            -59.8033 YYYZ=             36.1974 ZZZX=             33.1667
 ZZZY=             14.1122 XXYY=          -1010.3435 XXZZ=           -933.8970 YYZZ=           -390.5347
 XXYZ=            -21.1848 YYXZ=             -5.4433 ZZXY=              9.0600
 N-N= 1.354515992416D+03 E-N=-4.713978883392D+03  KE= 8.532152833718D+02
 1\1\GINC-D10S7B4\FTS\RB3LYP\6-31+G(d,p)\C13H17N1O4\CHMKSH\27-Aug-2020\
 0\\# opt=(calcfc,ts,noeigentest) b3lyp/6-31+g(d,p) scrf=(cpcm,solvent=
 water) geom=connectivity empiricaldispersion=gd3\\Title Card Required\
 \0,1\C,-2.5627622122,0.9229807193,-0.7758930513\C,-1.5763697783,-0.069
 2577215,-1.2619474538\C,-0.2992251349,0.3844441956,-0.902982964\C,-0.4
 794981109,1.6824040362,-0.1891092021\H,-1.8133291139,-0.7117645676,-2.
 0968099064\H,0.6114076747,0.197903812,-1.454565641\C,-2.4412104307,3.0
 254089682,0.6321895214\H,-3.5088154232,2.8365497358,0.7451513847\H,-1.
 9825297778,3.1539148488,1.6143655251\H,-2.2943427476,3.9368184804,0.04
 48643617\N,-1.8488832912,1.8786826362,-0.0365153762\O,0.3805248688,2.4
 584769165,0.2172934818\O,-3.7762889067,0.9562386451,-0.9520554076\C,-1
 .0503261933,-2.5449122391,0.0575213349\H,-1.1323717067,-3.4896796405,-
 0.4769928817\C,0.2353516271,-2.0771832874,0.3574253895\H,1.0837856184,
 -2.6706964888,0.0270526963\C,-2.202247218,-1.7778106178,0.207532814\H,
 -2.2070966174,-0.9946604427,0.9617361513\C,-3.555443396,-2.2565687049,
 -0.2271957657\H,-4.1616681174,-1.4229843897,-0.594699452\H,-3.48324363
 91,-3.0183805838,-1.0090011057\H,-4.0900550048,-2.6901474878,0.6285723
 893\C,0.4799719371,-0.7847435083,0.8209564528\H,-0.2567239997,-0.30571
 33472,1.4605120658\C,1.8713570496,-0.2645302761,1.0395472541\H,2.27253
 33894,-0.6415279852,1.9884278558\H,1.8593793732,0.8274384913,1.0661460
 131\C,3.9790802942,-0.3016523672,-0.200137252\C,4.5201270665,0.7105776
 353,0.777869012\H,4.4240518261,0.3567864695,1.8083943472\H,5.569228156
 3,0.8915348289,0.548897878\H,3.9651652682,1.650795541,0.6970339486\O,2
 .705908082,-0.7310774198,-0.0499226776\O,4.6219085882,-0.7528808847,-1
 .1329387404\\Version=ES64L-G09RevD.01\State=1-A\HF=-861.3309752\RMSD=8
 .200e-09\RMSF=5.497e-06\Dipole=-0.6853351,-0.4552727,2.1127026\Quadrup
 ole=-13.0685713,6.180006,6.8885652,8.4086661,8.5465101,0.8535425\PG=C0
 1 [X(C13H17N1O4)]\\@


 TIME IS IN FACT THE HERO OF THE PLOT. THE TIME
 WITH WHICH WE HAVE TO DEAL IS OF THE ORDER OF TWO
 BILLION YEARS...GIVEN SO MUCH TIME, THE "IMPOSSIBLE"
 BECOMES POSSIBLE, THE POSSIBLE PROBABLE, THE PROBABLE
 VIRTUALLY CERTAIN.  ONE HAS ONLY TO WAIT, TIME
 ITSELF PERFORMS THE MIRACLES.
 "ORIGIN OF LIFE" LECTURES, GEORGE WALD, 1954
 Job cpu time:       0 days 20 hours 59 minutes 22.5 seconds.
 File lengths (MBytes):  RWF=    657 Int=      0 D2E=      0 Chk=     22 Scr=      1
 Normal termination of Gaussian 09 at Thu Aug 27 22:10:55 2020.
