 Entering Gaussian System, Link 0=g09
 Input=b3lyp_dienophile_pm6_cpcmtoluene_1_water.com
 Output=b3lyp_dienophile_pm6_cpcmtoluene_1_water.log
 Initial command:
 /apps/applications/gaussian/G09.D01/2/default/g09/l1.exe "/local/713535.1.40core-192G.q/Gau-277524.inp" -scrdir="/local/713535.1.40core-192G.q/"
 Entering Link 1 = /apps/applications/gaussian/G09.D01/2/default/g09/l1.exe PID=    277525.
  
 Copyright (c) 1988,1990,1992,1993,1995,1998,2003,2009,2013,
            Gaussian, Inc.  All Rights Reserved.
  
 This is part of the Gaussian(R) 09 program.  It is based on
 the Gaussian(R) 03 system (copyright 2003, Gaussian, Inc.),
 the Gaussian(R) 98 system (copyright 1998, Gaussian, Inc.),
 the Gaussian(R) 94 system (copyright 1995, Gaussian, Inc.),
 the Gaussian 92(TM) system (copyright 1992, Gaussian, Inc.),
 the Gaussian 90(TM) system (copyright 1990, Gaussian, Inc.),
 the Gaussian 88(TM) system (copyright 1988, Gaussian, Inc.),
 the Gaussian 86(TM) system (copyright 1986, Carnegie Mellon
 University), and the Gaussian 82(TM) system (copyright 1983,
 Carnegie Mellon University). Gaussian is a federally registered
 trademark of Gaussian, Inc.
  
 This software contains proprietary and confidential information,
 including trade secrets, belonging to Gaussian, Inc.
  
 This software is provided under written license and may be
 used, copied, transmitted, or stored only in accord with that
 written license.
  
 The following legend is applicable only to US Government
 contracts under FAR:
  
                    RESTRICTED RIGHTS LEGEND
  
 Use, reproduction and disclosure by the US Government is
 subject to restrictions as set forth in subparagraphs (a)
 and (c) of the Commercial Computer Software - Restricted
 Rights clause in FAR 52.227-19.
  
 Gaussian, Inc.
 340 Quinnipiac St., Bldg. 40, Wallingford CT 06492
  
  
 ---------------------------------------------------------------
 Warning -- This program may not be used in any manner that
 competes with the business of Gaussian, Inc. or will provide
 assistance to any competitor of Gaussian, Inc.  The licensee
 of this program is prohibited from giving any competitor of
 Gaussian, Inc. access to this program.  By using this program,
 the user acknowledges that Gaussian, Inc. is engaged in the
 business of creating and licensing software in the field of
 computational chemistry and represents and warrants to the
 licensee that it is not a competitor of Gaussian, Inc. and that
 it will not use this program in any manner prohibited above.
 ---------------------------------------------------------------
  

 Cite this work as:
 Gaussian 09, Revision D.01,
 M. J. Frisch, G. W. Trucks, H. B. Schlegel, G. E. Scuseria, 
 M. A. Robb, J. R. Cheeseman, G. Scalmani, V. Barone, B. Mennucci, 
 G. A. Petersson, H. Nakatsuji, M. Caricato, X. Li, H. P. Hratchian, 
 A. F. Izmaylov, J. Bloino, G. Zheng, J. L. Sonnenberg, M. Hada, 
 M. Ehara, K. Toyota, R. Fukuda, J. Hasegawa, M. Ishida, T. Nakajima, 
 Y. Honda, O. Kitao, H. Nakai, T. Vreven, J. A. Montgomery, Jr., 
 J. E. Peralta, F. Ogliaro, M. Bearpark, J. J. Heyd, E. Brothers, 
 K. N. Kudin, V. N. Staroverov, T. Keith, R. Kobayashi, J. Normand, 
 K. Raghavachari, A. Rendell, J. C. Burant, S. S. Iyengar, J. Tomasi, 
 M. Cossi, N. Rega, J. M. Millam, M. Klene, J. E. Knox, J. B. Cross, 
 V. Bakken, C. Adamo, J. Jaramillo, R. Gomperts, R. E. Stratmann, 
 O. Yazyev, A. J. Austin, R. Cammi, C. Pomelli, J. W. Ochterski, 
 R. L. Martin, K. Morokuma, V. G. Zakrzewski, G. A. Voth, 
 P. Salvador, J. J. Dannenberg, S. Dapprich, A. D. Daniels, 
 O. Farkas, J. B. Foresman, J. V. Ortiz, J. Cioslowski, 
 and D. J. Fox, Gaussian, Inc., Wallingford CT, 2013.
 
 ******************************************
 Gaussian 09:  ES64L-G09RevD.01 24-Apr-2013
                27-Aug-2020 
 ******************************************
 %nprocshared=4
 Will use up to    4 processors via shared memory.
 %chk=b3lyp_dienophile_pm6_cpcmtoluene_1_water.chk
 ----------------------------------------------------------------------
 # opt freq b3lyp/6-31+g(d,p) scrf=(cpcm,solvent=water) geom=connectivi
 ty empiricaldispersion=gd3
 ----------------------------------------------------------------------
 1/14=-1,18=20,19=15,26=3,38=1,57=2/1,3;
 2/9=110,12=2,17=6,18=5,40=1/2;
 3/5=1,6=6,7=111,11=2,16=1,25=1,30=1,70=2101,71=1,72=1,74=-5,124=31/1,2,3;
 4//1;
 5/5=2,38=5,53=1/2;
 6/7=2,8=2,9=2,10=2,28=1/1;
 7//1,2,3,16;
 1/14=-1,18=20,19=15,26=3/3(2);
 2/9=110/2;
 99//99;
 2/9=110/2;
 3/5=1,6=6,7=111,11=2,16=1,25=1,30=1,70=2105,71=1,72=1,74=-5,124=31/1,2,3;
 4/5=5,16=3,69=1/1;
 5/5=2,38=5,53=1/2;
 7//1,2,3,16;
 1/14=-1,18=20,19=15,26=3/3(-5);
 2/9=110/2;
 6/7=2,8=2,9=2,10=2,19=2,28=1/1;
 99/9=1/99;
 -------------------
 Title Card Required
 -------------------
 Symbolic Z-matrix:
 Charge =  0 Multiplicity = 1
 C                    -1.18244  -0.21491  -0.00089 
 C                    -0.66877  -1.64302   0.00387 
 C                     0.66866  -1.64305   0.00386 
 C                     1.1824   -0.21498  -0.00089 
 H                    -1.36251  -2.47189   0.00632 
 H                     1.36235  -2.47196   0.00631 
 C                     0.00005   2.07289   0.00709 
 H                     0.9527    2.46054  -0.39667 
 H                    -0.8275    2.46261  -0.61269 
 H                    -0.12434   2.45613   1.03582 
 N                     0.00001   0.59961  -0.0067 
 O                     2.31119   0.20154  -0.00441 
 O                    -2.3112    0.20167  -0.00439 
 

 GradGradGradGradGradGradGradGradGradGradGradGradGradGradGradGradGradGrad
 Berny optimization.
 Initialization pass.
                           ----------------------------
                           !    Initial Parameters    !
                           ! (Angstroms and Degrees)  !
 --------------------------                            --------------------------
 ! Name  Definition              Value          Derivative Info.                !
 --------------------------------------------------------------------------------
 ! R1    R(1,2)                  1.5177         estimate D2E/DX2                !
 ! R2    R(1,11)                 1.4358         estimate D2E/DX2                !
 ! R3    R(1,13)                 1.2032         estimate D2E/DX2                !
 ! R4    R(2,3)                  1.3374         estimate D2E/DX2                !
 ! R5    R(2,5)                  1.0809         estimate D2E/DX2                !
 ! R6    R(3,4)                  1.5177         estimate D2E/DX2                !
 ! R7    R(3,6)                  1.0809         estimate D2E/DX2                !
 ! R8    R(4,11)                 1.4358         estimate D2E/DX2                !
 ! R9    R(4,12)                 1.2032         estimate D2E/DX2                !
 ! R10   R(7,8)                  1.1049         estimate D2E/DX2                !
 ! R11   R(7,9)                  1.1049         estimate D2E/DX2                !
 ! R12   R(7,10)                 1.1048         estimate D2E/DX2                !
 ! R13   R(7,11)                 1.4733         estimate D2E/DX2                !
 ! A1    A(2,1,11)             104.7785         estimate D2E/DX2                !
 ! A2    A(2,1,13)             130.0401         estimate D2E/DX2                !
 ! A3    A(11,1,13)            125.1808         estimate D2E/DX2                !
 ! A4    A(1,2,3)              109.7843         estimate D2E/DX2                !
 ! A5    A(1,2,5)              120.2892         estimate D2E/DX2                !
 ! A6    A(3,2,5)              129.9265         estimate D2E/DX2                !
 ! A7    A(2,3,4)              109.7842         estimate D2E/DX2                !
 ! A8    A(2,3,6)              129.9265         estimate D2E/DX2                !
 ! A9    A(4,3,6)              120.2893         estimate D2E/DX2                !
 ! A10   A(3,4,11)             104.7786         estimate D2E/DX2                !
 ! A11   A(3,4,12)             130.0401         estimate D2E/DX2                !
 ! A12   A(11,4,12)            125.1808         estimate D2E/DX2                !
 ! A13   A(8,7,9)              108.4841         estimate D2E/DX2                !
 ! A14   A(8,7,10)             108.3985         estimate D2E/DX2                !
 ! A15   A(8,7,11)             110.33           estimate D2E/DX2                !
 ! A16   A(9,7,10)             108.3986         estimate D2E/DX2                !
 ! A17   A(9,7,11)             110.33           estimate D2E/DX2                !
 ! A18   A(10,7,11)            110.8285         estimate D2E/DX2                !
 ! A19   A(1,11,4)             110.8739         estimate D2E/DX2                !
 ! A20   A(1,11,7)             124.5576         estimate D2E/DX2                !
 ! A21   A(4,11,7)             124.5577         estimate D2E/DX2                !
 ! D1    D(11,1,2,3)             0.1278         estimate D2E/DX2                !
 ! D2    D(11,1,2,5)          -179.8532         estimate D2E/DX2                !
 ! D3    D(13,1,2,3)           179.868          estimate D2E/DX2                !
 ! D4    D(13,1,2,5)            -0.113          estimate D2E/DX2                !
 ! D5    D(2,1,11,4)            -0.212          estimate D2E/DX2                !
 ! D6    D(2,1,11,7)          -179.0648         estimate D2E/DX2                !
 ! D7    D(13,1,11,4)         -179.9686         estimate D2E/DX2                !
 ! D8    D(13,1,11,7)            1.1786         estimate D2E/DX2                !
 ! D9    D(1,2,3,4)              0.0            estimate D2E/DX2                !
 ! D10   D(1,2,3,6)           -179.9787         estimate D2E/DX2                !
 ! D11   D(5,2,3,4)            179.9787         estimate D2E/DX2                !
 ! D12   D(5,2,3,6)             -0.0001         estimate D2E/DX2                !
 ! D13   D(2,3,4,11)            -0.1278         estimate D2E/DX2                !
 ! D14   D(2,3,4,12)          -179.868          estimate D2E/DX2                !
 ! D15   D(6,3,4,11)           179.8533         estimate D2E/DX2                !
 ! D16   D(6,3,4,12)             0.1131         estimate D2E/DX2                !
 ! D17   D(3,4,11,1)             0.212          estimate D2E/DX2                !
 ! D18   D(3,4,11,7)           179.0648         estimate D2E/DX2                !
 ! D19   D(12,4,11,1)          179.9686         estimate D2E/DX2                !
 ! D20   D(12,4,11,7)           -1.1786         estimate D2E/DX2                !
 ! D21   D(8,7,11,1)          -157.4986         estimate D2E/DX2                !
 ! D22   D(8,7,11,4)            23.803          estimate D2E/DX2                !
 ! D23   D(9,7,11,1)           -37.6416         estimate D2E/DX2                !
 ! D24   D(9,7,11,4)           143.66           estimate D2E/DX2                !
 ! D25   D(10,7,11,1)           82.4299         estimate D2E/DX2                !
 ! D26   D(10,7,11,4)          -96.2685         estimate D2E/DX2                !
 --------------------------------------------------------------------------------
 Trust Radius=3.00D-01 FncErr=1.00D-07 GrdErr=1.00D-06
 Number of steps in this run=     70 maximum allowed number of steps=    100.
 GradGradGradGradGradGradGradGradGradGradGradGradGradGradGradGradGradGrad

                          Input orientation:                          
 ---------------------------------------------------------------------
 Center     Atomic      Atomic             Coordinates (Angstroms)
 Number     Number       Type             X           Y           Z
 ---------------------------------------------------------------------
      1          6           0       -1.182439   -0.214910   -0.000888
      2          6           0       -0.668774   -1.643015    0.003866
      3          6           0        0.668660   -1.643052    0.003862
      4          6           0        1.182403   -0.214975   -0.000894
      5          1           0       -1.362513   -2.471888    0.006319
      6          1           0        1.362353   -2.471963    0.006312
      7          6           0        0.000045    2.072890    0.007087
      8          1           0        0.952700    2.460536   -0.396669
      9          1           0       -0.827502    2.462606   -0.612691
     10          1           0       -0.124343    2.456130    1.035823
     11          7           0        0.000005    0.599609   -0.006700
     12          8           0        2.311185    0.201542   -0.004406
     13          8           0       -2.311197    0.201669   -0.004394
 ---------------------------------------------------------------------
                    Distance matrix (angstroms):
                    1          2          3          4          5
     1  C    0.000000
     2  C    1.517682   0.000000
     3  C    2.337986   1.337434   0.000000
     4  C    2.364842   2.337986   1.517682   0.000000
     5  H    2.264162   1.080884   2.193773   3.401515   0.000000
     6  H    3.401515   2.193772   1.080884   2.264162   2.724866
     7  C    2.575337   3.775616   3.775617   2.575337   4.744636
     8  H    3.445791   4.430433   4.132861   2.714362   5.463645
     9  H    2.769364   4.154691   4.413056   3.403447   5.001864
    10  H    3.054307   4.261963   4.300824   3.149154   5.184429
    11  N    1.435844   2.340243   2.340243   1.435843   3.360166
    12  O    3.518359   3.504656   2.469916   1.203182   4.543501
    13  O    1.203181   2.469915   3.504656   3.518358   2.836904
                    6          7          8          9         10
     6  H    0.000000
     7  C    4.744636   0.000000
     8  H    4.965859   1.104916   0.000000
     9  H    5.434023   1.104915   1.793262   0.000000
    10  H    5.249406   1.104827   1.792226   1.792226   0.000000
    11  N    3.360166   1.473346   2.126676   2.126676   2.132835
    12  O    2.836904   2.973793   2.665034   3.915837   3.478080
    13  O    4.543500   2.973792   3.988657   2.771861   3.308621
                   11         12         13
    11  N    0.000000
    12  O    2.345211   0.000000
    13  O    2.345211   4.622382   0.000000
 Stoichiometry    C5H5NO2
 Framework group  C1[X(C5H5NO2)]
 Deg. of freedom    33
 Full point group                 C1      NOp   1
 Largest Abelian subgroup         C1      NOp   1
 Largest concise Abelian subgroup C1      NOp   1
                         Standard orientation:                         
 ---------------------------------------------------------------------
 Center     Atomic      Atomic             Coordinates (Angstroms)
 Number     Number       Type             X           Y           Z
 ---------------------------------------------------------------------
      1          6           0       -1.182439   -0.214910   -0.000888
      2          6           0       -0.668775   -1.643015    0.003866
      3          6           0        0.668659   -1.643052    0.003862
      4          6           0        1.182403   -0.214975   -0.000894
      5          1           0       -1.362514   -2.471888    0.006319
      6          1           0        1.362352   -2.471963    0.006312
      7          6           0        0.000046    2.072890    0.007087
      8          1           0        0.952701    2.460536   -0.396669
      9          1           0       -0.827501    2.462606   -0.612691
     10          1           0       -0.124342    2.456130    1.035823
     11          7           0        0.000005    0.599609   -0.006700
     12          8           0        2.311185    0.201541   -0.004406
     13          8           0       -2.311197    0.201670   -0.004394
 ---------------------------------------------------------------------
 Rotational constants (GHZ):      3.2401673      2.2749787      1.3481131
 Standard basis: 6-31+G(d,p) (6D, 7F)
 There are   177 symmetry adapted cartesian basis functions of A   symmetry.
 There are   177 symmetry adapted basis functions of A   symmetry.
   177 basis functions,   291 primitive gaussians,   177 cartesian basis functions
    29 alpha electrons       29 beta electrons
       nuclear repulsion energy       350.8173106584 Hartrees.
 NAtoms=   13 NActive=   13 NUniq=   13 SFac= 1.00D+00 NAtFMM=   60 NAOKFM=F Big=F
 Integral buffers will be    131072 words long.
 Raffenetti 2 integral format.
 Two-electron integral symmetry is turned on.
 Nuclear repulsion after empirical dispersion term =      350.8089975496 Hartrees.
 ------------------------------------------------------------------------------
 Polarizable Continuum Model (PCM)
 =================================
 Model                : C-PCM.
 Atomic radii         : UFF (Universal Force Field).
 Polarization charges : Total charges.
 Charge compensation  : None.
 Solution method      : On-the-fly selection.
 Cavity type          : Scaled VdW (van der Waals Surface) (Alpha=1.100).
 Cavity algorithm     : GePol (No added spheres)
                        Default sphere list used, NSphG=   13.
                        Lebedev-Laikov grids with approx.  5.0 points / Ang**2.
                        Smoothing algorithm: Karplus/York (Gamma=1.0000).
                        Polarization charges: spherical gaussians, with
                                              point-specific exponents (IZeta= 3).
                        Self-potential: point-specific (ISelfS= 7).
                        Self-field    : sphere-specific E.n sum rule (ISelfD= 2).
 1st derivatives      : Analytical E(r).r(x)/FMM algorithm (CHGder, D1EAlg=3).
                        Cavity 1st derivative terms included.
 Solvent              : Water, Eps=  78.355300 Eps(inf)=   1.777849
 ------------------------------------------------------------------------------
 Spheres list:
 ISph  on   Nord     Re0    Alpha      Xe            Ye            Ze
    1   C      1    1.9255  1.100     -1.182439     -0.214910     -0.000888
    2   C      2    1.9255  1.100     -0.668775     -1.643015      0.003866
    3   C      3    1.9255  1.100      0.668659     -1.643052      0.003862
    4   C      4    1.9255  1.100      1.182403     -0.214975     -0.000894
    5   H      5    1.4430  1.100     -1.362514     -2.471888      0.006319
    6   H      6    1.4430  1.100      1.362352     -2.471963      0.006312
    7   C      7    1.9255  1.100      0.000046      2.072890      0.007087
    8   H      8    1.4430  1.100      0.952701      2.460536     -0.396669
    9   H      9    1.4430  1.100     -0.827501      2.462606     -0.612691
   10   H     10    1.4430  1.100     -0.124342      2.456130      1.035823
   11   N     11    1.8300  1.100      0.000005      0.599609     -0.006700
   12   O     12    1.7500  1.100      2.311185      0.201541     -0.004406
   13   O     13    1.7500  1.100     -2.311197      0.201670     -0.004394
 ------------------------------------------------------------------------------
 One-electron integrals computed using PRISM.
 NBasis=   177 RedAO= T EigKep=  1.75D-05  NBF=   177
 NBsUse=   177 1.00D-06 EigRej= -1.00D+00 NBFU=   177
 ExpMin= 4.38D-02 ExpMax= 5.48D+03 ExpMxC= 8.25D+02 IAcc=2 IRadAn=         4 AccDes= 0.00D+00
 Harris functional with IExCor=  402 and IRadAn=       4 diagonalized for initial guess.
 HarFok:  IExCor=  402 AccDes= 0.00D+00 IRadAn=         4 IDoV= 1 UseB2=F ITyADJ=14
 ICtDFT=  3500011 ScaDFX=  1.000000  1.000000  1.000000  1.000000
 FoFCou: FMM=F IPFlag=           0 FMFlag=      100000 FMFlg1=           0
         NFxFlg=           0 DoJE=T BraDBF=F KetDBF=T FulRan=T
         wScrn=  0.000000 ICntrl=     500 IOpCl=  0 I1Cent=   200000004 NGrid=           0
         NMat0=    1 NMatS0=      1 NMatT0=    0 NMatD0=    1 NMtDS0=    0 NMtDT0=    0
 Petite list used in FoFCou.
 Requested convergence on RMS density matrix=1.00D-08 within 128 cycles.
 Requested convergence on MAX density matrix=1.00D-06.
 Requested convergence on             energy=1.00D-06.
 No special actions if energy rises.
 Inv3:  Mode=1 IEnd=     4961388.
 Iteration    1 A*A^-1 deviation from unit magnitude is 6.00D-15 for   1286.
 Iteration    1 A*A^-1 deviation from orthogonality  is 1.69D-15 for   1286   1149.
 Iteration    1 A^-1*A deviation from unit magnitude is 6.00D-15 for   1286.
 Iteration    1 A^-1*A deviation from orthogonality  is 1.36D-15 for    800    744.
 Error on total polarization charges =  0.01204
 SCF Done:  E(RB3LYP) =  -398.783243156     A.U. after   12 cycles
            NFock= 12  Conv=0.84D-08     -V/T= 2.0099

 **********************************************************************

            Population analysis using the SCF density.

 **********************************************************************

 Orbital symmetries:
       Occupied  (A) (A) (A) (A) (A) (A) (A) (A) (A) (A) (A) (A)
                 (A) (A) (A) (A) (A) (A) (A) (A) (A) (A) (A) (A)
                 (A) (A) (A) (A) (A)
       Virtual   (A) (A) (A) (A) (A) (A) (A) (A) (A) (A) (A) (A)
                 (A) (A) (A) (A) (A) (A) (A) (A) (A) (A) (A) (A)
                 (A) (A) (A) (A) (A) (A) (A) (A) (A) (A) (A) (A)
                 (A) (A) (A) (A) (A) (A) (A) (A) (A) (A) (A) (A)
                 (A) (A) (A) (A) (A) (A) (A) (A) (A) (A) (A) (A)
                 (A) (A) (A) (A) (A) (A) (A) (A) (A) (A) (A) (A)
                 (A) (A) (A) (A) (A) (A) (A) (A) (A) (A) (A) (A)
                 (A) (A) (A) (A) (A) (A) (A) (A) (A) (A) (A) (A)
                 (A) (A) (A) (A) (A) (A) (A) (A) (A) (A) (A) (A)
                 (A) (A) (A) (A) (A) (A) (A) (A) (A) (A) (A) (A)
                 (A) (A) (A) (A) (A) (A) (A) (A) (A) (A) (A) (A)
                 (A) (A) (A) (A) (A) (A) (A) (A) (A) (A) (A) (A)
                 (A) (A) (A) (A)
 The electronic state is 1-A.
 Alpha  occ. eigenvalues --  -19.17895 -19.17881 -14.39628 -10.33400 -10.33394
 Alpha  occ. eigenvalues --  -10.23866 -10.23779 -10.23479  -1.09571  -1.08485
 Alpha  occ. eigenvalues --   -0.96294  -0.83476  -0.71429  -0.68752  -0.60862
 Alpha  occ. eigenvalues --   -0.56820  -0.51540  -0.48954  -0.48319  -0.46484
 Alpha  occ. eigenvalues --   -0.45744  -0.44125  -0.42251  -0.42131  -0.40539
 Alpha  occ. eigenvalues --   -0.32180  -0.32021  -0.29008  -0.28056
 Alpha virt. eigenvalues --   -0.10778   0.00478   0.02174   0.02771   0.03251
 Alpha virt. eigenvalues --    0.04233   0.04430   0.04577   0.05615   0.06501
 Alpha virt. eigenvalues --    0.08062   0.08550   0.08579   0.09321   0.10219
 Alpha virt. eigenvalues --    0.11637   0.13247   0.13917   0.14509   0.14578
 Alpha virt. eigenvalues --    0.17005   0.17323   0.18265   0.19167   0.19840
 Alpha virt. eigenvalues --    0.20842   0.20938   0.21507   0.22444   0.24411
 Alpha virt. eigenvalues --    0.25248   0.25343   0.25604   0.26242   0.27975
 Alpha virt. eigenvalues --    0.28700   0.29077   0.30310   0.31905   0.32440
 Alpha virt. eigenvalues --    0.33748   0.35335   0.37274   0.38797   0.41786
 Alpha virt. eigenvalues --    0.44740   0.46276   0.56741   0.62838   0.64331
 Alpha virt. eigenvalues --    0.66123   0.69118   0.70907   0.72250   0.72939
 Alpha virt. eigenvalues --    0.74083   0.77263   0.78676   0.83548   0.84380
 Alpha virt. eigenvalues --    0.89040   0.90868   0.92159   0.92939   0.95979
 Alpha virt. eigenvalues --    0.98252   1.02786   1.06351   1.07204   1.09705
 Alpha virt. eigenvalues --    1.18277   1.19708   1.20514   1.22235   1.24082
 Alpha virt. eigenvalues --    1.25675   1.28720   1.28783   1.29386   1.31009
 Alpha virt. eigenvalues --    1.32882   1.36231   1.36731   1.39318   1.41289
 Alpha virt. eigenvalues --    1.44799   1.49708   1.56380   1.61192   1.62843
 Alpha virt. eigenvalues --    1.68230   1.73715   1.74129   1.76044   1.76734
 Alpha virt. eigenvalues --    1.85873   1.89185   1.91110   1.91746   1.92225
 Alpha virt. eigenvalues --    1.93234   1.97095   1.97688   2.03606   2.05378
 Alpha virt. eigenvalues --    2.08295   2.09258   2.10220   2.15286   2.16218
 Alpha virt. eigenvalues --    2.22644   2.31811   2.35099   2.35696   2.37332
 Alpha virt. eigenvalues --    2.42258   2.45493   2.46509   2.49465   2.51028
 Alpha virt. eigenvalues --    2.51515   2.63556   2.65606   2.68658   2.73398
 Alpha virt. eigenvalues --    2.74062   2.76538   2.80903   2.86034   2.94979
 Alpha virt. eigenvalues --    3.01715   3.02681   3.18372   3.22720   3.25259
 Alpha virt. eigenvalues --    3.29192   3.29673   3.41086   3.42479   3.67690
 Alpha virt. eigenvalues --    4.13503   4.22151   4.31592   4.40810   4.53492
 Alpha virt. eigenvalues --    4.61243   4.64120   4.98331
          Condensed to atoms (all electrons):
               1          2          3          4          5          6
     1  C    5.309792  -0.409568   0.542512  -0.325431   0.008752  -0.005883
     2  C   -0.409568   6.292901  -0.313421   0.547266   0.303536   0.016392
     3  C    0.542512  -0.313421   6.343499  -0.436777   0.016739   0.304760
     4  C   -0.325431   0.547266  -0.436777   5.323849  -0.006448   0.007360
     5  H    0.008752   0.303536   0.016739  -0.006448   0.491696  -0.001929
     6  H   -0.005883   0.016392   0.304760   0.007360  -0.001929   0.491964
     7  C   -0.098667  -0.024215  -0.041678  -0.087409  -0.000272  -0.000329
     8  H    0.005711  -0.004238   0.003100  -0.009117   0.000002  -0.000002
     9  H   -0.007486   0.003054  -0.002377   0.005286  -0.000002   0.000002
    10  H   -0.001908   0.000235  -0.000155   0.000337   0.000000   0.000001
    11  N    0.279933  -0.343841  -0.353788   0.289325   0.008399   0.008411
    12  O    0.062122  -0.069609  -0.007893   0.306885  -0.000418  -0.003962
    13  O    0.308556  -0.013239  -0.069623   0.061163  -0.003862  -0.000407
               7          8          9         10         11         12
     1  C   -0.098667   0.005711  -0.007486  -0.001908   0.279933   0.062122
     2  C   -0.024215  -0.004238   0.003054   0.000235  -0.343841  -0.069609
     3  C   -0.041678   0.003100  -0.002377  -0.000155  -0.353788  -0.007893
     4  C   -0.087409  -0.009117   0.005286   0.000337   0.289325   0.306885
     5  H   -0.000272   0.000002  -0.000002   0.000000   0.008399  -0.000418
     6  H   -0.000329  -0.000002   0.000002   0.000001   0.008411  -0.003962
     7  C    5.149662   0.408896   0.403283   0.403285   0.230791  -0.032879
     8  H    0.408896   0.505697  -0.022537  -0.027987  -0.043675   0.005988
     9  H    0.403283  -0.022537   0.513218  -0.030198  -0.042656   0.000104
    10  H    0.403285  -0.027987  -0.030198   0.527130  -0.046333   0.000806
    11  N    0.230791  -0.043675  -0.042656  -0.046333   7.402427  -0.099761
    12  O   -0.032879   0.005988   0.000104   0.000806  -0.099761   8.393741
    13  O   -0.025359   0.000042   0.004658   0.001171  -0.099910  -0.001695
              13
     1  C    0.308556
     2  C   -0.013239
     3  C   -0.069623
     4  C    0.061163
     5  H   -0.003862
     6  H   -0.000407
     7  C   -0.025359
     8  H    0.000042
     9  H    0.004658
    10  H    0.001171
    11  N   -0.099910
    12  O   -0.001695
    13  O    8.390587
 Mulliken charges:
               1
     1  C    0.331565
     2  C    0.014745
     3  C    0.015101
     4  C    0.323711
     5  H    0.183806
     6  H    0.183623
     7  C   -0.285109
     8  H    0.178121
     9  H    0.175651
    10  H    0.173617
    11  N   -0.189320
    12  O   -0.553429
    13  O   -0.552083
 Sum of Mulliken charges =   0.00000
 Mulliken charges with hydrogens summed into heavy atoms:
               1
     1  C    0.331565
     2  C    0.198551
     3  C    0.198724
     4  C    0.323711
     7  C    0.242280
    11  N   -0.189320
    12  O   -0.553429
    13  O   -0.552083
 Electronic spatial extent (au):  <R**2>=            845.6280
 Charge=              0.0000 electrons
 Dipole moment (field-independent basis, Debye):
    X=              0.0225    Y=             -1.7118    Z=              0.0075  Tot=              1.7119
 Quadrupole moment (field-independent basis, Debye-Ang):
   XX=            -63.0052   YY=            -35.2578   ZZ=            -45.8045
   XY=              0.0829   XZ=              0.0005   YZ=             -0.1264
 Traceless Quadrupole moment (field-independent basis, Debye-Ang):
   XX=            -14.9827   YY=             12.7647   ZZ=              2.2180
   XY=              0.0829   XZ=              0.0005   YZ=             -0.1264
 Octapole moment (field-independent basis, Debye-Ang**2):
  XXX=              0.2939  YYY=             -1.6859  ZZZ=              0.5884  XYY=              0.2214
  XXY=            -10.0142  XXZ=             -0.5655  XZZ=             -0.2352  YZZ=              3.7761
  YYZ=             -0.3387  XYZ=              0.0015
 Hexadecapole moment (field-independent basis, Debye-Ang**3):
 XXXX=           -689.4537 YYYY=           -422.7828 ZZZZ=            -53.6193 XXXY=              0.8668
 XXXZ=             -0.0083 YYYX=              0.6524 YYYZ=             -1.3379 ZZZX=              0.0040
 ZZZY=              1.5096 XXYY=           -156.5241 XXZZ=            -99.7110 YYZZ=            -92.6076
 XXYZ=             -1.8392 YYXZ=              0.0079 ZZXY=             -0.6000
 N-N= 3.508089975496D+02 E-N=-1.631106144359D+03  KE= 3.948681881028D+02
 D1PCM: C-PCM CHGder 1st derivatives, ID1Alg=3 FixD1E=F DoIter=F DoCFld=F I1PDM=0.
 Calling FoFJK, ICntrl=      2127 FMM=F ISym2X=0 I1Cent= 0 IOpClX= 0 NMat=1 NMatS=1 NMatT=0.
 ***** Axes restored to original set *****
 -------------------------------------------------------------------
 Center     Atomic                   Forces (Hartrees/Bohr)
 Number     Number              X              Y              Z
 -------------------------------------------------------------------
      1        6           0.052380241    0.002493889   -0.000148981
      2        6          -0.005264610    0.006766579    0.000046413
      3        6           0.005330860    0.006731078    0.000044198
      4        6          -0.051952681    0.002289872   -0.000127015
      5        1           0.001279399   -0.002454749   -0.000021136
      6        1          -0.001277502   -0.002449415   -0.000021648
      7        6          -0.001094464    0.001355087    0.000807570
      8        1          -0.006495071   -0.007282769    0.002754199
      9        1           0.005490788   -0.006037087    0.004113490
     10        1           0.000708486   -0.003183836   -0.005784662
     11        7           0.000883257   -0.006861279   -0.001847661
     12        8           0.019235835    0.004139650    0.000089415
     13        8          -0.019224538    0.004492982    0.000095816
 -------------------------------------------------------------------
 Cartesian Forces:  Max     0.052380241 RMS     0.013086620

 GradGradGradGradGradGradGradGradGradGradGradGradGradGradGradGradGradGrad
 Berny optimization.
 FormGI is forming the generalized inverse of G from B-inverse, IUseBI=4.
 Internal  Forces:  Max     0.025002386 RMS     0.007010352
 Search for a local minimum.
 Step number   1 out of a maximum of   70
 All quantities printed in internal units (Hartrees-Bohrs-Radians)
 Mixed Optimization -- RFO/linear search
 Second derivative matrix not updated -- first step.
 ITU=  0
     Eigenvalues ---    0.00722   0.00790   0.00844   0.00909   0.01100
     Eigenvalues ---    0.01521   0.01656   0.02189   0.07282   0.07339
     Eigenvalues ---    0.16000   0.16000   0.16000   0.16000   0.16000
     Eigenvalues ---    0.22680   0.24789   0.24992   0.25000   0.25000
     Eigenvalues ---    0.29542   0.30395   0.33144   0.33144   0.33154
     Eigenvalues ---    0.35343   0.35888   0.35888   0.37974   0.39345
     Eigenvalues ---    0.55231   1.03240   1.03241
 RFO step:  Lambda=-7.08130301D-03 EMin= 7.21559835D-03
 Linear search not attempted -- first point.
 Iteration  1 RMS(Cart)=  0.02543288 RMS(Int)=  0.00024336
 Iteration  2 RMS(Cart)=  0.00025241 RMS(Int)=  0.00010415
 Iteration  3 RMS(Cart)=  0.00000006 RMS(Int)=  0.00010415
 Variable       Old X    -DE/DX   Delta X   Delta X   Delta X     New X
                                 (Linear)    (Quad)   (Total)
    R1        2.86800  -0.00762   0.00000  -0.02314  -0.02314   2.84486
    R2        2.71335  -0.02500   0.00000  -0.06354  -0.06353   2.64982
    R3        2.27368   0.01959   0.00000   0.01885   0.01885   2.29253
    R4        2.52738  -0.00658   0.00000  -0.00927  -0.00928   2.51811
    R5        2.04257   0.00106   0.00000   0.00290   0.00290   2.04548
    R6        2.86800  -0.00764   0.00000  -0.02311  -0.02312   2.84488
    R7        2.04257   0.00106   0.00000   0.00289   0.00289   2.04547
    R8        2.71335  -0.02427   0.00000  -0.06170  -0.06170   2.65165
    R9        2.27368   0.01948   0.00000   0.01874   0.01874   2.29242
   R10        2.08799  -0.00916   0.00000  -0.02706  -0.02706   2.06093
   R11        2.08799  -0.00855   0.00000  -0.02526  -0.02526   2.06273
   R12        2.08782  -0.00657   0.00000  -0.01940  -0.01940   2.06842
   R13        2.78422  -0.01513   0.00000  -0.04197  -0.04197   2.74225
    A1        1.82873   0.00681   0.00000   0.02495   0.02496   1.85369
    A2        2.26963  -0.00618   0.00000  -0.02326  -0.02327   2.24636
    A3        2.18482  -0.00063   0.00000  -0.00168  -0.00169   2.18313
    A4        1.91610  -0.00583   0.00000  -0.01821  -0.01821   1.89788
    A5        2.09944   0.00553   0.00000   0.02472   0.02472   2.12417
    A6        2.26765   0.00031   0.00000  -0.00651  -0.00651   2.26114
    A7        1.91610  -0.00586   0.00000  -0.01821  -0.01822   1.89788
    A8        2.26765   0.00032   0.00000  -0.00651  -0.00650   2.26115
    A9        2.09944   0.00554   0.00000   0.02471   0.02472   2.12416
   A10        1.82873   0.00665   0.00000   0.02448   0.02447   1.85321
   A11        2.26963  -0.00648   0.00000  -0.02451  -0.02451   2.24511
   A12        2.18482  -0.00017   0.00000   0.00005   0.00005   2.18487
   A13        1.89340   0.00388   0.00000   0.01895   0.01841   1.91182
   A14        1.89191   0.00278   0.00000   0.01738   0.01737   1.90928
   A15        1.92562  -0.00562   0.00000  -0.03547  -0.03573   1.88989
   A16        1.89191   0.00225   0.00000   0.01697   0.01699   1.90890
   A17        1.92562  -0.00357   0.00000  -0.02172  -0.02196   1.90366
   A18        1.93432   0.00059   0.00000   0.00575   0.00575   1.94008
   A19        1.93512  -0.00177   0.00000  -0.01302  -0.01301   1.92210
   A20        2.17394   0.00032   0.00000   0.00429   0.00428   2.17822
   A21        2.17394   0.00145   0.00000   0.00867   0.00866   2.18261
    D1        0.00223   0.00001   0.00000   0.00077   0.00076   0.00299
    D2       -3.13903   0.00000   0.00000   0.00051   0.00051  -3.13852
    D3        3.13929   0.00008   0.00000   0.00524   0.00520  -3.13870
    D4       -0.00197   0.00007   0.00000   0.00497   0.00494   0.00297
    D5       -0.00370  -0.00002   0.00000  -0.00137  -0.00136  -0.00506
    D6       -3.12527   0.00001   0.00000   0.00196   0.00197  -3.12330
    D7       -3.14105  -0.00007   0.00000  -0.00548  -0.00551   3.13663
    D8        0.02057  -0.00004   0.00000  -0.00214  -0.00218   0.01839
    D9        0.00000   0.00000   0.00000   0.00010   0.00010   0.00010
   D10       -3.14122  -0.00001   0.00000  -0.00028  -0.00026  -3.14148
   D11        3.14122   0.00002   0.00000   0.00040   0.00038  -3.14158
   D12        0.00000   0.00000   0.00000   0.00003   0.00003   0.00002
   D13       -0.00223  -0.00001   0.00000  -0.00093  -0.00092  -0.00316
   D14       -3.13929  -0.00009   0.00000  -0.00498  -0.00495   3.13895
   D15        3.13903   0.00000   0.00000  -0.00060  -0.00061   3.13843
   D16        0.00197  -0.00007   0.00000  -0.00466  -0.00463  -0.00266
   D17        0.00370   0.00002   0.00000   0.00143   0.00141   0.00511
   D18        3.12527  -0.00002   0.00000  -0.00197  -0.00199   3.12328
   D19        3.14105   0.00007   0.00000   0.00514   0.00517  -3.13697
   D20       -0.02057   0.00002   0.00000   0.00174   0.00177  -0.01880
   D21       -2.74887   0.00037   0.00000   0.00303   0.00279  -2.74608
   D22        0.41544   0.00045   0.00000   0.00706   0.00686   0.42230
   D23       -0.65697  -0.00067   0.00000  -0.00999  -0.00977  -0.66674
   D24        2.50734  -0.00060   0.00000  -0.00595  -0.00570   2.50164
   D25        1.43867   0.00019   0.00000   0.00076   0.00073   1.43941
   D26       -1.68020   0.00026   0.00000   0.00480   0.00480  -1.67540
         Item               Value     Threshold  Converged?
 Maximum Force            0.025002     0.000450     NO 
 RMS     Force            0.007010     0.000300     NO 
 Maximum Displacement     0.103679     0.001800     NO 
 RMS     Displacement     0.025535     0.001200     NO 
 Predicted change in Energy=-3.613964D-03
 GradGradGradGradGradGradGradGradGradGradGradGradGradGradGradGradGradGrad

                          Input orientation:                          
 ---------------------------------------------------------------------
 Center     Atomic      Atomic             Coordinates (Angstroms)
 Number     Number       Type             X           Y           Z
 ---------------------------------------------------------------------
      1          6           0       -1.149261   -0.197975   -0.000993
      2          6           0       -0.665693   -1.623632    0.001364
      3          6           0        0.666832   -1.623733    0.001335
      4          6           0        1.150609   -0.198135   -0.000903
      5          1           0       -1.355040   -2.458156    0.002694
      6          1           0        1.356058   -2.458349    0.002613
      7          6           0       -0.003293    2.056220    0.011615
      8          1           0        0.946088    2.405672   -0.395768
      9          1           0       -0.823274    2.418695   -0.611059
     10          1           0       -0.124454    2.438405    1.030101
     11          7           0        0.000140    0.605199   -0.006385
     12          8           0        2.291333    0.214601    0.000932
     13          8           0       -2.289462    0.216368    0.001082
 ---------------------------------------------------------------------
                    Distance matrix (angstroms):
                    1          2          3          4          5
     1  C    0.000000
     2  C    1.505437   0.000000
     3  C    2.308892   1.332525   0.000000
     4  C    2.299869   2.308895   1.505448   0.000000
     5  H    2.269532   1.082419   2.187288   3.374312   0.000000
     6  H    3.374304   2.187289   1.082414   2.269535   2.711098
     7  C    2.528793   3.739009   3.740484   2.532540   4.712418
     8  H    3.365310   4.357848   4.058543   2.641506   5.395440
     9  H    2.706550   4.091492   4.351628   3.334112   4.944001
    10  H    3.010629   4.225090   4.264441   3.104851   5.152302
    11  N    1.402227   2.326173   2.326516   1.403194   3.349737
    12  O    3.465243   3.481825   2.453258   1.213098   4.521025
    13  O    1.213155   2.454023   3.482190   3.464954   2.833059
                    6          7          8          9         10
     6  H    0.000000
     7  C    4.714791   0.000000
     8  H    4.897498   1.090597   0.000000
     9  H    5.376955   1.091549   1.782459   0.000000
    10  H    5.217840   1.094559   1.783321   1.783857   0.000000
    11  N    3.350213   1.451136   2.070782   2.081444   2.109614
    12  O    2.831856   2.942275   2.601509   3.864368   3.441006
    13  O    4.521497   2.934576   3.926745   2.715635   3.268576
                   11         12         13
    11  N    0.000000
    12  O    2.324261   0.000000
    13  O    2.322396   4.580796   0.000000
 Stoichiometry    C5H5NO2
 Framework group  C1[X(C5H5NO2)]
 Deg. of freedom    33
 Full point group                 C1      NOp   1
 Largest Abelian subgroup         C1      NOp   1
 Largest concise Abelian subgroup C1      NOp   1
                         Standard orientation:                         
 ---------------------------------------------------------------------
 Center     Atomic      Atomic             Coordinates (Angstroms)
 Number     Number       Type             X           Y           Z
 ---------------------------------------------------------------------
      1          6           0       -1.148338   -0.212765   -0.001918
      2          6           0       -0.657273   -1.635850    0.003076
      3          6           0        0.675234   -1.628938    0.003070
      4          6           0        1.151501   -0.200820   -0.001786
      5          1           0       -1.342218   -2.473987    0.005930
      6          1           0        1.368844   -2.459911    0.005899
      7          6           0       -0.014251    2.047449    0.006557
      8          1           0        0.933289    2.401142   -0.401451
      9          1           0       -0.836111    2.404456   -0.616799
     10          1           0       -0.137450    2.430868    1.024335
     11          7           0       -0.003180    0.596436   -0.008768
     12          8           0        2.290037    0.217917   -0.000691
     13          8           0       -2.290704    0.195574   -0.000626
 ---------------------------------------------------------------------
 Rotational constants (GHZ):      3.3019349      2.3276817      1.3771982
 Standard basis: 6-31+G(d,p) (6D, 7F)
 There are   177 symmetry adapted cartesian basis functions of A   symmetry.
 There are   177 symmetry adapted basis functions of A   symmetry.
   177 basis functions,   291 primitive gaussians,   177 cartesian basis functions
    29 alpha electrons       29 beta electrons
       nuclear repulsion energy       354.1317088089 Hartrees.
 NAtoms=   13 NActive=   13 NUniq=   13 SFac= 1.00D+00 NAtFMM=   60 NAOKFM=F Big=F
 Integral buffers will be    131072 words long.
 Raffenetti 2 integral format.
 Two-electron integral symmetry is turned on.
 Nuclear repulsion after empirical dispersion term =      354.1233109126 Hartrees.
 ------------------------------------------------------------------------------
 Polarizable Continuum Model (PCM)
 =================================
 Model                : C-PCM.
 Atomic radii         : UFF (Universal Force Field).
 Polarization charges : Total charges.
 Charge compensation  : None.
 Solution method      : On-the-fly selection.
 Cavity type          : Scaled VdW (van der Waals Surface) (Alpha=1.100).
 Cavity algorithm     : GePol (No added spheres)
                        Default sphere list used, NSphG=   13.
                        Lebedev-Laikov grids with approx.  5.0 points / Ang**2.
                        Smoothing algorithm: Karplus/York (Gamma=1.0000).
                        Polarization charges: spherical gaussians, with
                                              point-specific exponents (IZeta= 3).
                        Self-potential: point-specific (ISelfS= 7).
                        Self-field    : sphere-specific E.n sum rule (ISelfD= 2).
 1st derivatives      : Analytical E(r).r(x)/FMM algorithm (CHGder, D1EAlg=3).
                        Cavity 1st derivative terms included.
 Solvent              : Water, Eps=  78.355300 Eps(inf)=   1.777849
 ------------------------------------------------------------------------------
 Spheres list:
 ISph  on   Nord     Re0    Alpha      Xe            Ye            Ze
    1   C      1    1.9255  1.100     -1.148338     -0.212765     -0.001918
    2   C      2    1.9255  1.100     -0.657273     -1.635850      0.003076
    3   C      3    1.9255  1.100      0.675234     -1.628938      0.003070
    4   C      4    1.9255  1.100      1.151501     -0.200820     -0.001786
    5   H      5    1.4430  1.100     -1.342218     -2.473987      0.005930
    6   H      6    1.4430  1.100      1.368844     -2.459911      0.005899
    7   C      7    1.9255  1.100     -0.014251      2.047449      0.006557
    8   H      8    1.4430  1.100      0.933289      2.401142     -0.401451
    9   H      9    1.4430  1.100     -0.836111      2.404456     -0.616799
   10   H     10    1.4430  1.100     -0.137450      2.430868      1.024335
   11   N     11    1.8300  1.100     -0.003180      0.596436     -0.008768
   12   O     12    1.7500  1.100      2.290037      0.217917     -0.000691
   13   O     13    1.7500  1.100     -2.290704      0.195574     -0.000626
 ------------------------------------------------------------------------------
 One-electron integrals computed using PRISM.
 NBasis=   177 RedAO= T EigKep=  1.61D-05  NBF=   177
 NBsUse=   177 1.00D-06 EigRej= -1.00D+00 NBFU=   177
 Initial guess from the checkpoint file:  "b3lyp_dienophile_pm6_cpcmtoluene_1_water.chk"
 B after Tr=     0.000000    0.000000    0.000000
         Rot=    0.999996    0.000352    0.000003   -0.002671 Ang=   0.31 deg.
 ExpMin= 4.38D-02 ExpMax= 5.48D+03 ExpMxC= 8.25D+02 IAcc=2 IRadAn=         4 AccDes= 0.00D+00
 Harris functional with IExCor=  402 and IRadAn=       4 diagonalized for initial guess.
 HarFok:  IExCor=  402 AccDes= 0.00D+00 IRadAn=         4 IDoV= 1 UseB2=F ITyADJ=14
 ICtDFT=  3500011 ScaDFX=  1.000000  1.000000  1.000000  1.000000
 FoFCou: FMM=F IPFlag=           0 FMFlag=      100000 FMFlg1=           0
         NFxFlg=           0 DoJE=T BraDBF=F KetDBF=T FulRan=T
         wScrn=  0.000000 ICntrl=     500 IOpCl=  0 I1Cent=   200000004 NGrid=           0
         NMat0=    1 NMatS0=      1 NMatT0=    0 NMatD0=    1 NMtDS0=    0 NMtDT0=    0
 Petite list used in FoFCou.
 Requested convergence on RMS density matrix=1.00D-08 within 128 cycles.
 Requested convergence on MAX density matrix=1.00D-06.
 Requested convergence on             energy=1.00D-06.
 No special actions if energy rises.
 Inv3:  Mode=1 IEnd=     4930572.
 Iteration    1 A*A^-1 deviation from unit magnitude is 4.66D-15 for   1260.
 Iteration    1 A*A^-1 deviation from orthogonality  is 1.17D-15 for    887      1.
 Iteration    1 A^-1*A deviation from unit magnitude is 4.66D-15 for   1260.
 Iteration    1 A^-1*A deviation from orthogonality  is 1.24D-15 for    788    373.
 Error on total polarization charges =  0.01197
 SCF Done:  E(RB3LYP) =  -398.787479956     A.U. after   11 cycles
            NFock= 11  Conv=0.34D-08     -V/T= 2.0094
 D1PCM: C-PCM CHGder 1st derivatives, ID1Alg=3 FixD1E=F DoIter=F DoCFld=F I1PDM=0.
 Calling FoFJK, ICntrl=      2127 FMM=F ISym2X=0 I1Cent= 0 IOpClX= 0 NMat=1 NMatS=1 NMatT=0.
 ***** Axes restored to original set *****
 -------------------------------------------------------------------
 Center     Atomic                   Forces (Hartrees/Bohr)
 Number     Number              X              Y              Z
 -------------------------------------------------------------------
      1        6           0.017064565   -0.000215583    0.000424127
      2        6          -0.006981645    0.000759654   -0.000112664
      3        6           0.006837118    0.000876775   -0.000090928
      4        6          -0.016716081   -0.000104042    0.000373953
      5        1           0.000683933   -0.000093076   -0.000030157
      6        1          -0.000652456   -0.000056505   -0.000023595
      7        6          -0.000047659    0.001862641   -0.000530381
      8        1           0.000022646    0.000277636    0.000230066
      9        1           0.000058891    0.000055835    0.000325875
     10        1          -0.000001455   -0.000275273   -0.000321448
     11        7          -0.000111756   -0.007663545   -0.000149446
     12        8           0.009853677    0.002201686   -0.000044619
     13        8          -0.010009777    0.002373797   -0.000050783
 -------------------------------------------------------------------
 Cartesian Forces:  Max     0.017064565 RMS     0.004908090

 GradGradGradGradGradGradGradGradGradGradGradGradGradGradGradGradGradGrad
 Berny optimization.
 Using GEDIIS/GDIIS optimizer.
 FormGI is forming the generalized inverse of G from B-inverse, IUseBI=4.
 Internal  Forces:  Max     0.010219031 RMS     0.002248609
 Search for a local minimum.
 Step number   2 out of a maximum of   70
 All quantities printed in internal units (Hartrees-Bohrs-Radians)
 Mixed Optimization -- RFO/linear search
 Update second derivatives using D2CorX and points    1    2
 DE= -4.24D-03 DEPred=-3.61D-03 R= 1.17D+00
 TightC=F SS=  1.41D+00  RLast= 1.45D-01 DXNew= 5.0454D-01 4.3406D-01
 Trust test= 1.17D+00 RLast= 1.45D-01 DXMaxT set to 4.34D-01
 ITU=  1  0
 Use linear search instead of GDIIS.
     Eigenvalues ---    0.00722   0.00796   0.00850   0.00908   0.01097
     Eigenvalues ---    0.01494   0.01635   0.02167   0.07358   0.07669
     Eigenvalues ---    0.15844   0.16000   0.16000   0.16000   0.16355
     Eigenvalues ---    0.22698   0.23273   0.24987   0.25000   0.25016
     Eigenvalues ---    0.29486   0.30045   0.32511   0.33146   0.33172
     Eigenvalues ---    0.33883   0.35872   0.35888   0.37315   0.39307
     Eigenvalues ---    0.56853   0.96705   1.03241
 RFO step:  Lambda=-3.98359792D-04 EMin= 7.21558825D-03
 Quartic linear search produced a step of  0.19659.
 Iteration  1 RMS(Cart)=  0.00637556 RMS(Int)=  0.00007227
 Iteration  2 RMS(Cart)=  0.00006999 RMS(Int)=  0.00004506
 Iteration  3 RMS(Cart)=  0.00000000 RMS(Int)=  0.00004506
 Variable       Old X    -DE/DX   Delta X   Delta X   Delta X     New X
                                 (Linear)    (Quad)   (Total)
    R1        2.84486  -0.00163  -0.00455  -0.00205  -0.00660   2.83827
    R2        2.64982  -0.00506  -0.01249  -0.00643  -0.01891   2.63091
    R3        2.29253   0.01022   0.00371   0.00910   0.01281   2.30534
    R4        2.51811   0.00340  -0.00182   0.00944   0.00761   2.52572
    R5        2.04548  -0.00036   0.00057  -0.00167  -0.00109   2.04438
    R6        2.84488  -0.00160  -0.00455  -0.00195  -0.00650   2.83839
    R7        2.04547  -0.00037   0.00057  -0.00169  -0.00112   2.04434
    R8        2.65165  -0.00497  -0.01213  -0.00644  -0.01857   2.63308
    R9        2.29242   0.01001   0.00368   0.00888   0.01256   2.30499
   R10        2.06093   0.00002  -0.00532   0.00437  -0.00095   2.05998
   R11        2.06273  -0.00021  -0.00497   0.00323  -0.00174   2.06099
   R12        2.06842  -0.00040  -0.00381   0.00164  -0.00217   2.06624
   R13        2.74225   0.00192  -0.00825   0.01307   0.00482   2.74707
    A1        1.85369   0.00158   0.00491   0.00250   0.00733   1.86103
    A2        2.24636  -0.00215  -0.00457  -0.00598  -0.01062   2.23574
    A3        2.18313   0.00057  -0.00033   0.00347   0.00307   2.18620
    A4        1.89788  -0.00188  -0.00358  -0.00345  -0.00704   1.89084
    A5        2.12417   0.00154   0.00486   0.00340   0.00827   2.13243
    A6        2.26114   0.00034  -0.00128   0.00005  -0.00123   2.25991
    A7        1.89788  -0.00173  -0.00358  -0.00265  -0.00625   1.89163
    A8        2.26115   0.00031  -0.00128  -0.00002  -0.00129   2.25986
    A9        2.12416   0.00142   0.00486   0.00267   0.00754   2.13170
   A10        1.85321   0.00146   0.00481   0.00200   0.00674   1.85994
   A11        2.24511  -0.00220  -0.00482  -0.00602  -0.01090   2.23422
   A12        2.18487   0.00074   0.00001   0.00401   0.00396   2.18882
   A13        1.91182  -0.00004   0.00362  -0.00124   0.00226   1.91408
   A14        1.90928  -0.00014   0.00341  -0.00472  -0.00131   1.90798
   A15        1.88989   0.00050  -0.00702   0.01089   0.00381   1.89369
   A16        1.90890  -0.00010   0.00334  -0.00529  -0.00195   1.90695
   A17        1.90366   0.00021  -0.00432   0.00577   0.00139   1.90505
   A18        1.94008  -0.00042   0.00113  -0.00521  -0.00408   1.93599
   A19        1.92210   0.00057  -0.00256   0.00149  -0.00108   1.92103
   A20        2.17822  -0.00043   0.00084  -0.00116  -0.00032   2.17790
   A21        2.18261  -0.00014   0.00170  -0.00046   0.00124   2.18384
    D1        0.00299   0.00010   0.00015   0.01117   0.01132   0.01432
    D2       -3.13852   0.00010   0.00010   0.01139   0.01147  -3.12705
    D3       -3.13870  -0.00005   0.00102  -0.01122  -0.01011   3.13437
    D4        0.00297  -0.00005   0.00097  -0.01100  -0.00997  -0.00700
    D5       -0.00506  -0.00016  -0.00027  -0.01791  -0.01821  -0.02326
    D6       -3.12330  -0.00009   0.00039  -0.01205  -0.01173  -3.13503
    D7        3.13663  -0.00002  -0.00108   0.00345   0.00245   3.13909
    D8        0.01839   0.00005  -0.00043   0.00930   0.00893   0.02732
    D9        0.00010  -0.00001   0.00002  -0.00052  -0.00050  -0.00040
   D10       -3.14148   0.00000  -0.00005   0.00032   0.00023  -3.14125
   D11       -3.14158   0.00000   0.00008  -0.00077  -0.00066   3.14094
   D12        0.00002   0.00000   0.00001   0.00007   0.00007   0.00010
   D13       -0.00316  -0.00009  -0.00018  -0.01029  -0.01047  -0.01363
   D14        3.13895   0.00005  -0.00097   0.01113   0.01006  -3.13418
   D15        3.13843  -0.00009  -0.00012  -0.01105  -0.01114   3.12728
   D16       -0.00266   0.00005  -0.00091   0.01036   0.00939   0.00673
   D17        0.00511   0.00016   0.00028   0.01760   0.01791   0.02302
   D18        3.12328   0.00008  -0.00039   0.01172   0.01138   3.13466
   D19       -3.13697   0.00002   0.00102  -0.00287  -0.00195  -3.13892
   D20       -0.01880  -0.00005   0.00035  -0.00875  -0.00848  -0.02727
   D21       -2.74608  -0.00021   0.00055  -0.00830  -0.00779  -2.75387
   D22        0.42230  -0.00013   0.00135  -0.00161  -0.00032   0.42198
   D23       -0.66674   0.00016  -0.00192  -0.00018  -0.00205  -0.66878
   D24        2.50164   0.00023  -0.00112   0.00651   0.00543   2.50707
   D25        1.43941  -0.00009   0.00014  -0.00628  -0.00613   1.43328
   D26       -1.67540  -0.00002   0.00094   0.00041   0.00134  -1.67406
         Item               Value     Threshold  Converged?
 Maximum Force            0.010219     0.000450     NO 
 RMS     Force            0.002249     0.000300     NO 
 Maximum Displacement     0.021121     0.001800     NO 
 RMS     Displacement     0.006368     0.001200     NO 
 Predicted change in Energy=-3.324313D-04
 GradGradGradGradGradGradGradGradGradGradGradGradGradGradGradGradGradGrad

                          Input orientation:                          
 ---------------------------------------------------------------------
 Center     Atomic      Atomic             Coordinates (Angstroms)
 Number     Number       Type             X           Y           Z
 ---------------------------------------------------------------------
      1          6           0       -1.140052   -0.196047    0.010183
      2          6           0       -0.667902   -1.621820    0.000784
      3          6           0        0.668651   -1.622176    0.000672
      4          6           0        1.142697   -0.196961    0.009417
      5          1           0       -1.356016   -2.456592   -0.004846
      6          1           0        1.356261   -2.457334   -0.005155
      7          6           0       -0.003219    2.055229    0.007124
      8          1           0        0.945852    2.406891   -0.397719
      9          1           0       -0.823577    2.415353   -0.614806
     10          1           0       -0.126686    2.437761    1.023967
     11          7           0        0.000937    0.601588   -0.003770
     12          8           0        2.291645    0.212523    0.004721
     13          8           0       -2.288008    0.216763    0.006055
 ---------------------------------------------------------------------
                    Distance matrix (angstroms):
                    1          2          3          4          5
     1  C    0.000000
     2  C    1.501946   0.000000
     3  C    2.303332   1.336553   0.000000
     4  C    2.282748   2.304032   1.502010   0.000000
     5  H    2.270888   1.081840   2.189876   3.368932   0.000000
     6  H    3.368268   2.189830   1.081818   2.270487   2.712277
     7  C    2.522031   3.736647   3.738282   2.526952   4.710279
     8  H    3.360456   4.358156   4.058194   2.642830   5.395036
     9  H    2.703735   4.086803   4.348241   3.328674   4.938765
    10  H    2.998602   4.221377   4.261782   3.095546   5.150185
    11  N    1.392218   2.321834   2.321850   1.393366   3.345712
    12  O    3.455937   3.481918   2.449540   1.219747   4.519923
    13  O    1.219931   2.450543   3.481890   3.455562   2.831176
                    6          7          8          9         10
     6  H    0.000000
     7  C    4.712914   0.000000
     8  H    4.897267   1.090092   0.000000
     9  H    5.372751   1.090630   1.782717   0.000000
    10  H    5.217296   1.093410   1.781146   1.780938   0.000000
    11  N    3.345730   1.453687   2.075374   2.083971   2.108095
    12  O    2.828989   2.943123   2.605450   3.865344   3.440766
    13  O    4.520134   2.932612   3.926518   2.713637   3.261946
                   11         12         13
    11  N    0.000000
    12  O    2.323529   0.000000
    13  O    2.321089   4.579655   0.000000
 Stoichiometry    C5H5NO2
 Framework group  C1[X(C5H5NO2)]
 Deg. of freedom    33
 Full point group                 C1      NOp   1
 Largest Abelian subgroup         C1      NOp   1
 Largest concise Abelian subgroup C1      NOp   1
                         Standard orientation:                         
 ---------------------------------------------------------------------
 Center     Atomic      Atomic             Coordinates (Angstroms)
 Number     Number       Type             X           Y           Z
 ---------------------------------------------------------------------
      1          6           0       -1.139050   -0.213205    0.006197
      2          6           0       -0.656240   -1.635416   -0.000987
      3          6           0        0.680278   -1.625768   -0.000731
      4          6           0        1.143641   -0.197033    0.006060
      5          1           0       -1.338086   -2.475322   -0.005586
      6          1           0        1.374121   -2.455763   -0.005148
      7          6           0       -0.019099    2.046510    0.000159
      8          1           0        0.927430    2.404675   -0.404937
      9          1           0       -0.841951    2.399576   -0.622523
     10          1           0       -0.145715    2.429593    1.016407
     11          7           0       -0.004060    0.592927   -0.008609
     12          8           0        2.289494    0.221032    0.001082
     13          8           0       -2.290063    0.190996    0.001149
 ---------------------------------------------------------------------
 Rotational constants (GHZ):      3.3084396      2.3329653      1.3801322
 Standard basis: 6-31+G(d,p) (6D, 7F)
 There are   177 symmetry adapted cartesian basis functions of A   symmetry.
 There are   177 symmetry adapted basis functions of A   symmetry.
   177 basis functions,   291 primitive gaussians,   177 cartesian basis functions
    29 alpha electrons       29 beta electrons
       nuclear repulsion energy       354.4073489269 Hartrees.
 NAtoms=   13 NActive=   13 NUniq=   13 SFac= 1.00D+00 NAtFMM=   60 NAOKFM=F Big=F
 Integral buffers will be    131072 words long.
 Raffenetti 2 integral format.
 Two-electron integral symmetry is turned on.
 Nuclear repulsion after empirical dispersion term =      354.3989474716 Hartrees.
 ------------------------------------------------------------------------------
 Polarizable Continuum Model (PCM)
 =================================
 Model                : C-PCM.
 Atomic radii         : UFF (Universal Force Field).
 Polarization charges : Total charges.
 Charge compensation  : None.
 Solution method      : On-the-fly selection.
 Cavity type          : Scaled VdW (van der Waals Surface) (Alpha=1.100).
 Cavity algorithm     : GePol (No added spheres)
                        Default sphere list used, NSphG=   13.
                        Lebedev-Laikov grids with approx.  5.0 points / Ang**2.
                        Smoothing algorithm: Karplus/York (Gamma=1.0000).
                        Polarization charges: spherical gaussians, with
                                              point-specific exponents (IZeta= 3).
                        Self-potential: point-specific (ISelfS= 7).
                        Self-field    : sphere-specific E.n sum rule (ISelfD= 2).
 1st derivatives      : Analytical E(r).r(x)/FMM algorithm (CHGder, D1EAlg=3).
                        Cavity 1st derivative terms included.
 Solvent              : Water, Eps=  78.355300 Eps(inf)=   1.777849
 ------------------------------------------------------------------------------
 Spheres list:
 ISph  on   Nord     Re0    Alpha      Xe            Ye            Ze
    1   C      1    1.9255  1.100     -1.139050     -0.213205      0.006197
    2   C      2    1.9255  1.100     -0.656240     -1.635416     -0.000987
    3   C      3    1.9255  1.100      0.680278     -1.625768     -0.000731
    4   C      4    1.9255  1.100      1.143641     -0.197033      0.006060
    5   H      5    1.4430  1.100     -1.338086     -2.475322     -0.005586
    6   H      6    1.4430  1.100      1.374121     -2.455763     -0.005148
    7   C      7    1.9255  1.100     -0.019099      2.046510      0.000159
    8   H      8    1.4430  1.100      0.927430      2.404675     -0.404937
    9   H      9    1.4430  1.100     -0.841951      2.399576     -0.622523
   10   H     10    1.4430  1.100     -0.145715      2.429593      1.016407
   11   N     11    1.8300  1.100     -0.004060      0.592927     -0.008609
   12   O     12    1.7500  1.100      2.289494      0.221032      0.001082
   13   O     13    1.7500  1.100     -2.290063      0.190996      0.001149
 ------------------------------------------------------------------------------
 One-electron integrals computed using PRISM.
 NBasis=   177 RedAO= T EigKep=  1.59D-05  NBF=   177
 NBsUse=   177 1.00D-06 EigRej= -1.00D+00 NBFU=   177
 Initial guess from the checkpoint file:  "b3lyp_dienophile_pm6_cpcmtoluene_1_water.chk"
 B after Tr=     0.000000    0.000000    0.000000
         Rot=    1.000000    0.000006    0.000022   -0.000979 Ang=   0.11 deg.
 ExpMin= 4.38D-02 ExpMax= 5.48D+03 ExpMxC= 8.25D+02 IAcc=2 IRadAn=         4 AccDes= 0.00D+00
 Harris functional with IExCor=  402 and IRadAn=       4 diagonalized for initial guess.
 HarFok:  IExCor=  402 AccDes= 0.00D+00 IRadAn=         4 IDoV= 1 UseB2=F ITyADJ=14
 ICtDFT=  3500011 ScaDFX=  1.000000  1.000000  1.000000  1.000000
 FoFCou: FMM=F IPFlag=           0 FMFlag=      100000 FMFlg1=           0
         NFxFlg=           0 DoJE=T BraDBF=F KetDBF=T FulRan=T
         wScrn=  0.000000 ICntrl=     500 IOpCl=  0 I1Cent=   200000004 NGrid=           0
         NMat0=    1 NMatS0=      1 NMatT0=    0 NMatD0=    1 NMtDS0=    0 NMtDT0=    0
 Petite list used in FoFCou.
 Requested convergence on RMS density matrix=1.00D-08 within 128 cycles.
 Requested convergence on MAX density matrix=1.00D-06.
 Requested convergence on             energy=1.00D-06.
 No special actions if energy rises.
 Inv3:  Mode=1 IEnd=     4922883.
 Iteration    1 A*A^-1 deviation from unit magnitude is 6.22D-15 for   1273.
 Iteration    1 A*A^-1 deviation from orthogonality  is 1.63D-15 for    865    364.
 Iteration    1 A^-1*A deviation from unit magnitude is 6.00D-15 for   1273.
 Iteration    1 A^-1*A deviation from orthogonality  is 2.10D-15 for   1269    740.
 Error on total polarization charges =  0.01198
 SCF Done:  E(RB3LYP) =  -398.787778700     A.U. after   11 cycles
            NFock= 11  Conv=0.48D-08     -V/T= 2.0094
 D1PCM: C-PCM CHGder 1st derivatives, ID1Alg=3 FixD1E=F DoIter=F DoCFld=F I1PDM=0.
 Calling FoFJK, ICntrl=      2127 FMM=F ISym2X=0 I1Cent= 0 IOpClX= 0 NMat=1 NMatS=1 NMatT=0.
 ***** Axes restored to original set *****
 -------------------------------------------------------------------
 Center     Atomic                   Forces (Hartrees/Bohr)
 Number     Number              X              Y              Z
 -------------------------------------------------------------------
      1        6           0.001083964   -0.000848914   -0.002328400
      2        6          -0.000935589   -0.000046804    0.000793180
      3        6           0.000921451   -0.000078909    0.000736464
      4        6          -0.001129834   -0.000781022   -0.002223183
      5        1           0.000132508    0.000047591   -0.000015770
      6        1          -0.000106330    0.000044951   -0.000019335
      7        6          -0.000031737    0.001178855    0.000299532
      8        1           0.000229345   -0.000240358   -0.000057905
      9        1          -0.000241653   -0.000203203   -0.000175287
     10        1          -0.000032036    0.000012550    0.000283239
     11        7           0.000183071   -0.000020023    0.001160271
     12        8           0.001427049    0.000452360    0.000755003
     13        8          -0.001500207    0.000482926    0.000792190
 -------------------------------------------------------------------
 Cartesian Forces:  Max     0.002328400 RMS     0.000819520

 GradGradGradGradGradGradGradGradGradGradGradGradGradGradGradGradGradGrad
 Berny optimization.
 Using GEDIIS/GDIIS optimizer.
 FormGI is forming the generalized inverse of G from B-inverse, IUseBI=4.
 Internal  Forces:  Max     0.001572837 RMS     0.000411111
 Search for a local minimum.
 Step number   3 out of a maximum of   70
 All quantities printed in internal units (Hartrees-Bohrs-Radians)
 Mixed Optimization -- En-DIIS/RFO-DIIS
 Update second derivatives using D2CorX and points    1    2    3
 DE= -2.99D-04 DEPred=-3.32D-04 R= 8.99D-01
 TightC=F SS=  1.41D+00  RLast= 6.26D-02 DXNew= 7.3000D-01 1.8786D-01
 Trust test= 8.99D-01 RLast= 6.26D-02 DXMaxT set to 4.34D-01
 ITU=  1  1  0
 Use linear search instead of GDIIS.
     Eigenvalues ---    0.00721   0.00814   0.00855   0.01021   0.01152
     Eigenvalues ---    0.01487   0.01628   0.02161   0.07384   0.07640
     Eigenvalues ---    0.15707   0.16000   0.16000   0.16007   0.16317
     Eigenvalues ---    0.22707   0.22966   0.24976   0.24992   0.25011
     Eigenvalues ---    0.29470   0.30019   0.32957   0.33145   0.33167
     Eigenvalues ---    0.33910   0.35872   0.35888   0.37886   0.39305
     Eigenvalues ---    0.56800   0.88088   1.03241
 RFO step:  Lambda=-3.05729699D-04 EMin= 7.21292972D-03
 Quartic linear search produced a step of -0.06872.
 Iteration  1 RMS(Cart)=  0.01995697 RMS(Int)=  0.00050387
 Iteration  2 RMS(Cart)=  0.00059260 RMS(Int)=  0.00033257
 Iteration  3 RMS(Cart)=  0.00000011 RMS(Int)=  0.00033257
 Variable       Old X    -DE/DX   Delta X   Delta X   Delta X     New X
                                 (Linear)    (Quad)   (Total)
    R1        2.83827  -0.00002   0.00045  -0.00383  -0.00337   2.83490
    R2        2.63091   0.00059   0.00130  -0.00936  -0.00803   2.62288
    R3        2.30534   0.00157  -0.00088   0.00798   0.00710   2.31244
    R4        2.52572   0.00075  -0.00052   0.00451   0.00395   2.52967
    R5        2.04438  -0.00012   0.00008  -0.00074  -0.00067   2.04372
    R6        2.83839   0.00000   0.00045  -0.00374  -0.00331   2.83507
    R7        2.04434  -0.00010   0.00008  -0.00071  -0.00063   2.04371
    R8        2.63308   0.00049   0.00128  -0.00939  -0.00809   2.62499
    R9        2.30499   0.00149  -0.00086   0.00779   0.00693   2.31192
   R10        2.05998   0.00015   0.00007  -0.00085  -0.00078   2.05919
   R11        2.06099   0.00021   0.00012  -0.00096  -0.00084   2.06015
   R12        2.06624   0.00027   0.00015  -0.00084  -0.00069   2.06556
   R13        2.74707   0.00075  -0.00033   0.00299   0.00266   2.74973
    A1        1.86103   0.00004  -0.00050   0.00495   0.00353   1.86455
    A2        2.23574  -0.00007   0.00073  -0.00543  -0.00580   2.22994
    A3        2.18620   0.00005  -0.00021   0.00210   0.00076   2.18696
    A4        1.89084   0.00000   0.00048  -0.00374  -0.00319   1.88766
    A5        2.13243   0.00007  -0.00057   0.00499   0.00439   2.13682
    A6        2.25991  -0.00007   0.00008  -0.00126  -0.00121   2.25871
    A7        1.89163   0.00000   0.00043  -0.00340  -0.00293   1.88870
    A8        2.25986  -0.00006   0.00009  -0.00118  -0.00111   2.25874
    A9        2.13170   0.00006  -0.00052   0.00458   0.00404   2.13574
   A10        1.85994   0.00006  -0.00046   0.00470   0.00336   1.86330
   A11        2.23422  -0.00008   0.00075  -0.00568  -0.00595   2.22827
   A12        2.18882   0.00004  -0.00027   0.00251   0.00118   2.19000
   A13        1.91408   0.00031  -0.00016   0.00319   0.00303   1.91711
   A14        1.90798   0.00019   0.00009   0.00111   0.00120   1.90917
   A15        1.89369  -0.00038  -0.00026  -0.00164  -0.00191   1.89179
   A16        1.90695   0.00020   0.00013   0.00098   0.00111   1.90806
   A17        1.90505  -0.00035  -0.00010  -0.00209  -0.00218   1.90287
   A18        1.93599   0.00002   0.00028  -0.00150  -0.00122   1.93477
   A19        1.92103  -0.00009   0.00007  -0.00116  -0.00093   1.92010
   A20        2.17790   0.00000   0.00002   0.00000  -0.00006   2.17784
   A21        2.18384   0.00010  -0.00008   0.00124   0.00108   2.18492
    D1        0.01432  -0.00038  -0.00078  -0.03117  -0.03197  -0.01765
    D2       -3.12705  -0.00040  -0.00079  -0.03227  -0.03300   3.12313
    D3        3.13437   0.00049   0.00070   0.05030   0.05078  -3.09804
    D4       -0.00700   0.00047   0.00068   0.04920   0.04974   0.04275
    D5       -0.02326   0.00061   0.00125   0.05075   0.05205   0.02878
    D6       -3.13503   0.00055   0.00081   0.04792   0.04883  -3.08620
    D7        3.13909  -0.00022  -0.00017  -0.02764  -0.02799   3.11109
    D8        0.02732  -0.00029  -0.00061  -0.03047  -0.03121  -0.00389
    D9       -0.00040   0.00002   0.00003   0.00078   0.00082   0.00041
   D10       -3.14125  -0.00002  -0.00002  -0.00130  -0.00123   3.14071
   D11        3.14094   0.00004   0.00005   0.00199   0.00195  -3.14030
   D12        0.00010   0.00000  -0.00001  -0.00010  -0.00010   0.00000
   D13       -0.01363   0.00035   0.00072   0.02983   0.03057   0.01694
   D14       -3.13418  -0.00048  -0.00069  -0.04895  -0.04941   3.09959
   D15        3.12728   0.00039   0.00077   0.03173   0.03244  -3.12347
   D16        0.00673  -0.00045  -0.00065  -0.04706  -0.04754  -0.04081
   D17        0.02302  -0.00060  -0.00123  -0.05028  -0.05154  -0.02852
   D18        3.13466  -0.00054  -0.00078  -0.04746  -0.04833   3.08633
   D19       -3.13892   0.00020   0.00013   0.02576   0.02608  -3.11283
   D20       -0.02727   0.00026   0.00058   0.02857   0.02930   0.00202
   D21       -2.75387   0.00005   0.00054  -0.00089  -0.00038  -2.75425
   D22        0.42198  -0.00002   0.00002  -0.00409  -0.00405   0.41793
   D23       -0.66878   0.00000   0.00014   0.00078   0.00089  -0.66789
   D24        2.50707  -0.00007  -0.00037  -0.00243  -0.00277   2.50429
   D25        1.43328   0.00004   0.00042  -0.00030   0.00010   1.43338
   D26       -1.67406  -0.00003  -0.00009  -0.00350  -0.00357  -1.67763
         Item               Value     Threshold  Converged?
 Maximum Force            0.001573     0.000450     NO 
 RMS     Force            0.000411     0.000300     NO 
 Maximum Displacement     0.076098     0.001800     NO 
 RMS     Displacement     0.019936     0.001200     NO 
 Predicted change in Energy=-1.588621D-04
 GradGradGradGradGradGradGradGradGradGradGradGradGradGradGradGradGradGrad

                          Input orientation:                          
 ---------------------------------------------------------------------
 Center     Atomic      Atomic             Coordinates (Angstroms)
 Number     Number       Type             X           Y           Z
 ---------------------------------------------------------------------
      1          6           0       -1.135907   -0.195010   -0.030086
      2          6           0       -0.668999   -1.620270    0.003336
      3          6           0        0.669645   -1.620772    0.002666
      4          6           0        1.139108   -0.196249   -0.030626
      5          1           0       -1.355963   -2.455292    0.024144
      6          1           0        1.356032   -2.456282    0.022786
      7          6           0       -0.003407    2.055197    0.013747
      8          1           0        0.946716    2.413052   -0.381985
      9          1           0       -0.823529    2.424876   -0.602077
     10          1           0       -0.128922    2.416064    1.037843
     11          7           0        0.001354    0.600652   -0.026002
     12          8           0        2.292023    0.211909   -0.000014
     13          8           0       -2.287569    0.217306    0.002893
 ---------------------------------------------------------------------
                    Distance matrix (angstroms):
                    1          2          3          4          5
     1  C    0.000000
     2  C    1.500162   0.000000
     3  C    2.300845   1.338645   0.000000
     4  C    2.275016   2.301791   1.500257   0.000000
     5  H    2.271616   1.081487   2.190884   3.366253   0.000000
     6  H    3.365398   2.190901   1.081484   2.271048   2.711996
     7  C    2.519505   3.735261   3.737094   2.525137   4.708930
     8  H    3.356060   4.361960   4.061584   2.639872   5.400745
     9  H    2.699733   4.093117   4.354601   3.323973   4.948907
    10  H    2.995363   4.201652   4.243271   3.094140   5.124776
    11  N    1.387969   2.320071   2.319948   1.389085   3.344192
    12  O    3.452129   3.482032   2.447619   1.223414   4.519110
    13  O    1.223691   2.448766   3.481903   3.451706   2.830392
                    6          7          8          9         10
     6  H    0.000000
     7  C    4.711857   0.000000
     8  H    4.903244   1.089678   0.000000
     9  H    5.382067   1.090184   1.783913   0.000000
    10  H    5.193764   1.093047   1.781268   1.780981   0.000000
    11  N    3.344006   1.455096   2.074904   2.083288   2.108188
    12  O    2.827692   2.943960   2.607832   3.868639   3.434592
    13  O    4.519325   2.931784   3.928108   2.717125   3.250449
                   11         12         13
    11  N    0.000000
    12  O    2.323566   0.000000
    13  O    2.320983   4.579597   0.000000
 Stoichiometry    C5H5NO2
 Framework group  C1[X(C5H5NO2)]
 Deg. of freedom    33
 Full point group                 C1      NOp   1
 Largest Abelian subgroup         C1      NOp   1
 Largest concise Abelian subgroup C1      NOp   1
                         Standard orientation:                         
 ---------------------------------------------------------------------
 Center     Atomic      Atomic             Coordinates (Angstroms)
 Number     Number       Type             X           Y           Z
 ---------------------------------------------------------------------
      1          6           0       -1.134791   -0.213902   -0.025281
      2          6           0       -0.655455   -1.634988    0.009876
      3          6           0        0.683143   -1.623783    0.009968
      4          6           0        1.140148   -0.195242   -0.024524
      5          1           0       -1.335102   -2.475965    0.031153
      6          1           0        1.376799   -2.453236    0.031339
      7          6           0       -0.022040    2.046168    0.016879
      8          1           0        0.925145    2.411915   -0.378681
      9          1           0       -0.845008    2.408029   -0.599792
     10          1           0       -0.151298    2.406974    1.040530
     11          7           0       -0.004535    0.591681   -0.021369
     12          8           0        2.289431    0.223015    0.006323
     13          8           0       -2.290034    0.188359    0.006618
 ---------------------------------------------------------------------
 Rotational constants (GHZ):      3.3117454      2.3345917      1.3814991
 Standard basis: 6-31+G(d,p) (6D, 7F)
 There are   177 symmetry adapted cartesian basis functions of A   symmetry.
 There are   177 symmetry adapted basis functions of A   symmetry.
   177 basis functions,   291 primitive gaussians,   177 cartesian basis functions
    29 alpha electrons       29 beta electrons
       nuclear repulsion energy       354.5018676834 Hartrees.
 NAtoms=   13 NActive=   13 NUniq=   13 SFac= 1.00D+00 NAtFMM=   60 NAOKFM=F Big=F
 Integral buffers will be    131072 words long.
 Raffenetti 2 integral format.
 Two-electron integral symmetry is turned on.
 Nuclear repulsion after empirical dispersion term =      354.4934659374 Hartrees.
 ------------------------------------------------------------------------------
 Polarizable Continuum Model (PCM)
 =================================
 Model                : C-PCM.
 Atomic radii         : UFF (Universal Force Field).
 Polarization charges : Total charges.
 Charge compensation  : None.
 Solution method      : On-the-fly selection.
 Cavity type          : Scaled VdW (van der Waals Surface) (Alpha=1.100).
 Cavity algorithm     : GePol (No added spheres)
                        Default sphere list used, NSphG=   13.
                        Lebedev-Laikov grids with approx.  5.0 points / Ang**2.
                        Smoothing algorithm: Karplus/York (Gamma=1.0000).
                        Polarization charges: spherical gaussians, with
                                              point-specific exponents (IZeta= 3).
                        Self-potential: point-specific (ISelfS= 7).
                        Self-field    : sphere-specific E.n sum rule (ISelfD= 2).
 1st derivatives      : Analytical E(r).r(x)/FMM algorithm (CHGder, D1EAlg=3).
                        Cavity 1st derivative terms included.
 Solvent              : Water, Eps=  78.355300 Eps(inf)=   1.777849
 ------------------------------------------------------------------------------
 Spheres list:
 ISph  on   Nord     Re0    Alpha      Xe            Ye            Ze
    1   C      1    1.9255  1.100     -1.134791     -0.213902     -0.025281
    2   C      2    1.9255  1.100     -0.655455     -1.634988      0.009876
    3   C      3    1.9255  1.100      0.683143     -1.623783      0.009968
    4   C      4    1.9255  1.100      1.140148     -0.195242     -0.024524
    5   H      5    1.4430  1.100     -1.335102     -2.475965      0.031153
    6   H      6    1.4430  1.100      1.376799     -2.453236      0.031339
    7   C      7    1.9255  1.100     -0.022040      2.046168      0.016879
    8   H      8    1.4430  1.100      0.925145      2.411915     -0.378681
    9   H      9    1.4430  1.100     -0.845008      2.408029     -0.599792
   10   H     10    1.4430  1.100     -0.151298      2.406974      1.040530
   11   N     11    1.8300  1.100     -0.004535      0.591681     -0.021369
   12   O     12    1.7500  1.100      2.289431      0.223015      0.006323
   13   O     13    1.7500  1.100     -2.290034      0.188359      0.006618
 ------------------------------------------------------------------------------
 One-electron integrals computed using PRISM.
 NBasis=   177 RedAO= T EigKep=  1.59D-05  NBF=   177
 NBsUse=   177 1.00D-06 EigRej= -1.00D+00 NBFU=   177
 Initial guess from the checkpoint file:  "b3lyp_dienophile_pm6_cpcmtoluene_1_water.chk"
 B after Tr=     0.000000    0.000000    0.000000
         Rot=    1.000000   -0.000339    0.000026   -0.000576 Ang=  -0.08 deg.
 ExpMin= 4.38D-02 ExpMax= 5.48D+03 ExpMxC= 8.25D+02 IAcc=2 IRadAn=         4 AccDes= 0.00D+00
 Harris functional with IExCor=  402 and IRadAn=       4 diagonalized for initial guess.
 HarFok:  IExCor=  402 AccDes= 0.00D+00 IRadAn=         4 IDoV= 1 UseB2=F ITyADJ=14
 ICtDFT=  3500011 ScaDFX=  1.000000  1.000000  1.000000  1.000000
 FoFCou: FMM=F IPFlag=           0 FMFlag=      100000 FMFlg1=           0
         NFxFlg=           0 DoJE=T BraDBF=F KetDBF=T FulRan=T
         wScrn=  0.000000 ICntrl=     500 IOpCl=  0 I1Cent=   200000004 NGrid=           0
         NMat0=    1 NMatS0=      1 NMatT0=    0 NMatD0=    1 NMtDS0=    0 NMtDT0=    0
 Petite list used in FoFCou.
 Requested convergence on RMS density matrix=1.00D-08 within 128 cycles.
 Requested convergence on MAX density matrix=1.00D-06.
 Requested convergence on             energy=1.00D-06.
[...]
 Electronic      0.100000D+01          0.000000          0.000000
 Translational   0.459862D+08          7.662628         17.643852
 Rotational      0.266256D+06          5.425299         12.492212
 ***** Axes restored to original set *****
 -------------------------------------------------------------------
 Center     Atomic                   Forces (Hartrees/Bohr)
 Number     Number              X              Y              Z
 -------------------------------------------------------------------
      1        6          -0.000024064    0.000196427    0.000162039
      2        6          -0.000005079   -0.000053095   -0.000056258
      3        6           0.000011132   -0.000044827    0.000030040
      4        6           0.000039082    0.000186166   -0.000090153
      5        1          -0.000005992   -0.000004547   -0.000006688
      6        1           0.000007939   -0.000004234    0.000007364
      7        6          -0.000004201   -0.000258287   -0.000003961
      8        1          -0.000029242    0.000024644    0.000016469
      9        1           0.000026437    0.000041787    0.000008643
     10        1          -0.000012428    0.000032501   -0.000021961
     11        7          -0.000008747   -0.000002192   -0.000020092
     12        8          -0.000022884   -0.000059367    0.000031714
     13        8           0.000028045   -0.000054978   -0.000057158
 -------------------------------------------------------------------
 Cartesian Forces:  Max     0.000258287 RMS     0.000072381
 FormGI is forming the generalized inverse of G from B-inverse, IUseBI=4.

 GradGradGradGradGradGradGradGradGradGradGradGradGradGradGradGradGradGrad
 Berny optimization.
 Internal  Forces:  Max     0.000159334 RMS     0.000035727
 Search for a local minimum.
 Step number   1 out of a maximum of    2
 All quantities printed in internal units (Hartrees-Bohrs-Radians)
 Second derivative matrix not updated -- analytic derivatives used.
 ITU=  0
     Eigenvalues ---    0.00009   0.00342   0.01345   0.01350   0.01817
     Eigenvalues ---    0.01844   0.04534   0.05005   0.05981   0.06057
     Eigenvalues ---    0.09040   0.10069   0.13074   0.14433   0.16686
     Eigenvalues ---    0.17844   0.18817   0.20493   0.21798   0.22884
     Eigenvalues ---    0.24134   0.31947   0.32202   0.33601   0.34237
     Eigenvalues ---    0.34950   0.36035   0.37432   0.37526   0.38160
     Eigenvalues ---    0.57164   0.80669   0.83199
 Angle between quadratic step and forces=  85.27 degrees.
 Linear search not attempted -- first point.
 Iteration  1 RMS(Cart)=  0.03923254 RMS(Int)=  0.00145558
 Iteration  2 RMS(Cart)=  0.00150416 RMS(Int)=  0.00000279
 Iteration  3 RMS(Cart)=  0.00000164 RMS(Int)=  0.00000248
 Iteration  4 RMS(Cart)=  0.00000000 RMS(Int)=  0.00000248
 Variable       Old X    -DE/DX   Delta X   Delta X   Delta X     New X
                                 (Linear)    (Quad)   (Total)
    R1        2.83727   0.00005   0.00000   0.00013   0.00013   2.83740
    R2        2.63218  -0.00006   0.00000  -0.00076  -0.00076   2.63141
    R3        2.30737  -0.00004   0.00000   0.00008   0.00008   2.30744
    R4        2.52712   0.00002   0.00000   0.00001   0.00001   2.52713
    R5        2.04401   0.00001   0.00000   0.00002   0.00002   2.04403
    R6        2.83754   0.00005   0.00000   0.00034   0.00034   2.83788
    R7        2.04401   0.00001   0.00000   0.00002   0.00002   2.04403
    R8        2.63389  -0.00003   0.00000   0.00059   0.00059   2.63448
    R9        2.30697  -0.00004   0.00000  -0.00023  -0.00023   2.30674
   R10        2.06029  -0.00002   0.00000  -0.00037  -0.00037   2.05993
   R11        2.06145  -0.00001   0.00000   0.00059   0.00059   2.06204
   R12        2.06683  -0.00001   0.00000  -0.00017  -0.00017   2.06665
   R13        2.75076  -0.00016   0.00000  -0.00066  -0.00066   2.75010
    A1        1.86162  -0.00002   0.00000   0.00033   0.00034   1.86195
    A2        2.23573  -0.00004   0.00000   0.00042   0.00042   2.23614
    A3        2.18584   0.00006   0.00000  -0.00075  -0.00075   2.18509
    A4        1.89077  -0.00001   0.00000  -0.00031  -0.00031   1.89046
    A5        2.13349   0.00000   0.00000   0.00024   0.00024   2.13373
    A6        2.25893   0.00001   0.00000   0.00007   0.00007   2.25900
    A7        1.89155  -0.00001   0.00000   0.00029   0.00029   1.89184
    A8        2.25908   0.00001   0.00000   0.00009   0.00009   2.25918
    A9        2.13255   0.00000   0.00000  -0.00039  -0.00039   2.13217
   A10        1.86058  -0.00002   0.00000  -0.00047  -0.00047   1.86012
   A11        2.23401  -0.00005   0.00000  -0.00091  -0.00091   2.23310
   A12        2.18858   0.00007   0.00000   0.00138   0.00138   2.18997
   A13        1.91675  -0.00004   0.00000  -0.00085  -0.00084   1.91591
   A14        1.91018  -0.00003   0.00000   0.00013   0.00012   1.91031
   A15        1.89063   0.00003   0.00000  -0.00355  -0.00355   1.88708
   A16        1.90940  -0.00005   0.00000  -0.00062  -0.00062   1.90878
   A17        1.90270   0.00006   0.00000   0.00561   0.00561   1.90831
   A18        1.93408   0.00004   0.00000  -0.00074  -0.00075   1.93333
   A19        1.92016   0.00006   0.00000   0.00017   0.00017   1.92034
   A20        2.17785  -0.00004   0.00000  -0.00261  -0.00261   2.17524
   A21        2.18456  -0.00002   0.00000   0.00258   0.00258   2.18714
    D1        0.00738   0.00003   0.00000  -0.00063  -0.00063   0.00675
    D2       -3.13383   0.00002   0.00000  -0.00075  -0.00075  -3.13457
    D3       -3.13520  -0.00002   0.00000  -0.00165  -0.00165  -3.13685
    D4        0.00677  -0.00003   0.00000  -0.00176  -0.00176   0.00501
    D5       -0.01259  -0.00002   0.00000   0.00141   0.00141  -0.01118
    D6       -3.11805  -0.00002   0.00000  -0.00303  -0.00302  -3.12107
    D7        3.12996   0.00003   0.00000   0.00239   0.00239   3.13235
    D8        0.02450   0.00003   0.00000  -0.00205  -0.00204   0.02246
    D9        0.00034  -0.00003   0.00000  -0.00033  -0.00033   0.00001
   D10       -3.14117  -0.00001   0.00000  -0.00023  -0.00023  -3.14140
   D11        3.14152  -0.00002   0.00000  -0.00021  -0.00021   3.14131
   D12        0.00000   0.00000   0.00000  -0.00011  -0.00011  -0.00011
   D13       -0.00795   0.00002   0.00000   0.00119   0.00119  -0.00675
   D14        3.13648   0.00000   0.00000   0.00026   0.00026   3.13674
   D15        3.13358   0.00001   0.00000   0.00110   0.00110   3.13467
   D16       -0.00518  -0.00001   0.00000   0.00017   0.00017  -0.00501
   D17        0.01278   0.00000   0.00000  -0.00161  -0.00161   0.01117
   D18        3.11807   0.00000   0.00000   0.00272   0.00273   3.12080
   D19       -3.13155   0.00002   0.00000  -0.00071  -0.00071  -3.13226
   D20       -0.02626   0.00002   0.00000   0.00361   0.00362  -0.02264
   D21       -2.76295  -0.00001   0.00000  -0.09650  -0.09650  -2.85945
   D22        0.42017  -0.00001   0.00000  -0.10153  -0.10153   0.31865
   D23       -0.67779  -0.00001   0.00000  -0.09636  -0.09637  -0.77416
   D24        2.50533  -0.00001   0.00000  -0.10139  -0.10139   2.40394
   D25        1.42459  -0.00001   0.00000  -0.09398  -0.09398   1.33061
   D26       -1.67548  -0.00001   0.00000  -0.09900  -0.09900  -1.77448
         Item               Value     Threshold  Converged?
 Maximum Force            0.000159     0.000450     YES
 RMS     Force            0.000036     0.000300     YES
 Maximum Displacement     0.161387     0.001800     NO 
 RMS     Displacement     0.039235     0.001200     NO 
 Predicted change in Energy=-2.748779D-06
 GradGradGradGradGradGradGradGradGradGradGradGradGradGradGradGradGradGrad

 1\1\GINC-D8S1B3\Freq\RB3LYP\6-31+G(d,p)\C5H5N1O2\CHMKSH\27-Aug-2020\0\
 \#N Geom=AllCheck Guess=TCheck SCRF=Check GenChk RB3LYP/6-31+G(d,p) Fr
 eq\\Title Card Required\\0,1\C,-1.1400975354,-0.196448062,-0.000009553
 4\C,-0.6682900168,-1.6218077322,0.0025740155\C,0.6690016047,-1.6222293
 492,0.0011556096\C,1.1428614083,-0.1974027703,-0.0019417382\H,-1.35549
 95788,-2.4570855714,0.004760168\H,1.3558169531,-2.4578367268,0.0018832
 876\C,-0.0034402941,2.0574751186,0.0088598932\H,0.9486621988,2.4092257
 147,-0.3891833012\H,-0.8216863328,2.4196748132,-0.615070118\H,-0.13176
 58144,2.4305821879,1.0289309547\N,0.0011506261,0.6020026721,-0.0127980
 128\O,2.2928866129,0.2122002278,0.0010098236\O,-2.2890168316,0.2168284
 776,0.0064559713\\Version=ES64L-G09RevD.01\State=1-A\HF=-398.78782\RMS
 D=3.391e-09\RMSF=7.238e-05\ZeroPoint=0.0959189\Thermal=0.1031424\Dipol
 e=0.008165,-0.627135,-0.0072769\DipoleDeriv=2.7713424,0.2024734,-0.004
 5693,-0.2250182,1.1846948,0.0043016,-0.005022,-0.0065772,0.4190336,-0.
 0537673,0.1728321,0.0062485,0.3972236,-0.2475599,-0.004106,-0.0086012,
 -0.0001861,-0.1486373,-0.0484595,-0.17223,-0.0065367,-0.3918569,-0.246
 6083,-0.0032532,0.0084766,-0.0002097,-0.148868,2.7840314,-0.2213315,0.
 0000552,0.205996,1.1895214,0.0045195,-0.0001105,-0.0058522,0.412556,0.
 0851556,-0.0399068,-0.0002038,-0.0434725,0.0396439,0.0011552,-0.000678
 4,-0.0002986,0.1912352,0.0848386,0.0396196,0.0004545,0.0428137,0.03954
 19,0.0010943,0.0008428,-0.0004144,0.1929912,0.1286653,0.0003846,0.0002
 288,-0.0278822,0.7450852,0.0630751,0.0016056,0.0166067,0.2934669,-0.00
 02646,-0.0934885,0.0681347,0.0033804,0.0279529,-0.0123015,0.0645406,0.
 0173387,0.0894195,0.0227017,0.0883987,-0.0939556,0.0060121,-0.0020996,
 -0.0108912,-0.0877006,0.0381391,0.0399423,0.1068981,0.0189588,0.025408
 ,0.005248,-0.07473,-0.0131178,0.0224314,-0.1112205,-0.1044046,-1.92874
 73,-0.0030618,0.001864,0.0172237,-1.2835939,-0.024027,0.0015412,0.0495
 453,-0.2726298,-1.9828473,-0.0363608,0.0029577,-0.5467351,-0.6856702,-
 0.0025999,-0.0082925,0.0019159,-0.4813985,-1.9695468,0.0437122,-0.0000
 86,0.5570674,-0.6861782,-0.0038492,0.0109672,0.001213,-0.4827064\Polar
 =134.1397773,-0.4263902,87.2531614,-0.0851177,0.6524754,52.641683\PG=C
 01 [X(C5H5N1O2)]\NImag=0\\0.91577467,-0.16782953,0.55687528,-0.0031837
 7,0.00012529,0.19120546,-0.08877261,0.00431952,0.00003899,0.85698230,-
 0.00842507,-0.18609154,0.00024689,0.15225859,0.60280641,0.00033791,0.0
 0024573,-0.07219618,-0.00107876,-0.00122981,0.10985765,-0.03451057,0.0
 2250039,0.00003880,-0.53370985,0.00475555,0.00046811,0.85684121,0.0325
 3879,-0.00929836,-0.00004556,-0.00432972,-0.11100904,-0.00009043,-0.15
 263797,0.60267043,-0.00029164,0.00000584,0.00323831,0.00054261,-0.0001
 1547,-0.04988446,-0.00047986,-0.00089227,0.10999507,-0.10566516,-0.030
 24294,-0.00006552,-0.03449368,-0.03248838,0.00036238,-0.08853636,0.008
 06858,-0.00034810,0.91574683,0.03076094,0.06664490,-0.00088257,-0.0223
 8783,-0.00925412,0.00006882,-0.00437792,-0.18598446,0.00022360,0.16899
 711,0.55454485,0.00019723,-0.00079135,-0.01763878,0.00007648,0.0000063
 0,0.00328620,-0.00005815,0.00020145,-0.07226112,0.00128315,-0.00041159
 ,0.19044231,0.01041286,0.00963243,-0.00000995,-0.17796315,-0.14956069,
 0.00040291,-0.00777897,-0.02437394,0.00005390,-0.00456946,0.00423356,0
 .00001743,0.17839911,-0.01966288,-0.00922931,0.00006194,-0.14879374,-0
 .23932121,0.00053550,0.00497598,0.00928760,0.00000276,0.00323508,-0.00
 191983,0.00002392,0.15994736,0.24237483,-0.00005576,-0.00000184,0.0002
 0178,0.00041579,0.00053182,-0.03544048,0.00001617,0.00008169,0.0079459
 3,0.00001786,-0.00005972,0.01207489,-0.00042532,-0.00058585,0.02312550
 ,-0.00457289,-0.00423718,0.00001728,-0.00777061,0.02439256,-0.00003158
 ,-0.17780633,0.14958858,-0.00010708,0.01038895,-0.00966959,-0.00000920
 ,0.00118581,-0.00064344,-0.00000712,0.17825190,-0.00321288,-0.00191490
 ,0.00002557,-0.00496591,0.00928552,0.00000618,0.14878197,-0.23938932,0
 .00021941,0.01962041,-0.00928523,0.00002540,0.00064339,0.00010922,-0.0
 0001241,-0.15993124,0.24249185,0.00001607,-0.00005079,0.01207039,0.000
 01499,0.00003285,0.00798252,-0.00012329,0.00021409,-0.03543074,0.00004
 214,0.00001398,0.00021085,-0.00000617,-0.00001279,-0.00555895,0.000108
 36,-0.00024269,0.02310235,0.00922136,-0.02727770,0.00125439,-0.0052130
 2,-0.00330031,-0.00045626,-0.00443313,0.00375368,0.00048092,0.01138417
 ,0.02584243,-0.00130264,0.00094130,-0.00128402,-0.00016296,0.00088955,
 0.00118136,0.00016532,0.61915599,-0.01831607,-0.02257608,0.00001617,0.
 00018835,0.00331798,-0.00008967,-0.00013614,0.00330879,-0.00010704,0.0
 1924626,-0.02220720,0.00000639,0.00010564,0.00066002,0.00000644,-0.000
 10655,0.00067324,0.00001021,-0.00097931,0.46765258,0.00298013,0.001830
 99,-0.00299643,0.00108256,-0.00052892,0.00260947,-0.00109463,-0.000519
 18,0.00302828,-0.00304175,0.00187093,-0.00471404,-0.00006647,0.0001543
 7,0.00104672,0.00006960,0.00015691,0.00119349,0.00059719,-0.00025702,0
 .57831924,0.00028238,0.00135631,0.00025849,-0.00013850,0.00004516,0.00
 019350,0.00016821,-0.00004111,0.00016736,-0.00189813,0.00112248,-0.000
 35017,-0.00002584,-0.00001238,0.00001099,-0.00000854,-0.00007438,-0.00
 001153,-0.26314545,-0.07798092,0.09104753,0.27831814,0.00600450,-0.003
 84006,0.00186805,-0.00138879,-0.00135521,-0.00043070,-0.00032201,-0.00
 007450,-0.00003014,-0.00391876,0.00015533,0.00022714,0.00031730,-0.000
 42363,-0.00018560,0.00007686,0.00005219,-0.00002260,-0.06737850,-0.072
 71619,0.02850658,0.08362777,0.08912771,-0.00130237,-0.00086904,-0.0002
 4004,-0.00017851,0.00006002,0.00021137,-0.00002229,0.00013041,-0.00006
 897,0.00129901,0.00021607,0.00107621,0.00000924,-0.00003582,0.00000648
 ,0.00000965,-0.00000023,-0.00002937,0.09138142,0.03237042,-0.08714279,
 -0.09826800,-0.03307420,0.08668108,-0.00121506,-0.00104581,0.00061681,
 0.00026429,-0.00002687,-0.00028005,-0.00020855,-0.00012106,-0.00024639
 ,-0.00012824,-0.00095316,-0.00037646,-0.00001035,0.00007017,0.00000820
 ,-0.00000393,0.00003498,-0.00000006,-0.20566751,0.06706575,-0.12119936
 ,-0.01637281,0.00877751,-0.01631796,0.21573282,0.00411690,0.00072935,0
 .00036400,0.00047047,-0.00035172,-0.00012379,0.00105393,-0.00144242,-0
 .00066022,-0.00644594,-0.00282828,0.00272687,-0.00006678,0.00002969,-0
 .00004962,-0.00027244,-0.00037956,-0.00026353,0.05895241,-0.07262128,0
 .04559993,-0.00692314,0.00437580,-0.00786023,-0.07352342,0.08989141,-0
 .00179145,0.00030584,0.00082996,0.00004081,0.00018925,-0.00013541,0.00
 022970,0.00007589,0.00004753,0.00163381,-0.00128839,-0.00025598,-0.000
 01437,0.00000985,-0.00001486,-0.00001070,-0.00004320,0.00000240,-0.121
 70303,0.05072717,-0.14225004,0.00957172,-0.00581739,0.00856384,0.13116
 711,-0.05316097,0.14576528,0.00024782,-0.00089679,-0.00088287,0.000053
 92,0.00000728,0.00031518,-0.00009541,-0.00007899,-0.00015577,0.0001159
 7,0.00056461,0.00072976,0.00000735,-0.00001099,0.00003773,0.00001579,0
 .00004111,-0.00004619,-0.05438757,0.00976674,0.02954169,-0.00120642,0.
 00930192,0.02654104,0.00426398,-0.00812310,-0.02309167,0.04959643,0.00
 596609,0.00148315,-0.00162233,0.00048132,-0.00122357,0.00062547,-0.000
 23065,-0.00139476,0.00077480,-0.00650539,0.00093055,-0.00225752,0.0000
 3221,-0.00010253,0.00020563,-0.00008448,-0.00016404,0.00025751,0.00891
 696,-0.06968227,-0.07303597,0.00029148,0.00447881,0.00973188,-0.002460
 99,0.00460323,0.00923493,-0.01144288,0.08912572,0.00152158,0.00064519,
 0.00024186,-0.00001567,-0.00017878,-0.00036360,-0.00004456,-0.00014612
 ,-0.00038248,-0.00125820,0.00107225,0.00008277,0.00001687,-0.00003715,
 0.00000765,-0.00001141,-0.00002093,0.00000450,0.02968600,-0.07789142,-
 0.28856283,-0.00008511,-0.00238720,-0.00909155,0.00344180,-0.00462565,
 -0.01551727,-0.03229984,0.08757470,0.30421849,-0.13492595,-0.03727452,
 -0.00033394,0.00982934,-0.01074459,-0.00014770,0.00946623,0.01063931,0
 .00017190,-0.13477741,0.03645165,0.00049552,0.00021094,0.00066606,0.00
 007970,0.00022236,-0.00063488,-0.00008306,-0.10796693,0.00130286,0.000
 07724,0.00344805,-0.03594172,-0.00292947,0.00258406,0.03111126,0.00375
 865,0.00070404,0.00506243,-0.00085300,0.57502749,-0.05806680,-0.202457
 86,0.00035507,-0.02143825,-0.05421984,0.00068287,0.02135355,-0.0542095
 6,0.00064616,0.05620097,-0.20169864,0.00017535,0.00374213,-0.00462016,
 0.00000354,-0.00374610,-0.00462924,0.00000689,0.00226097,-0.21586457,-
 0.00757358,-0.00200763,-0.02252461,0.00075370,0.00157591,-0.02463787,0
 .00143103,0.00038964,-0.02953961,-0.00375792,-0.00128953,0.75420433,-0
 .00085894,-0.00065117,-0.05645166,-0.00104771,0.00098502,0.01532095,0.
 00107540,0.00094114,0.01492312,0.00092283,-0.00076380,-0.05411571,0.00
 003086,-0.00011719,-0.00029684,-0.00003368,-0.00012008,-0.00044565,0.0
 0002321,-0.00502011,-0.05696402,-0.00262260,0.01165451,0.00057613,0.00
 335215,0.01830223,0.00339408,-0.00061615,-0.03110187,0.00948119,-0.000
 52562,0.00616775,0.09020865,0.02825232,0.02546604,-0.00048739,0.005816
 41,-0.00370698,-0.00016926,-0.02519385,-0.02666918,0.00005532,-0.59551
 161,-0.20507853,-0.00119140,-0.00119203,-0.00039457,0.00004228,0.00039
 700,-0.00188309,-0.00002689,-0.00089893,-0.01026925,0.00076666,0.00052
 387,0.00168344,-0.00041543,0.00010008,0.00125760,-0.00028281,0.0002863
 0,0.00226162,0.00048609,-0.11167130,-0.00162743,-0.00116232,0.71844377
 ,0.00241041,-0.01052715,0.00039992,-0.00114367,-0.00792849,-0.00010900
 ,-0.04676324,-0.00452245,0.00003819,-0.19308946,-0.17879078,-0.0003292
 9,-0.00262530,0.00102467,0.00003133,0.00200878,0.00212291,0.00002856,-
 0.00111143,-0.00030542,0.00190850,0.00119998,0.00143307,-0.00079149,0.
 00089598,0.00125786,-0.00059304,-0.00020736,0.00077218,-0.00027072,0.0
 1711138,0.02999170,-0.00014926,0.22008467,0.16220321,0.00020877,0.0003
 4659,0.00845892,0.00005970,0.00007530,0.00109066,0.00008122,-0.0000033
 8,0.01773770,-0.00060312,-0.00048106,-0.06663348,0.00000291,-0.0000032
 9,-0.00234511,0.00000820,0.00000829,-0.00075002,-0.00023067,0.00012742
 ,-0.00156010,0.00010182,-0.00034516,-0.00060559,0.00007366,0.00007790,
 -0.00001713,-0.00032671,-0.00021345,-0.00006017,-0.00124376,0.00056495
 ,0.01703092,0.00211053,-0.00005214,0.02968376,-0.59452918,0.20552978,0
 .00273866,-0.02488483,0.02679375,0.00008363,0.00579737,0.00366302,0.00
 015684,0.02794411,-0.02550576,0.00048845,0.00038242,0.00190736,0.00002
 246,-0.00118905,0.00039916,-0.00004970,0.00012017,0.01011265,-0.000760
 39,0.00005503,-0.00083952,0.00019369,0.00066123,-0.00160776,0.00049224
 ,0.00039779,-0.00228772,-0.00058456,-0.11215091,0.00265258,0.00146256,
 -0.01935204,0.00122925,-0.00024256,0.71674789,0.19371559,-0.17979742,-
 0.00091243,0.04672966,-0.00465517,-0.00009118,0.00104655,-0.00794195,-
 0.00010562,-0.00267752,-0.01030709,0.00039692,-0.00202732,0.00213066,0
 .00003460,0.00262425,0.00102736,0.00002832,0.00042345,0.00036040,0.001
 88647,-0.00060363,0.00131132,-0.00063150,-0.00028899,0.00137378,-0.001
 07097,0.00068883,0.00071315,0.00002376,-0.01645971,0.03020595,-0.00012
 717,-0.00112435,0.00326871,-0.00010195,-0.22204680,0.16231030,0.002222
 24,-0.00114127,-0.06672357,0.00004872,-0.00007446,0.01766130,-0.000086
 63,0.00005228,0.00111183,-0.00024447,0.00042148,0.00844587,-0.00001184
 ,0.00000375,-0.00075270,-0.00000232,-0.00000222,-0.00235177,0.00026710
 ,0.00010106,-0.00200695,-0.00001399,0.00003671,0.00006322,-0.00023945,
 -0.00032692,-0.00041240,0.00025381,-0.00017377,-0.00005857,0.00153354,
 0.00054419,0.01733885,0.00027463,-0.00011158,-0.00203036,-0.00400132,0
 .00067076,0.02971525\\0.00002406,-0.00019643,-0.00016204,0.00000508,0.
 00005309,0.00005626,-0.00001113,0.00004483,-0.00003004,-0.00003908,-0.
 00018617,0.00009015,0.00000599,0.00000455,0.00000669,-0.00000794,0.000
 00423,-0.00000736,0.00000420,0.00025829,0.00000396,0.00002924,-0.00002
 464,-0.00001647,-0.00002644,-0.00004179,-0.00000864,0.00001243,-0.0000
 3250,0.00002196,0.00000875,0.00000219,0.00002009,0.00002288,0.00005937
 ,-0.00003171,-0.00002804,0.00005498,0.00005716\\\@


 KNOWLEDGE IS CHIMERA - FOR BEYOND IT LIES OTHER KNOWLEDGE,
 AND THE INCOMPLETENESS OF WHAT IS KNOWN RENDERS THE KNOWING FALSE.
     -- THE THOMAS COVENANT CHRONICLES
 Job cpu time:       0 days  0 hours  7 minutes 32.9 seconds.
 File lengths (MBytes):  RWF=     65 Int=      0 D2E=      0 Chk=      8 Scr=      1
 Normal termination of Gaussian 09 at Thu Aug 27 16:56:49 2020.
