 Entering Gaussian System, Link 0=g09
 Input=freq_b3lyp_TS2_scan2_diene_dienophile_pm6_cpcmtoluene_2_water.com
 Output=freq_b3lyp_TS2_scan2_diene_dienophile_pm6_cpcmtoluene_2_water.log
 Initial command:
 /apps/applications/gaussian/G09.D01/2/default/g09/l1.exe "/local/716088.1.40core-192G.q/Gau-69377.inp" -scrdir="/local/716088.1.40core-192G.q/"
 Entering Link 1 = /apps/applications/gaussian/G09.D01/2/default/g09/l1.exe PID=     69389.
  
 Copyright (c) 1988,1990,1992,1993,1995,1998,2003,2009,2013,
            Gaussian, Inc.  All Rights Reserved.
  
 This is part of the Gaussian(R) 09 program.  It is based on
 the Gaussian(R) 03 system (copyright 2003, Gaussian, Inc.),
 the Gaussian(R) 98 system (copyright 1998, Gaussian, Inc.),
 the Gaussian(R) 94 system (copyright 1995, Gaussian, Inc.),
 the Gaussian 92(TM) system (copyright 1992, Gaussian, Inc.),
 the Gaussian 90(TM) system (copyright 1990, Gaussian, Inc.),
 the Gaussian 88(TM) system (copyright 1988, Gaussian, Inc.),
 the Gaussian 86(TM) system (copyright 1986, Carnegie Mellon
 University), and the Gaussian 82(TM) system (copyright 1983,
 Carnegie Mellon University). Gaussian is a federally registered
 trademark of Gaussian, Inc.
  
 This software contains proprietary and confidential information,
 including trade secrets, belonging to Gaussian, Inc.
  
 This software is provided under written license and may be
 used, copied, transmitted, or stored only in accord with that
 written license.
  
 The following legend is applicable only to US Government
 contracts under FAR:
  
                    RESTRICTED RIGHTS LEGEND
  
 Use, reproduction and disclosure by the US Government is
 subject to restrictions as set forth in subparagraphs (a)
 and (c) of the Commercial Computer Software - Restricted
 Rights clause in FAR 52.227-19.
  
 Gaussian, Inc.
 340 Quinnipiac St., Bldg. 40, Wallingford CT 06492
  
  
 ---------------------------------------------------------------
 Warning -- This program may not be used in any manner that
 competes with the business of Gaussian, Inc. or will provide
 assistance to any competitor of Gaussian, Inc.  The licensee
 of this program is prohibited from giving any competitor of
 Gaussian, Inc. access to this program.  By using this program,
 the user acknowledges that Gaussian, Inc. is engaged in the
 business of creating and licensing software in the field of
 computational chemistry and represents and warrants to the
 licensee that it is not a competitor of Gaussian, Inc. and that
 it will not use this program in any manner prohibited above.
 ---------------------------------------------------------------
  

 Cite this work as:
 Gaussian 09, Revision D.01,
 M. J. Frisch, G. W. Trucks, H. B. Schlegel, G. E. Scuseria, 
 M. A. Robb, J. R. Cheeseman, G. Scalmani, V. Barone, B. Mennucci, 
 G. A. Petersson, H. Nakatsuji, M. Caricato, X. Li, H. P. Hratchian, 
 A. F. Izmaylov, J. Bloino, G. Zheng, J. L. Sonnenberg, M. Hada, 
 M. Ehara, K. Toyota, R. Fukuda, J. Hasegawa, M. Ishida, T. Nakajima, 
 Y. Honda, O. Kitao, H. Nakai, T. Vreven, J. A. Montgomery, Jr., 
 J. E. Peralta, F. Ogliaro, M. Bearpark, J. J. Heyd, E. Brothers, 
 K. N. Kudin, V. N. Staroverov, T. Keith, R. Kobayashi, J. Normand, 
 K. Raghavachari, A. Rendell, J. C. Burant, S. S. Iyengar, J. Tomasi, 
 M. Cossi, N. Rega, J. M. Millam, M. Klene, J. E. Knox, J. B. Cross, 
 V. Bakken, C. Adamo, J. Jaramillo, R. Gomperts, R. E. Stratmann, 
 O. Yazyev, A. J. Austin, R. Cammi, C. Pomelli, J. W. Ochterski, 
 R. L. Martin, K. Morokuma, V. G. Zakrzewski, G. A. Voth, 
 P. Salvador, J. J. Dannenberg, S. Dapprich, A. D. Daniels, 
 O. Farkas, J. B. Foresman, J. V. Ortiz, J. Cioslowski, 
 and D. J. Fox, Gaussian, Inc., Wallingford CT, 2013.
 
 ******************************************
 Gaussian 09:  ES64L-G09RevD.01 24-Apr-2013
                28-Aug-2020 
 ******************************************
 %nprocshared=4
 Will use up to    4 processors via shared memory.
 ----------------------------------------------------------------------
 # freq b3lyp/6-31+g(d,p) scrf=(cpcm,solvent=water) geom=connectivity e
 mpiricaldispersion=gd3
 ----------------------------------------------------------------------
 1/10=4,30=1,38=1,57=2/1,3;
 2/12=2,17=6,18=5,40=1/2;
 3/5=1,6=6,7=111,11=2,16=1,25=1,30=1,70=2101,71=2,72=1,74=-5,124=31,140=1/1,2,3;
 4//1;
 5/5=2,38=5,53=1,98=1/2;
 8/6=4,10=90,11=11/1;
 11/6=1,8=1,9=11,15=111,16=1/1,2,10;
 10/6=1/2;
 6/7=2,8=2,9=2,10=2,18=1,28=1/1;
 7/8=1,10=1,25=1/1,2,3,16;
 1/10=4,30=1/3;
 99//99;
 -------------------
 Title Card Required
 -------------------
 Symbolic Z-matrix:
 Charge =  0 Multiplicity = 1
 C                    -2.61523   0.67111  -0.6055 
 C                    -1.5967   -0.28597  -1.09574 
 C                    -0.3329    0.26728  -0.84565 
 C                    -0.55495   1.59292  -0.19744 
 H                    -1.84058  -0.99198  -1.8755 
 H                     0.55328   0.10409  -1.4426 
 C                    -2.54787   2.8595    0.6689 
 H                    -3.59204   2.61205   0.86042 
 H                    -2.04052   3.07627   1.6108 
 H                    -2.49674   3.74049   0.02204 
 N                    -1.92264   1.71285   0.03071 
 O                     0.27504   2.44434   0.10802 
 O                    -3.8367    0.61814  -0.70549 
 C                    -0.83082  -2.63854   0.32745 
 H                    -0.88251  -3.61761  -0.14561 
 C                     0.437    -2.07441   0.51734 
 H                     1.30126  -2.6333    0.16813 
 C                    -2.0196   -1.93663   0.50637 
 H                    -2.03065  -1.11047   1.21313 
 C                    -3.36204  -2.52421   0.18709 
 H                    -4.04271  -1.75398  -0.18824 
 H                    -3.28696  -3.32663  -0.55269 
 H                    -3.81467  -2.93677   1.09871 
 C                     0.62351  -0.74327   0.88934 
 H                    -0.10338  -0.27252   1.54604 
 C                     1.98829  -0.1253    0.98846 
 H                     2.4696   -0.41771   1.92989 
 H                     1.90618   0.9634    0.95302 
 C                     4.0157   -0.1076   -0.37902 
 C                     4.54675   0.99438   0.50273 
 H                     4.53615   0.69924   1.55589 
 H                     5.56605   1.22568   0.19726 
 H                     3.92733   1.89161   0.40362 
 O                     2.78482  -0.60516  -0.12345 
 O                     4.62966  -0.57448  -1.32349 
 

 GradGradGradGradGradGradGradGradGradGradGradGradGradGradGradGradGradGrad
 Berny optimization.
 Initialization pass.
 Trust Radius=3.00D-01 FncErr=1.00D-07 GrdErr=1.00D-07
 Number of steps in this run=      2 maximum allowed number of steps=      2.
 GradGradGradGradGradGradGradGradGradGradGradGradGradGradGradGradGradGrad

                          Input orientation:                          
 ---------------------------------------------------------------------
 Center     Atomic      Atomic             Coordinates (Angstroms)
 Number     Number       Type             X           Y           Z
 ---------------------------------------------------------------------
      1          6           0       -2.615232    0.671114   -0.605504
      2          6           0       -1.596696   -0.285973   -1.095735
      3          6           0       -0.332904    0.267277   -0.845648
      4          6           0       -0.554945    1.592921   -0.197436
      5          1           0       -1.840579   -0.991981   -1.875501
      6          1           0        0.553277    0.104089   -1.442595
      7          6           0       -2.547870    2.859500    0.668900
      8          1           0       -3.592044    2.612054    0.860418
      9          1           0       -2.040518    3.076269    1.610800
     10          1           0       -2.496741    3.740489    0.022036
     11          7           0       -1.922641    1.712852    0.030711
     12          8           0        0.275036    2.444342    0.108021
     13          8           0       -3.836700    0.618135   -0.705485
     14          6           0       -0.830824   -2.638540    0.327448
     15          1           0       -0.882514   -3.617605   -0.145607
     16          6           0        0.437002   -2.074413    0.517343
     17          1           0        1.301258   -2.633300    0.168127
     18          6           0       -2.019596   -1.936630    0.506368
     19          1           0       -2.030649   -1.110471    1.213127
     20          6           0       -3.362038   -2.524210    0.187089
     21          1           0       -4.042706   -1.753982   -0.188238
     22          1           0       -3.286961   -3.326629   -0.552694
     23          1           0       -3.814673   -2.936771    1.098710
     24          6           0        0.623508   -0.743273    0.889339
     25          1           0       -0.103375   -0.272519    1.546039
     26          6           0        1.988292   -0.125295    0.988461
     27          1           0        2.469598   -0.417712    1.929885
     28          1           0        1.906177    0.963396    0.953024
     29          6           0        4.015698   -0.107599   -0.379019
     30          6           0        4.546747    0.994376    0.502726
     31          1           0        4.536150    0.699236    1.555894
     32          1           0        5.566049    1.225680    0.197262
     33          1           0        3.927331    1.891610    0.403616
     34          8           0        2.784822   -0.605161   -0.123454
     35          8           0        4.629661   -0.574483   -1.323489
 ---------------------------------------------------------------------
                    Distance matrix (angstroms):
                    1          2          3          4          5
     1  C    0.000000
     2  C    1.481134   0.000000
     3  C    2.330188   1.402070   0.000000
     4  C    2.293694   2.328611   1.492251   0.000000
     5  H    2.231337   1.079797   2.217975   3.339233   0.000000
     6  H    3.325912   2.212429   1.080876   2.234994   2.668206
     7  C    2.533313   3.729969   3.730891   2.515256   4.669919
     8  H    2.621133   4.025731   4.362411   3.373671   4.852005
     9  H    3.320703   4.339007   4.103720   2.770734   5.361430
    10  H    3.135109   4.274563   4.183093   2.903582   5.140765
    11  N    1.403449   2.317417   2.320551   1.391771   3.310060
    12  O    3.465127   3.522361   2.453301   1.227636   4.496499
    13  O    1.226698   2.446901   3.524107   3.460959   2.818849
    14  C    3.874057   2.854222   3.172988   4.272806   2.929803
    15  H    4.648325   3.537311   3.985528   5.221070   3.286993
    16  C    4.256153   3.152216   2.816738   3.865774   3.476311
    17  H    5.182331   3.937693   3.480168   4.630342   4.091636
    18  C    2.896786   2.338856   3.087083   3.885650   2.568601
    19  H    2.612126   2.489770   3.003179   3.387583   3.096739
    20  C    3.375799   3.125984   4.246716   4.997839   2.986108
    21  H    2.844799   2.993588   4.275548   4.833872   2.876954
    22  H    4.054128   3.521005   4.661377   5.638448   3.048347
    23  H    4.166514   4.094111   5.115581   5.729217   4.065118
    24  C    3.837249   3.013129   2.223986   2.833308   3.711862
    25  H    3.439332   3.034660   2.462566   2.592969   3.904157
    26  C    4.936337   4.149919   2.984295   3.290391   4.859391
    27  H    5.785260   5.070156   4.003350   4.209038   5.778267
    28  H    4.791407   4.245993   2.955213   2.788724   5.085492
    29  C    6.680338   5.660783   4.389603   4.880115   6.108811
    30  C    7.254420   6.475821   5.114468   5.184182   7.099261
    31  H    7.470923   6.753782   5.446254   5.458213   7.436219
    32  H    8.239256   7.433832   6.066617   6.144690   8.004530
    33  H    6.731498   6.124116   4.727443   4.532249   6.839463
    34  O    5.569725   4.499435   3.317066   3.998885   4.961213
    35  O    7.386169   6.237197   5.056080   5.731123   6.507152
                    6          7          8          9         10
     6  H    0.000000
     7  C    4.654870   0.000000
     8  H    5.364461   1.090050   0.000000
     9  H    4.988471   1.091591   1.784881   0.000000
    10  H    4.967007   1.094161   1.782116   1.781432   0.000000
    11  N    3.299836   1.453616   2.069755   2.090331   2.107363
    12  O    2.821101   2.907875   3.943163   2.831866   3.061068
    13  O    4.481012   2.928094   2.547081   3.825424   3.474748
    14  C    3.545533   5.770033   5.956268   5.980752   6.600043
    15  H    4.194601   6.737189   6.867481   7.016686   7.534944
    16  C    2.932703   5.768529   6.189821   5.819216   6.531865
    17  H    3.263005   6.725876   7.206761   6.771111   7.421006
    18  C    3.818726   4.827873   4.825813   5.133163   5.717685
    19  H    3.899319   4.040343   4.052104   4.205595   5.016747
    20  C    4.989340   5.466200   5.185314   5.927793   6.326329
    21  H    5.113599   4.924778   4.512765   5.529613   5.711693
    22  H    5.225818   6.348759   6.112112   6.872513   7.134348
    23  H    5.897800   5.948637   5.558400   6.290192   6.890716
    24  C    2.482110   4.804811   5.387943   4.712371   5.531030
    25  H    3.083011   4.068719   4.578389   3.869250   4.914776
    26  C    2.832299   5.439475   6.216882   5.183496   5.999482
    27  H    3.913845   6.124148   6.860521   5.714094   6.752410
    28  H    2.882315   4.849172   5.740826   4.524743   5.288163
    29  C    3.628273   7.278890   8.173766   7.125598   7.574991
    30  C    4.530418   7.337567   8.305706   6.996725   7.575152
    31  H    5.020798   7.459011   8.379147   6.993273   7.814314
    32  H    5.392122   8.290205   9.286144   7.955038   8.447695
    33  H    4.241222   6.552512   7.567609   6.202897   6.695719
    34  O    2.687557   6.408534   7.209917   6.312248   6.841107
    35  O    4.134193   8.202366   9.084047   8.150419   8.438900
                   11         12         13         14         15
    11  N    0.000000
    12  O    2.317507   0.000000
    13  O    2.324653   4.572001   0.000000
    14  C    4.496079   5.206416   4.550623   0.000000
    15  H    5.433850   6.176686   5.194437   1.088587   0.000000
    16  C    4.488664   4.540146   5.197081   1.400601   2.135900
    17  H    5.413081   5.180656   6.142771   2.138033   2.415812
    18  C    3.681626   4.961545   3.361142   1.392074   2.131597
    19  H    3.062830   4.378828   3.151344   2.135182   3.074100
    20  C    4.477612   6.158008   3.300958   2.537679   2.730245
    21  H    4.069589   6.029643   2.436580   3.371136   3.669022
    22  H    5.253389   6.813844   3.985815   2.698282   2.455963
    23  H    5.132193   6.831073   3.986598   3.096311   3.257210
    24  C    3.640421   3.300421   4.928524   2.454148   3.406024
    25  H    3.089926   3.097164   4.449757   2.759022   3.828619
    26  C    4.426225   3.211457   6.111683   3.834156   4.660887
    27  H    5.238123   4.040624   6.912854   4.288667   5.077759
    28  H    4.009014   2.359630   5.987528   4.566888   5.474428
    29  C    6.224612   4.554356   7.892618   5.513033   6.030514
    30  C    6.526254   4.528323   8.478415   6.492078   7.153152
    31  H    6.713388   4.826886   8.673236   6.438497   7.133873
    32  H    7.506368   5.430278   9.465503   7.474565   8.072108
    33  H    5.864570   3.705691   7.945566   6.570243   7.334010
    34  O    5.249491   3.956270   6.758681   4.172630   4.746015
    35  O    7.070956   5.488650   8.572254   6.066533   6.405628
                   16         17         18         19         20
    16  C    0.000000
    17  H    1.086851   0.000000
    18  C    2.460483   3.409960   0.000000
    19  H    2.739088   3.809546   1.087276   0.000000
    20  C    3.839803   4.664610   1.499780   2.196363   0.000000
    21  H    4.546241   5.427536   2.146814   2.535016   1.094272
    22  H    4.071968   4.695960   2.158686   3.099645   1.093980
    23  H    4.377030   5.208726   2.138563   2.555622   1.098243
    24  C    1.394668   2.133470   2.925195   2.698930   4.421478
    25  H    2.144072   3.073259   2.742642   2.127764   4.187570
    26  C    2.535254   2.726729   4.424535   4.144024   5.918025
    27  H    2.978486   3.062293   4.948371   4.609325   6.440703
    28  H    3.402437   3.730712   4.901158   4.457261   6.364286
    29  C    4.180776   3.747895   6.368205   6.332377   7.784053
    30  C    5.129102   4.879056   7.190805   6.942420   8.661926
    31  H    5.057147   4.847290   7.143326   6.820218   8.639769
    32  H    6.107388   5.751610   8.224218   8.012453   9.683621
    33  H    5.284380   5.237034   7.073325   6.720515   8.525330
    34  O    2.842812   2.529690   5.025129   5.023002   6.446943
    35  O    4.818386   4.188307   7.029683   7.147128   8.363644
                   21         22         23         24         25
    21  H    0.000000
    22  H    1.782469   0.000000
    23  H    1.762732   1.776965   0.000000
    24  C    4.894513   4.903566   4.955070   0.000000
    25  H    4.552008   4.885436   4.590433   1.086841   0.000000
    26  C    6.356900   6.360188   6.449105   1.501452   2.169709
    27  H    6.977261   6.911076   6.821186   2.144009   2.605496
    28  H    6.638963   6.902187   6.925363   2.135887   2.432581
    29  C    8.227080   7.982553   8.455921   3.676924   4.549704
    30  C    9.044866   9.008439   9.258642   4.308213   4.931243
    31  H    9.091592   9.047364   9.119529   4.223020   4.740211
    32  H   10.067530   9.983073  10.302260   5.365115   6.017156
    33  H    8.784197   8.954918   9.150685   4.253679   4.715419
    34  O    6.923809   6.667622   7.105169   2.390837   3.352542
    35  O    8.825529   8.416730   9.096935   4.579777   5.543194
                   26         27         28         29         30
    26  C    0.000000
    27  H    1.097015   0.000000
    28  H    1.092358   1.783020   0.000000
    29  C    2.445545   2.796003   2.715041   0.000000
    30  C    2.834659   2.888827   2.678869   1.507924   0.000000
    31  H    2.737410   2.378672   2.711087   2.160033   1.093793
    32  H    3.905314   3.910336   3.746282   2.124458   1.088938
    33  H    2.858290   3.128490   2.290959   2.148758   1.094773
    34  O    1.449512   2.085834   2.095517   1.352012   2.460691
    35  O    3.538886   3.908311   3.868456   1.219408   2.408995
                   31         32         33         34         35
    31  H    0.000000
    32  H    1.784297   0.000000
    33  H    1.766398   1.780854   0.000000
    34  O    2.754780   3.345155   2.795889   0.000000
    35  O    3.149913   2.535763   3.091565   2.201013   0.000000
 Stoichiometry    C13H17NO4
 Framework group  C1[X(C13H17NO4)]
 Deg. of freedom    99
 Full point group                 C1      NOp   1
 Largest Abelian subgroup         C1      NOp   1
 Largest concise Abelian subgroup C1      NOp   1
                         Standard orientation:                         
 ---------------------------------------------------------------------
 Center     Atomic      Atomic             Coordinates (Angstroms)
 Number     Number       Type             X           Y           Z
 ---------------------------------------------------------------------
      1          6           0       -2.615232   -0.671114    0.605504
      2          6           0       -1.596696    0.285973    1.095735
      3          6           0       -0.332904   -0.267277    0.845648
      4          6           0       -0.554945   -1.592921    0.197436
      5          1           0       -1.840579    0.991981    1.875501
      6          1           0        0.553277   -0.104089    1.442595
      7          6           0       -2.547870   -2.859500   -0.668900
      8          1           0       -3.592044   -2.612054   -0.860418
      9          1           0       -2.040518   -3.076269   -1.610800
     10          1           0       -2.496741   -3.740489   -0.022036
     11          7           0       -1.922641   -1.712852   -0.030711
     12          8           0        0.275036   -2.444342   -0.108021
     13          8           0       -3.836700   -0.618135    0.705485
     14          6           0       -0.830824    2.638540   -0.327448
     15          1           0       -0.882514    3.617605    0.145607
     16          6           0        0.437002    2.074413   -0.517343
     17          1           0        1.301258    2.633300   -0.168127
     18          6           0       -2.019596    1.936630   -0.506368
     19          1           0       -2.030649    1.110471   -1.213127
     20          6           0       -3.362038    2.524210   -0.187089
     21          1           0       -4.042706    1.753982    0.188238
     22          1           0       -3.286961    3.326629    0.552694
     23          1           0       -3.814673    2.936771   -1.098710
     24          6           0        0.623508    0.743273   -0.889339
     25          1           0       -0.103375    0.272519   -1.546039
     26          6           0        1.988292    0.125295   -0.988461
     27          1           0        2.469598    0.417712   -1.929885
     28          1           0        1.906177   -0.963396   -0.953024
     29          6           0        4.015698    0.107599    0.379019
     30          6           0        4.546747   -0.994376   -0.502726
     31          1           0        4.536150   -0.699236   -1.555894
     32          1           0        5.566049   -1.225680   -0.197262
     33          1           0        3.927331   -1.891610   -0.403616
     34          8           0        2.784822    0.605161    0.123454
     35          8           0        4.629661    0.574483    1.323489
 ---------------------------------------------------------------------
 Rotational constants (GHZ):      0.6542849      0.2634149      0.2070465
 Standard basis: 6-31+G(d,p) (6D, 7F)
 There are   427 symmetry adapted cartesian basis functions of A   symmetry.
 There are   427 symmetry adapted basis functions of A   symmetry.
   427 basis functions,   695 primitive gaussians,   427 cartesian basis functions
    67 alpha electrons       67 beta electrons
       nuclear repulsion energy      1354.5564502097 Hartrees.
 NAtoms=   35 NActive=   35 NUniq=   35 SFac= 1.00D+00 NAtFMM=   60 NAOKFM=F Big=F
 Integral buffers will be    131072 words long.
 Raffenetti 2 integral format.
 Two-electron integral symmetry is turned on.
 Nuclear repulsion after empirical dispersion term =     1354.5159775699 Hartrees.
 Force inversion solution in PCM.
 ------------------------------------------------------------------------------
 Polarizable Continuum Model (PCM)
 =================================
 Model                : C-PCM.
 Atomic radii         : UFF (Universal Force Field).
 Polarization charges : Total charges.
 Charge compensation  : None.
 Solution method      : Matrix inversion.
 Cavity type          : Scaled VdW (van der Waals Surface) (Alpha=1.100).
 Cavity algorithm     : GePol (No added spheres)
                        Default sphere list used, NSphG=   35.
                        Lebedev-Laikov grids with approx.  5.0 points / Ang**2.
                        Smoothing algorithm: Karplus/York (Gamma=1.0000).
                        Polarization charges: spherical gaussians, with
                                              point-specific exponents (IZeta= 3).
                        Self-potential: point-specific (ISelfS= 7).
                        Self-field    : sphere-specific E.n sum rule (ISelfD= 2).
 1st derivatives      : Analytical E(r).r(x)/FMM algorithm (CHGder, D1EAlg=3).
                        Cavity 1st derivative terms included.
 2nd derivatives      : Analytical E(r).r(xy)/FMM algorithm (CHGder, D2EAlg=3).
                        Cavity 2nd derivative terms included.
 Solvent              : Water, Eps=  78.355300 Eps(inf)=   1.777849
 ------------------------------------------------------------------------------
 One-electron integrals computed using PRISM.
 NBasis=   427 RedAO= T EigKep=  1.89D-06  NBF=   427
 NBsUse=   427 1.00D-06 EigRej= -1.00D+00 NBFU=   427
 ExpMin= 4.38D-02 ExpMax= 5.48D+03 ExpMxC= 8.25D+02 IAcc=2 IRadAn=         4 AccDes= 0.00D+00
 Harris functional with IExCor=  402 and IRadAn=       4 diagonalized for initial guess.
 HarFok:  IExCor=  402 AccDes= 0.00D+00 IRadAn=         4 IDoV= 1 UseB2=F ITyADJ=14
 ICtDFT=  3500011 ScaDFX=  1.000000  1.000000  1.000000  1.000000
 FoFCou: FMM=F IPFlag=           0 FMFlag=      100000 FMFlg1=           0
         NFxFlg=           0 DoJE=T BraDBF=F KetDBF=T FulRan=T
         wScrn=  0.000000 ICntrl=     500 IOpCl=  0 I1Cent=   200000004 NGrid=           0
         NMat0=    1 NMatS0=      1 NMatT0=    0 NMatD0=    1 NMtDS0=    0 NMtDT0=    0
 Petite list used in FoFCou.
 Requested convergence on RMS density matrix=1.00D-08 within 128 cycles.
 Requested convergence on MAX density matrix=1.00D-06.
 Requested convergence on             energy=1.00D-06.
 No special actions if energy rises.
 Inv3:  Mode=1 IEnd=    18855147.
 Iteration    1 A*A^-1 deviation from unit magnitude is 5.55D-15 for   2503.
 Iteration    1 A*A^-1 deviation from orthogonality  is 4.19D-15 for   2479     61.
 Iteration    1 A^-1*A deviation from unit magnitude is 5.55D-15 for   2503.
 Iteration    1 A^-1*A deviation from orthogonality  is 2.22D-15 for   2505   1178.
 Error on total polarization charges =  0.01819
 SCF Done:  E(RB3LYP) =  -861.330975207     A.U. after   15 cycles
            NFock= 15  Conv=0.79D-08     -V/T= 2.0095
 DoSCS=F DFT=T ScalE2(SS,OS)=  1.000000  1.000000
 Range of M.O.s used for correlation:     1   427
 NBasis=   427 NAE=    67 NBE=    67 NFC=     0 NFV=     0
 NROrb=    427 NOA=    67 NOB=    67 NVA=   360 NVB=   360

 **** Warning!!: The largest alpha MO coefficient is  0.16733854D+03

 PrsmSu:  requested number of processors reduced to:   2 ShMem   1 Linda.
 Symmetrizing basis deriv contribution to polar:
 IMax=3 JMax=2 DiffMx= 0.00D+00
 G2DrvN: will do    12 centers at a time, making    3 passes.
 Calling FoFCou, ICntrl=  3107 FMM=F I1Cent=   0 AccDes= 0.00D+00.
 Calling FoFCou, ICntrl=  3107 FMM=F I1Cent=   0 AccDes= 0.00D+00.
 Calling FoFCou, ICntrl=  3107 FMM=F I1Cent=   0 AccDes= 0.00D+00.
 NEqPCM:  Using equilibrium solvation (IEInf=0, Eps=  78.3553, EpsInf=   1.7778)
 G2PCM: DoFxE=T DoFxN=T DoGrad=T DoDP/DQ/DG/TGxP=FFFF NFrqRd=   0 IEInf=0 SqF1=F DoCFld=F IF1Alg=4.
 End of G2Drv F.D. properties file   721 does not exist.
 End of G2Drv F.D. properties file   722 does not exist.
 End of G2Drv F.D. properties file   788 does not exist.
          IDoAtm=11111111111111111111111111111111111
 NEqPCM:  Using equilibrium solvation (IEInf=0, Eps=  78.3553, EpsInf=   1.7778)
          Differentiating once with respect to electric field.
                with respect to dipole field.
          Differentiating once with respect to nuclear coordinates.
          There are   108 degrees of freedom in the 1st order CPHF.  IDoFFX=6 NUNeed=     3.
    108 vectors produced by pass  0 Test12= 2.41D-14 1.00D-09 XBig12= 2.76D+02 9.49D+00.
 AX will form    36 AO Fock derivatives at one time.
    108 vectors produced by pass  1 Test12= 2.41D-14 1.00D-09 XBig12= 7.16D+01 1.40D+00.
    105 vectors produced by pass  2 Test12= 2.41D-14 1.00D-09 XBig12= 5.12D-01 1.15D-01.
    105 vectors produced by pass  3 Test12= 2.41D-14 1.00D-09 XBig12= 1.63D-03 5.98D-03.
    105 vectors produced by pass  4 Test12= 2.41D-14 1.00D-09 XBig12= 3.87D-06 2.17D-04.
     99 vectors produced by pass  5 Test12= 2.41D-14 1.00D-09 XBig12= 5.26D-09 5.88D-06.
 PrRfSu:  requested number of processors reduced to:   3 ShMem   1 Linda.
     42 vectors produced by pass  6 Test12= 2.41D-14 1.00D-09 XBig12= 7.68D-12 2.51D-07.
      6 vectors produced by pass  7 Test12= 2.41D-14 1.00D-09 XBig12= 3.92D-13 4.51D-08.
      3 vectors produced by pass  8 Test12= 2.41D-14 1.00D-09 XBig12= 5.77D-15 5.56D-09.
      3 vectors produced by pass  9 Test12= 2.41D-14 1.00D-09 XBig12= 5.73D-15 6.37D-09.
      3 vectors produced by pass 10 Test12= 2.41D-14 1.00D-09 XBig12= 2.29D-14 1.32D-08.
      3 vectors produced by pass 11 Test12= 2.41D-14 1.00D-09 XBig12= 1.71D-14 1.11D-08.
      3 vectors produced by pass 12 Test12= 2.41D-14 1.00D-09 XBig12= 3.02D-14 1.63D-08.
      3 vectors produced by pass 13 Test12= 2.41D-14 1.00D-09 XBig12= 1.74D-14 9.59D-09.
      3 vectors produced by pass 14 Test12= 2.41D-14 1.00D-09 XBig12= 1.61D-14 1.11D-08.
      3 vectors produced by pass 15 Test12= 2.41D-14 1.00D-09 XBig12= 2.39D-14 1.19D-08.
      3 vectors produced by pass 16 Test12= 2.41D-14 1.00D-09 XBig12= 1.16D-14 7.93D-09.
      2 vectors produced by pass 17 Test12= 2.41D-14 1.00D-09 XBig12= 6.92D-15 6.70D-09.
 InvSVY:  IOpt=1 It=  1 EMax= 4.62D-14
 Solved reduced A of dimension   707 with   108 vectors.
 Isotropic polarizability for W=    0.000000      259.29 Bohr**3.
 End of Minotr F.D. properties file   721 does not exist.
 End of Minotr F.D. properties file   722 does not exist.
 End of Minotr F.D. properties file   788 does not exist.

 **********************************************************************

            Population analysis using the SCF density.

 **********************************************************************

 Orbital symmetries:
       Occupied  (A) (A) (A) (A) (A) (A) (A) (A) (A) (A) (A) (A)
                 (A) (A) (A) (A) (A) (A) (A) (A) (A) (A) (A) (A)
                 (A) (A) (A) (A) (A) (A) (A) (A) (A) (A) (A) (A)
                 (A) (A) (A) (A) (A) (A) (A) (A) (A) (A) (A) (A)
                 (A) (A) (A) (A) (A) (A) (A) (A) (A) (A) (A) (A)
                 (A) (A) (A) (A) (A) (A) (A)
       Virtual   (A) (A) (A) (A) (A) (A) (A) (A) (A) (A) (A) (A)
                 (A) (A) (A) (A) (A) (A) (A) (A) (A) (A) (A) (A)
                 (A) (A) (A) (A) (A) (A) (A) (A) (A) (A) (A) (A)
                 (A) (A) (A) (A) (A) (A) (A) (A) (A) (A) (A) (A)
                 (A) (A) (A) (A) (A) (A) (A) (A) (A) (A) (A) (A)
                 (A) (A) (A) (A) (A) (A) (A) (A) (A) (A) (A) (A)
                 (A) (A) (A) (A) (A) (A) (A) (A) (A) (A) (A) (A)
                 (A) (A) (A) (A) (A) (A) (A) (A) (A) (A) (A) (A)
                 (A) (A) (A) (A) (A) (A) (A) (A) (A) (A) (A) (A)
                 (A) (A) (A) (A) (A) (A) (A) (A) (A) (A) (A) (A)
                 (A) (A) (A) (A) (A) (A) (A) (A) (A) (A) (A) (A)
                 (A) (A) (A) (A) (A) (A) (A) (A) (A) (A) (A) (A)
                 (A) (A) (A) (A) (A) (A) (A) (A) (A) (A) (A) (A)
                 (A) (A) (A) (A) (A) (A) (A) (A) (A) (A) (A) (A)
                 (A) (A) (A) (A) (A) (A) (A) (A) (A) (A) (A) (A)
                 (A) (A) (A) (A) (A) (A) (A) (A) (A) (A) (A) (A)
                 (A) (A) (A) (A) (A) (A) (A) (A) (A) (A) (A) (A)
                 (A) (A) (A) (A) (A) (A) (A) (A) (A) (A) (A) (A)
                 (A) (A) (A) (A) (A) (A) (A) (A) (A) (A) (A) (A)
                 (A) (A) (A) (A) (A) (A) (A) (A) (A) (A) (A) (A)
                 (A) (A) (A) (A) (A) (A) (A) (A) (A) (A) (A) (A)
                 (A) (A) (A) (A) (A) (A) (A) (A) (A) (A) (A) (A)
                 (A) (A) (A) (A) (A) (A) (A) (A) (A) (A) (A) (A)
                 (A) (A) (A) (A) (A) (A) (A) (A) (A) (A) (A) (A)
                 (A) (A) (A) (A) (A) (A) (A) (A) (A) (A) (A) (A)
                 (A) (A) (A) (A) (A) (A) (A) (A) (A) (A) (A) (A)
                 (A) (A) (A) (A) (A) (A) (A) (A) (A) (A) (A) (A)
                 (A) (A) (A) (A) (A) (A) (A) (A) (A) (A) (A) (A)
                 (A) (A) (A) (A) (A) (A) (A) (A) (A) (A) (A) (A)
                 (A) (A) (A) (A) (A) (A) (A) (A) (A) (A) (A) (A)
 The electronic state is 1-A.
 Alpha  occ. eigenvalues --  -19.21288 -19.15981 -19.15785 -19.15707 -14.39372
 Alpha  occ. eigenvalues --  -10.33943 -10.31845 -10.31748 -10.26333 -10.22971
 Alpha  occ. eigenvalues --  -10.22831 -10.22814 -10.22271 -10.21768 -10.20827
 Alpha  occ. eigenvalues --  -10.20607 -10.20538 -10.18848  -1.11733  -1.07814
 Alpha  occ. eigenvalues --   -1.05829  -1.03407  -0.96745  -0.84930  -0.81956
 Alpha  occ. eigenvalues --   -0.79743  -0.75989  -0.74128  -0.71340  -0.68745
 Alpha  occ. eigenvalues --   -0.66863  -0.62469  -0.61157  -0.58791  -0.55867
 Alpha  occ. eigenvalues --   -0.53866  -0.51554  -0.51291  -0.50500  -0.49566
 Alpha  occ. eigenvalues --   -0.49337  -0.47307  -0.47053  -0.45822  -0.44943
 Alpha  occ. eigenvalues --   -0.44673  -0.43767  -0.43236  -0.42852  -0.41987
 Alpha  occ. eigenvalues --   -0.41265  -0.40931  -0.40566  -0.40041  -0.39522
 Alpha  occ. eigenvalues --   -0.39311  -0.37361  -0.36777  -0.35888  -0.35266
 Alpha  occ. eigenvalues --   -0.31668  -0.30419  -0.29394  -0.28822  -0.28084
 Alpha  occ. eigenvalues --   -0.25643  -0.24294
 Alpha virt. eigenvalues --   -0.08459  -0.05233  -0.01289  -0.00058   0.00681
 Alpha virt. eigenvalues --    0.01214   0.01688   0.02195   0.02858   0.03139
 Alpha virt. eigenvalues --    0.03338   0.04106   0.04614   0.04763   0.05455
 Alpha virt. eigenvalues --    0.05848   0.06048   0.06664   0.06738   0.07118
 Alpha virt. eigenvalues --    0.07597   0.08265   0.08429   0.08792   0.09209
 Alpha virt. eigenvalues --    0.09629   0.09925   0.10270   0.10874   0.10928
 Alpha virt. eigenvalues --    0.11616   0.11794   0.11980   0.12640   0.13320
 Alpha virt. eigenvalues --    0.13479   0.14122   0.14760   0.15235   0.15506
 Alpha virt. eigenvalues --    0.15839   0.15970   0.16146   0.16565   0.16855
 Alpha virt. eigenvalues --    0.17867   0.18666   0.19034   0.19543   0.19905
 Alpha virt. eigenvalues --    0.20309   0.20616   0.21017   0.21266   0.21472
 Alpha virt. eigenvalues --    0.21677   0.22149   0.22264   0.22964   0.23420
 Alpha virt. eigenvalues --    0.23759   0.23974   0.24500   0.25063   0.25433
 Alpha virt. eigenvalues --    0.25683   0.26033   0.26485   0.26915   0.27365
 Alpha virt. eigenvalues --    0.27715   0.27864   0.28667   0.28935   0.29217
 Alpha virt. eigenvalues --    0.29712   0.30115   0.30347   0.30457   0.30928
 Alpha virt. eigenvalues --    0.31326   0.32074   0.32378   0.33037   0.33581
 Alpha virt. eigenvalues --    0.34422   0.34772   0.35256   0.35662   0.35849
 Alpha virt. eigenvalues --    0.36033   0.36952   0.37044   0.37408   0.37927
 Alpha virt. eigenvalues --    0.38206   0.38830   0.39654   0.40432   0.40990
 Alpha virt. eigenvalues --    0.41340   0.42614   0.43300   0.43852   0.45881
 Alpha virt. eigenvalues --    0.46304   0.47464   0.48076   0.48674   0.48970
 Alpha virt. eigenvalues --    0.49665   0.56195   0.60542   0.63218   0.64989
 Alpha virt. eigenvalues --    0.65525   0.65726   0.66525   0.68288   0.69280
 Alpha virt. eigenvalues --    0.70119   0.71226   0.72740   0.73146   0.73920
 Alpha virt. eigenvalues --    0.75269   0.76242   0.76774   0.77701   0.78126
 Alpha virt. eigenvalues --    0.79273   0.79457   0.81167   0.82335   0.83240
 Alpha virt. eigenvalues --    0.83758   0.85240   0.85464   0.86203   0.86999
 Alpha virt. eigenvalues --    0.89719   0.90543   0.91617   0.92220   0.93261
 Alpha virt. eigenvalues --    0.94297   0.94955   0.95947   0.96486   0.97370
 Alpha virt. eigenvalues --    0.97665   0.97913   0.98278   0.99441   1.00321
 Alpha virt. eigenvalues --    1.00756   1.01449   1.02386   1.03686   1.07109
 Alpha virt. eigenvalues --    1.08410   1.09741   1.10992   1.11270   1.11487
 Alpha virt. eigenvalues --    1.12590   1.12951   1.15074   1.15485   1.16398
 Alpha virt. eigenvalues --    1.18816   1.19801   1.21052   1.23758   1.24782
 Alpha virt. eigenvalues --    1.25564   1.26614   1.26827   1.27288   1.29469
 Alpha virt. eigenvalues --    1.30481   1.31640   1.32551   1.33181   1.34309
 Alpha virt. eigenvalues --    1.34787   1.35138   1.36681   1.37031   1.37929
 Alpha virt. eigenvalues --    1.39058   1.39133   1.39868   1.40319   1.41347
 Alpha virt. eigenvalues --    1.42926   1.43341   1.45775   1.46115   1.47455
 Alpha virt. eigenvalues --    1.50061   1.51101   1.53393   1.55151   1.56974
 Alpha virt. eigenvalues --    1.60372   1.60787   1.62872   1.65318   1.67855
 Alpha virt. eigenvalues --    1.69458   1.70601   1.71320   1.73079   1.74519
 Alpha virt. eigenvalues --    1.75633   1.78298   1.79221   1.80644   1.82602
 Alpha virt. eigenvalues --    1.83147   1.84182   1.84891   1.85856   1.86797
 Alpha virt. eigenvalues --    1.88957   1.89780   1.90694   1.92116   1.92654
 Alpha virt. eigenvalues --    1.93615   1.94386   1.94925   1.96412   1.97653
 Alpha virt. eigenvalues --    1.98302   1.99357   1.99720   2.00014   2.01196
 Alpha virt. eigenvalues --    2.02528   2.03388   2.04194   2.05056   2.05459
 Alpha virt. eigenvalues --    2.07155   2.07765   2.08239   2.08941   2.09749
 Alpha virt. eigenvalues --    2.10550   2.11333   2.11874   2.13151   2.13855
 Alpha virt. eigenvalues --    2.14658   2.16046   2.16378   2.18115   2.20518
 Alpha virt. eigenvalues --    2.22157   2.22782   2.23852   2.25704   2.29219
 Alpha virt. eigenvalues --    2.30554   2.31093   2.32889   2.35822   2.36259
 Alpha virt. eigenvalues --    2.38097   2.39170   2.40451   2.42555   2.44394
 Alpha virt. eigenvalues --    2.44765   2.46119   2.46783   2.48709   2.50678
 Alpha virt. eigenvalues --    2.51994   2.52312   2.54699   2.56314   2.57543
 Alpha virt. eigenvalues --    2.58536   2.60560   2.60613   2.61684   2.64421
 Alpha virt. eigenvalues --    2.64603   2.65669   2.67042   2.68515   2.68839
 Alpha virt. eigenvalues --    2.70819   2.72042   2.72255   2.73766   2.74200
 Alpha virt. eigenvalues --    2.78422   2.79513   2.81057   2.81495   2.82654
 Alpha virt. eigenvalues --    2.83724   2.85348   2.86016   2.87315   2.87647
 Alpha virt. eigenvalues --    2.88343   2.89676   2.91160   2.96151   2.96832
 Alpha virt. eigenvalues --    2.99780   3.04835   3.06912   3.07803   3.12543
 Alpha virt. eigenvalues --    3.16715   3.19376   3.22438   3.26245   3.26885
 Alpha virt. eigenvalues --    3.28449   3.29130   3.30573   3.33769   3.35758
 Alpha virt. eigenvalues --    3.36162   3.42092   3.43785   3.44973   3.46415
 Alpha virt. eigenvalues --    3.46760   3.47418   3.47700   3.52112   3.55577
 Alpha virt. eigenvalues --    3.66361   3.69883   4.27715   4.30895   4.36008
 Alpha virt. eigenvalues --    4.37731   4.39577   4.41224   4.43981   4.49945
 Alpha virt. eigenvalues --    4.50907   4.54408   4.57667   4.59017   4.63394
 Alpha virt. eigenvalues --    4.67199   4.72604   4.73800   4.84978   5.15079
          Condensed to atoms (all electrons):
               1          2          3          4          5          6
     1  C    6.773706  -1.617294   1.031977  -0.743254  -0.078352   0.015226
     2  C   -1.617294  10.176420  -3.076250   0.857594   0.280541   0.050763
     3  C    1.031977  -3.076250   9.710202  -1.269259   0.057818   0.240422
     4  C   -0.743254   0.857594  -1.269259   6.799549   0.018702  -0.047283
     5  H   -0.078352   0.280541   0.057818   0.018702   0.519424  -0.003418
     6  H    0.015226   0.050763   0.240422  -0.047283  -0.003418   0.517093
     7  C   -0.091871  -0.040139  -0.116340  -0.146539   0.000478   0.002708
     8  H   -0.010514   0.006952  -0.012845   0.010135  -0.000005   0.000003
     9  H    0.010435  -0.006883   0.008529  -0.022281   0.000001  -0.000006
    10  H   -0.005603  -0.002017   0.002479  -0.005115   0.000006   0.000006
    11  N    0.255546  -0.462442  -0.415007   0.149357   0.016772   0.020836
    12  O    0.099801  -0.131095  -0.052513   0.435900  -0.000600   0.002458
    13  O    0.436739  -0.078630  -0.086734   0.089836   0.001990  -0.000686
    14  C   -0.192215   0.190512  -0.102051   0.190375   0.006073  -0.003116
    15  H    0.009549   0.011838  -0.010662  -0.003507   0.000238  -0.000002
    16  C   -0.053516  -0.057803   0.277503  -0.469776  -0.019899   0.002474
    17  H   -0.003851  -0.026844   0.026146   0.016472  -0.000003   0.000220
    18  C   -0.031914  -0.029553  -0.014776  -0.075259   0.040845  -0.000024
    19  H   -0.012129   0.013883  -0.003861  -0.012149   0.001514  -0.000100
    20  C   -0.133350   0.365487  -0.237311   0.067311  -0.027005   0.003827
    21  H    0.012090  -0.020514   0.001367  -0.000132  -0.000062  -0.000003
    22  H   -0.006295   0.003940   0.005576  -0.000498   0.000502  -0.000001
    23  H    0.003475   0.011177  -0.006162   0.000947  -0.000018   0.000000
    24  C    0.162332  -0.077268  -0.367475   0.098400  -0.009924   0.057014
    25  H   -0.009872  -0.023102   0.014458  -0.010566  -0.000100   0.001834
    26  C    0.069580  -0.267217   0.493849  -0.002953   0.015648  -0.055194
    27  H    0.000511  -0.002185   0.013858  -0.001795   0.000001  -0.000015
    28  H   -0.003068   0.002790  -0.047326   0.046729  -0.000002   0.000195
    29  C    0.009621  -0.058306   0.024116   0.013634  -0.000002  -0.001461
    30  C   -0.002559   0.013898  -0.008455  -0.008955  -0.000018   0.000442
    31  H   -0.000022   0.000069   0.001276  -0.000861   0.000000  -0.000001
    32  H    0.000010   0.000080   0.000487  -0.000187   0.000000  -0.000001
    33  H   -0.000043   0.000734   0.000097   0.001026   0.000000   0.000004
    34  O   -0.004856   0.016029   0.028009  -0.017334   0.000054   0.006331
    35  O    0.000169  -0.004747  -0.002411  -0.000978   0.000001   0.000514
               7          8          9         10         11         12
     1  C   -0.091871  -0.010514   0.010435  -0.005603   0.255546   0.099801
     2  C   -0.040139   0.006952  -0.006883  -0.002017  -0.462442  -0.131095
     3  C   -0.116340  -0.012845   0.008529   0.002479  -0.415007  -0.052513
     4  C   -0.146539   0.010135  -0.022281  -0.005115   0.149357   0.435900
     5  H    0.000478  -0.000005   0.000001   0.000006   0.016772  -0.000600
     6  H    0.002708   0.000003  -0.000006   0.000006   0.020836   0.002458
     7  C    5.226107   0.417175   0.400500   0.420011   0.225568  -0.032775
     8  H    0.417175   0.504233  -0.022614  -0.026215  -0.050320   0.000276
     9  H    0.400500  -0.022614   0.518750  -0.030678  -0.036583   0.003538
    10  H    0.420011  -0.026215  -0.030678   0.524943  -0.051630   0.002196
    11  N    0.225568  -0.050320  -0.036583  -0.051630   7.544768  -0.125169
    12  O   -0.032775   0.000276   0.003538   0.002196  -0.125169   8.363340
    13  O   -0.053819   0.006041   0.000478   0.000729  -0.128727  -0.002436
    14  C    0.007004  -0.000164  -0.001555   0.000535   0.026201  -0.003005
    15  H    0.000113   0.000000   0.000000   0.000000   0.000383  -0.000004
    16  C   -0.027756  -0.000317   0.001415   0.000145   0.005537   0.010191
    17  H    0.000145   0.000000   0.000000   0.000000   0.000295  -0.000034
    18  C   -0.001745   0.000072   0.004260  -0.001465   0.028314   0.008000
    19  H    0.000572  -0.000026  -0.000035   0.000007   0.009458   0.000164
    20  C   -0.005874   0.000131   0.000087  -0.000059  -0.030282   0.001071
    21  H    0.000074  -0.000003   0.000000   0.000000  -0.001209   0.000005
    22  H   -0.000060   0.000000   0.000000   0.000000  -0.000018   0.000001
    23  H    0.000220   0.000000   0.000000   0.000000   0.000231  -0.000001
    24  C   -0.014107   0.001259   0.007803  -0.003201  -0.024707   0.214391
    25  H    0.001308  -0.000002  -0.000084   0.000010   0.011289   0.002365
    26  C    0.046470  -0.000683  -0.008421   0.002887   0.041816  -0.251083
    27  H    0.000260   0.000000   0.000000   0.000000   0.000376   0.000236
    28  H    0.000176   0.000000  -0.000006   0.000001  -0.001607  -0.004179
    29  C   -0.000375   0.000002  -0.000037   0.000008  -0.000335   0.004219
    30  C    0.000874  -0.000002  -0.000002   0.000001   0.000227  -0.009046
    31  H   -0.000007   0.000000   0.000000   0.000000  -0.000006   0.000060
    32  H   -0.000001   0.000000   0.000000   0.000000   0.000000   0.000008
    33  H    0.000062   0.000000   0.000000   0.000000   0.000083  -0.000372
    34  O    0.000613   0.000000   0.000001   0.000000   0.002503   0.002730
    35  O   -0.000006   0.000000   0.000000   0.000000   0.000005  -0.000031
              13         14         15         16         17         18
     1  C    0.436739  -0.192215   0.009549  -0.053516  -0.003851  -0.031914
     2  C   -0.078630   0.190512   0.011838  -0.057803  -0.026844  -0.029553
     3  C   -0.086734  -0.102051  -0.010662   0.277503   0.026146  -0.014776
     4  C    0.089836   0.190375  -0.003507  -0.469776   0.016472  -0.075259
     5  H    0.001990   0.006073   0.000238  -0.019899  -0.000003   0.040845
     6  H   -0.000686  -0.003116  -0.000002   0.002474   0.000220  -0.000024
     7  C   -0.053819   0.007004   0.000113  -0.027756   0.000145  -0.001745
     8  H    0.006041  -0.000164   0.000000  -0.000317   0.000000   0.000072
     9  H    0.000478  -0.001555   0.000000   0.001415   0.000000   0.004260
    10  H    0.000729   0.000535   0.000000   0.000145   0.000000  -0.001465
    11  N   -0.128727   0.026201   0.000383   0.005537   0.000295   0.028314
    12  O   -0.002436  -0.003005  -0.000004   0.010191  -0.000034   0.008000
    13  O    8.395824  -0.032960  -0.000016   0.021657  -0.000004   0.016490
    14  C   -0.032960   7.185144   0.358915  -1.595271  -0.050456  -1.141409
    15  H   -0.000016   0.358915   0.553503   0.009850  -0.007634  -0.061428
    16  C    0.021657  -1.595271   0.009850   9.150087   0.383757   0.608682
    17  H   -0.000004  -0.050456  -0.007634   0.383757   0.542414   0.000667
    18  C    0.016490  -1.141409  -0.061428   0.608682   0.000667   8.808646
    19  H    0.000583   0.144994   0.004538  -0.082970   0.000011   0.152184
    20  C   -0.006390   0.577085  -0.040341  -0.242013   0.008160  -1.872434
    21  H    0.003633   0.005854   0.000115  -0.010657   0.000003  -0.152636
    22  H    0.000799   0.062207   0.002798  -0.019824  -0.000004  -0.195622
    23  H   -0.000874   0.028888   0.000209  -0.004355   0.000000  -0.179283
    24  C   -0.020691   0.267019   0.009921  -1.826960  -0.015075   0.143462
    25  H    0.000061  -0.065157   0.000021   0.140617   0.004193  -0.000689
    26  C   -0.003577   0.400566   0.017910  -0.304473  -0.040317  -0.522751
    27  H    0.000000   0.015347  -0.000001   0.033552   0.000299   0.001256
    28  H    0.000009  -0.002873   0.000002  -0.025565   0.000090  -0.008063
    29  C    0.000023  -0.009976   0.000020  -0.093810   0.000398   0.000212
    30  C   -0.000005  -0.004480  -0.000023   0.016290  -0.000768  -0.001210
    31  H    0.000000  -0.000226   0.000000  -0.000585   0.000002  -0.000239
    32  H    0.000000   0.000091   0.000000   0.000083   0.000000  -0.000017
    33  H    0.000000   0.000573   0.000000   0.002762  -0.000001   0.000183
    34  O    0.000004   0.008205   0.000460   0.201893   0.006864  -0.003559
    35  O    0.000000  -0.008003   0.000004  -0.000092   0.000424   0.000279
              19         20         21         22         23         24
     1  C   -0.012129  -0.133350   0.012090  -0.006295   0.003475   0.162332
     2  C    0.013883   0.365487  -0.020514   0.003940   0.011177  -0.077268
     3  C   -0.003861  -0.237311   0.001367   0.005576  -0.006162  -0.367475
     4  C   -0.012149   0.067311  -0.000132  -0.000498   0.000947   0.098400
     5  H    0.001514  -0.027005  -0.000062   0.000502  -0.000018  -0.009924
     6  H   -0.000100   0.003827  -0.000003  -0.000001   0.000000   0.057014
     7  C    0.000572  -0.005874   0.000074  -0.000060   0.000220  -0.014107
     8  H   -0.000026   0.000131  -0.000003   0.000000   0.000000   0.001259
     9  H   -0.000035   0.000087   0.000000   0.000000   0.000000   0.007803
    10  H    0.000007  -0.000059   0.000000   0.000000   0.000000  -0.003201
    11  N    0.009458  -0.030282  -0.001209  -0.000018   0.000231  -0.024707
    12  O    0.000164   0.001071   0.000005   0.000001  -0.000001   0.214391
    13  O    0.000583  -0.006390   0.003633   0.000799  -0.000874  -0.020691
    14  C    0.144994   0.577085   0.005854   0.062207   0.028888   0.267019
    15  H    0.004538  -0.040341   0.000115   0.002798   0.000209   0.009921
    16  C   -0.082970  -0.242013  -0.010657  -0.019824  -0.004355  -1.826960
    17  H    0.000011   0.008160   0.000003  -0.000004   0.000000  -0.015075
    18  C    0.152184  -1.872434  -0.152636  -0.195622  -0.179283   0.143462
    19  H    0.576953  -0.028559  -0.002634   0.004324  -0.002017   0.023756
    20  C   -0.028559   6.942080   0.521730   0.494903   0.502312   0.093061
    21  H   -0.002634   0.521730   0.511494  -0.025891  -0.026435   0.002416
    22  H    0.004324   0.494903  -0.025891   0.533803  -0.024812   0.005318
    23  H   -0.002017   0.502312  -0.026435  -0.024812   0.534044  -0.005805
    24  C    0.023756   0.093061   0.002416   0.005318  -0.005805  15.006859
    25  H    0.003469   0.007381  -0.000001   0.000000   0.000000   0.126762
    26  C    0.058024  -0.274625  -0.000323   0.000821  -0.002541  -7.460266
    27  H   -0.000001  -0.000361   0.000000   0.000000   0.000000  -0.094489
    28  H    0.000005  -0.000833   0.000000   0.000000   0.000000  -0.267058
    29  C    0.000055   0.000490   0.000005   0.000005  -0.000002   0.258929
    30  C    0.000005  -0.000588  -0.000001   0.000000   0.000000  -0.242263
    31  H    0.000000  -0.000009   0.000000   0.000000   0.000000  -0.017888
    32  H    0.000000   0.000000   0.000000   0.000000   0.000000  -0.008123
    33  H    0.000000   0.000009   0.000000   0.000000   0.000000   0.017309
    34  O    0.000109  -0.002419   0.000001   0.000002  -0.000003  -0.434903
    35  O    0.000000  -0.000052   0.000000   0.000000   0.000000  -0.007371
              25         26         27         28         29         30
     1  C   -0.009872   0.069580   0.000511  -0.003068   0.009621  -0.002559
     2  C   -0.023102  -0.267217  -0.002185   0.002790  -0.058306   0.013898
     3  C    0.014458   0.493849   0.013858  -0.047326   0.024116  -0.008455
     4  C   -0.010566  -0.002953  -0.001795   0.046729   0.013634  -0.008955
     5  H   -0.000100   0.015648   0.000001  -0.000002  -0.000002  -0.000018
     6  H    0.001834  -0.055194  -0.000015   0.000195  -0.001461   0.000442
     7  C    0.001308   0.046470   0.000260   0.000176  -0.000375   0.000874
     8  H   -0.000002  -0.000683   0.000000   0.000000   0.000002  -0.000002
     9  H   -0.000084  -0.008421   0.000000  -0.000006  -0.000037  -0.000002
    10  H    0.000010   0.002887   0.000000   0.000001   0.000008   0.000001
    11  N    0.011289   0.041816   0.000376  -0.001607  -0.000335   0.000227
    12  O    0.002365  -0.251083   0.000236  -0.004179   0.004219  -0.009046
    13  O    0.000061  -0.003577   0.000000   0.000009   0.000023  -0.000005
    14  C   -0.065157   0.400566   0.015347  -0.002873  -0.009976  -0.004480
    15  H    0.000021   0.017910  -0.000001   0.000002   0.000020  -0.000023
    16  C    0.140617  -0.304473   0.033552  -0.025565  -0.093810   0.016290
    17  H    0.004193  -0.040317   0.000299   0.000090   0.000398  -0.000768
    18  C   -0.000689  -0.522751   0.001256  -0.008063   0.000212  -0.001210
    19  H    0.003469   0.058024  -0.000001   0.000005   0.000055   0.000005
    20  C    0.007381  -0.274625  -0.000361  -0.000833   0.000490  -0.000588
    21  H   -0.000001  -0.000323   0.000000   0.000000   0.000005  -0.000001
    22  H    0.000000   0.000821   0.000000   0.000000   0.000005   0.000000
    23  H    0.000000  -0.002541   0.000000   0.000000  -0.000002   0.000000
    24  C    0.126762  -7.460266  -0.094489  -0.267058   0.258929  -0.242263
    25  H    0.558185   0.062421   0.001210  -0.003097  -0.001048   0.001601
    26  C    0.062421  13.356030   0.376638   0.684972  -0.186444   0.231830
    27  H    0.001210   0.376638   0.549857  -0.039850   0.005645  -0.007468
    28  H   -0.003097   0.684972  -0.039850   0.533935  -0.018559   0.015690
    29  C   -0.001048  -0.186444   0.005645  -0.018559   5.044986   0.055677
    30  C    0.001601   0.231830  -0.007468   0.015690   0.055677   5.520243
    31  H   -0.000004   0.035693   0.000544  -0.001835  -0.047239   0.382717
    32  H    0.000000  -0.003636   0.000034   0.000102  -0.048866   0.419828
    33  H   -0.000001  -0.015125  -0.000195   0.000737  -0.028326   0.368641
    34  O    0.008486   0.205295  -0.030777  -0.041099   0.074689  -0.191233
    35  O    0.000052   0.022755  -0.000398   0.000177   0.512027  -0.121803
              31         32         33         34         35
     1  C   -0.000022   0.000010  -0.000043  -0.004856   0.000169
     2  C    0.000069   0.000080   0.000734   0.016029  -0.004747
     3  C    0.001276   0.000487   0.000097   0.028009  -0.002411
     4  C   -0.000861  -0.000187   0.001026  -0.017334  -0.000978
     5  H    0.000000   0.000000   0.000000   0.000054   0.000001
     6  H   -0.000001  -0.000001   0.000004   0.006331   0.000514
     7  C   -0.000007  -0.000001   0.000062   0.000613  -0.000006
     8  H    0.000000   0.000000   0.000000   0.000000   0.000000
     9  H    0.000000   0.000000   0.000000   0.000001   0.000000
    10  H    0.000000   0.000000   0.000000   0.000000   0.000000
    11  N   -0.000006   0.000000   0.000083   0.002503   0.000005
    12  O    0.000060   0.000008  -0.000372   0.002730  -0.000031
    13  O    0.000000   0.000000   0.000000   0.000004   0.000000
    14  C   -0.000226   0.000091   0.000573   0.008205  -0.008003
    15  H    0.000000   0.000000   0.000000   0.000460   0.000004
    16  C   -0.000585   0.000083   0.002762   0.201893  -0.000092
    17  H    0.000002   0.000000  -0.000001   0.006864   0.000424
    18  C   -0.000239  -0.000017   0.000183  -0.003559   0.000279
    19  H    0.000000   0.000000   0.000000   0.000109   0.000000
    20  C   -0.000009   0.000000   0.000009  -0.002419  -0.000052
    21  H    0.000000   0.000000   0.000000   0.000001   0.000000
    22  H    0.000000   0.000000   0.000000   0.000002   0.000000
    23  H    0.000000   0.000000   0.000000  -0.000003   0.000000
    24  C   -0.017888  -0.008123   0.017309  -0.434903  -0.007371
    25  H   -0.000004   0.000000  -0.000001   0.008486   0.000052
    26  C    0.035693  -0.003636  -0.015125   0.205295   0.022755
    27  H    0.000544   0.000034  -0.000195  -0.030777  -0.000398
    28  H   -0.001835   0.000102   0.000737  -0.041099   0.000177
    29  C   -0.047239  -0.048866  -0.028326   0.074689   0.512027
    30  C    0.382717   0.419828   0.368641  -0.191233  -0.121803
    31  H    0.499222  -0.021856  -0.023276  -0.002044   0.004209
    32  H   -0.021856   0.490312  -0.020505   0.010439  -0.007728
    33  H   -0.023276  -0.020505   0.491211   0.002503   0.001828
    34  O   -0.002044   0.010439   0.002503   8.668477  -0.131306
    35  O    0.004209  -0.007728   0.001828  -0.131306   8.252309
 Mulliken charges:
               1
     1  C    0.109812
     2  C   -0.020416
     3  C   -0.108731
     4  C    0.042711
     5  H    0.178799
     6  H    0.188938
     7  C   -0.219023
     8  H    0.177430
     9  H    0.173388
    10  H    0.172021
    11  N   -0.011523
    12  O   -0.538604
    13  O   -0.559347
    14  C   -0.262669
    15  H    0.143228
    16  C   -0.030851
    17  H    0.154430
    18  C    0.480523
    19  H    0.149876
    20  C   -0.682619
    21  H    0.181712
    22  H    0.158028
    23  H    0.170804
    24  C    0.401562
    25  H    0.167997
    26  C   -0.723575
    27  H    0.177912
    28  H    0.179408
    29  C    0.490025
    30  C   -0.429085
    31  H    0.192306
    32  H    0.189447
    33  H    0.200082
    34  O   -0.384167
    35  O   -0.509828
 Sum of Mulliken charges =   0.00000
 Mulliken charges with hydrogens summed into heavy atoms:
               1
     1  C    0.109812
     2  C    0.158383
     3  C    0.080207
     4  C    0.042711
     7  C    0.303816
    11  N   -0.011523
    12  O   -0.538604
    13  O   -0.559347
    14  C   -0.119442
    16  C    0.123578
    18  C    0.630398
    20  C   -0.172075
    24  C    0.569559
    26  C   -0.366254
    29  C    0.490025
    30  C    0.152750
    34  O   -0.384167
    35  O   -0.509828
 APT charges:
               1
     1  C    1.699088
     2  C   -0.339814
     3  C   -0.198432
     4  C    1.615625
     5  H    0.056210
     6  H    0.059438
     7  C    0.425376
     8  H    0.039751
     9  H   -0.004072
    10  H   -0.042178
    11  N   -1.149075
    12  O   -1.159389
    13  O   -1.189161
    14  C   -0.121378
    15  H    0.045094
    16  C   -0.072389
    17  H    0.081020
    18  C    0.228464
    19  H    0.007459
    20  C   -0.022964
    21  H    0.047156
    22  H   -0.011828
    23  H   -0.032183
    24  C    0.024003
    25  H    0.033160
    26  C    0.604107
    27  H   -0.076469
    28  H    0.022381
    29  C    1.731806
    30  C   -0.152231
    31  H    0.054335
    32  H    0.038810
    33  H    0.056307
    34  O   -1.193361
    35  O   -1.104664
 Sum of APT charges =   0.00000
 APT charges with hydrogens summed into heavy atoms:
               1
     1  C    1.699088
     2  C   -0.283605
     3  C   -0.138994
     4  C    1.615625
     7  C    0.418877
    11  N   -1.149075
    12  O   -1.159389
    13  O   -1.189161
    14  C   -0.076284
    16  C    0.008630
    18  C    0.235923
    20  C   -0.019819
    24  C    0.057163
    26  C    0.550018
    29  C    1.731806
    30  C   -0.002779
    34  O   -1.193361
    35  O   -1.104664
 Electronic spatial extent (au):  <R**2>=           5291.6576
 Charge=              0.0000 electrons
 Dipole moment (field-independent basis, Debye):
    X=             -1.3367    Y=              0.9312    Z=             -5.5277  Tot=              5.7628
 Quadrupole moment (field-independent basis, Debye-Ang):
   XX=           -132.3133   YY=           -104.9858   ZZ=           -107.1855
   XY=            -10.3891   XZ=            -12.3875   YZ=              1.2025
 Traceless Quadrupole moment (field-independent basis, Debye-Ang):
   XX=            -17.4851   YY=              9.8424   ZZ=              7.6427
   XY=            -10.3891   XZ=            -12.3875   YZ=              1.2025
 Octapole moment (field-independent basis, Debye-Ang**2):
  XXX=             20.6136  YYY=             12.1125  ZZZ=             -7.6166  XYY=            -29.7699
  XXY=            -41.5990  XXZ=           -108.8234  XZZ=            -11.1683  YZZ=            -10.0518
  YYZ=              3.3634  XYZ=            -17.7265
 Hexadecapole moment (field-independent basis, Debye-Ang**3):
 XXXX=          -5401.8348 YYYY=          -1812.0378 ZZZZ=           -457.2191 XXXY=           -272.3024
 XXXZ=           -253.4264 YYYX=             59.8033 YYYZ=             36.1974 ZZZX=            -33.1668
 ZZZY=             14.1122 XXYY=          -1010.3438 XXZZ=           -933.8972 YYZZ=           -390.5347
 XXYZ=            -21.1848 YYXZ=              5.4433 ZZXY=             -9.0600
 N-N= 1.354515977570D+03 E-N=-4.713978852263D+03  KE= 8.532152823564D+02
  Exact polarizability: 306.183  -8.428 279.880 -10.942  -6.545 191.808
 Approx polarizability: 346.205 -11.912 315.240 -19.621 -15.298 225.625
 D2PCM: C-PCM CHGder 2nd derivatives, FixD1E=F FixD2E=F DoIter=F DoCFld=F I1PDM=0
 Calling FoFJK, ICntrl=    100127 FMM=F ISym2X=0 I1Cent= 0 IOpClX= 0 NMat=1 NMatS=1 NMatT=0.
 Full mass-weighted force constant matrix:
 Low frequencies --- -433.3737   -6.9814   -0.0025   -0.0013    0.0010    3.8312
 Low frequencies ---    7.2235   26.6935   37.8478
 ******    1 imaginary frequencies (negative Signs) ****** 
 Diagonal vibrational polarizability:
      149.1777373     200.6403499     174.9519404
 Harmonic frequencies (cm**-1), IR intensities (KM/Mole), Raman scattering
 activities (A**4/AMU), depolarization ratios for plane and unpolarized
 incident light, reduced masses (AMU), force constants (mDyne/A),
 and normal coordinates:
                      1                      2                      3
                      A                      A                      A
 Frequencies --   -433.3731                26.1844                37.6695
 Red. masses --      8.1108                 6.4545                 4.8108
 Frc consts  --      0.8975                 0.0026                 0.0040
 IR Inten    --      7.9381                 1.5715                 8.4122
  Atom  AN      X      Y      Z        X      Y      Z        X      Y      Z
     1   6     0.00  -0.05   0.02     0.09  -0.01   0.05     0.02   0.02   0.09
     2   6     0.05  -0.24   0.31     0.08   0.03  -0.01     0.07  -0.01   0.01
     3   6    -0.13  -0.19   0.36     0.09   0.07  -0.06     0.04  -0.04  -0.07
     4   6    -0.02  -0.03   0.04     0.10   0.06  -0.04    -0.04  -0.03  -0.08
     5   1    -0.04   0.14  -0.08     0.10   0.03  -0.01     0.14   0.02   0.01
     6   1     0.13   0.11  -0.12     0.11   0.11  -0.11     0.08  -0.09  -0.10
     7   6    -0.01  -0.01  -0.02     0.11  -0.02   0.08    -0.14   0.04   0.06
     8   1    -0.01  -0.02  -0.02     0.09  -0.06   0.11    -0.15   0.06   0.14
     9   1    -0.02  -0.02  -0.02     0.08  -0.03   0.06    -0.22   0.04   0.01
    10   1    -0.01  -0.01  -0.01     0.15  -0.01   0.09    -0.11   0.03   0.04
    11   7    -0.02  -0.01  -0.03     0.10   0.01   0.03    -0.06   0.01   0.02
    12   8     0.00   0.01  -0.01     0.12   0.09  -0.08    -0.08  -0.04  -0.17
    13   8     0.00   0.01  -0.01     0.10  -0.05   0.11     0.02   0.05   0.19
    14   6    -0.07   0.01  -0.01    -0.06   0.05  -0.06     0.02  -0.03  -0.07
    15   1     0.01  -0.07   0.17    -0.07   0.05  -0.07     0.02  -0.02  -0.10
    16   6     0.04  -0.04  -0.03    -0.05   0.09  -0.10     0.02  -0.03  -0.07
    17   1    -0.03  -0.07   0.20    -0.05   0.12  -0.13     0.02  -0.02  -0.07
    18   6    -0.03   0.25  -0.22    -0.04   0.01  -0.01     0.02  -0.04  -0.05
    19   1     0.00  -0.04   0.12    -0.04   0.00   0.00     0.02  -0.07  -0.01
    20   6    -0.03   0.06  -0.04    -0.05  -0.03   0.03     0.02  -0.03  -0.06
    21   1     0.12  -0.02   0.07     0.00  -0.05   0.08     0.04  -0.02   0.00
    22   1    -0.03   0.09  -0.08    -0.05  -0.02   0.01     0.02   0.01  -0.11
    23   1    -0.24  -0.02   0.02    -0.11  -0.07   0.04     0.00  -0.10  -0.07
    24   6     0.16   0.21  -0.31    -0.02   0.09  -0.11     0.03  -0.04  -0.05
    25   1    -0.04  -0.04   0.10    -0.03   0.07  -0.08     0.04  -0.05  -0.06
    26   6     0.05   0.02  -0.05    -0.01   0.13  -0.13     0.04  -0.02  -0.01
    27   1     0.21  -0.16  -0.03     0.03   0.24  -0.08     0.09   0.04   0.04
    28   1    -0.09   0.03   0.05     0.01   0.13  -0.24     0.06  -0.02  -0.07
    29   6     0.00   0.00   0.00    -0.14  -0.12   0.07     0.00   0.04   0.06
    30   6     0.00   0.00   0.00    -0.17  -0.15   0.09     0.17   0.23  -0.08
    31   1     0.03   0.00   0.00    -0.08  -0.14   0.09     0.21   0.40  -0.03
    32   1     0.00  -0.01   0.02    -0.21  -0.23   0.16     0.17   0.28  -0.05
    33   1    -0.01   0.01  -0.01    -0.24  -0.10   0.04     0.25   0.15  -0.26
    34   8     0.00   0.00  -0.01    -0.06   0.03  -0.05    -0.04  -0.07   0.08
    35   8     0.00   0.00   0.00    -0.19  -0.22   0.15    -0.10  -0.03   0.16
                      4                      5                      6
                      A                      A                      A
 Frequencies --     43.2364                70.0977                74.8039
 Red. masses --      4.6674                 1.0955                 3.6408
 Frc consts  --      0.0051                 0.0032                 0.0120
 IR Inten    --      9.3008                 0.6523                 2.2994
  Atom  AN      X      Y      Z        X      Y      Z        X      Y      Z
     1   6    -0.01   0.00  -0.05    -0.01   0.00   0.01     0.01   0.00  -0.05
     2   6    -0.05   0.04  -0.02    -0.01   0.00   0.01     0.02  -0.01  -0.02
     3   6    -0.03   0.06   0.06     0.00   0.01   0.01     0.01  -0.02  -0.01
     4   6     0.03   0.03   0.10     0.00   0.01   0.01     0.01  -0.03   0.02
     5   1    -0.11   0.04  -0.04    -0.01   0.01   0.00     0.01  -0.02  -0.02
     6   1    -0.05   0.11   0.07    -0.01   0.01   0.02     0.02   0.01  -0.04
     7   6     0.10  -0.05   0.04     0.02   0.01  -0.03     0.03  -0.03  -0.02
     8   1     0.12  -0.07  -0.06    -0.12  -0.19   0.48    -0.04  -0.13   0.23
     9   1     0.18  -0.10   0.09    -0.34   0.37  -0.30    -0.15   0.14  -0.15
    10   1     0.06  -0.01   0.09     0.51  -0.14  -0.27     0.27  -0.09  -0.13
    11   7     0.05  -0.01   0.03     0.00  -0.01   0.02     0.01  -0.03   0.00
    12   8     0.06   0.03   0.19     0.00   0.01   0.00     0.01  -0.05   0.06
    13   8    -0.02  -0.01  -0.14     0.00   0.01   0.01     0.01   0.03  -0.09
    14   6    -0.01   0.03   0.00    -0.01   0.00   0.00     0.06  -0.01  -0.03
    15   1     0.00   0.03   0.00    -0.02   0.00  -0.01     0.15  -0.01  -0.02
    16   6    -0.01   0.02   0.01    -0.01   0.00   0.01     0.03  -0.06  -0.12
    17   1    -0.01   0.01   0.01    -0.01   0.01   0.02     0.06  -0.08  -0.18
    18   6    -0.01   0.04  -0.01     0.00  -0.01  -0.02     0.01   0.05   0.07
    19   1    -0.01   0.04  -0.02     0.01  -0.01  -0.01    -0.10   0.07   0.05
    20   6    -0.01   0.05  -0.02    -0.01  -0.01  -0.04     0.08   0.12   0.24
    21   1    -0.02   0.04  -0.04    -0.01  -0.01  -0.04     0.07   0.14   0.26
    22   1    -0.01   0.03  -0.01    -0.03   0.00  -0.05     0.21   0.06   0.29
    23   1     0.00   0.07  -0.02     0.00  -0.03  -0.06     0.02   0.21   0.32
    24   6    -0.03   0.01   0.02     0.00   0.00   0.02    -0.02  -0.07  -0.10
    25   1    -0.04   0.01   0.03     0.00   0.01   0.01    -0.05  -0.09  -0.06
    26   6    -0.03   0.00   0.00     0.00   0.00   0.01    -0.02  -0.08  -0.07
    27   1    -0.01   0.07   0.03    -0.01   0.01   0.01     0.01  -0.11  -0.06
    28   1    -0.04   0.00  -0.09     0.00   0.00   0.01    -0.02  -0.08  -0.03
    29   6    -0.01  -0.06  -0.04     0.01  -0.01   0.00    -0.06   0.04   0.02
    30   6     0.08   0.16  -0.26    -0.01  -0.01  -0.01     0.04   0.05   0.08
    31   1     0.07   0.38  -0.20    -0.02   0.00  -0.01     0.10   0.04   0.07
    32   1     0.09   0.18  -0.30     0.00  -0.01  -0.03     0.02   0.09   0.15
    33   1     0.14   0.10  -0.46    -0.01  -0.01  -0.01     0.06   0.03   0.04
    34   8    -0.05  -0.10   0.06     0.01   0.00   0.01    -0.07  -0.03  -0.05
    35   8    -0.05  -0.21   0.06     0.02  -0.02  -0.01    -0.14   0.11   0.04
                      7                      8                      9
                      A                      A                      A
 Frequencies --     92.7598               124.2522               146.2740
 Red. masses --      3.5491                 6.7932                 5.7141
 Frc consts  --      0.0180                 0.0618                 0.0720
 IR Inten    --      3.7408                 0.1383                 1.0035
  Atom  AN      X      Y      Z        X      Y      Z        X      Y      Z
     1   6    -0.04  -0.04  -0.06    -0.08   0.02  -0.02    -0.10  -0.03   0.00
     2   6    -0.03  -0.01  -0.10    -0.08   0.06  -0.04    -0.14   0.08  -0.04
     3   6    -0.04  -0.02  -0.09    -0.09   0.00   0.06    -0.13   0.08   0.05
     4   6    -0.04  -0.03  -0.06    -0.07   0.02   0.07    -0.04   0.13  -0.02
     5   1    -0.04  -0.02  -0.09    -0.09   0.01   0.00    -0.19   0.05  -0.03
     6   1    -0.04  -0.02  -0.08    -0.08   0.05   0.04    -0.12   0.17   0.02
     7   6    -0.05  -0.22   0.25    -0.07   0.04  -0.03     0.06  -0.03   0.01
     8   1    -0.10  -0.33   0.40    -0.07   0.04   0.00     0.05  -0.11  -0.04
     9   1    -0.19  -0.30   0.20    -0.08   0.10  -0.04     0.12  -0.02   0.04
    10   1     0.14  -0.13   0.36    -0.04   0.01  -0.07     0.10  -0.01   0.04
    11   7    -0.04  -0.09   0.02    -0.08   0.02   0.02    -0.04   0.03   0.00
    12   8    -0.03  -0.02  -0.08    -0.07   0.00   0.11     0.02   0.22  -0.11
    13   8    -0.04  -0.02  -0.06    -0.08   0.03  -0.02    -0.10  -0.14   0.07
    14   6     0.04   0.06   0.07    -0.01  -0.09   0.02    -0.01  -0.03  -0.13
    15   1     0.04   0.02   0.14    -0.06  -0.10   0.05     0.00  -0.01  -0.16
    16   6     0.04   0.06   0.07     0.02   0.01  -0.04     0.01   0.01  -0.16
    17   1     0.03   0.02   0.14    -0.01   0.06  -0.06    -0.01   0.07  -0.19
    18   6     0.04   0.08  -0.01     0.02  -0.18   0.08    -0.02  -0.06   0.02
    19   1     0.04   0.12  -0.05     0.03  -0.11   0.00    -0.09  -0.05   0.00
    20   6     0.04   0.08   0.00     0.01  -0.19   0.09     0.02  -0.03   0.16
    21   1     0.01   0.06  -0.09    -0.07  -0.23  -0.15    -0.03  -0.05   0.02
    22   1     0.03   0.01   0.08    -0.01  -0.36   0.29     0.10  -0.20   0.33
    23   1     0.07   0.17   0.02     0.13   0.06   0.15     0.03   0.21   0.26
    24   6     0.04   0.08  -0.01     0.11   0.05  -0.10     0.07   0.02  -0.10
    25   1     0.05   0.12  -0.05     0.09  -0.02  -0.03     0.08  -0.06  -0.04
    26   6     0.03   0.07  -0.01     0.11   0.07  -0.09     0.07  -0.02   0.04
    27   1     0.04   0.06   0.00     0.03  -0.10  -0.19     0.19   0.02   0.11
    28   1     0.01   0.07  -0.02     0.11   0.07   0.09     0.01  -0.02  -0.04
    29   6     0.02   0.01   0.01     0.07   0.02  -0.02     0.07  -0.05   0.04
    30   6     0.00   0.00   0.01     0.10   0.02   0.00     0.06  -0.05   0.02
    31   1     0.02   0.01   0.01     0.18   0.03   0.01     0.20   0.04   0.05
    32   1    -0.01  -0.03   0.01     0.07  -0.02   0.08     0.01  -0.15   0.11
    33   1    -0.02   0.02  -0.01     0.08   0.03  -0.05    -0.03   0.00  -0.12
    34   8     0.04   0.04   0.00     0.21   0.24  -0.24    -0.01  -0.15   0.16
    35   8     0.03  -0.01   0.01    -0.05  -0.15   0.15     0.14   0.03  -0.05
                     10                     11                     12
                      A                      A                      A
 Frequencies --    158.1212               163.4808               171.9266
 Red. masses --      3.6105                 2.1110                 3.2089
 Frc consts  --      0.0532                 0.0332                 0.0559
 IR Inten    --      7.9887                 0.4134                 9.6637
  Atom  AN      X      Y      Z        X      Y      Z        X      Y      Z
     1   6     0.03   0.06  -0.05     0.02   0.03  -0.01     0.00   0.02   0.03
     2   6     0.06  -0.01   0.02     0.04   0.02   0.00     0.00   0.00   0.07
     3   6     0.05  -0.03   0.00     0.02  -0.01   0.01     0.00   0.00   0.08
     4   6     0.01  -0.03  -0.01     0.01   0.00   0.01     0.02   0.03   0.02
     5   1     0.08   0.01   0.01     0.04   0.01   0.01    -0.02   0.01   0.06
     6   1     0.06  -0.05  -0.01     0.04   0.00  -0.03     0.01   0.02   0.06
     7   6    -0.06   0.00   0.08    -0.02   0.02   0.02     0.03   0.00   0.05
     8   1    -0.06   0.01   0.14    -0.03   0.04   0.05     0.05   0.03  -0.01
     9   1    -0.12  -0.04   0.05    -0.05   0.02   0.01     0.10   0.04   0.08
    10   1    -0.03   0.02   0.11    -0.02   0.02   0.02    -0.03  -0.03   0.01
    11   7     0.00   0.01   0.00     0.00   0.02   0.00     0.01  -0.04   0.15
    12   8    -0.02  -0.05  -0.02    -0.01  -0.03   0.04     0.05   0.14  -0.19
    13   8     0.03   0.18  -0.19     0.02   0.07  -0.04    -0.01   0.10  -0.14
    14   6    -0.09  -0.02  -0.08     0.01  -0.02   0.08     0.01  -0.05   0.04
    15   1    -0.11   0.00  -0.14    -0.03  -0.05   0.15     0.01  -0.05   0.05
    16   6    -0.07   0.03  -0.08     0.02   0.03   0.04     0.00  -0.05   0.03
    17   1    -0.09   0.10  -0.12     0.02   0.01   0.08     0.01  -0.07   0.02
    18   6    -0.08  -0.06   0.02     0.04  -0.06   0.03     0.02  -0.05   0.03
    19   1    -0.11  -0.08   0.04     0.10  -0.02  -0.02     0.03  -0.05   0.03
    20   6    -0.07  -0.11   0.14     0.00  -0.12  -0.03     0.01  -0.04  -0.04
    21   1     0.09  -0.07   0.50    -0.08  -0.21  -0.38    -0.09  -0.06  -0.28
    22   1     0.01   0.10  -0.10    -0.11  -0.34   0.21    -0.05  -0.17   0.12
    23   1    -0.33  -0.42   0.13     0.18   0.16   0.00     0.17   0.17  -0.03
    24   6     0.01   0.01   0.01     0.02   0.06  -0.07    -0.02  -0.05   0.02
    25   1     0.04  -0.06   0.03     0.00   0.08  -0.05    -0.04  -0.05   0.03
    26   6     0.04   0.07   0.04     0.00   0.03  -0.06    -0.02  -0.05  -0.02
    27   1     0.07   0.14   0.08     0.08   0.11   0.00    -0.06  -0.03  -0.03
    28   1     0.07   0.07  -0.03    -0.03   0.03  -0.18     0.00  -0.05  -0.02
    29   6     0.04  -0.01   0.03    -0.04  -0.01   0.00    -0.02   0.00  -0.02
    30   6    -0.02  -0.01  -0.01    -0.02  -0.01   0.01     0.02   0.01   0.00
    31   1    -0.08  -0.02  -0.01     0.30   0.16   0.05    -0.36  -0.22  -0.05
    32   1     0.00  -0.01  -0.07    -0.14  -0.23   0.23     0.16   0.31  -0.24
    33   1    -0.02  -0.01   0.03    -0.21   0.09  -0.29     0.26  -0.13   0.37
    34   8     0.02   0.00   0.10    -0.08  -0.09   0.04    -0.02  -0.02  -0.04
    35   8     0.11  -0.03  -0.01    -0.02   0.08  -0.05    -0.06   0.01   0.01
                     13                     14                     15
                      A                      A                      A
 Frequencies --    175.9343               183.7134               194.2644
 Red. masses --      1.3659                 2.2278                 2.7689
 Frc consts  --      0.0249                 0.0443                 0.0616
 IR Inten    --      4.6839                 3.1933                 3.4214
  Atom  AN      X      Y      Z        X      Y      Z        X      Y      Z
     1   6    -0.01   0.00   0.01     0.01  -0.03   0.04    -0.04  -0.05   0.03
     2   6    -0.02   0.00   0.02     0.03  -0.03   0.00    -0.03   0.03  -0.08
     3   6    -0.01   0.01   0.02     0.03  -0.02  -0.03    -0.03   0.01  -0.05
     4   6     0.00   0.01   0.01     0.01  -0.07   0.03    -0.02  -0.04   0.06
     5   1    -0.02  -0.01   0.02     0.05   0.01  -0.03    -0.02   0.02  -0.06
     6   1    -0.02   0.01   0.03     0.02  -0.03  -0.02    -0.03   0.05  -0.07
     7   6     0.02  -0.01   0.01    -0.02   0.02  -0.06    -0.03   0.02  -0.10
     8   1     0.03   0.00  -0.02     0.01   0.11  -0.13     0.02   0.12  -0.20
     9   1     0.06   0.01   0.02     0.06   0.11  -0.04     0.10   0.17  -0.07
    10   1     0.00  -0.02   0.00    -0.15  -0.08  -0.18    -0.18  -0.11  -0.26
    11   7     0.00  -0.02   0.05     0.00  -0.11   0.15    -0.04  -0.14   0.20
    12   8     0.02   0.05  -0.07     0.01  -0.04  -0.03     0.00  -0.02   0.03
    13   8    -0.01   0.02  -0.04     0.01   0.02  -0.02    -0.04  -0.02   0.00
    14   6     0.01  -0.01   0.02    -0.03   0.02  -0.08     0.04   0.03   0.03
    15   1     0.02   0.00   0.00    -0.02   0.04  -0.11     0.02   0.02   0.05
    16   6     0.00  -0.03   0.03    -0.04   0.01  -0.05     0.04   0.06   0.00
    17   1     0.01  -0.03   0.02    -0.04   0.04  -0.08     0.05   0.05   0.02
    18   6     0.00  -0.01   0.02    -0.05   0.05  -0.06     0.06   0.00   0.03
    19   1     0.00  -0.02   0.04    -0.09   0.03  -0.04     0.07   0.02   0.01
    20   6     0.00   0.01  -0.02    -0.02   0.09   0.02     0.04  -0.01  -0.01
    21   1     0.07   0.08   0.23    -0.15   0.02  -0.35     0.15   0.05   0.32
    22   1     0.02   0.21  -0.24     0.00  -0.20   0.33     0.05   0.24  -0.28
    23   1    -0.10  -0.25  -0.09     0.14   0.50   0.12    -0.11  -0.36  -0.09
    24   6    -0.01  -0.03   0.03    -0.02  -0.02   0.04     0.04   0.08  -0.07
    25   1    -0.02  -0.02   0.02     0.01  -0.05   0.03     0.04   0.10  -0.08
    26   6    -0.02  -0.04   0.01     0.01   0.03   0.05     0.04   0.08  -0.08
    27   1    -0.05  -0.11  -0.03    -0.01   0.01   0.04     0.10   0.21  -0.01
    28   1    -0.03  -0.04   0.07     0.03   0.03   0.08     0.04   0.08  -0.22
    29   6     0.00  -0.01   0.00     0.02   0.01   0.02    -0.01   0.00   0.00
    30   6     0.01   0.00   0.01    -0.04   0.01  -0.02     0.00   0.00   0.01
    31   1     0.44   0.23   0.06     0.14   0.13   0.01    -0.13  -0.09  -0.01
    32   1    -0.14  -0.30   0.30    -0.11  -0.16   0.08     0.05   0.09  -0.07
    33   1    -0.23   0.12  -0.41    -0.17   0.08  -0.20     0.07  -0.04   0.14
    34   8     0.02   0.02  -0.05     0.03   0.07   0.03    -0.03  -0.05   0.03
    35   8    -0.02   0.01   0.00     0.06  -0.03   0.01     0.00   0.03  -0.02
                     16                     17                     18
                      A                      A                      A
 Frequencies --    230.1771               263.5111               286.2994
 Red. masses --      3.8641                 2.4534                 3.3198
 Frc consts  --      0.1206                 0.1004                 0.1603
 IR Inten    --      2.5280                 7.5875                 6.7125
  Atom  AN      X      Y      Z        X      Y      Z        X      Y      Z
     1   6    -0.01  -0.01  -0.01     0.02   0.01  -0.01    -0.04   0.03   0.02
     2   6     0.00  -0.01   0.01     0.01   0.03  -0.07     0.02   0.00   0.01
     3   6    -0.02  -0.03   0.06     0.01   0.04  -0.06     0.01  -0.01  -0.01
     4   6    -0.01  -0.01   0.01     0.00   0.01  -0.01    -0.06   0.00   0.00
     5   1    -0.02  -0.01   0.02     0.02   0.10  -0.13     0.05  -0.01   0.03
     6   1     0.00  -0.01   0.03     0.01   0.06  -0.06     0.03  -0.02  -0.03
     7   6     0.01  -0.02   0.00     0.00   0.01  -0.01     0.29  -0.12  -0.05
     8   1     0.01  -0.04   0.00     0.01   0.04  -0.03     0.27  -0.38  -0.28
     9   1     0.02  -0.02   0.00     0.02   0.04  -0.01     0.56  -0.03   0.07
    10   1     0.03  -0.01   0.01    -0.03  -0.02  -0.05     0.40  -0.08  -0.02
    11   7    -0.01   0.00  -0.01     0.00  -0.03   0.05    -0.05   0.03   0.02
    12   8    -0.02   0.00  -0.03     0.01   0.01  -0.01    -0.18  -0.10  -0.05
    13   8    -0.01  -0.02  -0.01     0.02   0.01   0.01    -0.03   0.13   0.07
    14   6     0.12   0.03  -0.06     0.00   0.09  -0.01    -0.02   0.01   0.00
    15   1     0.10   0.05  -0.12    -0.02   0.03   0.10    -0.03   0.02  -0.02
    16   6     0.11   0.03  -0.07     0.02   0.06   0.05    -0.01   0.04  -0.02
    17   1     0.14   0.02  -0.13     0.00   0.01   0.18    -0.01   0.05  -0.04
    18   6     0.16  -0.06   0.02     0.01   0.10  -0.12    -0.01  -0.01   0.04
    19   1     0.19  -0.07   0.04     0.06   0.13  -0.16     0.00  -0.02   0.05
    20   6     0.15  -0.11   0.01    -0.05  -0.14   0.08    -0.02   0.01  -0.01
    21   1     0.17  -0.12   0.04     0.15  -0.31   0.09    -0.05   0.02  -0.04
    22   1     0.12  -0.09  -0.01    -0.10  -0.22   0.16    -0.04   0.01  -0.02
    23   1     0.12  -0.15   0.00    -0.26  -0.13   0.19     0.04   0.01  -0.04
    24   6     0.03   0.02  -0.02     0.00   0.07   0.00     0.00   0.04  -0.02
    25   1     0.00   0.00   0.02    -0.01   0.13  -0.03     0.00   0.03  -0.01
    26   6    -0.04  -0.04   0.12    -0.08  -0.13   0.09    -0.01   0.00   0.01
    27   1     0.01  -0.24   0.08    -0.08  -0.42   0.00     0.01  -0.04   0.00
    28   1    -0.08  -0.03   0.32    -0.24  -0.11   0.33    -0.05   0.00   0.03
    29   6    -0.09   0.06   0.01     0.01  -0.02  -0.01     0.01  -0.01   0.00
    30   6    -0.26   0.08  -0.10     0.07  -0.01   0.01     0.02  -0.01   0.01
    31   1    -0.34   0.13  -0.08     0.05  -0.04   0.00     0.02  -0.01   0.00
    32   1    -0.24  -0.01  -0.22     0.08   0.05   0.02     0.02   0.01   0.01
    33   1    -0.30   0.11  -0.08     0.11  -0.04   0.03     0.03  -0.01   0.01
    34   8    -0.07   0.13   0.07     0.01  -0.03  -0.04     0.00  -0.01   0.00
    35   8    -0.01  -0.02  -0.01    -0.03   0.00   0.00     0.00   0.00   0.00
                     19                     20                     21
                      A                      A                      A
 Frequencies --    291.0076               314.8300               366.6009
 Red. masses --      3.2218                 2.6600                 3.0903
 Frc consts  --      0.1608                 0.1553                 0.2447
[...]
 02822,-0.00001752,-0.00003630,-0.00002206,-0.00002891,0.00004560,-0.00
 000912,-0.00000212,-0.00000328,0.00001365,-0.00002590,0.00000894,0.000
 00621,0.00000717,0.00012653,0.00007080,0.00001805,0.00001929,-0.000026
 79,0.00000235,-0.00000098,-0.00000841,0.00001468,-0.00000239,0.0000047
 9,-0.00000275,0.00000579,-0.00000354,-0.00000474,0.00000255,0.00000033
 ,0.00000260,0.00000111,0.00000193,0.00000168,0.00000513,0.00000425,0.0
 0000046,-0.00021294,0.00006499,-0.00017422,0.00003105,0.00002912,-0.00
 002429,0.00007106,0.00056608,0.00014611,0.00093470,0.00035462,0.000085
 20,0.00022044,0.00052705,0.00020708,-0.02663560,-0.03661698,-0.1187549
 0,-0.04482857,-0.03174227,0.53643091,-0.00008121,0.00003834,0.00002190
 ,0.00006104,-0.00001673,0.00000116,-0.00001719,-0.00000112,-0.00004545
 ,-0.00006309,0.00009679,0.00003778,0.00000971,-0.00000331,0.00000040,0
 .00000237,0.00000104,-0.00000730,-0.00000713,0.00001623,0.00000843,0.0
 0000242,-0.00000151,-0.00000047,0.00000095,-0.00000325,-0.00000199,0.0
 0000121,-0.00000556,-0.00000105,0.00004564,-0.00000152,-0.00002418,0.0
 0001701,-0.00006188,0.00001191,0.00007545,-0.00000844,-0.00000214,-0.0
 0001178,0.00001837,-0.00001933,0.00001327,0.00001210,0.00000632,0.0001
 5418,0.00003225,0.00004815,0.00000520,0.00000500,0.00001754,0.00000042
 ,-0.00002193,0.00003957,-0.00000293,0.00000560,-0.00000343,0.00000995,
 0.00000318,-0.00002452,0.00000319,-0.00000034,0.00000551,0.00000231,0.
 00000347,0.00000359,0.00001282,0.00000863,0.00000440,-0.00025828,0.000
 01779,0.00018382,0.00002278,0.00000362,-0.00000428,-0.00102754,-0.0005
 7798,-0.00161372,-0.00108494,-0.00100535,0.00032918,-0.00030339,0.0002
 3787,-0.00017798,-0.00086124,0.00898577,-0.01018589,-0.04682277,-0.005
 62689,0.00212060,0.04670824,-0.00000743,0.00000516,0.00000547,0.000011
 20,0.00000012,-0.00000086,0.00000056,-0.00000070,-0.00001269,0.0000036
 6,0.00001752,0.00001187,0.00000216,-0.00000158,0.00000112,-0.00000538,
 0.00000495,-0.00000500,-0.00000125,0.00000244,0.00000166,0.00000037,-0
 .00000033,-0.00000012,0.00000043,-0.00000042,-0.00000033,0.,-0.0000007
 8,-0.00000019,0.00000767,0.00000134,-0.00000414,-0.00000068,-0.0000012
 1,-0.00001322,0.00001087,-0.00000126,-0.00000171,0.00000410,-0.0000163
 4,-0.00001127,-0.00000461,-0.00000182,0.00000089,-0.00002835,0.0000263
 4,0.00000454,0.00001614,0.00000171,0.00000726,0.00000035,-0.00000561,0
 .00000353,0.00000112,0.00000137,-0.00000150,0.00000213,0.00000068,-0.0
 0000364,0.00000041,0.00000020,0.00000118,0.00000042,0.00000022,0.00000
 078,0.00000222,0.00000133,0.00000120,-0.00004392,-0.00020243,0.0000110
 0,0.00000461,0.00000788,0.00000183,-0.00132066,0.00024022,-0.00060594,
 -0.00068422,-0.00021490,0.00014003,-0.00003417,-0.00035930,0.00035737,
 0.00170489,0.01159290,-0.02606518,-0.00505439,-0.06255807,0.07116612,0
 .00418713,0.06795283,-0.00003283,0.00002216,0.00001713,0.00002778,-0.0
 0001801,0.00000443,0.00001554,0.00001516,-0.00003963,-0.00001921,0.000
 04623,0.00002175,0.00000551,-0.00000069,-0.00000030,-0.00000391,0.0000
 0546,-0.00000888,-0.00000349,0.00000737,0.00000394,0.00000114,-0.00000
 067,-0.00000030,0.00000032,-0.00000148,-0.00000095,0.00000062,-0.00000
 234,-0.00000069,0.00001463,-0.00000535,-0.00000946,0.00000430,-0.00003
 525,-0.00000269,0.00003272,-0.00000509,-0.00000368,-0.00000823,0.00002
 175,-0.00001594,0.00000818,0.00000643,0.00000299,0.00011181,-0.0000081
 4,0.00000137,-0.00000734,0.00000696,0.00000976,-0.00000049,-0.00000953
 ,0.00001903,-0.00000074,0.00000172,-0.00000195,0.00000306,0.00000232,-
 0.00001292,0.00000148,-0.00000039,0.00000267,0.00000078,0.00000195,0.0
 0000173,0.00000674,0.00000466,0.00000214,-0.00002673,0.00008174,0.0003
 3860,-0.00000747,-0.00000480,-0.00001595,0.00051797,0.00034351,0.00056
 167,-0.00002496,-0.00009906,0.00040966,-0.00011887,0.00022201,-0.00021
 210,0.00257437,0.00621026,-0.01746173,0.00106354,0.07281271,-0.2971234
 6,-0.00283637,-0.07717314,0.32053153,0.00007570,-0.00003358,-0.0000176
 1,-0.00004775,0.00002969,0.00000533,0.00003072,-0.00000120,0.00002520,
 0.00007310,-0.00004277,-0.00001222,-0.00000678,-0.00000016,0.00000120,
 0.00002195,-0.00000636,0.00003224,0.00000654,-0.00001663,-0.00000873,-
 0.00000244,0.00000163,0.00000056,-0.00000003,0.00000325,0.00000162,-0.
 00000120,0.00000546,0.00000102,-0.00004576,0.00000236,0.00002009,-0.00
 005299,0.00003796,-0.00001864,-0.00006735,0.00000784,-0.00000005,0.000
 00689,-0.00000020,0.00002188,-0.00001320,-0.00001065,-0.00000507,-0.00
 012078,-0.00003997,-0.00003960,-0.00000096,0.00004290,0.00001099,-0.00
 000048,0.00000729,-0.00002394,0.00000315,-0.00000511,0.00000100,-0.000
 00613,0.00000282,0.00001430,-0.00000314,-0.00000002,-0.00000395,-0.000
 00124,-0.00000305,-0.00000262,-0.00000888,-0.00000611,-0.00000165,0.00
 018526,-0.00002878,0.00009109,-0.00004729,-0.00002083,0.00000143,0.000
 62417,-0.00002902,-0.00100941,0.00000872,0.00003090,0.00007052,0.00023
 953,-0.00009766,0.00000052,-0.01154407,0.00027305,0.00531181,-0.295688
 18,-0.05677763,0.07383498,0.00295285,0.00084291,-0.00070481,0.31547579
 ,0.00004143,-0.00003887,-0.00002591,-0.00004384,0.00002721,0.00000995,
 0.00001288,-0.00000331,0.00002148,-0.00001651,-0.00008121,-0.00003391,
 -0.00000364,0.00000070,0.00000041,0.00003693,-0.00002009,0.00004025,0.
 00000305,-0.00000740,-0.00000414,-0.00000131,0.00000091,0.00000037,-0.
 00000033,0.00000185,0.00000132,-0.00000112,0.00000283,0.00000071,-0.00
 000344,0.00002125,0.00001827,0.00003818,0.00004864,0.00001461,-0.00003
 833,0.00000906,0.00000416,-0.00000605,0.00002960,0.00005223,0.00000053
 ,-0.00000356,-0.00000117,0.00004104,-0.00002819,-0.00002530,-0.0000055
 6,0.00005619,0.00000080,-0.00000702,0.00000909,-0.00002089,0.00000110,
 -0.00000625,0.00000286,-0.00000337,0.00000326,0.00000703,-0.00000267,-
 0.00000018,-0.00000277,-0.00000102,-0.00000211,-0.00000193,-0.00000522
 ,-0.00000396,-0.00000107,-0.00009688,0.00033069,0.00005603,-0.00005898
 ,-0.00004207,0.00000802,0.00177101,-0.00063679,-0.00118865,0.00006027,
 0.00003343,0.00000469,-0.00019611,0.00031748,0.00007757,-0.02429327,-0
 .00642739,0.00896569,-0.05194762,-0.05807615,0.01570598,-0.00758302,-0
 .00258224,0.00170576,0.06108139,0.06175916,0.00000184,-0.00000267,-0.0
 0000149,0.00000266,0.00001016,0.00000572,0.00001206,0.00000437,-0.0000
 1905,-0.00000612,0.00000816,0.00000805,0.00000152,-0.00000151,0.000000
 80,0.00001736,-0.00000662,0.00001830,-0.00000026,-0.00000042,-0.000000
 34,-0.00000011,0.00000021,0.00000006,-0.00000007,0.00000012,0.00000012
 ,-0.00000007,0.00000009,0.00000007,0.00000073,0.00000395,0.00000264,-0
 .00000779,-0.00000687,0.00000051,0.00000091,0.00000120,-0.00000080,-0.
 00001511,0.00003235,-0.00000006,0.00000400,0.00000178,-0.00000012,0.00
 007252,-0.00004381,0.00000322,-0.00000485,0.00003953,0.00002538,-0.000
 00398,-0.00000882,0.00000737,-0.00000061,-0.00000059,-0.00000169,0.000
 00130,0.00000249,-0.00000485,-0.00000012,-0.00000009,0.00000064,0.0000
 0022,0.00000028,0.00000030,0.00000179,0.00000150,0.00000108,-0.0000937
 1,0.00012545,0.00028613,-0.00003357,-0.00001970,-0.00000751,0.00117827
 ,-0.00016704,-0.00122309,-0.00004206,-0.00028000,0.00033086,0.00003070
 ,0.00034628,-0.00015436,-0.02027444,-0.00334434,0.00433736,0.07911566,
 0.01829758,-0.07115835,0.02842075,0.00517019,-0.00558281,-0.08131635,-
 0.01503369,0.07309628,-0.00005020,-0.00001643,-0.00001745,0.00001503,-
 0.00000044,0.00000113,-0.00000558,0.00001292,0.00001160,-0.00011687,-0
 .00008198,-0.00004059,0.00000418,0.00000084,0.00000085,0.00002552,-0.0
 0000325,0.00000286,-0.00000506,0.00001474,0.00000724,0.00000183,-0.000
 00113,-0.00000016,-0.00000010,-0.00000222,-0.00000025,-0.00000006,-0.0
 0000417,-0.00000052,0.00007674,0.00003568,-0.00000114,0.00021627,0.000
 00540,0.00006450,0.00004473,0.00000435,0.00000761,0.00000735,0.0000079
 5,-0.00001132,0.00000358,0.00000332,0.00000162,0.00002014,0.00001187,0
 .00002203,0.00000302,-0.00000229,0.00000432,-0.00000341,-0.00000349,0.
 00001042,-0.00000085,-0.00000050,0.00000127,0.00000366,0.00000090,-0.0
 0000766,0.00000045,-0.00000010,0.00000184,0.00000031,0.00000150,0.0000
 0092,0.00000395,0.00000309,0.00000114,-0.00004894,-0.00003118,0.000083
 78,0.00000139,-0.00000368,0.00000259,-0.00068302,-0.00210025,-0.000316
 54,0.00005426,0.00031491,0.00007086,-0.00138902,-0.00063752,0.00033092
 ,0.00940248,-0.01065014,0.00682976,-0.13345591,0.12340010,-0.01611502,
 -0.00021845,-0.00092836,0.00044002,-0.01370018,0.02425766,-0.00406901,
 0.14181021,-0.00006279,0.00000720,0.00000088,0.00003146,-0.00001090,0.
 00000353,-0.00001348,0.00000617,-0.00001843,-0.00012890,-0.00002368,-0
 .00001252,0.00000652,0.00000010,-0.00000078,0.00001024,-0.00000777,0.0
 0000209,-0.00000737,0.00001523,0.00000891,0.00000196,-0.00000115,-0.00
 000022,-0.00000023,-0.00000268,-0.00000099,0.00000069,-0.00000485,-0.0
 0000095,0.00006302,0.00002131,-0.00000888,0.00014719,-0.00001670,0.000
 03626,0.00005635,-0.00000116,0.00000388,-0.00001372,0.00003170,0.00001
 796,0.00001692,0.00001155,0.00000568,0.00021539,0.00005188,0.00002745,
 -0.00000034,-0.00000005,-0.00001264,-0.00000252,-0.00000755,0.00001558
 ,-0.00000209,0.00000027,0.00000077,0.00000505,0.00000083,-0.00001486,0
 .00000180,-0.00000040,0.00000302,0.00000037,0.00000219,0.00000192,0.00
 000808,0.00000517,0.00000138,-0.00029800,0.00037107,0.00007271,-0.0000
 0902,-0.00002552,0.00000302,0.00034244,-0.00075903,0.00007955,0.000062
 90,0.00002213,0.00001505,-0.00109979,0.00032532,0.00038959,0.01615021,
 -0.01907833,0.00435887,0.12464030,-0.22764481,0.02096108,0.00441296,-0
 .00627776,0.00048376,-0.00441243,0.00781048,-0.00096246,-0.13583845,0.
 24399865,0.00003491,-0.00001900,-0.00001081,-0.00002555,0.00000641,0.0
 0000464,0.00002110,0.00001129,0.00001676,0.00002859,-0.00004089,-0.000
 01236,-0.00000331,0.00000104,-0.00000008,0.00001328,-0.00000100,0.0000
 0964,0.00000261,-0.00000672,-0.00000309,-0.00000092,0.00000069,0.00000
 017,-0.00000039,0.00000147,0.00000065,-0.00000052,0.00000242,0.0000004
 2,-0.00001391,0.00000356,0.00001269,0.00000603,0.00002678,-0.00002914,
 -0.00003046,0.00000443,0.00000028,0.00001546,-0.00002435,0.00000249,-0
 .00001020,-0.00000763,-0.00000250,-0.00008777,0.00000863,-0.00001892,0
 .00000845,-0.00000280,-0.00001313,-0.00000029,0.00000973,-0.00000798,0
 .00000282,-0.00000273,0.00000134,-0.00000227,-0.00000020,0.00000541,-0
 .00000143,0.00000020,-0.00000187,-0.00000108,-0.00000166,-0.00000126,-
 0.00000457,-0.00000330,-0.00000106,0.00009724,-0.00013617,-0.00004171,
 -0.00002046,-0.00000608,0.00000640,-0.00039122,0.00047597,0.00039711,-
 0.00023715,0.00012811,-0.00002871,0.00040901,0.00006328,0.00020170,0.0
 1453485,-0.01750904,0.00195475,-0.01425401,0.01898792,-0.04146039,-0.0
 1777356,0.02618977,-0.00163686,0.00435039,-0.00823752,0.00023868,0.016
 30074,-0.02079988,0.04613198,0.00262569,-0.00140521,-0.00068837,-0.001
 75007,0.00102245,0.00063386,0.00169686,0.00027249,0.00095122,0.0014878
 7,-0.00259157,-0.00059851,-0.00021334,-0.00001043,0.00004100,0.0006556
 0,-0.00015624,0.00123658,0.00019682,-0.00055538,-0.00030476,-0.0000850
 8,0.00005964,0.00002127,-0.00000487,0.00010947,0.00006525,-0.00004750,
 0.00018844,0.00004130,-0.00120330,0.00043612,0.00071129,-0.00065091,0.
 00167655,-0.00044711,-0.00232125,0.00034506,0.00001325,-0.00011531,0.0
 0077828,0.00066164,-0.00023791,-0.00035705,-0.00008271,-0.00042143,0.0
 0019643,-0.00051476,-0.00082772,-0.00007602,0.00049443,-0.00014257,0.0
 0049757,-0.00056097,0.00027261,-0.00041642,0.00001576,-0.00011167,-0.0
 0002656,0.00026349,-0.00010226,0.00000094,-0.00014018,-0.00011352,-0.0
 0012099,-0.00011253,-0.00027633,-0.00018466,-0.00004552,-0.03179096,0.
 01741071,0.03891478,-0.00722986,-0.00545190,-0.00042707,-0.08189738,0.
 01566015,0.03543313,0.00283469,-0.00257591,0.00574682,-0.00821616,0.00
 603335,0.01268689,-0.19840568,-0.10153093,-0.01448394,-0.01933448,-0.0
 1634609,0.00612765,-0.00062114,0.00088302,0.00046533,-0.00059013,-0.00
 415665,-0.00281780,-0.00211355,-0.00165468,-0.00020242,0.42788465,0.00
 056890,-0.00060082,-0.00039254,-0.00046481,0.00032060,-0.00004128,0.00
 027840,0.00014325,0.00028519,-0.00049316,-0.00139877,-0.00047748,-0.00
 005703,0.00000931,0.00002714,0.00027955,-0.00035376,0.00014772,0.00004
 812,-0.00007704,-0.00004222,-0.00001331,0.00000819,0.00000302,-0.00000
 547,0.00002498,0.00001586,-0.00001952,0.00003678,0.00001068,0.00010859
 ,0.00031334,0.00019390,0.00073764,0.00045382,0.00077568,-0.00044291,0.
 00012978,0.00006565,-0.00035303,0.00103861,0.00054117,0.00000579,-0.00
 005144,-0.00006067,-0.00100378,-0.00252325,0.00024971,-0.00180406,0.00
 009504,0.00101441,-0.00026329,-0.00003185,-0.00016260,0.00007351,-0.00
 014259,0.00002883,-0.00004219,0.00006319,0.00006136,-0.00005674,-0.000
 01048,-0.00004105,-0.00002716,-0.00003368,-0.00003423,-0.00008319,-0.0
 0004949,-0.00000649,-0.00448107,0.00943276,0.01235189,-0.00337941,-0.0
 0091238,-0.00072417,0.00421254,-0.09384162,-0.04118448,-0.00424625,0.0
 0435532,0.00167725,0.02000696,-0.00525255,-0.03192521,-0.06827855,-0.1
 2054665,-0.03617078,-0.03174397,-0.00039897,0.00026101,-0.00133522,-0.
 00092043,-0.00109152,-0.00214292,-0.00375071,-0.00480284,0.00191055,0.
 00151021,0.00151612,0.08275294,0.18698755,-0.00076578,0.00014746,0.000
 03796,0.00021403,0.00021275,0.00017176,-0.00064174,-0.00027239,-0.0006
 7077,-0.00092685,0.00042477,0.00023986,0.00009691,-0.00002404,-0.00001
 867,0.00013421,-0.00014784,0.00063650,-0.00008179,0.00013376,0.0000814
 5,0.00001580,-0.00000864,-0.00000202,0.00000154,-0.00002565,-0.0000131
 4,0.00001155,-0.00005097,-0.00001159,0.00045318,0.00020158,-0.00013359
 ,0.00056777,-0.00047716,0.00043663,0.00057822,-0.00001068,0.00003302,0
 .00002865,-0.00016799,-0.00021692,0.00011347,0.00013938,-0.00001003,-0
 .00003790,-0.00148075,0.00117887,-0.00020136,0.00003170,0.00009637,0.0
 0005657,-0.00014699,0.00019971,-0.00004713,0.00016449,-0.00004243,0.00
 007802,0.00003846,-0.00017270,0.00003430,0.00000524,0.00005689,0.00003
 174,0.00003715,0.00004149,0.00011734,0.00007406,0.00003521,0.01065142,
 0.00020037,-0.00515472,-0.00016879,0.00105210,0.00004056,0.02465026,-0
 .05012930,-0.13181590,0.02653414,-0.01591353,-0.03272755,0.00738192,-0
 .00653587,-0.00872615,0.02348624,-0.01378226,-0.08103111,-0.01029964,-
 0.00944817,0.01318301,0.00180572,0.00236573,0.00068319,-0.00072211,-0.
 00349520,-0.00096888,-0.00041324,-0.00153178,-0.00092629,-0.15547657,0
 .08969042,0.27155801,0.00100628,-0.00053391,-0.00025882,-0.00065251,0.
 00040076,0.00014058,0.00040957,0.00002697,0.00020873,0.00078964,-0.000
 95553,-0.00027126,-0.00009616,0.00000217,0.00001404,0.00040333,-0.0000
 8758,0.00047076,0.00008303,-0.00021204,-0.00011391,-0.00003215,0.00002
 209,0.00000779,-0.00000336,0.00004308,0.00002436,-0.00001824,0.0000731
 2,0.00001567,-0.00052397,0.00011750,0.00027879,-0.00039145,0.00069179,
 -0.00015764,-0.00090005,0.00012726,0.00000990,-0.00000282,0.00002779,0
 .00026505,-0.00013778,-0.00013824,-0.00006790,-0.00056788,0.00006772,-
 0.00060718,0.00021930,0.00036610,0.00003479,-0.00001013,0.00015222,-0.
 00025318,0.00005671,-0.00010366,0.00002729,-0.00007097,0.00000056,0.00
 018236,-0.00004023,0.00000136,-0.00005907,-0.00002638,-0.00004476,-0.0
 0004152,-0.00012881,-0.00008672,-0.00002696,0.00024225,0.00242477,0.00
 343178,-0.00144178,-0.00078978,-0.00020843,0.00476299,-0.00812658,-0.0
 0882804,-0.00216692,0.00056208,0.00295397,-0.00124975,0.00047353,0.001
 44129,-0.21207584,0.11325906,0.22175128,0.01315224,-0.00375070,0.00432
 489,0.00128005,0.00042705,-0.00150041,0.00224457,0.00112648,-0.0001762
 5,0.00009611,-0.00263006,-0.00276400,-0.07883037,0.00975357,0.07273990
 ,0.27462143,-0.00023061,0.00011496,0.00006172,0.00017703,-0.00008969,-
 0.00004495,-0.00008525,-0.00003048,-0.00002869,-0.00018247,0.00020190,
 0.00007902,0.00002197,-0.00000132,-0.00000097,-0.00011777,0.00003344,-
 0.00014589,-0.00001750,0.00004896,0.00002506,0.00000761,-0.00000558,-0
 .00000204,0.00000038,-0.00001033,-0.00000495,0.00000335,-0.00001701,-0
 .00000361,0.00013784,-0.00002202,-0.00006988,0.00010566,-0.00013325,0.
 00002621,0.00021590,-0.00002780,-0.00000144,-0.00003547,-0.00001586,-0
 .00009600,0.00003173,0.00003155,0.00001182,0.00028065,0.00006879,0.000
 10221,-0.00002345,-0.00018135,-0.00000599,0.00002091,-0.00004040,0.000
 07089,-0.00000404,0.00002009,-0.00000579,0.00001672,-0.00000748,-0.000
 04357,0.00000946,-0.00000055,0.00001316,0.00000374,0.00001013,0.000008
 51,0.00002855,0.00002016,0.00000555,-0.00049049,0.00002800,-0.00000790
 ,0.00009024,-0.00001989,-0.00003243,-0.00480451,0.00408790,-0.00042734
 ,0.00098436,-0.00046271,-0.00053913,-0.00046619,0.00033749,0.00057464,
 0.09726208,-0.18977715,-0.19755019,0.01066069,-0.00248733,-0.04140622,
 -0.00183211,-0.00671207,-0.00354646,0.00130563,0.00124867,0.00063578,0
 .00031977,-0.00032913,-0.00063884,0.00929307,0.02597376,0.00872982,-0.
 11268747,0.16814558,-0.00095657,0.00050360,0.00024299,0.00063389,-0.00
 039507,-0.00014045,-0.00036628,-0.00001986,-0.00024298,-0.00074335,0.0
 0085810,0.00023244,0.00008979,-0.00000093,-0.00001187,-0.00036083,0.00
 009846,-0.00050716,-0.00007513,0.00020093,0.00010662,0.00003071,-0.000
 02113,-0.00000726,0.00000290,-0.00004171,-0.00002243,0.00001624,-0.000
 06909,-0.00001515,0.00050478,-0.00011078,-0.00025892,0.00039405,-0.000
 61540,0.00015341,0.00085901,-0.00011967,-0.00000745,-0.00000937,-0.000
 04099,-0.00029674,0.00013106,0.00013341,0.00005915,0.00061834,0.000081
 22,0.00056986,-0.00013444,-0.00042563,-0.00004289,0.00002079,-0.000135
 93,0.00026060,-0.00005191,0.00008225,-0.00001981,0.00006609,-0.0000044
 7,-0.00017405,0.00003758,-0.00000275,0.00005412,0.00002278,0.00004196,
 0.00003725,0.00011926,0.00008076,0.00002495,-0.00019286,-0.00205614,-0
 .00256430,0.00118691,0.00068420,0.00001127,-0.00401915,0.00201025,0.01
 311262,0.00091011,-0.00000962,-0.00135868,0.00117860,-0.00003615,-0.00
 174706,0.20334187,-0.20845677,-0.44838974,0.02081516,-0.03141433,-0.02
 126019,-0.00034507,-0.00154260,-0.00048130,0.00009060,0.00137397,0.000
 75983,-0.00320513,-0.00312854,-0.00478890,0.07237828,0.00824056,-0.026
 06802,-0.29298865,0.23425790,0.49278020\\0.00000505,0.00000164,0.00000
 541,0.00000244,-0.00000511,-0.00000266,-0.00000096,-0.00000122,-0.0000
 0220,-0.00000199,-0.00001655,-0.00000881,0.00000019,-0.00000292,0.0000
 0023,0.00000467,-0.00000375,0.00000251,-0.00000734,-0.00000590,-0.0000
 0832,-0.00000111,0.00000053,-0.00000555,-0.00000038,0.00000127,-0.0000
 0506,-0.00000198,-0.00000323,-0.00000800,-0.00000556,-0.00000131,-0.00
 001635,0.00000530,0.00001098,0.00000749,-0.00000140,0.00000271,-0.0000
 0063,0.00000355,-0.00000203,0.00000482,0.00000228,-0.00000102,0.000007
 38,0.00000439,-0.00000007,0.00000545,0.00000069,0.00000071,0.00000397,
 0.,-0.00000040,0.00000588,0.00000088,-0.00000042,0.00000291,-0.0000005
 1,-0.00000285,0.00000575,0.00000120,-0.00000430,0.00000305,0.00000207,
 -0.00000444,0.00000669,0.00000153,0.00000017,0.00000545,-0.00000485,0.
 00000601,0.00001327,-0.00000112,0.00000262,0.00000013,-0.00000549,0.00
 000183,-0.00001275,-0.00000037,0.00000570,0.00000213,0.00000100,0.0000
 0970,-0.00000875,-0.00000347,-0.00000245,0.00000555,0.00000175,0.00000
 238,0.00000089,-0.00000316,0.00000301,-0.00000155,0.00000187,-0.000003
 86,-0.00000427,-0.00001487,0.00000147,-0.00000592,0.00001364,0.0000064
 2,0.00000869,0.00000206,0.00000465,-0.00000686\\\@


 IT WAS A GAME, A VERY INTERESTING GAME ONE COULD
 PLAY.  WHENEVER ONE SOLVED ONE OF THE LITTLE PROBLEMS,
 ONE COULD WRITE A PAPER ABOUT IT.  IT WAS VERY EASY IN
 THOSE DAYS FOR ANY SECOND-RATE PHYSICIST TO DO
 FIRST-RATE WORK.  THERE HAS NOT BEEN SUCH A GLORIOUS
 TIME SINCE.  IT IS VERY DIFFICULT NOW FOR A FIRST-RATE
 PHYSICIST TO DO SECOND-RATE WORK.
     P.A.M. DIRAC, ON THE EARLY DAYS OF QUANTUM MECHANICS
                   DIRECTIONS IN PHYSICS, 1978, P. 7
 Job cpu time:       0 days  2 hours 40 minutes 50.3 seconds.
 File lengths (MBytes):  RWF=    657 Int=      0 D2E=      0 Chk=     20 Scr=      1
 Normal termination of Gaussian 09 at Fri Aug 28 01:27:00 2020.
