 Entering Gaussian System, Link 0=g09
 Input=b3lyp_m062x_dmad_4H2O_cycloaddition_PM6_toluene_water_4.com
 Output=b3lyp_m062x_dmad_4H2O_cycloaddition_PM6_toluene_water_4.log
 Initial command:
 /apps/applications/gaussian/G09.D01/2/default/g09/l1.exe "/local/764990.1.40core-192G.q/Gau-392286.inp" -scrdir="/local/764990.1.40core-192G.q/"
 Entering Link 1 = /apps/applications/gaussian/G09.D01/2/default/g09/l1.exe PID=    392287.
  
 Copyright (c) 1988,1990,1992,1993,1995,1998,2003,2009,2013,
            Gaussian, Inc.  All Rights Reserved.
  
 This is part of the Gaussian(R) 09 program.  It is based on
 the Gaussian(R) 03 system (copyright 2003, Gaussian, Inc.),
 the Gaussian(R) 98 system (copyright 1998, Gaussian, Inc.),
 the Gaussian(R) 94 system (copyright 1995, Gaussian, Inc.),
 the Gaussian 92(TM) system (copyright 1992, Gaussian, Inc.),
 the Gaussian 90(TM) system (copyright 1990, Gaussian, Inc.),
 the Gaussian 88(TM) system (copyright 1988, Gaussian, Inc.),
 the Gaussian 86(TM) system (copyright 1986, Carnegie Mellon
 University), and the Gaussian 82(TM) system (copyright 1983,
 Carnegie Mellon University). Gaussian is a federally registered
 trademark of Gaussian, Inc.
  
 This software contains proprietary and confidential information,
 including trade secrets, belonging to Gaussian, Inc.
  
 This software is provided under written license and may be
 used, copied, transmitted, or stored only in accord with that
 written license.
  
 The following legend is applicable only to US Government
 contracts under FAR:
  
                    RESTRICTED RIGHTS LEGEND
  
 Use, reproduction and disclosure by the US Government is
 subject to restrictions as set forth in subparagraphs (a)
 and (c) of the Commercial Computer Software - Restricted
 Rights clause in FAR 52.227-19.
  
 Gaussian, Inc.
 340 Quinnipiac St., Bldg. 40, Wallingford CT 06492
  
  
 ---------------------------------------------------------------
 Warning -- This program may not be used in any manner that
 competes with the business of Gaussian, Inc. or will provide
 assistance to any competitor of Gaussian, Inc.  The licensee
 of this program is prohibited from giving any competitor of
 Gaussian, Inc. access to this program.  By using this program,
 the user acknowledges that Gaussian, Inc. is engaged in the
 business of creating and licensing software in the field of
 computational chemistry and represents and warrants to the
 licensee that it is not a competitor of Gaussian, Inc. and that
 it will not use this program in any manner prohibited above.
 ---------------------------------------------------------------
  

 Cite this work as:
 Gaussian 09, Revision D.01,
 M. J. Frisch, G. W. Trucks, H. B. Schlegel, G. E. Scuseria, 
 M. A. Robb, J. R. Cheeseman, G. Scalmani, V. Barone, B. Mennucci, 
 G. A. Petersson, H. Nakatsuji, M. Caricato, X. Li, H. P. Hratchian, 
 A. F. Izmaylov, J. Bloino, G. Zheng, J. L. Sonnenberg, M. Hada, 
 M. Ehara, K. Toyota, R. Fukuda, J. Hasegawa, M. Ishida, T. Nakajima, 
 Y. Honda, O. Kitao, H. Nakai, T. Vreven, J. A. Montgomery, Jr., 
 J. E. Peralta, F. Ogliaro, M. Bearpark, J. J. Heyd, E. Brothers, 
 K. N. Kudin, V. N. Staroverov, T. Keith, R. Kobayashi, J. Normand, 
 K. Raghavachari, A. Rendell, J. C. Burant, S. S. Iyengar, J. Tomasi, 
 M. Cossi, N. Rega, J. M. Millam, M. Klene, J. E. Knox, J. B. Cross, 
 V. Bakken, C. Adamo, J. Jaramillo, R. Gomperts, R. E. Stratmann, 
 O. Yazyev, A. J. Austin, R. Cammi, C. Pomelli, J. W. Ochterski, 
 R. L. Martin, K. Morokuma, V. G. Zakrzewski, G. A. Voth, 
 P. Salvador, J. J. Dannenberg, S. Dapprich, A. D. Daniels, 
 O. Farkas, J. B. Foresman, J. V. Ortiz, J. Cioslowski, 
 and D. J. Fox, Gaussian, Inc., Wallingford CT, 2013.
 
 ******************************************
 Gaussian 09:  ES64L-G09RevD.01 24-Apr-2013
                25-Sep-2020 
 ******************************************
 %nprocshared=4
 Will use up to    4 processors via shared memory.
 %chk=b3lyp_m062x_dmad_4H2O_cycloaddition_PM6_toluene_water_4.chk
 ----------------------------------------------------------------------
 # opt freq b3lyp/6-31+g(d,p) scrf=(cpcm,solvent=water) geom=connectivi
 ty empiricaldispersion=gd3
 ----------------------------------------------------------------------
 1/14=-1,18=20,19=15,26=3,38=1,57=2/1,3;
 2/9=110,12=2,17=6,18=5,40=1/2;
 3/5=1,6=6,7=111,11=2,16=1,25=1,30=1,70=2101,71=1,72=1,74=-5,124=31/1,2,3;
 4//1;
 5/5=2,38=5,53=1/2;
 6/7=2,8=2,9=2,10=2,28=1/1;
 7//1,2,3,16;
 1/14=-1,18=20,19=15,26=3/3(2);
 2/9=110/2;
 99//99;
 2/9=110/2;
 3/5=1,6=6,7=111,11=2,16=1,25=1,30=1,70=2105,71=1,72=1,74=-5,124=31/1,2,3;
 4/5=5,16=3,69=1/1;
 5/5=2,38=5,53=1/2;
 7//1,2,3,16;
 1/14=-1,18=20,19=15,26=3/3(-5);
 2/9=110/2;
 6/7=2,8=2,9=2,10=2,19=2,28=1/1;
 99/9=1/99;
 -------------------
 Title Card Required
 -------------------
 Symbolic Z-matrix:
 Charge =  0 Multiplicity = 1
 N                     0.24033   0.4487   -0.24057 
 N                    -0.40257  -0.53142   0.16421 
 C                     1.67525   0.20953  -0.29903 
 C                    -1.83559  -0.29741   0.23158 
 O                    -2.57473  -0.97083  -0.45424 
 O                     2.39905   0.78127   0.48773 
 O                    -2.13602   0.61794   1.12211 
 O                     1.98311  -0.57211  -1.30288 
 C                     3.39715  -0.90013  -1.46816 
 H                     3.43931  -1.49989  -2.37392 
 H                     3.97727   0.01695  -1.57748 
 H                     3.72165  -1.47309  -0.59919 
 C                    -3.55651   0.88282   1.34199 
 H                    -3.99896   1.26442   0.42135 
 H                    -4.05236  -0.03581   1.65836 
 H                    -3.58084   1.63227   2.12894 
 O                     5.27101   0.7025    0.93625 
 H                     4.30666   0.74964   0.81857 
 H                     5.46635   1.28554   1.68131 
 O                     1.69907  -2.55323   0.95992 
 H                     1.75156  -2.72746   1.90905 
 H                     0.80135  -2.21421   0.81236 
 O                    -0.90413   3.18676  -0.93225 
 H                    -0.4969    2.33752  -0.69017 
 H                    -0.17277   3.73579  -1.24463 
 O                    -5.47599  -1.07582  -0.71469 
 H                    -4.50497  -1.07187  -0.6646 
 H                    -5.69432  -1.72141  -1.39935 
 
 Add virtual bond connecting atoms H18        and O6         Dist= 3.66D+00.
 Add virtual bond connecting atoms H27        and O5         Dist= 3.67D+00.
 Add virtual bond connecting atoms H24        and N1         Dist= 3.92D+00.
 Add virtual bond connecting atoms H22        and N2         Dist= 4.10D+00.

 GradGradGradGradGradGradGradGradGradGradGradGradGradGradGradGradGradGrad
 Berny optimization.
 Initialization pass.
                           ----------------------------
                           !    Initial Parameters    !
                           ! (Angstroms and Degrees)  !
 --------------------------                            --------------------------
 ! Name  Definition              Value          Derivative Info.                !
 --------------------------------------------------------------------------------
 ! R1    R(1,2)                  1.2401         estimate D2E/DX2                !
 ! R2    R(1,3)                  1.4559         estimate D2E/DX2                !
 ! R3    R(1,24)                 2.0769         estimate D2E/DX2                !
 ! R4    R(2,4)                  1.4536         estimate D2E/DX2                !
 ! R5    R(2,22)                 2.1683         estimate D2E/DX2                !
 ! R6    R(3,6)                  1.2123         estimate D2E/DX2                !
 ! R7    R(3,8)                  1.309          estimate D2E/DX2                !
 ! R8    R(4,5)                  1.2125         estimate D2E/DX2                !
 ! R9    R(4,7)                  1.3119         estimate D2E/DX2                !
 ! R10   R(5,27)                 1.9443         estimate D2E/DX2                !
 ! R11   R(6,18)                 1.9363         estimate D2E/DX2                !
 ! R12   R(7,13)                 1.4616         estimate D2E/DX2                !
 ! R13   R(8,9)                  1.461          estimate D2E/DX2                !
 ! R14   R(9,10)                 1.0871         estimate D2E/DX2                !
 ! R15   R(9,11)                 1.0907         estimate D2E/DX2                !
 ! R16   R(9,12)                 1.0903         estimate D2E/DX2                !
 ! R17   R(13,14)                1.0904         estimate D2E/DX2                !
 ! R18   R(13,15)                1.0908         estimate D2E/DX2                !
 ! R19   R(13,16)                1.087          estimate D2E/DX2                !
 ! R20   R(17,18)                0.9726         estimate D2E/DX2                !
 ! R21   R(17,19)                0.966          estimate D2E/DX2                !
 ! R22   R(20,21)                0.9664         estimate D2E/DX2                !
 ! R23   R(20,22)                0.9709         estimate D2E/DX2                !
 ! R24   R(23,24)                0.9724         estimate D2E/DX2                !
 ! R25   R(23,25)                0.9664         estimate D2E/DX2                !
 ! R26   R(26,27)                0.9723         estimate D2E/DX2                !
 ! R27   R(26,28)                0.966          estimate D2E/DX2                !
 ! A1    A(2,1,3)              113.2186         estimate D2E/DX2                !
 ! A2    A(2,1,24)             127.2605         estimate D2E/DX2                !
 ! A3    A(3,1,24)             119.3781         estimate D2E/DX2                !
 ! A4    A(1,2,4)              113.5156         estimate D2E/DX2                !
 ! A5    A(1,2,22)             115.0316         estimate D2E/DX2                !
 ! A6    A(4,2,22)             131.1851         estimate D2E/DX2                !
 ! A7    A(1,3,6)              119.0056         estimate D2E/DX2                !
 ! A8    A(1,3,8)              111.1425         estimate D2E/DX2                !
 ! A9    A(6,3,8)              129.7083         estimate D2E/DX2                !
 ! A10   A(2,4,5)              119.0355         estimate D2E/DX2                !
 ! A11   A(2,4,7)              111.6875         estimate D2E/DX2                !
 ! A12   A(5,4,7)              129.1869         estimate D2E/DX2                !
 ! A13   A(4,5,27)             134.0468         estimate D2E/DX2                !
 ! A14   A(3,6,18)             133.7366         estimate D2E/DX2                !
 ! A15   A(4,7,13)             116.8149         estimate D2E/DX2                !
 ! A16   A(3,8,9)              116.645          estimate D2E/DX2                !
 ! A17   A(8,9,10)             104.8127         estimate D2E/DX2                !
 ! A18   A(8,9,11)             109.7165         estimate D2E/DX2                !
 ! A19   A(8,9,12)             108.4148         estimate D2E/DX2                !
 ! A20   A(10,9,11)            111.085          estimate D2E/DX2                !
 ! A21   A(10,9,12)            111.2586         estimate D2E/DX2                !
 ! A22   A(11,9,12)            111.3125         estimate D2E/DX2                !
 ! A23   A(7,13,14)            109.3153         estimate D2E/DX2                !
 ! A24   A(7,13,15)            109.4384         estimate D2E/DX2                !
 ! A25   A(7,13,16)            104.8096         estimate D2E/DX2                !
 ! A26   A(14,13,15)           110.8036         estimate D2E/DX2                !
 ! A27   A(14,13,16)           111.1552         estimate D2E/DX2                !
 ! A28   A(15,13,16)           111.13           estimate D2E/DX2                !
 ! A29   A(18,17,19)           105.3401         estimate D2E/DX2                !
 ! A30   A(21,20,22)           105.2153         estimate D2E/DX2                !
 ! A31   A(2,22,20)            146.0828         estimate D2E/DX2                !
 ! A32   A(24,23,25)           105.0521         estimate D2E/DX2                !
 ! A33   A(27,26,28)           105.3634         estimate D2E/DX2                !
 ! A34   L(6,18,17,10,-1)      176.5918         estimate D2E/DX2                !
 ! A35   L(1,24,23,13,-1)      177.3329         estimate D2E/DX2                !
 ! A36   L(5,27,26,14,-1)      176.1574         estimate D2E/DX2                !
 ! A37   L(6,18,17,10,-2)      179.7194         estimate D2E/DX2                !
 ! A38   L(1,24,23,13,-2)      183.7857         estimate D2E/DX2                !
 ! A39   L(5,27,26,14,-2)      181.9136         estimate D2E/DX2                !
 ! D1    D(3,1,2,4)            179.705          estimate D2E/DX2                !
 ! D2    D(3,1,2,22)             4.9728         estimate D2E/DX2                !
 ! D3    D(24,1,2,4)             4.1185         estimate D2E/DX2                !
 ! D4    D(24,1,2,22)         -170.6137         estimate D2E/DX2                !
 ! D5    D(2,1,3,6)           -110.3313         estimate D2E/DX2                !
 ! D6    D(2,1,3,8)             73.6079         estimate D2E/DX2                !
 ! D7    D(24,1,3,6)            65.6384         estimate D2E/DX2                !
 ! D8    D(24,1,3,8)          -110.4224         estimate D2E/DX2                !
 ! D9    D(2,1,23,25)         -178.2284         estimate D2E/DX2                !
 ! D10   D(3,1,23,25)            5.2476         estimate D2E/DX2                !
 ! D11   D(1,2,4,5)            118.0276         estimate D2E/DX2                !
 ! D12   D(1,2,4,7)            -65.1105         estimate D2E/DX2                !
 ! D13   D(22,2,4,5)           -68.3186         estimate D2E/DX2                !
 ! D14   D(22,2,4,7)           108.5432         estimate D2E/DX2                !
 ! D15   D(1,2,22,20)            2.9758         estimate D2E/DX2                !
 ! D16   D(4,2,22,20)         -170.6015         estimate D2E/DX2                !
 ! D17   D(1,3,6,18)           178.1283         estimate D2E/DX2                !
 ! D18   D(8,3,6,18)            -6.6492         estimate D2E/DX2                !
 ! D19   D(1,3,8,9)           -179.5433         estimate D2E/DX2                !
 ! D20   D(6,3,8,9)              4.9359         estimate D2E/DX2                !
 ! D21   D(2,4,5,27)           177.6806         estimate D2E/DX2                !
 ! D22   D(7,4,5,27)             1.4436         estimate D2E/DX2                !
 ! D23   D(2,4,7,13)          -176.3113         estimate D2E/DX2                !
 ! D24   D(5,4,7,13)             0.1484         estimate D2E/DX2                !
 ! D25   D(4,5,26,28)          177.5573         estimate D2E/DX2                !
 ! D26   D(3,6,17,19)         -178.1882         estimate D2E/DX2                !
 ! D27   D(4,7,13,14)          -62.7806         estimate D2E/DX2                !
 ! D28   D(4,7,13,15)           58.739          estimate D2E/DX2                !
 ! D29   D(4,7,13,16)          177.9952         estimate D2E/DX2                !
 ! D30   D(3,8,9,10)          -176.897          estimate D2E/DX2                !
 ! D31   D(3,8,9,11)           -57.5521         estimate D2E/DX2                !
 ! D32   D(3,8,9,12)            64.2            estimate D2E/DX2                !
 ! D33   D(21,20,22,2)         117.1701         estimate D2E/DX2                !
 --------------------------------------------------------------------------------
 Trust Radius=3.00D-01 FncErr=1.00D-07 GrdErr=1.00D-06
 Number of steps in this run=    109 maximum allowed number of steps=    168.
 GradGradGradGradGradGradGradGradGradGradGradGradGradGradGradGradGradGrad

                          Input orientation:                          
 ---------------------------------------------------------------------
 Center     Atomic      Atomic             Coordinates (Angstroms)
 Number     Number       Type             X           Y           Z
 ---------------------------------------------------------------------
      1          7           0        0.240331    0.448695   -0.240571
      2          7           0       -0.402574   -0.531417    0.164214
      3          6           0        1.675250    0.209527   -0.299033
      4          6           0       -1.835592   -0.297406    0.231582
      5          8           0       -2.574733   -0.970832   -0.454238
      6          8           0        2.399052    0.781268    0.487734
      7          8           0       -2.136018    0.617938    1.122113
      8          8           0        1.983105   -0.572114   -1.302881
      9          6           0        3.397149   -0.900133   -1.468164
     10          1           0        3.439313   -1.499894   -2.373919
     11          1           0        3.977269    0.016945   -1.577477
     12          1           0        3.721650   -1.473088   -0.599193
     13          6           0       -3.556510    0.882820    1.341985
     14          1           0       -3.998958    1.264419    0.421348
     15          1           0       -4.052355   -0.035810    1.658362
     16          1           0       -3.580837    1.632266    2.128943
     17          8           0        5.271008    0.702502    0.936253
     18          1           0        4.306662    0.749644    0.818571
     19          1           0        5.466346    1.285541    1.681309
     20          8           0        1.699066   -2.553225    0.959922
     21          1           0        1.751557   -2.727458    1.909053
     22          1           0        0.801345   -2.214213    0.812357
     23          8           0       -0.904126    3.186758   -0.932252
     24          1           0       -0.496895    2.337524   -0.690170
     25          1           0       -0.172772    3.735794   -1.244627
     26          8           0       -5.475993   -1.075820   -0.714691
     27          1           0       -4.504967   -1.071866   -0.664596
     28          1           0       -5.694324   -1.721406   -1.399346
 ---------------------------------------------------------------------
                    Distance matrix (angstroms):
                    1          2          3          4          5
     1  N    0.000000
     2  N    1.240080   0.000000
     3  C    1.455889   2.254096   0.000000
     4  C    2.255893   1.453561   3.586718   0.000000
     5  O    3.159952   2.300835   4.413580   1.212510   0.000000
     6  O    2.302414   3.110774   1.212345   4.377369   5.356837
     7  O    2.744556   2.289851   4.088058   1.311928   2.280689
     8  O    2.282064   2.800980   1.308987   4.124620   4.653285
     9  C    3.645795   4.151928   2.358633   5.534799   6.057757
    10  H    4.310645   4.705333   3.215461   6.004934   6.335127
    11  H    3.992296   4.745231   2.640227   6.095971   6.720573
    12  H    3.992673   4.298693   2.666279   5.740675   6.318047
    13  C    4.136297   3.651647   5.524272   2.363787   2.761581
    14  H    4.367507   4.028042   5.816217   2.674969   2.791311
    15  H    4.718882   3.974796   6.057809   2.649183   2.742392
    16  H    4.649383   4.317759   5.962022   3.220170   3.802787
    17  O    5.172721   5.857314   3.833853   7.211112   8.141816
    18  H    4.212766   4.924043   2.909483   6.258447   7.206502
    19  H    5.630734   6.328281   4.410439   7.610895   8.620367
    20  O    3.546916   3.022871   3.036171   4.255938   4.771706
    21  H    4.122212   3.536572   3.675234   4.646149   5.233323
    22  H    2.917957   2.168251   2.805960   3.311327   3.814205
    23  O    3.047162   3.908787   3.989743   3.789662   4.506105
    24  H    2.076853   2.994944   3.065872   3.095899   3.913859
    25  H    3.461763   4.499637   4.091930   4.605526   5.342889
    26  O    5.935090   5.177686   7.277717   3.841078   2.914819
    27  H    5.000976   4.220028   6.322237   2.920357   1.944289
    28  H    6.424346   5.644769   7.697390   4.424649   3.344912
                    6          7          8          9         10
     6  O    0.000000
     7  O    4.582136   0.000000
     8  O    2.282752   4.925850   0.000000
     9  C    2.765654   6.295237   1.460971   0.000000
    10  H    3.804589   6.913159   2.031856   1.087145   0.000000
    11  H    2.709254   6.709788   2.097399   1.090651   1.795694
    12  H    2.830688   6.453492   2.080738   1.090270   1.797244
    13  C    6.017373   1.461610   6.308683   7.709036   8.272050
    14  H    6.416570   2.092739   6.490832   7.934604   8.413253
    15  H    6.607468   2.094588   6.744135   8.125105   8.632956
    16  H    6.259140   2.032257   6.898852   8.248910   8.908911
    17  O    2.907835   7.409840   4.177161   3.443981   4.377544
    18  H    1.936344   6.451171   3.412700   2.962792   4.000588
    19  H    3.329745   7.652080   4.948660   4.356366   5.320938
    20  O    3.439736   4.979001   3.020887   3.392904   3.905440
    21  H    3.840645   5.188852   3.875002   4.177641   4.764376
    22  H    3.410418   4.092081   2.926991   3.696726   4.197795
    23  O    4.325937   3.512379   4.754218   5.957419   6.550464
    24  H    3.492263   2.987988   3.871926   5.123600   5.749306
    25  H    4.283057   4.379135   4.817600   5.855435   6.460254
    26  O    8.179910   4.171103   7.499189   8.906808   9.078301
    27  H    7.240680   3.414628   6.538520   7.944725   8.137357
    28  H    8.679123   4.948922   7.763575   9.128752   9.188155
                   11         12         13         14         15
    11  H    0.000000
    12  H    1.800716   0.000000
    13  C    8.125935   7.892407   0.000000
    14  H    8.316952   8.254892   1.090390   0.000000
    15  H    8.657269   8.221768   1.090797   1.795453   0.000000
    16  H    8.571568   8.391202   1.086998   1.796112   1.796177
    17  O    2.909053   3.080795   8.838677   9.301244   9.380386
    18  H    2.527131   2.700524   7.881699   8.331033   8.437734
    19  H    3.800838   3.981795   9.038211   9.548818   9.610003
    20  O    4.270173   2.772793   6.290744   6.879822   6.316964
    21  H    4.964014   3.427245   6.444474   7.156589   6.402594
    22  H    4.558055   3.327149   5.372431   5.941101   5.386981
    23  O    5.855941   6.574412   4.185143   3.886593   5.196881
    24  H    5.117670   5.685522   3.950577   3.827724   4.877460
    25  H    5.582425   6.535714   5.126373   4.850038   6.140318
    26  O    9.555245   9.206943   3.427915   2.991477   2.956306
    27  H    8.600418   8.236655   2.957488   2.625557   2.583487
    28  H    9.828189   9.453173   4.343632   3.886431   3.858351
                   16         17         18         19         20
    16  H    0.000000
    17  O    8.980096   0.000000
    18  H    8.044174   0.972643   0.000000
    19  H    9.064884   0.966023   1.541548   0.000000
    20  O    6.838298   4.833124   4.210520   5.426686   0.000000
    21  H    6.891297   5.009741   4.450612   5.473179   0.966417
    22  H    5.977652   5.338583   4.590396   5.896235   0.970880
    23  O    4.353406   6.913401   6.013087   7.143405   6.580603
    24  H    4.237391   6.211864   5.279377   6.503140   5.609320
    25  H    5.236479   6.602412   5.765345   6.809148   6.922108
    26  O    4.360229  11.017535  10.068940  11.447778   7.514554
    27  H    3.996274  10.063836   9.119347  10.511314   6.582060
    28  H    5.306860  11.470347  10.537787  11.962137   7.805145
                   21         22         23         24         25
    21  H    0.000000
    22  H    1.539177   0.000000
    23  O    7.078391   5.926447   0.000000
    24  H    6.120910   4.966017   0.972440   0.000000
    25  H    7.444620   6.370453   0.966384   1.538713   0.000000
    26  O    7.864440   6.559938   6.254508   6.036798   7.180293
    27  H    6.964822   5.625237   5.583330   5.262056   6.497534
    28  H    8.209677   6.879550   6.874172   6.632580   7.764825
                   26         27         28
    26  O    0.000000
    27  H    0.972325   0.000000
    28  H    0.966024   1.541535   0.000000
 Stoichiometry    C4H14N2O8
 Framework group  C1[X(C4H14N2O8)]
 Deg. of freedom    78
 Full point group                 C1      NOp   1
 Largest Abelian subgroup         C1      NOp   1
 Largest concise Abelian subgroup C1      NOp   1
                         Standard orientation:                         
 ---------------------------------------------------------------------
 Center     Atomic      Atomic             Coordinates (Angstroms)
 Number     Number       Type             X           Y           Z
 ---------------------------------------------------------------------
      1          7           0       -0.240331    0.448695    0.240571
      2          7           0        0.402574   -0.531417   -0.164214
      3          6           0       -1.675250    0.209527    0.299033
      4          6           0        1.835592   -0.297406   -0.231582
      5          8           0        2.574733   -0.970832    0.454238
      6          8           0       -2.399052    0.781268   -0.487734
      7          8           0        2.136018    0.617938   -1.122113
      8          8           0       -1.983105   -0.572114    1.302881
      9          6           0       -3.397149   -0.900133    1.468164
     10          1           0       -3.439313   -1.499894    2.373919
     11          1           0       -3.977269    0.016945    1.577477
     12          1           0       -3.721650   -1.473088    0.599193
     13          6           0        3.556510    0.882820   -1.341985
     14          1           0        3.998958    1.264419   -0.421348
     15          1           0        4.052355   -0.035810   -1.658362
     16          1           0        3.580837    1.632266   -2.128943
     17          8           0       -5.271008    0.702502   -0.936253
     18          1           0       -4.306662    0.749644   -0.818571
     19          1           0       -5.466346    1.285541   -1.681309
     20          8           0       -1.699066   -2.553225   -0.959922
     21          1           0       -1.751557   -2.727458   -1.909053
     22          1           0       -0.801345   -2.214213   -0.812357
     23          8           0        0.904126    3.186758    0.932252
     24          1           0        0.496895    2.337524    0.690170
     25          1           0        0.172772    3.735794    1.244627
     26          8           0        5.475993   -1.075820    0.714691
     27          1           0        4.504967   -1.071866    0.664596
     28          1           0        5.694324   -1.721406    1.399346
 ---------------------------------------------------------------------
 Rotational constants (GHZ):      0.8597266      0.2450818      0.2214669
 Standard basis: 6-31+G(d,p) (6D, 7F)
 There are   336 symmetry adapted cartesian basis functions of A   symmetry.
 There are   336 symmetry adapted basis functions of A   symmetry.
   336 basis functions,   546 primitive gaussians,   336 cartesian basis functions
    58 alpha electrons       58 beta electrons
       nuclear repulsion energy       971.0856060212 Hartrees.
 NAtoms=   28 NActive=   28 NUniq=   28 SFac= 1.00D+00 NAtFMM=   60 NAOKFM=F Big=F
 Integral buffers will be    131072 words long.
 Raffenetti 2 integral format.
 Two-electron integral symmetry is turned on.
 Nuclear repulsion after empirical dispersion term =      971.0633132662 Hartrees.
 ------------------------------------------------------------------------------
 Polarizable Continuum Model (PCM)
 =================================
 Model                : C-PCM.
 Atomic radii         : UFF (Universal Force Field).
 Polarization charges : Total charges.
 Charge compensation  : None.
 Solution method      : On-the-fly selection.
 Cavity type          : Scaled VdW (van der Waals Surface) (Alpha=1.100).
 Cavity algorithm     : GePol (No added spheres)
                        Default sphere list used, NSphG=   28.
                        Lebedev-Laikov grids with approx.  5.0 points / Ang**2.
                        Smoothing algorithm: Karplus/York (Gamma=1.0000).
                        Polarization charges: spherical gaussians, with
                                              point-specific exponents (IZeta= 3).
                        Self-potential: point-specific (ISelfS= 7).
                        Self-field    : sphere-specific E.n sum rule (ISelfD= 2).
 1st derivatives      : Analytical E(r).r(x)/FMM algorithm (CHGder, D1EAlg=3).
                        Cavity 1st derivative terms included.
 Solvent              : Water, Eps=  78.355300 Eps(inf)=   1.777849
 ------------------------------------------------------------------------------
 One-electron integrals computed using PRISM.
 NBasis=   336 RedAO= T EigKep=  3.86D-05  NBF=   336
 NBsUse=   336 1.00D-06 EigRej= -1.00D+00 NBFU=   336
 ExpMin= 4.38D-02 ExpMax= 5.48D+03 ExpMxC= 8.25D+02 IAcc=2 IRadAn=         4 AccDes= 0.00D+00
 Harris functional with IExCor=  402 and IRadAn=       4 diagonalized for initial guess.
 HarFok:  IExCor=  402 AccDes= 0.00D+00 IRadAn=         4 IDoV= 1 UseB2=F ITyADJ=14
 ICtDFT=  3500011 ScaDFX=  1.000000  1.000000  1.000000  1.000000
 FoFCou: FMM=F IPFlag=           0 FMFlag=      100000 FMFlg1=           0
         NFxFlg=           0 DoJE=T BraDBF=F KetDBF=T FulRan=T
         wScrn=  0.000000 ICntrl=     500 IOpCl=  0 I1Cent=   200000004 NGrid=           0
         NMat0=    1 NMatS0=      1 NMatT0=    0 NMatD0=    1 NMtDS0=    0 NMtDT0=    0
 Petite list used in FoFCou.
 Requested convergence on RMS density matrix=1.00D-08 within 128 cycles.
 Requested convergence on MAX density matrix=1.00D-06.
 Requested convergence on             energy=1.00D-06.
 No special actions if energy rises.
 Inv3:  Mode=1 IEnd=    19522803.
 Iteration    1 A*A^-1 deviation from unit magnitude is 5.55D-15 for   2540.
 Iteration    1 A*A^-1 deviation from orthogonality  is 2.64D-15 for   2547    931.
 Iteration    1 A^-1*A deviation from unit magnitude is 5.33D-15 for   2540.
 Iteration    1 A^-1*A deviation from orthogonality  is 2.77D-15 for   2543    981.
 Error on total polarization charges =  0.01701
 SCF Done:  E(RB3LYP) =  -872.226221104     A.U. after   14 cycles
            NFock= 14  Conv=0.79D-08     -V/T= 2.0092

 **********************************************************************

            Population analysis using the SCF density.

 **********************************************************************

 Orbital symmetries:
       Occupied  (A) (A) (A) (A) (A) (A) (A) (A) (A) (A) (A) (A)
                 (A) (A) (A) (A) (A) (A) (A) (A) (A) (A) (A) (A)
                 (A) (A) (A) (A) (A) (A) (A) (A) (A) (A) (A) (A)
                 (A) (A) (A) (A) (A) (A) (A) (A) (A) (A) (A) (A)
                 (A) (A) (A) (A) (A) (A) (A) (A) (A) (A)
       Virtual   (A) (A) (A) (A) (A) (A) (A) (A) (A) (A) (A) (A)
                 (A) (A) (A) (A) (A) (A) (A) (A) (A) (A) (A) (A)
                 (A) (A) (A) (A) (A) (A) (A) (A) (A) (A) (A) (A)
                 (A) (A) (A) (A) (A) (A) (A) (A) (A) (A) (A) (A)
                 (A) (A) (A) (A) (A) (A) (A) (A) (A) (A) (A) (A)
                 (A) (A) (A) (A) (A) (A) (A) (A) (A) (A) (A) (A)
                 (A) (A) (A) (A) (A) (A) (A) (A) (A) (A) (A) (A)
                 (A) (A) (A) (A) (A) (A) (A) (A) (A) (A) (A) (A)
                 (A) (A) (A) (A) (A) (A) (A) (A) (A) (A) (A) (A)
                 (A) (A) (A) (A) (A) (A) (A) (A) (A) (A) (A) (A)
                 (A) (A) (A) (A) (A) (A) (A) (A) (A) (A) (A) (A)
                 (A) (A) (A) (A) (A) (A) (A) (A) (A) (A) (A) (A)
                 (A) (A) (A) (A) (A) (A) (A) (A) (A) (A) (A) (A)
                 (A) (A) (A) (A) (A) (A) (A) (A) (A) (A) (A) (A)
                 (A) (A) (A) (A) (A) (A) (A) (A) (A) (A) (A) (A)
                 (A) (A) (A) (A) (A) (A) (A) (A) (A) (A) (A) (A)
                 (A) (A) (A) (A) (A) (A) (A) (A) (A) (A) (A) (A)
                 (A) (A) (A) (A) (A) (A) (A) (A) (A) (A) (A) (A)
                 (A) (A) (A) (A) (A) (A) (A) (A) (A) (A) (A) (A)
                 (A) (A) (A) (A) (A) (A) (A) (A) (A) (A) (A) (A)
                 (A) (A) (A) (A) (A) (A) (A) (A) (A) (A) (A) (A)
                 (A) (A) (A) (A) (A) (A) (A) (A) (A) (A) (A) (A)
                 (A) (A) (A) (A) (A) (A) (A) (A) (A) (A) (A) (A)
                 (A) (A)
 The electronic state is 1-A.
 Alpha  occ. eigenvalues --  -19.25197 -19.24879 -19.20205 -19.19991 -19.16660
 Alpha  occ. eigenvalues --  -19.16202 -19.16051 -19.15997 -14.47027 -14.46931
 Alpha  occ. eigenvalues --  -10.39381 -10.39229 -10.26449 -10.26099  -1.17945
 Alpha  occ. eigenvalues --   -1.16493  -1.09925  -1.07976  -1.07671  -1.01850
 Alpha  occ. eigenvalues --   -1.01346  -1.01218  -1.01161  -0.84026  -0.76755
 Alpha  occ. eigenvalues --   -0.73538  -0.64242  -0.59721  -0.58745  -0.56659
 Alpha  occ. eigenvalues --   -0.55126  -0.54563  -0.53687  -0.52668  -0.52172
 Alpha  occ. eigenvalues --   -0.51867  -0.51475  -0.49531  -0.47117  -0.46696
 Alpha  occ. eigenvalues --   -0.44831  -0.43495  -0.42208  -0.40654  -0.40550
 Alpha  occ. eigenvalues --   -0.39783  -0.39426  -0.38859  -0.38743  -0.35696
 Alpha  occ. eigenvalues --   -0.35421  -0.35122  -0.34639  -0.32368  -0.31920
 Alpha  occ. eigenvalues --   -0.31778  -0.31729  -0.30059
 Alpha virt. eigenvalues --   -0.12983  -0.03306  -0.03176  -0.00133   0.00967
 Alpha virt. eigenvalues --    0.01438   0.02263   0.02755   0.03379   0.03769
 Alpha virt. eigenvalues --    0.05001   0.06019   0.06693   0.07511   0.08029
 Alpha virt. eigenvalues --    0.08183   0.08492   0.10184   0.10989   0.11263
 Alpha virt. eigenvalues --    0.12104   0.12292   0.13029   0.13219   0.14066
 Alpha virt. eigenvalues --    0.14685   0.15490   0.15960   0.16329   0.16645
 Alpha virt. eigenvalues --    0.17150   0.17600   0.17928   0.18735   0.18759
 Alpha virt. eigenvalues --    0.19115   0.19963   0.20267   0.20380   0.20625
 Alpha virt. eigenvalues --    0.21271   0.21458   0.21824   0.22491   0.23160
 Alpha virt. eigenvalues --    0.23295   0.24211   0.24572   0.24653   0.25302
 Alpha virt. eigenvalues --    0.25804   0.26982   0.27547   0.28141   0.28525
 Alpha virt. eigenvalues --    0.29125   0.29233   0.29689   0.30124   0.31232
 Alpha virt. eigenvalues --    0.31669   0.32259   0.32418   0.32789   0.33734
 Alpha virt. eigenvalues --    0.34500   0.35634   0.36176   0.36623   0.37401
 Alpha virt. eigenvalues --    0.38896   0.39428   0.40073   0.40501   0.42392
 Alpha virt. eigenvalues --    0.43671   0.45894   0.46302   0.48128   0.51103
 Alpha virt. eigenvalues --    0.54475   0.56822   0.64542   0.65411   0.68674
 Alpha virt. eigenvalues --    0.69595   0.71785   0.72715   0.74396   0.76884
 Alpha virt. eigenvalues --    0.78694   0.81649   0.82470   0.85852   0.88327
 Alpha virt. eigenvalues --    0.89702   0.90389   0.91482   0.92730   0.93730
 Alpha virt. eigenvalues --    0.95034   0.96678   0.96856   0.97716   0.98649
 Alpha virt. eigenvalues --    0.99824   1.01973   1.02931   1.05830   1.06631
 Alpha virt. eigenvalues --    1.08526   1.08605   1.10277   1.11889   1.11987
 Alpha virt. eigenvalues --    1.12890   1.13188   1.14121   1.14297   1.14658
 Alpha virt. eigenvalues --    1.15176   1.16341   1.17060   1.17339   1.18170
 Alpha virt. eigenvalues --    1.19347   1.19473   1.20286   1.20987   1.22060
 Alpha virt. eigenvalues --    1.23531   1.24520   1.25975   1.27283   1.29215
 Alpha virt. eigenvalues --    1.29690   1.30061   1.30678   1.32083   1.34584
 Alpha virt. eigenvalues --    1.35218   1.36531   1.38342   1.40903   1.44874
 Alpha virt. eigenvalues --    1.45604   1.45807   1.47655   1.50006   1.51147
 Alpha virt. eigenvalues --    1.52240   1.52619   1.53318   1.53932   1.54639
 Alpha virt. eigenvalues --    1.55191   1.55967   1.56637   1.58769   1.59606
 Alpha virt. eigenvalues --    1.61448   1.62183   1.63458   1.63825   1.64166
 Alpha virt. eigenvalues --    1.64635   1.66189   1.68028   1.68879   1.69668
 Alpha virt. eigenvalues --    1.72874   1.73385   1.77796   1.81109   1.83040
 Alpha virt. eigenvalues --    1.83503   1.85325   1.86830   1.89502   1.90167
 Alpha virt. eigenvalues --    1.91627   1.92511   1.93139   1.93689   1.94856
 Alpha virt. eigenvalues --    1.97499   1.99410   2.00592   2.01649   2.03354
 Alpha virt. eigenvalues --    2.04844   2.06867   2.10722   2.11255   2.12084
 Alpha virt. eigenvalues --    2.17875   2.19416   2.26244   2.26695   2.27031
 Alpha virt. eigenvalues --    2.27133   2.28943   2.30286   2.33737   2.34755
 Alpha virt. eigenvalues --    2.36140   2.36456   2.37471   2.41961   2.43597
 Alpha virt. eigenvalues --    2.47363   2.47756   2.49087   2.52689   2.53165
 Alpha virt. eigenvalues --    2.53335   2.54291   2.58240   2.58532   2.62335
 Alpha virt. eigenvalues --    2.63913   2.64080   2.64253   2.64328   2.65104
 Alpha virt. eigenvalues --    2.66376   2.66473   2.66644   2.69430   2.70543
 Alpha virt. eigenvalues --    2.71877   2.73137   2.76484   2.78325   2.81251
 Alpha virt. eigenvalues --    2.83709   2.84625   2.87171   2.94089   2.96750
 Alpha virt. eigenvalues --    3.01145   3.02093   3.03378   3.03605   3.06077
 Alpha virt. eigenvalues --    3.09145   3.10137   3.17922   3.18204   3.22844
 Alpha virt. eigenvalues --    3.25372   3.26195   3.39941   3.40737   3.42111
 Alpha virt. eigenvalues --    3.42352   3.43569   3.44743   3.47203   3.47549
 Alpha virt. eigenvalues --    3.63444   3.65894   3.66293   3.67058   4.06361
 Alpha virt. eigenvalues --    4.11974   4.14804   4.16588   4.19351   4.24347
 Alpha virt. eigenvalues --    4.37084   4.41766   4.46248   4.52077   4.55573
 Alpha virt. eigenvalues --    4.56827   4.59217   4.67835
          Condensed to atoms (all electrons):
               1          2          3          4          5          6
     1  N    8.578643  -1.530660   0.279373  -0.198064   0.020411  -0.046849
     2  N   -1.530660   8.682137  -0.163097   0.282563  -0.069769   0.018609
     3  C    0.279373  -0.163097   4.754204  -0.059599  -0.003037   0.535806
     4  C   -0.198064   0.282563  -0.059599   4.769553   0.479229  -0.007428
     5  O    0.020411  -0.069769  -0.003037   0.479229   8.219758   0.000281
     6  O   -0.046849   0.018609   0.535806  -0.007428   0.000281   8.154437
     7  O    0.108781  -0.161584  -0.006029   0.270421  -0.155363  -0.001227
     8  O   -0.120421   0.076201   0.281964  -0.005618  -0.002390  -0.159704
     9  C   -0.024962   0.020423  -0.158666  -0.000051   0.000627  -0.011338
    10  H   -0.003980   0.001756   0.008470  -0.000044   0.000005   0.000190
    11  H   -0.003434   0.000935  -0.010024  -0.000040   0.000000   0.005858
    12  H    0.003036  -0.001612  -0.015617  -0.000141   0.000000   0.002098
    13  C   -0.018234   0.019932  -0.005400  -0.122441  -0.006896   0.000810
    14  H   -0.002025   0.003285  -0.000082  -0.014270   0.003739  -0.000001
    15  H    0.001121  -0.003843   0.000043  -0.012048   0.005091   0.000000
    16  H    0.001129  -0.002999  -0.000117   0.009987  -0.000120   0.000007
    17  O   -0.000646   0.000769  -0.023305   0.000066  -0.000001   0.002795
    18  H    0.001102  -0.000260   0.006483   0.000124   0.000000   0.028470
    19  H    0.000138  -0.000007   0.000402   0.000011   0.000000   0.000350
    20  O   -0.069677   0.078608   0.031793  -0.003578  -0.000573   0.000220
    21  H   -0.003085   0.000214  -0.001906   0.000331  -0.000024  -0.000542
    22  H   -0.005770   0.020395  -0.019676   0.003825  -0.000796   0.001068
    23  O    0.028862   0.000868  -0.012822   0.008924   0.000046  -0.003457
    24  H    0.003660   0.015505  -0.001357  -0.001677   0.000462  -0.002710
    25  H   -0.003570   0.002339   0.000897   0.000597   0.000000  -0.000891
    26  O    0.000309  -0.000085   0.000012  -0.026589   0.004082   0.000000
    27  H    0.000286   0.000381   0.000091   0.008844   0.023790   0.000000
    28  H    0.000019   0.000074   0.000002   0.001529  -0.000054   0.000000
               7          8          9         10         11         12
     1  N    0.108781  -0.120421  -0.024962  -0.003980  -0.003434   0.003036
     2  N   -0.161584   0.076201   0.020423   0.001756   0.000935  -0.001612
     3  C   -0.006029   0.281964  -0.158666   0.008470  -0.010024  -0.015617
     4  C    0.270421  -0.005618  -0.000051  -0.000044  -0.000040  -0.000141
     5  O   -0.155363  -0.002390   0.000627   0.000005   0.000000   0.000000
     6  O   -0.001227  -0.159704  -0.011338   0.000190   0.005858   0.002098
     7  O    8.310116  -0.002911  -0.000261  -0.000001  -0.000001   0.000002
     8  O   -0.002911   8.273002   0.080716  -0.053032  -0.033919  -0.034614
     9  C   -0.000261   0.080716   5.083642   0.411230   0.401999   0.414410
    10  H   -0.000001  -0.053032   0.411230   0.501383  -0.024191  -0.024430
    11  H   -0.000001  -0.033919   0.401999  -0.024191   0.506291  -0.029773
    12  H    0.000002  -0.034614   0.414410  -0.024430  -0.029773   0.490676
    13  C    0.069805   0.000504   0.000065   0.000000   0.000000  -0.000002
    14  H   -0.034970   0.000000   0.000000   0.000000   0.000000   0.000000
    15  H   -0.033047   0.000000   0.000000   0.000000   0.000000   0.000000
    16  H   -0.053352  -0.000001  -0.000001   0.000000   0.000000   0.000000
    17  O   -0.000004   0.000575   0.018328  -0.000194   0.000348   0.000391
    18  H    0.000006   0.000111  -0.006850   0.000029  -0.000221  -0.000236
    19  H    0.000000   0.000039  -0.000533  -0.000002   0.000057   0.000042
    20  O   -0.001833  -0.017261  -0.019969   0.000285   0.000241   0.000021
    21  H   -0.000148   0.001190   0.002650   0.000001   0.000001  -0.000094
    22  H   -0.000537   0.003726   0.006912   0.000002  -0.000005   0.000003
    23  O   -0.000628  -0.002787  -0.000215  -0.000002  -0.000004   0.000001
    24  H    0.003498  -0.001009   0.000895   0.000000   0.000001   0.000000
    25  H    0.000110  -0.000356   0.000274   0.000000   0.000000   0.000000
    26  O    0.000476  -0.000003   0.000000   0.000000   0.000000   0.000000
    27  H    0.000171   0.000002   0.000000   0.000000   0.000000   0.000000
    28  H    0.000028   0.000000   0.000000   0.000000   0.000000   0.000000
              13         14         15         16         17         18
     1  N   -0.018234  -0.002025   0.001121   0.001129  -0.000646   0.001102
     2  N    0.019932   0.003285  -0.003843  -0.002999   0.000769  -0.000260
     3  C   -0.005400  -0.000082   0.000043  -0.000117  -0.023305   0.006483
     4  C   -0.122441  -0.014270  -0.012048   0.009987   0.000066   0.000124
     5  O   -0.006896   0.003739   0.005091  -0.000120  -0.000001   0.000000
     6  O    0.000810  -0.000001   0.000000   0.000007   0.002795   0.028470
     7  O    0.069805  -0.034970  -0.033047  -0.053352  -0.000004   0.000006
     8  O    0.000504   0.000000   0.000000  -0.000001   0.000575   0.000111
     9  C    0.000065   0.000000   0.000000  -0.000001   0.018328  -0.006850
    10  H    0.000000   0.000000   0.000000   0.000000  -0.000194   0.000029
    11  H    0.000000   0.000000   0.000000   0.000000   0.000348  -0.000221
    12  H   -0.000002   0.000000   0.000000   0.000000   0.000391  -0.000236
    13  C    5.049259   0.408160   0.406087   0.411012   0.000000   0.000001
    14  H    0.408160   0.501674  -0.029858  -0.024663   0.000000   0.000000
    15  H    0.406087  -0.029858   0.500288  -0.023813   0.000000   0.000000
    16  H    0.411012  -0.024663  -0.023813   0.496749   0.000000   0.000000
    17  O    0.000000   0.000000   0.000000   0.000000   8.308016   0.234172
    18  H    0.000001   0.000000   0.000000   0.000000   0.234172   0.324359
    19  H    0.000000   0.000000   0.000000   0.000000   0.271927  -0.015485
    20  O   -0.000207   0.000001  -0.000003  -0.000001   0.000108   0.000089
    21  H    0.000051   0.000000   0.000000   0.000000   0.000019  -0.000005
    22  H    0.000524   0.000000   0.000000   0.000000   0.000016  -0.000004
    23  O   -0.001056   0.000176  -0.000006  -0.000017   0.000002   0.000001
    24  H    0.000790   0.000006   0.000002   0.000011   0.000002   0.000000
    25  H    0.000104   0.000001   0.000000   0.000000   0.000000   0.000000
    26  O    0.019908   0.000635   0.000370  -0.000205   0.000000   0.000000
    27  H   -0.006924  -0.000375  -0.000155   0.000029   0.000000   0.000000
    28  H   -0.000934   0.000048   0.000053  -0.000002   0.000000   0.000000
              19         20         21         22         23         24
     1  N    0.000138  -0.069677  -0.003085  -0.005770   0.028862   0.003660
     2  N   -0.000007   0.078608   0.000214   0.020395   0.000868   0.015505
     3  C    0.000402   0.031793  -0.001906  -0.019676  -0.012822  -0.001357
     4  C    0.000011  -0.003578   0.000331   0.003825   0.008924  -0.001677
     5  O    0.000000  -0.000573  -0.000024  -0.000796   0.000046   0.000462
     6  O    0.000350   0.000220  -0.000542   0.001068  -0.003457  -0.002710
     7  O    0.000000  -0.001833  -0.000148  -0.000537  -0.000628   0.003498
     8  O    0.000039  -0.017261   0.001190   0.003726  -0.002787  -0.001009
     9  C   -0.000533  -0.019969   0.002650   0.006912  -0.000215   0.000895
    10  H   -0.000002   0.000285   0.000001   0.000002  -0.000002   0.000000
    11  H    0.000057   0.000241   0.000001  -0.000005  -0.000004   0.000001
    12  H    0.000042   0.000021  -0.000094   0.000003   0.000001   0.000000
    13  C    0.000000  -0.000207   0.000051   0.000524  -0.001056   0.000790
    14  H    0.000000   0.000001   0.000000   0.000000   0.000176   0.000006
    15  H    0.000000  -0.000003   0.000000   0.000000  -0.000006   0.000002
    16  H    0.000000  -0.000001   0.000000   0.000000  -0.000017   0.000011
    17  O    0.271927   0.000108   0.000019   0.000016   0.000002   0.000002
    18  H   -0.015485   0.000089  -0.000005  -0.000004   0.000001   0.000000
    19  H    0.360681   0.000027   0.000000   0.000000   0.000000   0.000000
    20  O    0.000027   8.229500   0.281114   0.268176   0.000013  -0.000005
    21  H    0.000000   0.281114   0.348078  -0.017596   0.000000   0.000000
    22  H    0.000000   0.268176  -0.017596   0.335692  -0.000008   0.000003
    23  O    0.000000   0.000013   0.000000  -0.000008   8.242705   0.243224
    24  H    0.000000  -0.000005   0.000000   0.000003   0.243224   0.339571
    25  H    0.000000   0.000001   0.000000   0.000000   0.264041  -0.012980
    26  O    0.000000   0.000001   0.000000   0.000001   0.000043   0.000002
    27  H    0.000000   0.000000   0.000000   0.000000  -0.000007  -0.000001
    28  H    0.000000   0.000000   0.000000   0.000000   0.000000   0.000000
              25         26         27         28
     1  N   -0.003570   0.000309   0.000286   0.000019
     2  N    0.002339  -0.000085   0.000381   0.000074
     3  C    0.000897   0.000012   0.000091   0.000002
     4  C    0.000597  -0.026589   0.008844   0.001529
     5  O    0.000000   0.004082   0.023790  -0.000054
     6  O   -0.000891   0.000000   0.000000   0.000000
     7  O    0.000110   0.000476   0.000171   0.000028
     8  O   -0.000356  -0.000003   0.000002   0.000000
     9  C    0.000274   0.000000   0.000000   0.000000
    10  H    0.000000   0.000000   0.000000   0.000000
    11  H    0.000000   0.000000   0.000000   0.000000
    12  H    0.000000   0.000000   0.000000   0.000000
    13  C    0.000104   0.019908  -0.006924  -0.000934
    14  H    0.000001   0.000635  -0.000375   0.000048
    15  H    0.000000   0.000370  -0.000155   0.000053
    16  H    0.000000  -0.000205   0.000029  -0.000002
    17  O    0.000000   0.000000   0.000000   0.000000
    18  H    0.000000   0.000000   0.000000   0.000000
    19  H    0.000000   0.000000   0.000000   0.000000
    20  O    0.000001   0.000001   0.000000   0.000000
    21  H    0.000000   0.000000   0.000000   0.000000
    22  H    0.000000   0.000001   0.000000   0.000000
    23  O    0.264041   0.000043  -0.000007   0.000000
    24  H   -0.012980   0.000002  -0.000001   0.000000
    25  H    0.367456   0.000000   0.000000   0.000000
    26  O    0.000000   8.309436   0.235176   0.271329
    27  H    0.000000   0.235176   0.325944  -0.015292
    28  H    0.000000   0.271329  -0.015292   0.360261
 Mulliken charges:
               1
     1  N    0.004506
     2  N   -0.291080
     3  C    0.581194
     4  C    0.615584
     5  O   -0.518496
     6  O   -0.516850
     7  O   -0.311517
     8  O   -0.284006
     9  C   -0.219326
    10  H    0.182526
    11  H    0.185879
    12  H    0.195840
    13  C   -0.224918
    14  H    0.188519
    15  H    0.189717
    16  H    0.186365
    17  O   -0.813385
    18  H    0.428113
    19  H    0.382355
    20  O   -0.777091
    21  H    0.389751
    22  H    0.404049
    23  O   -0.767897
    24  H    0.412109
    25  H    0.381980
    26  O   -0.814897
    27  H    0.428040
    28  H    0.382938
 Sum of Mulliken charges =   0.00000
 Mulliken charges with hydrogens summed into heavy atoms:
               1
     1  N    0.004506
     2  N   -0.291080
     3  C    0.581194
     4  C    0.615584
     5  O   -0.518496
     6  O   -0.516850
     7  O   -0.311517
     8  O   -0.284006
     9  C    0.344918
    13  C    0.339683
    17  O   -0.002917
    20  O    0.016708
    23  O    0.026192
    26  O   -0.003919
 Electronic spatial extent (au):  <R**2>=           5075.9630
 Charge=              0.0000 electrons
 Dipole moment (field-independent basis, Debye):
    X=             -0.6131    Y=             -0.4297    Z=             -1.3592  Tot=              1.5517
 Quadrupole moment (field-independent basis, Debye-Ang):
   XX=           -108.8978   YY=            -87.6435   ZZ=            -71.4824
   XY=             -8.0466   XZ=             -7.9022   YZ=             -1.8716
 Traceless Quadrupole moment (field-independent basis, Debye-Ang):
   XX=            -19.5566   YY=              1.6977   ZZ=             17.8588
   XY=             -8.0466   XZ=             -7.9022   YZ=             -1.8716
 Octapole moment (field-independent basis, Debye-Ang**2):
  XXX=              2.7772  YYY=              6.3075  ZZZ=            -16.0251  XYY=            -14.1428
  XXY=              4.2720  XXZ=             -1.0598  XZZ=            -15.2369  YZZ=            -13.0090
  YYZ=             -4.0653  XYZ=            -14.7763
 Hexadecapole moment (field-independent basis, Debye-Ang**3):
 XXXX=          -5840.1769 YYYY=          -1045.8879 ZZZZ=           -466.3139 XXXY=           -118.4540
 XXXZ=            105.1229 YYYX=           -166.3244 YYYZ=             41.7216 ZZZX=             48.3006
 ZZZY=             -1.3431 XXYY=           -834.1534 XXZZ=           -598.9850 YYZZ=           -182.1360
 XXYZ=           -231.7375 YYXZ=             36.4005 ZZXY=            -32.0725
 N-N= 9.710633132662D+02 E-N=-3.987032227592D+03  KE= 8.642414992333D+02
 D1PCM: C-PCM CHGder 1st derivatives, ID1Alg=3 FixD1E=F DoIter=F DoCFld=F I1PDM=0.
 Calling FoFJK, ICntrl=      2127 FMM=F ISym2X=0 I1Cent= 0 IOpClX= 0 NMat=1 NMatS=1 NMatT=0.
 ***** Axes restored to original set *****
 -------------------------------------------------------------------
 Center     Atomic                   Forces (Hartrees/Bohr)
 Number     Number              X              Y              Z
 -------------------------------------------------------------------
      1        7          -0.000057048   -0.000072657   -0.000004090
      2        7           0.000024597    0.000168697    0.000073497
      3        6          -0.000009733   -0.000069770   -0.000050704
      4        6           0.000004340    0.000089076   -0.000014993
      5        8          -0.000053229   -0.000046878    0.000046871
      6        8           0.000067479   -0.000041363   -0.000079287
      7        8           0.000110671    0.000002191   -0.000073392
      8        8           0.000059369    0.000068695    0.000103776
      9        6          -0.000071746    0.000046703    0.000026590
     10        1          -0.000011012    0.000015032   -0.000013477
     11        1          -0.000014597    0.000010886   -0.000013226
     12        1          -0.000010620   -0.000018744    0.000009486
     13        6          -0.000069144   -0.000095706    0.000022870
     14        1          -0.000009088   -0.000015464   -0.000043723
     15        1          -0.000013761    0.000013614   -0.000002299
     16        1           0.000054234    0.000002322    0.000009768
     17        8          -0.000003037    0.000012596   -0.000006762
     18        1          -0.000036108    0.000002880    0.000026801
     19        1          -0.000003860   -0.000008133    0.000004098
     20        8           0.000035951    0.000056984   -0.000053332
     21        1          -0.000012442    0.000003281    0.000003393
     22        1          -0.000053327   -0.000113553   -0.000001891
     23        8          -0.000014069    0.000033120    0.000160967
     24        1           0.000131950   -0.000071579   -0.000009607
     25        1          -0.000068472    0.000020274   -0.000084168
     26        8          -0.000022235    0.000007009    0.000012432
     27        1           0.000051608   -0.000000404   -0.000040594
     28        1          -0.000006672    0.000000893   -0.000009004
 -------------------------------------------------------------------
 Cartesian Forces:  Max     0.000168697 RMS     0.000053195

 GradGradGradGradGradGradGradGradGradGradGradGradGradGradGradGradGradGrad
 Berny optimization.
 FormGI is forming the generalized inverse of G from B-inverse, IUseBI=4.
 Internal  Forces:  Max     0.000264886 RMS     0.000054965
 Search for a local minimum.
 Step number   1 out of a maximum of  109
 All quantities printed in internal units (Hartrees-Bohrs-Radians)
 Mixed Optimization -- En-DIIS/RFO-DIIS
 Second derivative matrix not updated -- first step.
 ITU=  0
     Eigenvalues ---    0.00230   0.00230   0.00230   0.00230   0.00877
     Eigenvalues ---    0.00885   0.00952   0.00983   0.01264   0.01390
     Eigenvalues ---    0.01390   0.01393   0.01394   0.01394   0.01414
     Eigenvalues ---    0.01586   0.01908   0.02473   0.02491   0.02857
     Eigenvalues ---    0.02896   0.03300   0.03410   0.03802   0.04172
     Eigenvalues ---    0.04174   0.04729   0.04794   0.10230   0.10271
     Eigenvalues ---    0.10690   0.10727   0.15939   0.15967   0.16000
     Eigenvalues ---    0.16000   0.16000   0.16000   0.16000   0.16000
     Eigenvalues ---    0.16000   0.16000   0.16000   0.16000   0.16000
     Eigenvalues ---    0.16000   0.21960   0.21994   0.24952   0.24970
     Eigenvalues ---    0.24985   0.24989   0.24999   0.25000   0.25000
     Eigenvalues ---    0.34721   0.34737   0.34768   0.34781   0.35145
     Eigenvalues ---    0.35162   0.36763   0.36843   0.37484   0.37782
     Eigenvalues ---    0.52841   0.52880   0.52905   0.53198   0.54116
     Eigenvalues ---    0.54123   0.54198   0.54198   0.63986   0.64758
     Eigenvalues ---    0.87013   0.98780   0.98857
 RFO step:  Lambda=-1.37176821D-05 EMin= 2.30000000D-03
 Linear search not attempted -- first point.
 Iteration  1 RMS(Cart)=  0.00839524 RMS(Int)=  0.00013830
 Iteration  2 RMS(Cart)=  0.00017051 RMS(Int)=  0.00000097
 Iteration  3 RMS(Cart)=  0.00000007 RMS(Int)=  0.00000097
 Variable       Old X    -DE/DX   Delta X   Delta X   Delta X     New X
                                 (Linear)    (Quad)   (Total)
    R1        2.34341  -0.00012   0.00000  -0.00013  -0.00013   2.34328
    R2        2.75123  -0.00003   0.00000  -0.00009  -0.00009   2.75114
    R3        3.92468  -0.00005   0.00000  -0.00135  -0.00135   3.92333
    R4        2.74683  -0.00005   0.00000  -0.00014  -0.00014   2.74669
    R5        4.09740   0.00001   0.00000   0.00022   0.00022   4.09762
    R6        2.29100  -0.00004   0.00000  -0.00004  -0.00004   2.29096
    R7        2.47363  -0.00017   0.00000  -0.00026  -0.00026   2.47337
    R8        2.29131   0.00003   0.00000   0.00003   0.00003   2.29135
    R9        2.47919  -0.00013   0.00000  -0.00021  -0.00021   2.47898
   R10        3.67417  -0.00002   0.00000  -0.00041  -0.00041   3.67376
   R11        3.65916  -0.00004   0.00000  -0.00083  -0.00083   3.65833
   R12        2.76204   0.00002   0.00000   0.00005   0.00005   2.76209
   R13        2.76083  -0.00011   0.00000  -0.00031  -0.00031   2.76053
   R14        2.05441   0.00000   0.00000   0.00001   0.00001   2.05441
   R15        2.06103   0.00000   0.00000  -0.00001  -0.00001   2.06103
   R16        2.06031   0.00002   0.00000   0.00006   0.00006   2.06037
   R17        2.06054   0.00004   0.00000   0.00011   0.00011   2.06065
   R18        2.06131  -0.00001   0.00000  -0.00003  -0.00003   2.06128
   R19        2.05413   0.00001   0.00000   0.00002   0.00002   2.05415
   R20        1.83803  -0.00001   0.00000  -0.00002  -0.00002   1.83801
   R21        1.82552   0.00000   0.00000   0.00000   0.00000   1.82551
   R22        1.82626   0.00001   0.00000   0.00002   0.00002   1.82628
   R23        1.83470  -0.00001   0.00000  -0.00002  -0.00002   1.83468
   R24        1.83764   0.00006   0.00000   0.00012   0.00012   1.83776
   R25        1.82620  -0.00001   0.00000  -0.00002  -0.00002   1.82618
   R26        1.83743   0.00003   0.00000   0.00005   0.00005   1.83748
   R27        1.82552   0.00001   0.00000   0.00001   0.00001   1.82553
    A1        1.97604   0.00004   0.00000   0.00015   0.00015   1.97619
    A2        2.22112  -0.00008   0.00000  -0.00052  -0.00052   2.22060
    A3        2.08354   0.00005   0.00000   0.00031   0.00031   2.08385
    A4        1.98122  -0.00003   0.00000  -0.00009  -0.00009   1.98113
    A5        2.00768   0.00003   0.00000   0.00024   0.00024   2.00792
    A6        2.28961   0.00001   0.00000   0.00009   0.00009   2.28970
    A7        2.07704   0.00001   0.00000   0.00002   0.00002   2.07706
    A8        1.93980   0.00000   0.00000   0.00000   0.00000   1.93980
    A9        2.26384  -0.00001   0.00000  -0.00003  -0.00003   2.26380
   A10        2.07756  -0.00002   0.00000  -0.00008  -0.00008   2.07748
   A11        1.94932   0.00002   0.00000   0.00008   0.00008   1.94939
   A12        2.25474   0.00000   0.00000   0.00003   0.00003   2.25476
   A13        2.33956   0.00005   0.00000   0.00030   0.00030   2.33986
   A14        2.33414   0.00012   0.00000   0.00073   0.00073   2.33487
   A15        2.03880  -0.00011   0.00000  -0.00045  -0.00045   2.03835
   A16        2.03584  -0.00003   0.00000  -0.00010  -0.00010   2.03574
   A17        1.82933  -0.00002   0.00000  -0.00014  -0.00014   1.82918
   A18        1.91491  -0.00001   0.00000  -0.00008  -0.00008   1.91484
   A19        1.89220  -0.00001   0.00000  -0.00005  -0.00005   1.89214
   A20        1.93880   0.00000   0.00000  -0.00003  -0.00003   1.93877
   A21        1.94183   0.00001   0.00000   0.00006   0.00006   1.94188
   A22        1.94277   0.00003   0.00000   0.00022   0.00022   1.94299
   A23        1.90791  -0.00002   0.00000  -0.00012  -0.00012   1.90779
   A24        1.91006   0.00005   0.00000   0.00032   0.00032   1.91038
   A25        1.82927  -0.00008   0.00000  -0.00053  -0.00053   1.82874
   A26        1.93389  -0.00001   0.00000  -0.00004  -0.00004   1.93385
   A27        1.94002   0.00004   0.00000   0.00021   0.00021   1.94024
   A28        1.93959   0.00002   0.00000   0.00014   0.00014   1.93972
   A29        1.83853  -0.00001   0.00000  -0.00004  -0.00004   1.83850
   A30        1.83635  -0.00003   0.00000  -0.00019  -0.00019   1.83616
   A31        2.54963  -0.00013   0.00000  -0.00053  -0.00053   2.54910
   A32        1.83350   0.00012   0.00000   0.00078   0.00078   1.83428
   A33        1.83894   0.00001   0.00000   0.00006   0.00006   1.83900
   A34        3.08211   0.00001   0.00000   0.00061   0.00061   3.08272
   A35        3.09504  -0.00026   0.00000  -0.01915  -0.01916   3.07589
   A36        3.07453  -0.00002   0.00000  -0.00166  -0.00166   3.07287
   A37        3.13670  -0.00002   0.00000  -0.00154  -0.00154   3.13515
   A38        3.20767  -0.00002   0.00000  -0.00160  -0.00160   3.20606
   A39        3.17499   0.00002   0.00000   0.00139   0.00139   3.17638
    D1        3.13644   0.00007   0.00000   0.00230   0.00230   3.13875
    D2        0.08679   0.00003   0.00000  -0.00015  -0.00015   0.08664
    D3        0.07188   0.00008   0.00000   0.00322   0.00322   0.07510
    D4       -2.97777   0.00004   0.00000   0.00077   0.00077  -2.97700
    D5       -1.92564  -0.00001   0.00000  -0.00057  -0.00057  -1.92622
    D6        1.28470   0.00000   0.00000  -0.00027  -0.00027   1.28444
    D7        1.14561  -0.00002   0.00000  -0.00145  -0.00145   1.14416
    D8       -1.92724  -0.00001   0.00000  -0.00114  -0.00114  -1.92838
    D9       -3.11067   0.00006   0.00000   0.03327   0.03327  -3.07740
   D10        0.09159   0.00010   0.00000   0.03715   0.03714   0.12873
   D11        2.05997   0.00002   0.00000   0.00326   0.00326   2.06323
   D12       -1.13639   0.00003   0.00000   0.00358   0.00358  -1.13281
   D13       -1.19239   0.00007   0.00000   0.00622   0.00622  -1.18616
   D14        1.89444   0.00008   0.00000   0.00654   0.00654   1.90098
   D15        0.05194   0.00002   0.00000   0.00140   0.00140   0.05333
   D16       -2.97756  -0.00002   0.00000  -0.00158  -0.00158  -2.97914
   D17        3.10892   0.00000   0.00000   0.00017   0.00017   3.10910
   D18       -0.11605   0.00000   0.00000  -0.00020  -0.00020  -0.11625
   D19       -3.13362   0.00000   0.00000  -0.00005  -0.00005  -3.13368
   D20        0.08615   0.00001   0.00000   0.00029   0.00029   0.08644
   D21        3.10111   0.00003   0.00000   0.00082   0.00082   3.10193
   D22        0.02520   0.00002   0.00000   0.00043   0.00043   0.02563
   D23       -3.07721   0.00003   0.00000   0.00093   0.00093  -3.07629
   D24        0.00259   0.00004   0.00000   0.00128   0.00128   0.00387
   D25        3.09896   0.00000   0.00000  -0.00111  -0.00111   3.09785
   D26       -3.10997   0.00001   0.00000   0.00335   0.00335  -3.10662
   D27       -1.09573   0.00002   0.00000   0.00237   0.00237  -1.09336
   D28        1.02519   0.00002   0.00000   0.00244   0.00244   1.02763
   D29        3.10660   0.00003   0.00000   0.00247   0.00247   3.10907
   D30       -3.08744   0.00001   0.00000   0.00072   0.00072  -3.08671
   D31       -1.00447  -0.00001   0.00000   0.00057   0.00057  -1.00390
   D32        1.12050   0.00001   0.00000   0.00076   0.00076   1.12126
   D33        2.04500  -0.00001   0.00000  -0.00071  -0.00071   2.04430
         Item               Value     Threshold  Converged?
 Maximum Force            0.000265     0.000450     YES
 RMS     Force            0.000055     0.000300     YES
 Maximum Displacement     0.052518     0.001800     NO 
 RMS     Displacement     0.008497     0.001200     NO 
 Predicted change in Energy=-6.879473D-06
 GradGradGradGradGradGradGradGradGradGradGradGradGradGradGradGradGradGrad

                          Input orientation:                          
 ---------------------------------------------------------------------
 Center     Atomic      Atomic             Coordinates (Angstroms)
 Number     Number       Type             X           Y           Z
 ---------------------------------------------------------------------
      1          7           0        0.242778    0.449287   -0.237725
      2          7           0       -0.400815   -0.530615    0.166258
      3          6           0        1.677404    0.208966   -0.297460
      4          6           0       -1.833760   -0.296138    0.231885
      5          8           0       -2.572484   -0.971683   -0.452329
      6          8           0        2.402301    0.779561    0.489100
      7          8           0       -2.134667    0.622299    1.118899
      8          8           0        1.983828   -0.571885   -1.302181
      9          6           0        3.397353   -0.900773   -1.468720
     10          1           0        3.438393   -1.499072   -2.375497
     11          1           0        3.978087    0.016038   -1.576979
     12          1           0        3.721778   -1.475464   -0.600829
     13          6           0       -3.555486    0.886821    1.337272
     14          1           0       -3.998353    1.262329    0.414263
     15          1           0       -4.050497   -0.030267    1.659322
     16          1           0       -3.580075    1.641067    2.119639
     17          8           0        5.274066    0.701283    0.936154
     18          1           0        4.309582    0.747232    0.819209
     19          1           0        5.468742    1.281335    1.683708
     20          8           0        1.699000   -2.555507    0.958563
     21          1           0        1.751240   -2.731031    1.907479
     22          1           0        0.801447   -2.215868    0.811476
     23          8           0       -0.915067    3.184478   -0.912545
     24          1           0       -0.493337    2.338854   -0.682716
     25          1           0       -0.200563    3.736781   -1.256526
     26          8           0       -5.473330   -1.075723   -0.714518
     27          1           0       -4.502242   -1.072789   -0.665000
     28          1           0       -5.692874   -1.722555   -1.397615
 ---------------------------------------------------------------------
                    Distance matrix (angstroms):
                    1          2          3          4          5
     1  N    0.000000
     2  N    1.240009   0.000000
     3  C    1.455842   2.254109   0.000000
     4  C    2.255705   1.453485   3.586588   0.000000
     5  O    3.160841   2.300726   4.413555   1.212528   0.000000
     6  O    2.302367   3.110988   1.212324   4.378070   5.357390
     7  O    2.742738   2.289756   4.087641   1.311818   2.280618
     8  O    2.281910   2.800810   1.308849   4.123514   4.652103
     9  C    3.645456   4.151656   2.358303   5.533732   6.056157
    10  H    4.310235   4.705098   3.215076   6.003423   6.333038
    11  H    3.991721   4.744732   2.639607   6.094834   6.719406
    12  H    3.992487   4.298481   2.666233   5.740055   6.316137
    13  C    4.135077   3.651349   5.524036   2.363390   2.760978
    14  H    4.367302   4.027212   5.816387   2.673490   2.788350
    15  H    4.718153   3.974892   6.057646   2.649941   2.744058
    16  H    4.646689   4.317360   5.961072   3.219627   3.802200
    17  O    5.172558   5.857866   3.834079   7.211937   8.142178
    18  H    4.212454   4.924131   2.909473   6.258931   7.206546
    19  H    5.629823   6.327521   4.410130   7.610700   8.619749
    20  O    3.546896   3.022773   3.036506   4.255961   4.769140
    21  H    4.122108   3.536244   3.675703   4.646347   5.230544
    22  H    2.918216   2.168367   2.806574   3.311435   3.811642
    23  O    3.045860   3.902588   3.994110   3.777354   4.498056
    24  H    2.076138   2.993855   3.065447   3.094578   3.916068
    25  H    3.470177   4.502786   4.109994   4.598601   5.333140
    26  O    5.935223   5.177192   7.277181   3.840560   2.914527
    27  H    5.001449   4.219792   6.321868   2.920340   1.944072
    28  H    6.426058   5.645557   7.698190   4.425235   3.345775
                    6          7          8          9         10
     6  O    0.000000
     7  O    4.583171   0.000000
     8  O    2.282589   4.924399   0.000000
     9  C    2.765269   6.294345   1.460807   0.000000
    10  H    3.804152   6.911586   2.031611   1.087148   0.000000
    11  H    2.708274   6.708284   2.097198   1.090648   1.795678
    12  H    2.830919   6.454149   2.080582   1.090300   1.797306
    13  C    6.018814   1.461637   6.307022   7.707857   8.269914
    14  H    6.419271   2.092720   6.488221   7.932283   8.409120
    15  H    6.607861   2.094827   6.743658   8.124832   8.632533
    16  H    6.260165   2.031889   6.896595   8.247532   8.906493
    17  O    2.907408   7.411408   4.178130   3.445585   4.379303
    18  H    1.935907   6.452423   3.413136   2.963561   4.001374
    19  H    3.328954   7.652789   4.949201   4.357758   5.322606
    20  O    3.440596   4.982084   3.021066   3.393265   3.906084
    21  H    3.841866   5.192972   3.875297   4.178307   4.765301
    22  H    3.411635   4.095176   2.927157   3.696958   4.198104
    23  O    4.330492   3.489836   4.760848   5.966203   6.559610
    24  H    3.491313   2.980998   3.872013   5.123520   5.749233
    25  H    4.308974   4.368456   4.830968   5.873409   6.473659
    26  O    8.180240   4.170295   7.497226   8.904406   9.075069
    27  H    7.241260   3.414825   6.536513   7.942239   8.133954
    28  H    8.680561   4.948942   7.763047   9.127575   9.186199
                   11         12         13         14         15
    11  H    0.000000
    12  H    1.800872   0.000000
    13  C    8.124397   7.892731   0.000000
    14  H    8.315160   8.253869   1.090451   0.000000
    15  H    8.656439   8.222234   1.090780   1.795465   0.000000
    16  H    8.569219   8.392305   1.087010   1.796303   1.796259
    17  O    2.909461   3.083852   8.840606   9.304027   9.381131
    18  H    2.527102   2.702295   7.883347   8.333732   8.438081
    19  H    3.801988   3.983834   9.039489   9.551846   9.609204
    20  O    4.270368   2.773054   6.293065   6.879824   6.318593
    21  H    4.964543   3.427985   6.447893   7.157824   6.404362
    22  H    4.558197   3.327332   5.374570   5.940852   5.388604
    23  O    5.867149   6.581228   4.160855   3.868040   5.174940
    24  H    5.117500   5.685325   3.945315   3.827194   4.873527
    25  H    5.604260   6.556081   5.109360   4.830906   6.124933
    26  O    9.553274   9.204495   3.426301   2.985999   2.958470
    27  H    8.598443   8.234123   2.957281   2.621353   2.587161
    28  H    9.827633   9.451540   4.342451   3.881216   3.860843
                   16         17         18         19         20
    16  H    0.000000
    17  O    8.982185   0.000000
    18  H    8.045915   0.972635   0.000000
    19  H    9.066451   0.966021   1.541519   0.000000
    20  O    6.843097   4.836143   4.212201   5.427536   0.000000
    21  H    6.898056   5.013438   4.452837   5.474393   0.966427
    22  H    5.982054   5.341314   4.592061   5.897021   0.970871
    23  O    4.321866   6.920211   6.019642   7.149511   6.578892
    24  H    4.227062   6.210098   5.277979   6.501131   5.608467
    25  H    5.216474   6.632772   5.795471   6.842165   6.935982
    26  O    4.358647  11.017667  10.068805  11.447102   7.512075
    27  H    3.996201  10.064156   9.119407  10.510892   6.579500
    28  H    5.305559  11.471498  10.538657  11.962424   7.802897
                   21         22         23         24         25
    21  H    0.000000
    22  H    1.539065   0.000000
    23  O    7.074954   5.923040   0.000000
    24  H    6.119720   4.965336   0.972501   0.000000
    25  H    7.460098   6.380806   0.966373   1.539212   0.000000
    26  O    7.861890   6.557546   6.242298   6.038267   7.159331
    27  H    6.962288   5.622787   5.572560   5.264118   6.479684
    28  H    8.207040   6.877475   6.865982   6.636363   7.745304
                   26         27         28
    26  O    0.000000
    27  H    0.972354   0.000000
    28  H    0.966030   1.541599   0.000000
 Stoichiometry    C4H14N2O8
 Framework group  C1[X(C4H14N2O8)]
 Deg. of freedom    78
 Full point group                 C1      NOp   1
 Largest Abelian subgroup         C1      NOp   1
 Largest concise Abelian subgroup C1      NOp   1
                         Standard orientation:                         
 ---------------------------------------------------------------------
 Center     Atomic      Atomic             Coordinates (Angstroms)
 Number     Number       Type             X           Y           Z
 ---------------------------------------------------------------------
      1          7           0       -0.241751    0.448438    0.240976
      2          7           0        0.400889   -0.530283   -0.167363
      3          6           0       -1.676581    0.209146    0.299941
      4          6           0        1.834031   -0.296808   -0.232244
      5          8           0        2.572276   -0.975969    0.448901
      6          8           0       -2.401110    0.783789   -0.484007
      7          8           0        2.135599    0.625188   -1.115333
      8          8           0       -1.983520   -0.575770    1.301331
      9          6           0       -3.397309   -0.904108    1.466711
     10          1           0       -3.438719   -1.506288    2.370899
     11          1           0       -3.977200    0.012746    1.579045
     12          1           0       -3.722409   -1.474748    0.596403
     13          6           0        3.556614    0.889380   -1.332826
     14          1           0        3.999988    1.260494   -0.408285
     15          1           0        4.050743   -0.026749   -1.658934
     16          1           0        3.581736    1.646982   -2.111927
     17          8           0       -5.273027    0.710019   -0.930857
     18          1           0       -4.308480    0.754597   -0.813894
     19          1           0       -5.467320    1.293474   -1.675858
     20          8           0       -1.700887   -2.549845   -0.968027
     21          1           0       -1.753458   -2.721215   -1.917684
     22          1           0       -0.803003   -2.211650   -0.819641
     23          8           0        0.918671    3.179646    0.927407
     24          1           0        0.496140    2.335402    0.694000
     25          1           0        0.204726    3.731095    1.273908
     26          8           0        5.473075   -1.083740    0.710093
     27          1           0        4.501981   -1.079722    0.660771
     28          1           0        5.692165   -1.733719    1.390345
 ---------------------------------------------------------------------
 Rotational constants (GHZ):      0.8609124      0.2451583      0.2214246
 Standard basis: 6-31+G(d,p) (6D, 7F)
 There are   336 symmetry adapted cartesian basis functions of A   symmetry.
 There are   336 symmetry adapted basis functions of A   symmetry.
   336 basis functions,   546 primitive gaussians,   336 cartesian basis functions
    58 alpha electrons       58 beta electrons
       nuclear repulsion energy       971.2449912597 Hartrees.
 NAtoms=   28 NActive=   28 NUniq=   28 SFac= 1.00D+00 NAtFMM=   60 NAOKFM=F Big=F
 Integral buffers will be    131072 words long.
 Raffenetti 2 integral format.
 Two-electron integral symmetry is turned on.
 Nuclear repulsion after empirical dispersion term =      971.2226878824 Hartrees.
 ------------------------------------------------------------------------------
 Polarizable Continuum Model (PCM)
 =================================
 Model                : C-PCM.
 Atomic radii         : UFF (Universal Force Field).
 Polarization charges : Total charges.
 Charge compensation  : None.
 Solution method      : On-the-fly selection.
 Cavity type          : Scaled VdW (van der Waals Surface) (Alpha=1.100).
 Cavity algorithm     : GePol (No added spheres)
                        Default sphere list used, NSphG=   28.
                        Lebedev-Laikov grids with approx.  5.0 points / Ang**2.
                        Smoothing algorithm: Karplus/York (Gamma=1.0000).
                        Polarization charges: spherical gaussians, with
                                              point-specific exponents (IZeta= 3).
                        Self-potential: point-specific (ISelfS= 7).
                        Self-field    : sphere-specific E.n sum rule (ISelfD= 2).
 1st derivatives      : Analytical E(r).r(x)/FMM algorithm (CHGder, D1EAlg=3).
                        Cavity 1st derivative terms included.
 Solvent              : Water, Eps=  78.355300 Eps(inf)=   1.777849
 ------------------------------------------------------------------------------
 One-electron integrals computed using PRISM.
 NBasis=   336 RedAO= T EigKep=  3.86D-05  NBF=   336
 NBsUse=   336 1.00D-06 EigRej= -1.00D+00 NBFU=   336
 Initial guess from the checkpoint file:  "b3lyp_m062x_dmad_4H2O_cycloaddition_PM6_toluene_water_4.chk"
 B after Tr=     0.000000    0.000000    0.000000
         Rot=    0.999999   -0.001604   -0.000141    0.000449 Ang=  -0.19 deg.
 ExpMin= 4.38D-02 ExpMax= 5.48D+03 ExpMxC= 8.25D+02 IAcc=2 IRadAn=         4 AccDes= 0.00D+00
 Harris functional with IExCor=  402 and IRadAn=       4 diagonalized for initial guess.
 HarFok:  IExCor=  402 AccDes= 0.00D+00 IRadAn=         4 IDoV= 1 UseB2=F ITyADJ=14
 ICtDFT=  3500011 ScaDFX=  1.000000  1.000000  1.000000  1.000000
 FoFCou: FMM=F IPFlag=           0 FMFlag=      100000 FMFlg1=           0
         NFxFlg=           0 DoJE=T BraDBF=F KetDBF=T FulRan=T
         wScrn=  0.000000 ICntrl=     500 IOpCl=  0 I1Cent=   200000004 NGrid=           0
         NMat0=    1 NMatS0=      1 NMatT0=    0 NMatD0=    1 NMtDS0=    0 NMtDT0=    0
 Petite list used in FoFCou.
 Requested convergence on RMS density matrix=1.00D-08 within 128 cycles.
 Requested convergence on MAX density matrix=1.00D-06.
 Requested convergence on             energy=1.00D-06.
 No special actions if energy rises.
 Inv3:  Mode=1 IEnd=    19400547.
 Iteration    1 A*A^-1 deviation from unit magnitude is 8.22D-15 for   2536.
 Iteration    1 A*A^-1 deviation from orthogonality  is 3.49D-15 for   2539    930.
 Iteration    1 A^-1*A deviation from unit magnitude is 8.22D-15 for   2536.
 Iteration    1 A^-1*A deviation from orthogonality  is 2.59D-15 for   2535   1473.
 Error on total polarization charges =  0.01701
 SCF Done:  E(RB3LYP) =  -872.226229965     A.U. after    9 cycles
            NFock=  9  Conv=0.67D-08     -V/T= 2.0092
 D1PCM: C-PCM CHGder 1st derivatives, ID1Alg=3 FixD1E=F DoIter=F DoCFld=F I1PDM=0.
 Calling FoFJK, ICntrl=      2127 FMM=F ISym2X=0 I1Cent= 0 IOpClX= 0 NMat=1 NMatS=1 NMatT=0.
 ***** Axes restored to original set *****
 -------------------------------------------------------------------
 Center     Atomic                   Forces (Hartrees/Bohr)
 Number     Number              X              Y              Z
 -------------------------------------------------------------------
      1        7           0.000048504   -0.000038425   -0.000172480
      2        7           0.000017827    0.000036958   -0.000034679
      3        6          -0.000094516    0.000026597    0.000109591
      4        6           0.000024005    0.000100753    0.000036280
      5        8          -0.000013034   -0.000049448    0.000046135
      6        8           0.000128811   -0.000018986   -0.000018947
      7        8          -0.000032132   -0.000065607   -0.000003537
      8        8           0.000004224    0.000007572    0.000038334
      9        6          -0.000029666    0.000017180   -0.000009864
     10        1           0.000014040    0.000007455   -0.000007506
     11        1           0.000008553   -0.000000053   -0.000006118
     12        1           0.000002509   -0.000005735   -0.000008983
     13        6          -0.000027675    0.000053129   -0.000000820
     14        1          -0.000015045   -0.000016516    0.000016117
     15        1           0.000017339   -0.000014166   -0.000004034
     16        1          -0.000008773   -0.000000427    0.000002215
     17        8           0.000009761    0.000006099   -0.000001573
     18        1          -0.000046992    0.000010476    0.000017976
     19        1          -0.000000553   -0.000007261    0.000005410
     20        8           0.000033328    0.000054371   -0.000031797
     21        1           0.000002116   -0.000001719   -0.000003341
     22        1          -0.000059345   -0.000095136   -0.000016966
     23        8           0.000032807    0.000027679    0.000129181
     24        1           0.000027164   -0.000034761    0.000022656
     25        1          -0.000058386   -0.000011423   -0.000073380
     26        8          -0.000000521   -0.000000621   -0.000002381
     27        1           0.000020343    0.000006498   -0.000024062
[...]
 0087,0.00000937,-0.00000311,-0.00000125,0.00000712,-0.00000285,-0.0000
 0300,-0.00002832,-0.00000819,-0.00000658,0.00005272,0.00000414,0.00001
 389,-0.00000133,0.00000083,0.00000199,-0.08432298,0.05551559,-0.508513
 94,0.07697092,-0.05264822,0.51586846,0.00035757,-0.00323216,0.00161764
 ,-0.00111306,0.00070924,-0.00064519,0.00313202,-0.00349829,0.00044926,
 -0.00340201,-0.00030699,0.00069439,0.00120900,0.00030984,0.00041076,-0
 .00118772,0.00056789,-0.00050239,0.00089707,-0.00042311,-0.00067052,-0
 .00049480,0.00130111,0.00001039,-0.00036525,0.00005635,0.00027026,-0.0
 0001682,0.00002567,-0.00004436,0.00005591,0.00001030,-0.00003922,-0.00
 018926,0.00002418,0.00006340,-0.00031003,0.00013571,-0.00000820,0.0000
 4866,0.00000272,-0.00001033,0.00007100,-0.00002458,-0.00001015,0.00006
 545,-0.00002032,-0.00002606,0.00000636,0.00001419,0.00000672,-0.000011
 63,-0.00002015,-0.00000875,-0.00000148,-0.00000079,-0.00000060,-0.4198
 1644,0.17462865,-0.06261962,-0.00595167,0.00181956,0.00720170,0.427186
 47,0.00020271,0.00012067,0.00096375,-0.00480815,-0.00112734,-0.0013651
 6,-0.00368724,-0.00356793,0.00200277,0.00575561,0.00201648,-0.00135739
 ,-0.00225998,-0.00086591,-0.00071875,0.00151945,0.00050919,0.00013626,
 -0.00188726,0.00077143,0.00132498,0.00151335,-0.00010115,-0.00102524,-
 0.00114215,0.00022437,0.00032425,0.00014483,-0.00006304,-0.00003324,0.
 00017961,-0.00006575,0.00002876,0.00022420,0.00001602,-0.00005512,0.00
 060310,-0.00026458,0.00006749,-0.00008538,-0.00000309,0.00001431,-0.00
 014271,0.00004848,0.00002105,-0.00013639,0.00004202,0.00004882,0.00022
 263,0.00001379,0.00011888,-0.00044797,-0.00001438,-0.00017782,0.000015
 91,-0.00001032,-0.00001607,0.17228760,-0.07466395,0.02717037,0.0038672
 1,-0.00167794,-0.00267202,-0.17220734,0.07888294,0.00001825,0.00110068
 ,0.00186518,0.00209902,-0.00151273,-0.00380522,0.00175410,0.00200070,-
 0.00007780,-0.00243121,-0.00075326,0.00109764,0.00108614,0.00035851,0.
 00029114,-0.00105734,-0.00020194,-0.00063153,0.00072269,-0.00029407,-0
 .00061729,-0.00073567,-0.00068273,0.00031154,0.00090852,-0.00019857,-0
 .00021890,-0.00006657,0.00003708,0.00000913,-0.00016360,0.00006871,-0.
 00003822,-0.00019731,-0.00000077,-0.00000910,-0.00021799,0.00014282,-0
 .00003679,0.00002990,0.00000318,-0.00000569,0.00006048,-0.00002622,-0.
 00001091,0.00004978,-0.00001770,-0.00002084,-0.00009989,-0.00000815,-0
 .00005090,0.00019070,0.00000375,0.00007905,-0.00000605,0.00000652,0.00
 000733,-0.01063725,0.00608001,-0.04942998,-0.04513609,0.01875947,-0.00
 734598,0.05394261,-0.02495872,0.05867266,-0.00419477,0.00220454,-0.001
 60414,0.00016374,0.00173295,-0.00044761,0.00271867,0.00098366,-0.00071
 890,-0.00292182,-0.00010705,-0.00021596,0.00131555,-0.00053163,0.00069
 294,-0.00097872,-0.00038093,-0.00031488,0.00089070,0.00013598,-0.00081
 941,-0.00082817,0.00035463,0.00056679,0.00026140,-0.00012247,0.0000454
 8,-0.00006084,0.00001646,0.00002264,-0.00006218,0.00002282,0.00001073,
 -0.00003567,-0.00000180,0.00000476,-0.00130258,0.00026098,-0.00016327,
 0.00088124,-0.00004262,-0.00020893,0.00019151,-0.00019084,0.00025713,0
 .00015011,-0.00014116,0.00017976,-0.00009052,-0.00000650,-0.00004650,0
 .00017630,0.00000623,0.00007237,-0.00000380,0.00000311,0.00000618,-0.0
 0011878,0.00015663,-0.00008445,0.00000259,0.00000041,0.00000936,0.0001
 6437,-0.00024512,0.00011033,0.46849004,0.00591211,-0.00198863,0.002314
 84,-0.00006333,-0.00022755,-0.00060049,-0.00331674,-0.00103277,0.00072
 978,-0.00132240,0.00251939,-0.00269788,-0.00017188,-0.00216448,0.00142
 363,0.00132932,0.00047492,0.00040035,-0.00112518,-0.00102902,0.0017503
 1,0.00111992,-0.00044748,-0.00074899,-0.00036307,0.00013546,-0.0000348
 6,0.00007994,-0.00002397,-0.00002780,0.00008195,-0.00002722,-0.0000107
 7,0.00005180,0.00000140,-0.00000741,0.00126340,-0.00024008,-0.00050500
 ,0.00047938,-0.00031639,-0.00016780,-0.00012409,0.00000018,0.00002688,
 -0.00005685,-0.00003836,0.00018589,0.00012245,0.00001327,0.00006007,-0
 .00023348,-0.00000770,-0.00010103,0.00000545,-0.00000636,-0.00000569,0
 .00015666,-0.00022781,0.00013582,-0.00000387,-0.00000659,-0.00001880,-
 0.00020371,0.00036823,-0.00016947,-0.19766078,0.08882036,-0.00329845,0
 .00260823,0.00123476,-0.00012995,-0.00053985,-0.00054095,0.00201372,0.
 00056763,-0.00063362,0.00017393,-0.00373802,-0.00157756,0.00076444,0.0
 0079773,0.00098052,-0.00085174,-0.00029725,-0.00026306,0.00109808,0.00
 315604,-0.00164531,-0.00063590,0.00023839,0.00051555,0.00020237,-0.000
 09889,0.00001842,-0.00004412,0.00001515,0.00001725,-0.00005056,0.00002
 073,0.00000769,-0.00002852,-0.00000079,0.00000466,-0.00104491,0.000357
 40,0.00063437,-0.00081784,-0.00003243,-0.00006152,0.00002642,0.0001160
 2,-0.00019149,0.00000956,-0.00000959,-0.00010317,-0.00007166,-0.000004
 53,-0.00003801,0.00014630,0.00000032,0.00005873,-0.00000237,0.00000466
 ,0.00000500,-0.00008434,0.00013571,-0.00008770,-0.00000194,0.00000494,
 0.00001792,0.00011067,-0.00022998,0.00008003,0.09840882,-0.06175274,0.
 55958284,-0.00111861,0.00071083,-0.00064576,0.00035777,-0.00323182,0.0
 0161779,-0.00339886,-0.00030560,0.00069388,0.00313171,-0.00349655,0.00
 045285,-0.00118757,0.00056879,-0.00050380,0.00120785,0.00030954,0.0004
 0991,-0.00049474,0.00129806,0.00001058,0.00089627,-0.00042318,-0.00066
 956,-0.00030974,0.00013554,-0.00000835,0.00006540,-0.00002032,-0.00002
 602,0.00007095,-0.00002453,-0.00001012,0.00004857,0.00000275,-0.000010
 31,-0.00036432,0.00005629,0.00026972,-0.00018937,0.00002399,0.00006350
 ,0.00005574,0.00001033,-0.00003920,-0.00001678,0.00002570,-0.00004437,
 0.00011279,0.00001015,0.00005802,-0.00021336,-0.00000309,-0.00008638,0
 .00000522,-0.00000654,-0.00001015,0.00016430,-0.00020360,0.00011068,-0
 .00000205,-0.00000007,-0.00001965,-0.00023625,0.00033123,-0.00013414,-
 0.42004239,0.17438623,-0.06242207,0.42750318,-0.00480177,-0.00112533,-
 0.00136428,0.00020171,0.00012167,0.00096177,0.00575240,0.00201508,-0.0
 0135711,-0.00368539,-0.00356554,0.00200439,0.00151843,0.00050754,0.000
 13621,-0.00225873,-0.00086619,-0.00071755,0.00151224,-0.00010097,-0.00
 102516,-0.00188671,0.00077200,0.00132401,0.00060285,-0.00026430,0.0000
 6774,-0.00013636,0.00004204,0.00004877,-0.00014268,0.00004840,0.000020
 99,-0.00008529,-0.00000313,0.00001428,-0.00114172,0.00022406,0.0003246
 0,0.00022434,0.00001590,-0.00005546,0.00017945,-0.00006582,0.00002873,
 0.00014476,-0.00006307,-0.00003316,-0.00020431,-0.00001957,-0.00010082
 ,0.00039340,0.00001020,0.00016241,-0.00001233,0.00000903,0.00001110,-0
 .00024498,0.00036801,-0.00023002,0.00000537,0.00001088,0.00004959,0.00
 033130,-0.00059820,0.00026535,0.17225155,-0.07449566,0.02688917,-0.172
 02906,0.07865707,0.00209644,-0.00151252,-0.00380164,0.00001885,0.00110
 013,0.00186408,-0.00242985,-0.00075264,0.00109747,0.00175440,0.0019993
 0,-0.00008059,-0.00105669,-0.00020117,-0.00063028,0.00108543,0.0003588
 5,0.00029049,-0.00073478,-0.00068076,0.00031131,0.00072254,-0.00029449
 ,-0.00061695,-0.00021791,0.00014273,-0.00003695,0.00004977,-0.00001770
 ,-0.00002082,0.00006048,-0.00002620,-0.00001089,0.00002986,0.00000320,
 -0.00000568,0.00090811,-0.00019796,-0.00021914,-0.00019760,-0.00000088
 ,-0.00000878,-0.00016338,0.00006880,-0.00003824,-0.00006658,0.00003712
 ,0.00000903,0.00009281,0.00000584,0.00004768,-0.00017950,-0.00000048,-
 0.00007305,0.00000354,-0.00000597,-0.00000765,0.00011025,-0.00016937,0
 .00008004,-0.00000620,-0.00000209,-0.00001691,-0.00013415,0.00026539,-
 0.00006453,-0.01042405,0.00580285,-0.04938574,0.05374924,-0.02465276,0
 .05859920,-0.00064255,0.00079808,0.00037770,0.00001910,-0.00016733,-0.
 00018608,0.00017278,0.00009998,-0.00009325,-0.00029925,0.00074223,0.00
 038064,-0.00001384,-0.00014895,-0.00013036,-0.00005947,-0.00003853,-0.
 00001377,-0.00007403,-0.00053997,0.00013154,-0.00003011,-0.00000504,0.
 00005192,0.00000735,-0.00001315,0.00000528,-0.00000198,0.00000054,0.00
 000054,-0.00000389,0.00000274,0.00000094,0.00000003,-0.00000080,0.0000
 0063,0.00013868,-0.00008140,-0.00008383,0.00021693,0.00005418,-0.00001
 281,0.00002562,-0.00004781,0.00004482,0.00000539,0.00000051,0.00001527
 ,-0.00000253,0.00000074,-0.00000103,0.00000716,-0.00000406,0.00000250,
 0.00000029,0.00000073,0.00000020,0.00000258,-0.00000393,-0.00000191,0.
 00000123,0.00000004,0.00000045,-0.00000209,0.00000548,-0.00000626,-0.0
 4476684,0.01931347,-0.03333324,-0.00603887,0.00372103,-0.04515577,0.05
 131177,0.00067662,-0.00057178,-0.00026814,0.00001779,0.00025255,0.0000
 6783,-0.00020574,-0.00010825,0.00010314,0.00011637,0.00083737,0.000547
 75,-0.00018196,0.00001814,-0.00031330,0.00008212,0.00004559,0.00002570
 ,-0.00022259,-0.00065553,0.00040152,0.00006228,-0.00002541,-0.00006446
 ,-0.00001409,0.00001585,-0.00000545,0.00000468,-0.00000129,-0.00000132
 ,0.00000489,-0.00000236,-0.00000095,0.00000185,0.00000035,-0.00000021,
 0.00026718,-0.00010074,-0.00002687,0.00001262,0.00001315,-0.00000670,-
 0.00003175,0.00000922,-0.00000167,-0.00001255,0.00000818,-0.00000094,0
 .00000523,-0.00000081,0.00000307,-0.00001299,0.00000205,-0.00000438,0.
 00000039,-0.00000011,-0.00000048,0.00000030,-0.00000643,0.00000487,0.0
 0000003,-0.00000061,0.00000031,0.00000002,0.00001067,-0.00000199,0.021
 23510,-0.01013842,0.03182137,0.00188174,-0.00162360,0.01872891,-0.0237
 0984,0.01200572,0.00034454,-0.00027253,0.00024300,-0.00000589,0.000047
 11,-0.00009514,-0.00036323,-0.00008906,0.00007728,0.00011145,0.0002335
 0,-0.00063146,-0.00004162,-0.00028518,0.00017944,0.00014201,0.00005466
 ,0.00005359,-0.00009125,0.00014650,0.00025955,0.00011255,-0.00003660,-
 0.00010531,-0.00004108,0.00001598,-0.00000218,0.00000714,-0.00000286,-
 0.00000301,0.00000938,-0.00000311,-0.00000125,0.00000614,-0.00000003,-
 0.00000087,-0.00001261,-0.00001626,0.00004796,-0.00000443,-0.00000595,
 -0.00005452,-0.00001359,0.00000181,0.00000033,-0.00001070,-0.00001180,
 0.00001873,0.00001263,0.00000043,0.00000744,-0.00002582,0.00000033,-0.
 00001030,0.00000061,-0.00000067,-0.00000084,0.00000939,-0.00001887,0.0
 0001795,0.00000045,0.00000030,-0.00000432,-0.00001973,0.00004973,-0.00
 001695,-0.08535208,0.05389909,-0.50855053,0.00719634,-0.00269776,-0.00
 731690,0.07800627,-0.05100543,0.51587896,-0.00073442,-0.00039982,-0.00
 014163,-0.00064259,-0.00040034,-0.00083220,0.00102983,-0.00009309,0.00
 023185,0.00183399,0.00490141,0.00586493,-0.01122003,-0.00268229,-0.007
 24085,-0.00045272,-0.00006306,-0.00012654,0.00009264,-0.00146273,-0.00
 215519,-0.00047805,0.00019754,0.00024098,0.00015977,-0.00000892,-0.000
 02228,-0.00003126,0.00001299,0.00000941,-0.00002204,0.00000351,-0.0000
 0035,-0.00003142,0.00000395,0.00000696,-0.00047055,0.00003717,0.000085
 76,0.00019757,0.00043786,0.00001376,0.00002040,-0.00012891,0.00035203,
 -0.00005478,-0.00002843,-0.00009997,-0.00004755,-0.00000459,-0.0000241
 3,0.00008934,0.00000548,0.00003619,-0.00000205,0.00000230,0.00000318,-
 0.00009047,0.00012244,-0.00007170,-0.00000257,0.00000528,0.00001261,0.
 00011287,-0.00020441,0.00009284,-0.00001007,-0.00031420,0.00017376,0.0
 0000652,0.00022257,-0.00009987,-0.00001637,0.00000493,-0.00002862,0.53
 935395,-0.00011663,-0.00001827,0.00004781,-0.00005803,-0.00009181,0.00
 006338,0.00011981,-0.00002286,-0.00000748,0.00095861,-0.00002077,-0.00
 018939,-0.00071626,0.00194556,0.00029152,-0.00006130,-0.00000755,-0.00
 001440,-0.00049763,0.00020306,0.00010931,-0.00004923,0.00002025,0.0000
 2806,0.00001607,-0.00000167,-0.00000238,-0.00000313,0.00000118,0.00000
 119,-0.00000242,0.00000065,0.00000004,-0.00000317,-0.00000024,0.000000
 28,0.00039247,-0.00048345,-0.00029011,0.00014528,0.00068386,0.00000272
 ,-0.00006157,-0.00028075,0.00034872,-0.00020076,0.00002081,-0.00014308
 ,-0.00000452,0.00000080,-0.00000332,0.00001020,-0.00000177,0.00000404,
 -0.00000055,-0.00000003,0.00000068,-0.00000638,0.00001306,-0.00000442,
 0.00000074,-0.00000081,0.00000041,0.00000999,-0.00001924,0.00000568,-0
 .00006013,-0.00006815,0.00003499,0.00001417,0.00001343,-0.00000795,0.0
 0000613,0.00000842,-0.00000836,-0.02070874,0.14391173,-0.00034211,-0.0
 0023189,-0.00005637,-0.00030558,0.00006464,-0.00034784,0.00053825,-0.0
 0004864,0.00008670,0.00172449,0.00114985,0.00172376,-0.00518141,-0.000
 30997,-0.00030025,-0.00023692,-0.00002831,-0.00006061,-0.00074462,-0.0
 0020986,-0.00042700,-0.00024201,0.00009954,0.00012770,0.00008041,-0.00
 000432,-0.00001157,-0.00001617,0.00000680,0.00000494,-0.00001134,0.000
 00199,-0.00000025,-0.00001554,0.00000162,0.00000308,0.00055366,-0.0002
 2883,-0.00070463,0.00018926,0.00084821,-0.00012800,-0.00006838,-0.0004
 5892,0.00093562,-0.00035232,-0.00014093,-0.00016398,-0.00002415,-0.000
 00336,-0.00001185,0.00004532,0.00000267,0.00001945,-0.00000121,0.00000
 141,0.00000128,-0.00004651,0.00006010,-0.00003804,-0.00000105,0.000003
 09,0.00000743,0.00005811,-0.00010094,0.00004772,-0.00002097,-0.0001744
 8,0.00011844,0.00000680,0.00011894,-0.00005086,-0.00002549,-0.00000344
 ,-0.00000665,0.14517068,0.22710294,0.42832879,0.00136229,0.00083632,0.
 00022432,0.00145625,0.00055901,0.00154472,-0.00198062,0.00017421,-0.00
 041455,-0.00599526,-0.00935788,-0.01180262,0.00470979,0.00474573,0.008
 11858,0.00087051,0.00011570,0.00023689,-0.00111751,0.00361262,0.005038
 43,0.00091169,-0.00036612,-0.00046439,-0.00029956,0.00001438,0.0000422
 3,0.00006022,-0.00002472,-0.00001828,0.00004197,-0.00000696,0.00000055
 ,0.00005835,-0.00000644,-0.00001200,0.00168303,-0.00070497,-0.00096518
 ,-0.00015633,-0.00006134,-0.00008063,-0.00007799,-0.00008684,-0.000039
 06,-0.00012872,0.00005029,0.00012050,0.00008932,0.00001033,0.00004527,
 -0.00016860,-0.00001028,-0.00006833,0.00000498,-0.00000451,-0.00000596
 ,0.00017617,-0.00023341,0.00014634,0.00000725,-0.00001307,-0.00002577,
 -0.00021346,0.00039349,-0.00017951,0.00000836,0.00067138,-0.00032440,-
 0.00001192,-0.00044792,0.00019060,0.00004364,0.00001490,0.00005312,-0.
 47202919,0.04136649,-0.08764198,0.47821105,0.00022866,-0.00002804,-0.0
 0012507,0.00003893,0.00038496,-0.00026051,-0.00010406,0.00003952,0.000
 03676,-0.00236946,0.00001214,0.00007340,0.00217043,-0.00341190,0.00014
 912,0.00007187,0.00002094,0.00001316,0.00053383,-0.00051998,-0.0002699
 5,0.00003250,-0.00002144,-0.00003004,-0.00001296,0.00000404,0.00000230
 ,0.00000238,-0.00000116,-0.00000107,0.00000229,-0.00000076,0.00000014,
 0.00000349,-0.00000019,-0.00000149,-0.00074948,0.00066317,-0.00002504,
 -0.00011233,-0.00123493,-0.00026968,0.00000324,0.00034795,-0.00047468,
 0.00028602,-0.00012476,0.00028120,0.00000532,-0.00000178,0.00000259,-0
 .00000996,-0.00000184,-0.00000269,0.00000001,-0.00000009,-0.00000037,0
 .00000590,-0.00000720,0.00000008,-0.00000406,0.00000205,0.00000036,-0.
 00000272,0.00000945,-0.00000014,0.00012384,0.00014023,-0.00006427,-0.0
 0002016,-0.00001354,0.00000327,0.00001891,0.00000895,0.00000416,0.0694
 6850,-0.02263942,-0.00672359,-0.04598694,0.02545922,0.00044286,0.00036
 433,0.00015542,0.00058028,-0.00029633,0.00060370,-0.00081019,0.0000622
 4,-0.00015866,-0.00412590,-0.00204892,-0.00355257,0.00512943,0.0009343
 1,-0.00036543,0.00035322,0.00003782,0.00009695,0.00048847,0.00060825,0
 .00079643,0.00037737,-0.00014114,-0.00019557,-0.00012177,0.00000496,0.
 00001856,0.00002470,-0.00001035,-0.00000741,0.00001711,-0.00000339,0.0
 0000028,0.00002417,-0.00000284,-0.00000457,-0.00086811,-0.00030878,0.0
 0032240,-0.00017109,-0.00094819,-0.00013901,0.00008708,0.00020325,-0.0
 0173746,0.00044940,0.00029407,0.00016195,0.00003621,0.00000410,0.00001
 945,-0.00006840,-0.00000282,-0.00003117,0.00000217,-0.00000202,-0.0000
 0229,0.00007237,-0.00010108,0.00005880,0.00000256,-0.00000442,-0.00001
 029,-0.00008650,0.00016257,-0.00007314,0.00002806,0.00026795,-0.000186
 02,-0.00000885,-0.00017795,0.00007901,0.00002446,0.00000391,0.00001401
 ,-0.04121982,-0.01606644,-0.04487817,0.08079607,0.01336836,0.05705765,
 -0.00007210,-0.00004553,-0.00000551,-0.00001399,-0.00002212,-0.0000663
 3,0.00007522,-0.00000408,0.00002165,0.00030470,0.00021918,0.00033119,-
 0.00130630,0.00031869,0.00007158,-0.00002643,-0.00000209,-0.00000700,-
 0.00001200,0.00000779,-0.00003755,-0.00003533,0.00001334,0.00001813,0.
 00000958,0.00000080,-0.00000130,-0.00000250,0.00000102,0.00000066,-0.0
 0000137,0.00000023,-0.00000005,-0.00000211,0.00000007,0.00000036,0.000
 08303,-0.00006715,-0.00002171,-0.00002551,0.00007497,-0.00000919,-0.00
 005299,-0.00000246,0.00004105,-0.00002718,-0.00000084,-0.00002088,-0.0
 0000205,-0.00000055,-0.00000120,0.00000497,0.00000002,0.00000217,-0.00
 000044,0.00000010,0.00000013,-0.00000380,0.00000542,-0.00000236,0.0000
 0029,0.00000040,0.00000061,0.00000522,-0.00001231,0.00000352,0.0000025
 7,-0.00001386,0.00001396,-0.00000147,0.00001588,-0.00000600,-0.0000007
 4,0.00000248,-0.00000135,-0.05656078,-0.02048952,-0.05308922,-0.007515
 72,-0.02362399,-0.04145536,0.06517722,0.00004595,0.00003549,0.00001050
 ,0.00001335,-0.00000671,0.00004786,-0.00005695,0.00000377,-0.00001595,
 -0.00011932,-0.00027221,-0.00024681,0.00065000,0.00014623,0.00011696,0
 .00002177,0.00000326,0.00000540,-0.00005221,0.00013959,0.00008189,0.00
 002576,-0.00001237,-0.00001206,-0.00000863,0.00000034,0.00000086,0.000
 00167,-0.00000059,-0.00000061,0.00000110,-0.00000024,-0.00000003,0.000
 00179,-0.00000016,-0.00000030,0.00001361,-0.00022519,0.00008760,0.0000
 1435,0.00014796,-0.00003648,0.00001994,0.00001628,-0.00004477,-0.00000
 897,0.00006843,-0.00004123,0.00000231,-0.00000003,0.00000141,-0.000004
 53,-0.00000010,-0.00000203,0.00000010,0.00000004,-0.00000021,0.0000031
 2,-0.00000638,0.00000467,0.00000073,-0.00000011,-0.00000067,-0.0000065
 7,0.00000907,-0.00000599,0.00000215,0.00001321,-0.00000016,-0.00000080
 ,-0.00001040,0.00000656,-0.00000398,-0.00000087,0.00000084,-0.04892643
 ,-0.12316600,-0.22079433,0.00474655,0.00091443,0.00379856,0.04362413,0
 .12220325,0.00005575,0.00004582,0.00000144,0.00002611,0.00000562,0.000
 05105,-0.00007330,0.00000430,-0.00001478,-0.00013794,-0.00029268,-0.00
 035673,0.00060473,0.00009251,0.00039648,0.00003023,0.00000463,0.000007
 62,-0.00009658,0.00010966,0.00019523,0.00003113,-0.00001575,-0.0000162
 8,-0.00001083,0.00000078,0.00000139,0.00000209,-0.00000084,-0.00000061
 ,0.00000146,-0.00000024,0.00000004,0.00000196,-0.00000012,-0.00000039,
 0.00014281,0.00011950,-0.00010491,-0.00000362,-0.00002471,0.00000383,-
 0.00002044,-0.00007392,0.00007727,-0.00002625,-0.00003444,0.00003542,0
 .00000317,0.00000068,0.00000128,-0.00000596,-0.00000038,-0.00000228,0.
 00000013,-0.00000021,-0.00000018,0.00000617,-0.00000567,0.00000499,0.0
 0000020,-0.00000048,-0.00000084,-0.00001015,0.00001108,-0.00000764,0.0
 0000578,0.00002576,-0.00001150,-0.00000061,-0.00001604,0.00000731,0.00
 000064,-0.00000267,0.00000201,-0.10023175,-0.21130443,-0.38421884,0.00
 548505,-0.00568632,-0.00804284,0.09422001,0.21703854,0.39199249\\0.000
 00125,-0.00000321,0.00000340,0.00000145,-0.00000513,0.00000036,-0.0000
 0490,0.00000686,0.00000124,-0.00000940,0.00000445,-0.00000172,0.000004
 18,0.00000092,-0.00000497,0.00000190,-0.00000368,0.00000254,-0.0000013
 9,-0.00000197,-0.00000159,0.00000361,-0.00000090,-0.00000188,-0.000002
 53,0.00000119,0.00000234,0.00000138,0.00000225,0.00000042,0.00000130,0
 .00000132,0.00000281,0.00000103,-0.00000009,0.00000032,0.00000165,-0.0
 0000160,-0.00000187,-0.00000012,0.00000057,-0.00000037,-0.00000144,-0.
 00000096,-0.00000226,-0.00000176,-0.00000249,-0.00000020,-0.00000056,-
 0.00000266,0.00000416,-0.00000022,-0.00000193,0.00000442,-0.00000111,-
 0.00000452,0.00000540,-0.00000232,-0.00000258,-0.00000279,-0.00000237,
 -0.00000408,-0.00000254,0.00000300,0.00000105,-0.00000192,0.00000174,0
 .00000089,0.00000311,0.00000181,0.00000273,0.00000089,0.00000232,0.000
 00294,0.00000269,0.00000027,0.00000316,-0.00000417,0.,0.00000348,-0.00
 000259,0.00000122,0.00000401,-0.00000526\\\@



 IN THIS SHORT LIFE

 THAT ONLY LASTS AN HOUR

 HOW MUCH, HOW LITTLE, IS WITHIN OUR POWER....


 EMILY DICKINSON BOLTS OF MELODY NO. 521
 Job cpu time:       0 days  0 hours 47 minutes 53.4 seconds.
 File lengths (MBytes):  RWF=    391 Int=      0 D2E=      0 Chk=     17 Scr=      1
 Normal termination of Gaussian 09 at Fri Sep 25 02:05:55 2020.
