 Entering Gaussian System, Link 0=g09
 Input=freq_b3lyp_m062x_TS_4H2O_associated_cycloaddition_PM6_toluene_3_6_water_1.com
 Output=freq_b3lyp_m062x_TS_4H2O_associated_cycloaddition_PM6_toluene_3_6_water_1.log
 Initial command:
 /apps/applications/gaussian/G09.D01/2/default/g09/l1.exe "/local/762073.1.40core-192G.q/Gau-183004.inp" -scrdir="/local/762073.1.40core-192G.q/"
 Entering Link 1 = /apps/applications/gaussian/G09.D01/2/default/g09/l1.exe PID=    183005.
  
 Copyright (c) 1988,1990,1992,1993,1995,1998,2003,2009,2013,
            Gaussian, Inc.  All Rights Reserved.
  
 This is part of the Gaussian(R) 09 program.  It is based on
 the Gaussian(R) 03 system (copyright 2003, Gaussian, Inc.),
 the Gaussian(R) 98 system (copyright 1998, Gaussian, Inc.),
 the Gaussian(R) 94 system (copyright 1995, Gaussian, Inc.),
 the Gaussian 92(TM) system (copyright 1992, Gaussian, Inc.),
 the Gaussian 90(TM) system (copyright 1990, Gaussian, Inc.),
 the Gaussian 88(TM) system (copyright 1988, Gaussian, Inc.),
 the Gaussian 86(TM) system (copyright 1986, Carnegie Mellon
 University), and the Gaussian 82(TM) system (copyright 1983,
 Carnegie Mellon University). Gaussian is a federally registered
 trademark of Gaussian, Inc.
  
 This software contains proprietary and confidential information,
 including trade secrets, belonging to Gaussian, Inc.
  
 This software is provided under written license and may be
 used, copied, transmitted, or stored only in accord with that
 written license.
  
 The following legend is applicable only to US Government
 contracts under FAR:
  
                    RESTRICTED RIGHTS LEGEND
  
 Use, reproduction and disclosure by the US Government is
 subject to restrictions as set forth in subparagraphs (a)
 and (c) of the Commercial Computer Software - Restricted
 Rights clause in FAR 52.227-19.
  
 Gaussian, Inc.
 340 Quinnipiac St., Bldg. 40, Wallingford CT 06492
  
  
 ---------------------------------------------------------------
 Warning -- This program may not be used in any manner that
 competes with the business of Gaussian, Inc. or will provide
 assistance to any competitor of Gaussian, Inc.  The licensee
 of this program is prohibited from giving any competitor of
 Gaussian, Inc. access to this program.  By using this program,
 the user acknowledges that Gaussian, Inc. is engaged in the
 business of creating and licensing software in the field of
 computational chemistry and represents and warrants to the
 licensee that it is not a competitor of Gaussian, Inc. and that
 it will not use this program in any manner prohibited above.
 ---------------------------------------------------------------
  

 Cite this work as:
 Gaussian 09, Revision D.01,
 M. J. Frisch, G. W. Trucks, H. B. Schlegel, G. E. Scuseria, 
 M. A. Robb, J. R. Cheeseman, G. Scalmani, V. Barone, B. Mennucci, 
 G. A. Petersson, H. Nakatsuji, M. Caricato, X. Li, H. P. Hratchian, 
 A. F. Izmaylov, J. Bloino, G. Zheng, J. L. Sonnenberg, M. Hada, 
 M. Ehara, K. Toyota, R. Fukuda, J. Hasegawa, M. Ishida, T. Nakajima, 
 Y. Honda, O. Kitao, H. Nakai, T. Vreven, J. A. Montgomery, Jr., 
 J. E. Peralta, F. Ogliaro, M. Bearpark, J. J. Heyd, E. Brothers, 
 K. N. Kudin, V. N. Staroverov, T. Keith, R. Kobayashi, J. Normand, 
 K. Raghavachari, A. Rendell, J. C. Burant, S. S. Iyengar, J. Tomasi, 
 M. Cossi, N. Rega, J. M. Millam, M. Klene, J. E. Knox, J. B. Cross, 
 V. Bakken, C. Adamo, J. Jaramillo, R. Gomperts, R. E. Stratmann, 
 O. Yazyev, A. J. Austin, R. Cammi, C. Pomelli, J. W. Ochterski, 
 R. L. Martin, K. Morokuma, V. G. Zakrzewski, G. A. Voth, 
 P. Salvador, J. J. Dannenberg, S. Dapprich, A. D. Daniels, 
 O. Farkas, J. B. Foresman, J. V. Ortiz, J. Cioslowski, 
 and D. J. Fox, Gaussian, Inc., Wallingford CT, 2013.
 
 ******************************************
 Gaussian 09:  ES64L-G09RevD.01 24-Apr-2013
                24-Sep-2020 
 ******************************************
 %nprocshared=4
 Will use up to    4 processors via shared memory.
 %chk=TS_4H2O_associated_cycloaddition_PM6_toluene_6.chk
 ----------------------------------------------------------------------
 # freq b3lyp/6-31+g(d,p) scrf=(cpcm,solvent=water) geom=connectivity e
 mpiricaldispersion=gd3
 ----------------------------------------------------------------------
 1/10=4,30=1,38=1,57=2/1,3;
 2/12=2,17=6,18=5,40=1/2;
 3/5=1,6=6,7=111,11=2,16=1,25=1,30=1,70=2101,71=2,72=1,74=-5,124=31,140=1/1,2,3;
 4//1;
 5/5=2,38=5,53=1,98=1/2;
 8/6=4,10=90,11=11/1;
 11/6=1,8=1,9=11,15=111,16=1/1,2,10;
 10/6=1/2;
 6/7=2,8=2,9=2,10=2,18=1,28=1/1;
 7/8=1,10=1,25=1/1,2,3,16;
 1/10=4,30=1/3;
 99//99;
 -------------------
 Title Card Required
 -------------------
 Symbolic Z-matrix:
 Charge =  0 Multiplicity = 1
 C                     0.51755  -0.73062   1.34934 
 C                     1.67806  -1.66976   0.9609 
 C                    -0.24426  -2.87448   0.51961 
 C                    -0.701    -1.61992   1.22471 
 H                     0.6005    0.10661   2.02645 
 H                    -1.72184  -1.2993    1.36854 
 C                     1.11813  -2.61066  -0.11235 
 H                     1.72492  -3.51678  -0.19374 
 H                     1.03564  -2.12926  -1.08728 
 C                     1.18911  -2.13899   2.25972 
 H                     1.61427  -1.89707   3.22496 
 C                    -0.09318  -2.84452   2.01451 
 H                    -0.65484  -3.41358   2.74169 
 H                     2.66623  -1.22878   0.8915 
 H                    -0.98759  -3.51944   0.06789 
 N                    -0.75149   0.00193  -1.06801 
 N                     0.09591   0.63673  -0.3011 
 C                    -2.09022   0.22814  -0.75333 
 C                     1.41552   0.64326  -0.83389 
 O                     1.79129   0.11347  -1.86859 
 O                    -2.98021  -0.27292  -1.44342 
 O                     2.19292   1.38177  -0.03396 
 O                    -2.33766   1.02329   0.30481 
 C                    -3.72737   1.26922   0.62072 
 H                    -3.71379   1.91736   1.49569 
 H                    -4.2235    1.76608  -0.21541 
 H                    -4.23566   0.33032   0.85101 
 C                     3.58281   1.51002  -0.42496 
 H                     4.06579   0.53103  -0.43786 
 H                     3.6527    1.97059  -1.41268 
 H                     4.0325    2.14811   0.33335 
 O                     1.5536    4.50819   0.69054 
 H                     0.91376   3.87651   1.0879 
 H                     1.99089   3.99643  -0.00186 
 O                     4.04661  -1.58275  -2.31006 
 H                     4.69897  -1.13     -2.86007 
 H                     3.30476  -0.95688  -2.22371 
 O                    -0.20858   2.6161    1.71942 
 H                    -1.12748   2.88479   1.84677 
 H                    -0.23705   1.94485   0.99739 
 O                    -5.79348  -0.36294  -1.56122 
 H                    -4.81871  -0.31704  -1.50373 
 H                    -5.97823  -0.89902  -2.34299 
 

 GradGradGradGradGradGradGradGradGradGradGradGradGradGradGradGradGradGrad
 Berny optimization.
 Initialization pass.
 Trust Radius=3.00D-01 FncErr=1.00D-07 GrdErr=1.00D-07
 Number of steps in this run=      2 maximum allowed number of steps=      2.
 GradGradGradGradGradGradGradGradGradGradGradGradGradGradGradGradGradGrad

                          Input orientation:                          
 ---------------------------------------------------------------------
 Center     Atomic      Atomic             Coordinates (Angstroms)
 Number     Number       Type             X           Y           Z
 ---------------------------------------------------------------------
      1          6           0        0.517552   -0.730621    1.349336
      2          6           0        1.678060   -1.669762    0.960900
      3          6           0       -0.244259   -2.874476    0.519610
      4          6           0       -0.701003   -1.619915    1.224705
      5          1           0        0.600497    0.106608    2.026450
      6          1           0       -1.721843   -1.299300    1.368544
      7          6           0        1.118125   -2.610657   -0.112351
      8          1           0        1.724919   -3.516778   -0.193735
      9          1           0        1.035640   -2.129259   -1.087278
     10          6           0        1.189113   -2.138995    2.259723
     11          1           0        1.614271   -1.897073    3.224960
     12          6           0       -0.093183   -2.844520    2.014508
     13          1           0       -0.654842   -3.413577    2.741686
     14          1           0        2.666225   -1.228775    0.891504
     15          1           0       -0.987589   -3.519440    0.067887
     16          7           0       -0.751488    0.001932   -1.068009
     17          7           0        0.095910    0.636729   -0.301102
     18          6           0       -2.090219    0.228140   -0.753334
     19          6           0        1.415524    0.643257   -0.833894
     20          8           0        1.791290    0.113466   -1.868589
     21          8           0       -2.980207   -0.272924   -1.443421
     22          8           0        2.192923    1.381765   -0.033957
     23          8           0       -2.337664    1.023293    0.304814
     24          6           0       -3.727369    1.269224    0.620716
     25          1           0       -3.713794    1.917360    1.495693
     26          1           0       -4.223500    1.766080   -0.215413
     27          1           0       -4.235659    0.330316    0.851009
     28          6           0        3.582809    1.510017   -0.424960
     29          1           0        4.065786    0.531033   -0.437857
     30          1           0        3.652704    1.970588   -1.412675
     31          1           0        4.032503    2.148106    0.333349
     32          8           0        1.553601    4.508194    0.690542
     33          1           0        0.913756    3.876509    1.087902
     34          1           0        1.990893    3.996430   -0.001861
     35          8           0        4.046608   -1.582748   -2.310063
     36          1           0        4.698969   -1.129995   -2.860065
     37          1           0        3.304758   -0.956878   -2.223711
     38          8           0       -0.208580    2.616100    1.719422
     39          1           0       -1.127475    2.884789    1.846773
     40          1           0       -0.237045    1.944851    0.997391
     41          8           0       -5.793482   -0.362938   -1.561223
     42          1           0       -4.818712   -0.317044   -1.503733
     43          1           0       -5.978234   -0.899016   -2.342993
 ---------------------------------------------------------------------
                    Distance matrix (angstroms):
                    1          2          3          4          5
     1  C    0.000000
     2  C    1.542611   0.000000
     3  C    2.421759   2.311143   0.000000
     4  C    1.513689   2.394163   1.509867   0.000000
     5  H    1.079961   2.334958   3.445438   2.305988   0.000000
     6  H    2.310553   3.444235   2.320587   1.079629   2.793328
     7  C    2.455963   1.533192   1.524816   2.465464   3.496561
     8  H    3.406094   2.178726   2.190679   3.390451   4.395733
     9  H    2.856867   2.195193   2.185310   2.936090   3.857947
    10  C    1.806465   1.464988   2.371388   2.216584   2.333156
    11  H    2.466043   2.276336   3.424671   3.072187   2.545369
    12  C    2.298700   2.372224   1.502811   1.578889   3.031582
    13  H    3.242129   3.413872   2.323108   2.349593   3.805147
    14  H    2.252679   1.084323   3.364157   3.406206   2.708982
    15  H    3.418344   3.365184   1.082854   2.242444   4.416584
    16  N    2.826774   3.579628   3.324385   2.808821   3.378535
    17  N    2.184347   3.068509   3.621856   2.838239   2.439905
    18  C    3.484381   4.554180   3.828078   3.042674   3.870649
    19  C    2.731371   2.939433   4.118410   3.720143   3.022223
    20  O    3.562293   3.346451   4.332984   4.334121   4.073004
    21  O    4.499255   5.425068   4.255229   3.758730   5.000549
    22  O    3.030271   3.250637   4.935776   4.355355   2.899504
    23  O    3.509914   4.879450   4.429569   3.242130   3.526632
    24  C    4.748644   6.162145   5.414104   4.227389   4.696615
    25  H    4.993747   6.498118   5.996007   4.654316   4.708889
    26  H    5.582072   6.929440   6.157059   5.093809   5.572319
    27  H    4.895603   6.243754   5.129502   4.054238   4.981979
    28  C    4.190989   3.957230   5.895968   5.555980   4.107694
    29  H    4.168428   3.535711   5.575906   5.487528   4.273309
    30  H    4.975381   4.773387   6.511121   6.229145   4.961650
    31  H    4.655554   4.529165   6.599372   6.115438   4.337392
    32  O    5.380761   6.185121   7.600351   6.551510   4.697554
    33  H    4.631519   5.600126   6.873118   5.730344   3.897583
    34  H    5.132395   5.755910   7.244114   6.347763   4.601952
    35  O    5.154761   4.039405   5.299731   5.919103   5.790937
    36  H    5.946663   4.900716   6.237060   6.788598   6.496514
    37  H    4.537221   3.646381   4.878372   5.327036   5.148582
    38  O    3.444528   4.743773   5.620253   4.293140   2.654510
    39  H    4.003092   5.422152   5.975832   4.567407   3.276654
    40  H    2.802041   4.090768   4.842958   3.602011   2.267063
    41  O    6.959576   7.993299   6.436736   5.939253   7.346757
    42  H    6.065209   7.079005   5.617828   5.108559   6.481474
    43  H    7.473746   8.374282   6.706371   6.410720   7.961345
                    6          7          8          9         10
     6  H    0.000000
     7  C    3.460943   0.000000
     8  H    4.386125   1.093562   0.000000
     9  H    3.784654   1.090427   1.788500   0.000000
    10  C    3.157998   2.419554   2.864407   3.350532   0.000000
    11  H    3.864359   3.448624   3.784595   4.357077   1.082113
    12  C    2.336131   2.458757   2.938327   3.377413   1.483974
    13  H    2.737550   3.454507   3.780292   4.378147   2.292819
    14  H    4.414485   2.305198   2.701621   2.717583   2.209612
    15  H    2.675791   2.300522   2.725097   2.713018   3.383461
    16  N    2.927727   3.351769   4.390702   2.781398   4.407187
    17  N    3.136902   3.409702   4.462826   3.025203   3.931611
    18  C    2.640292   4.331639   5.375206   3.929357   5.043398
    19  C    4.297363   3.346196   4.220358   2.809868   4.166852
    20  O    4.981671   3.310343   3.998526   2.492242   4.741219
    21  O    3.247164   4.902353   5.850001   4.438451   5.880368
    22  O    4.947778   4.135308   4.923442   3.843967   4.320226
    23  O    2.627774   5.032107   6.112723   4.822415   5.124441
    24  C    3.343456   6.250574   7.300451   6.095341   6.202749
    25  H    3.785622   6.814410   7.871698   6.753072   6.409076
    26  H    4.261897   6.906476   7.955674   6.602452   7.118447
    27  H    3.040191   6.183881   7.170782   6.131318   6.124551
    28  C    6.264842   4.811688   5.364130   4.491221   5.123728
    29  H    6.333234   4.320287   4.682310   4.084200   4.762482
    30  H    6.878452   5.394695   5.942504   4.874798   6.036925
    31  H    6.787395   5.598042   6.139517   5.412506   5.493179
    32  O    6.701881   7.177208   8.075362   6.890915   6.839613
    33  H    5.814993   6.600432   7.547269   6.388702   6.134760
    34  H    6.611140   6.665398   7.520363   6.294021   6.587948
    35  O    6.847446   3.802966   3.689113   3.295422   5.418268
    36  H    7.690034   4.750235   4.653066   4.190618   6.288831
    37  H    6.187751   3.460374   3.629019   2.795506   5.096522
    38  O    4.212296   5.695132   6.709007   5.651909   4.985619
    39  H    4.253067   6.251465   7.299307   6.199064   5.547568
    40  H    3.587045   4.880642   5.924312   4.750152   4.506130
    41  O    5.102799   7.410923   8.266988   7.069754   8.155406
    42  H    4.336519   6.514801   7.400912   6.142556   7.319636
    43  H    5.661501   7.633072   8.414901   7.230819   8.607753
                   11         12         13         14         15
    11  H    0.000000
    12  C    2.297444   0.000000
    13  H    2.771680   1.080775   0.000000
    14  H    2.645420   3.389115   4.384748   0.000000
    15  H    4.401007   2.246066   2.696503   4.390427   0.000000
    16  N    5.256674   4.247066   5.117501   4.127359   3.707568
    17  N    4.599857   4.185320   5.121247   3.392482   4.310901
    18  C    5.836660   4.592422   5.247626   5.239452   3.991811
    19  C    4.792397   4.749124   5.790431   2.836504   4.890420
    20  O    5.478854   5.232529   6.299066   3.191432   4.966902
    21  O    6.748398   5.187031   5.725919   6.184474   4.098103
    22  O    4.658987   5.223406   6.229708   2.809878   5.843615
    23  O    5.716081   4.787559   5.334421   5.518598   4.745025
    24  C    6.733546   5.663290   5.988953   6.869597   5.544666
    25  H    6.777060   6.004456   6.271250   7.139177   6.247369
    26  H    7.702884   6.579491   6.950439   7.593598   6.203878
    27  H    6.694668   5.347282   5.514857   7.075903   5.097437
    28  C    5.367059   6.198864   7.226833   3.173986   6.813727
    29  H    5.032082   5.891135   6.924866   2.612067   6.496053
    30  H    6.373513   6.997322   8.050025   4.064272   7.339264
    31  H    5.529262   6.691330   7.661828   3.685319   7.575808
    32  O    6.888715   7.650306   8.475781   5.847318   8.443237
    33  H    6.196127   6.858918   7.638119   5.401263   7.704259
    34  H    6.729606   7.430189   8.332777   5.343870   8.084833
    35  O    6.054052   6.118158   7.139729   3.504395   5.894791
    36  H    6.865224   7.047395   8.078221   4.268029   6.827832
    37  H    5.781845   5.750800   6.809476   3.191585   5.499308
    38  O    5.094915   5.469805   6.131980   4.871654   6.401506
    39  H    5.681793   5.824335   6.379159   5.676804   6.648169
    40  H    4.811425   4.898295   5.650652   4.302568   5.593368
    41  O    8.951867   7.171995   7.363901   8.850547   5.976128
    42  H    8.138814   6.410677   6.704470   7.911555   5.234772
    43  H    9.468070   7.576716   7.779170   9.235658   6.130702
                   16         17         18         19         20
    16  N    0.000000
    17  N    1.307363   0.000000
    18  C    1.393697   2.269497   0.000000
    19  C    2.272014   1.423127   3.531154   0.000000
    20  O    2.668162   2.367516   4.040180   1.221668   0.000000
    21  O    2.276767   3.405122   1.232625   4.531375   4.805960
    22  O    3.412149   2.241408   4.493736   1.337775   2.266223
    23  O    2.333190   2.537489   1.346542   3.940495   4.753917
    24  C    3.648793   3.983373   2.377421   5.381178   6.163442
    25  H    4.360813   4.402537   3.247704   5.775830   6.699133
    26  H    3.986729   4.465432   2.684307   5.782892   6.453048
    27  H    3.991230   4.492632   2.680908   5.905311   6.615690
    28  C    4.634001   3.596726   5.825314   2.369731   2.691461
    29  H    4.887041   3.973637   6.171521   2.682038   2.719318
    30  H    4.836456   3.957974   6.037551   2.664915   2.668637
    31  H    5.427378   4.264218   6.508062   3.236604   3.743171
    32  O    5.358389   4.253994   5.803539   4.157007   5.091098
    33  H    4.736384   3.618616   5.071944   3.794600   4.865326
    34  H    4.961183   3.868862   5.605372   3.502442   4.312995
    35  O    5.203425   4.956815   6.585087   3.749237   2.856309
    36  H    5.848094   5.554976   7.237121   4.246269   3.314184
    37  H    4.325286   4.066044   5.715947   2.839230   1.887414
    38  O    3.859844   2.844845   3.918857   3.612374   4.810039
    39  H    4.116817   3.341229   3.839950   4.321722   5.477530
    40  H    2.881920   1.872999   3.073498   2.789039   3.960045
    41  O    5.079182   6.105094   3.836172   7.315135   7.605932
    42  H    4.102915   5.148739   2.881839   6.343230   6.634047
    43  H    5.454921   6.589617   4.349041   7.702184   7.849566
                   21         22         23         24         25
    21  O    0.000000
    22  O    5.611226   0.000000
    23  O    2.269221   4.557355   0.000000
    24  C    2.682747   5.957442   1.446221   0.000000
    25  H    3.738166   6.125030   2.027630   1.088967   0.000000
    26  H    2.685390   6.430483   2.092545   1.091844   1.791806
    27  H    2.684114   6.573840   2.093067   1.092219   1.790718
    28  C    6.876723   1.449522   5.985104   7.388513   7.556140
    29  H    7.162648   2.096305   6.465141   7.899289   8.135256
    30  H    7.002128   2.092495   6.303304   7.687137   7.920021
    31  H    7.628656   2.026388   6.468775   7.814770   7.836415
    32  O    6.925915   3.272337   5.237868   6.195518   5.925043
    33  H    6.228028   3.019699   4.396112   5.343804   5.041704
    34  H    6.709494   2.622655   5.260228   6.365829   6.253691
    35  O    7.200197   4.171947   7.374819   8.783959   9.325147
    36  H    7.855647   4.536088   8.010450   9.427368   9.951562
    37  H    6.370042   3.391231   6.492414   7.905511   8.447206
    38  O    5.102152   3.219493   3.011835   3.924679   3.581175
    39  H    4.922311   4.101374   2.703213   3.297380   2.783563
    40  H    4.289642   2.699165   2.396149   3.575013   3.512384
    41  O    2.817179   8.316201   4.164902   3.419596   4.343915
    42  H    1.840023   7.362691   3.350066   2.867152   3.899995
    43  H    3.192082   8.792122   4.894885   4.307114   5.272113
                   26         27         28         29         30
    26  H    0.000000
    27  H    1.788525   0.000000
    28  C    7.813318   8.009259   0.000000
    29  H    8.383739   8.403300   1.091716   0.000000
    30  H    7.969307   8.369052   1.092059   1.786960   0.000000
    31  H    8.283035   8.481441   1.088308   1.791868   1.795650
    32  O    6.458703   7.141145   3.788284   4.837579   3.907582
    33  H    5.704730   6.256842   3.874646   4.843082   4.169803
    34  H    6.605963   7.275832   2.982526   4.062542   2.975911
    35  O    9.164982   9.069076   3.651564   2.823755   3.686009
    36  H    9.746378   9.784281   3.761012   3.004501   3.578159
    37  H    8.253631   8.244311   3.065679   2.445878   3.057598
    38  O    4.537147   4.711297   4.494043   5.222218   5.013605
    39  H    3.884519   4.144597   5.407175   6.142448   5.857463
    40  H    4.170693   4.314750   4.099201   4.751123   4.575940
    41  O    2.967956   2.954027   9.628805   9.963248   9.731282
    42  H    2.520605   2.510744   8.665302   8.988305   8.775331
    43  H    3.835156   3.840504  10.044692  10.322641  10.092328
                   31         32         33         34         35
    31  H    0.000000
    32  O    3.441302   0.000000
    33  H    3.644628   0.983017   0.000000
    34  H    2.774318   0.965686   1.536941   0.000000
    35  O    4.572428   7.233138   7.152931   6.378165   0.000000
    36  H    4.624718   7.368129   7.414807   6.463996   0.965952
    37  H    4.087676   6.436337   6.328136   5.585528   0.974429
    38  O    4.486313   2.782786   1.801967   3.115415   7.209279
    39  H    5.427571   3.340731   2.392910   3.791756   8.000582
    40  H    4.325657   3.141862   2.250297   3.189230   6.460100
    41  O   10.317205   9.098242   8.365274   9.057163   9.943645
    42  H    9.369944   8.288796   7.560665   8.199536   8.991444
    43  H   10.801047   9.755449   9.059592   9.641228  10.048185
                   36         37         38         39         40
    36  H    0.000000
    37  H    1.542317   0.000000
    38  O    7.686935   6.376364   0.000000
    39  H    8.498251   7.139463   0.965805   0.000000
    40  H    6.978458   5.598205   0.986263   1.548483   0.000000
    41  O   10.600325   9.141642   7.129406   6.628257   6.538072
    42  H    9.648149   8.180374   6.343925   5.924766   5.688889
    43  H   10.692211   9.283939   7.883411   7.443197   7.225441
                   41         42         43
    41  O    0.000000
    42  H    0.977542   0.000000
    43  H    0.965752   1.545167   0.000000
 Stoichiometry    C11H22N2O8
 Framework group  C1[X(C11H22N2O8)]
 Deg. of freedom   123
 Full point group                 C1      NOp   1
 Largest Abelian subgroup         C1      NOp   1
 Largest concise Abelian subgroup C1      NOp   1
                         Standard orientation:                         
 ---------------------------------------------------------------------
 Center     Atomic      Atomic             Coordinates (Angstroms)
 Number     Number       Type             X           Y           Z
 ---------------------------------------------------------------------
      1          6           0       -0.517552   -0.730621   -1.349336
      2          6           0       -1.678060   -1.669762   -0.960900
      3          6           0        0.244259   -2.874476   -0.519610
      4          6           0        0.701003   -1.619915   -1.224705
      5          1           0       -0.600497    0.106608   -2.026450
      6          1           0        1.721843   -1.299300   -1.368544
      7          6           0       -1.118125   -2.610657    0.112351
      8          1           0       -1.724919   -3.516778    0.193735
      9          1           0       -1.035640   -2.129259    1.087278
     10          6           0       -1.189113   -2.138995   -2.259723
     11          1           0       -1.614271   -1.897073   -3.224960
     12          6           0        0.093183   -2.844520   -2.014508
     13          1           0        0.654842   -3.413577   -2.741686
     14          1           0       -2.666225   -1.228775   -0.891504
     15          1           0        0.987589   -3.519440   -0.067887
     16          7           0        0.751488    0.001932    1.068009
     17          7           0       -0.095910    0.636729    0.301102
     18          6           0        2.090219    0.228140    0.753334
     19          6           0       -1.415524    0.643257    0.833894
     20          8           0       -1.791290    0.113466    1.868589
     21          8           0        2.980207   -0.272924    1.443421
     22          8           0       -2.192923    1.381765    0.033957
     23          8           0        2.337664    1.023293   -0.304814
     24          6           0        3.727369    1.269224   -0.620716
     25          1           0        3.713794    1.917360   -1.495693
     26          1           0        4.223500    1.766080    0.215413
     27          1           0        4.235659    0.330316   -0.851009
     28          6           0       -3.582809    1.510017    0.424960
     29          1           0       -4.065786    0.531033    0.437857
     30          1           0       -3.652704    1.970588    1.412675
     31          1           0       -4.032503    2.148106   -0.333349
     32          8           0       -1.553601    4.508194   -0.690542
     33          1           0       -0.913756    3.876509   -1.087902
     34          1           0       -1.990893    3.996430    0.001861
     35          8           0       -4.046608   -1.582748    2.310063
     36          1           0       -4.698969   -1.129995    2.860065
     37          1           0       -3.304758   -0.956878    2.223711
     38          8           0        0.208580    2.616100   -1.719422
     39          1           0        1.127475    2.884789   -1.846773
     40          1           0        0.237045    1.944851   -0.997391
     41          8           0        5.793482   -0.362938    1.561223
     42          1           0        4.818712   -0.317044    1.503733
     43          1           0        5.978234   -0.899016    2.342993
 ---------------------------------------------------------------------
 Rotational constants (GHZ):      0.3101377      0.2086512      0.1690823
 Standard basis: 6-31+G(d,p) (6D, 7F)
 There are   509 symmetry adapted cartesian basis functions of A   symmetry.
 There are   509 symmetry adapted basis functions of A   symmetry.
   509 basis functions,   826 primitive gaussians,   509 cartesian basis functions
    83 alpha electrons       83 beta electrons
       nuclear repulsion energy      1931.7665137599 Hartrees.
 NAtoms=   43 NActive=   43 NUniq=   43 SFac= 1.00D+00 NAtFMM=   60 NAOKFM=F Big=F
 Integral buffers will be    131072 words long.
 Raffenetti 2 integral format.
 Two-electron integral symmetry is turned on.
 Nuclear repulsion after empirical dispersion term =     1931.7165781672 Hartrees.
 Force inversion solution in PCM.
 ------------------------------------------------------------------------------
 Polarizable Continuum Model (PCM)
 =================================
 Model                : C-PCM.
 Atomic radii         : UFF (Universal Force Field).
 Polarization charges : Total charges.
 Charge compensation  : None.
 Solution method      : Matrix inversion.
 Cavity type          : Scaled VdW (van der Waals Surface) (Alpha=1.100).
 Cavity algorithm     : GePol (No added spheres)
                        Default sphere list used, NSphG=   43.
                        Lebedev-Laikov grids with approx.  5.0 points / Ang**2.
                        Smoothing algorithm: Karplus/York (Gamma=1.0000).
                        Polarization charges: spherical gaussians, with
                                              point-specific exponents (IZeta= 3).
                        Self-potential: point-specific (ISelfS= 7).
                        Self-field    : sphere-specific E.n sum rule (ISelfD= 2).
 1st derivatives      : Analytical E(r).r(x)/FMM algorithm (CHGder, D1EAlg=3).
                        Cavity 1st derivative terms included.
 2nd derivatives      : Analytical E(r).r(xy)/FMM algorithm (CHGder, D2EAlg=3).
                        Cavity 2nd derivative terms included.
 Solvent              : Water, Eps=  78.355300 Eps(inf)=   1.777849
 ------------------------------------------------------------------------------
 One-electron integrals computed using PRISM.
 NBasis=   509 RedAO= T EigKep=  4.48D-06  NBF=   509
 NBsUse=   509 1.00D-06 EigRej= -1.00D+00 NBFU=   509
 ExpMin= 4.38D-02 ExpMax= 5.48D+03 ExpMxC= 8.25D+02 IAcc=2 IRadAn=         4 AccDes= 0.00D+00
 Harris functional with IExCor=  402 and IRadAn=       4 diagonalized for initial guess.
 HarFok:  IExCor=  402 AccDes= 0.00D+00 IRadAn=         4 IDoV= 1 UseB2=F ITyADJ=14
 ICtDFT=  3500011 ScaDFX=  1.000000  1.000000  1.000000  1.000000
 FoFCou: FMM=F IPFlag=           0 FMFlag=      100000 FMFlg1=           0
         NFxFlg=           0 DoJE=T BraDBF=F KetDBF=T FulRan=T
         wScrn=  0.000000 ICntrl=     500 IOpCl=  0 I1Cent=   200000004 NGrid=           0
         NMat0=    1 NMatS0=      1 NMatT0=    0 NMatD0=    1 NMtDS0=    0 NMtDT0=    0
 Petite list used in FoFCou.
 Requested convergence on RMS density matrix=1.00D-08 within 128 cycles.
 Requested convergence on MAX density matrix=1.00D-06.
 Requested convergence on             energy=1.00D-06.
 No special actions if energy rises.
 Inv3:  Mode=2 IEnd=    20403272.
 Iteration    1 A*A^-1 deviation from unit magnitude is 5.77D-15 for    783.
 Iteration    1 A*A^-1 deviation from orthogonality  is 2.44D-15 for   3168    429.
 Iteration    1 A^-1*A deviation from unit magnitude is 6.22D-15 for    783.
 Iteration    1 A^-1*A deviation from orthogonality  is 1.38D-15 for   1983    345.
 Error on total polarization charges =  0.01925
 SCF Done:  E(RB3LYP) =  -1143.70527021     A.U. after   17 cycles
            NFock= 17  Conv=0.62D-08     -V/T= 2.0092
 DoSCS=F DFT=T ScalE2(SS,OS)=  1.000000  1.000000
 Range of M.O.s used for correlation:     1   509
 NBasis=   509 NAE=    83 NBE=    83 NFC=     0 NFV=     0
 NROrb=    509 NOA=    83 NOB=    83 NVA=   426 NVB=   426

 **** Warning!!: The largest alpha MO coefficient is  0.68885025D+02


 **** Warning!!: The smallest alpha delta epsilon is  0.90934663D-01

 PrsmSu:  requested number of processors reduced to:   1 ShMem   1 Linda.
 Symmetrizing basis deriv contribution to polar:
 IMax=3 JMax=2 DiffMx= 0.00D+00
 G2DrvN: will do    11 centers at a time, making    4 passes.
 Calling FoFCou, ICntrl=  3107 FMM=F I1Cent=   0 AccDes= 0.00D+00.
 Calling FoFCou, ICntrl=  3107 FMM=F I1Cent=   0 AccDes= 0.00D+00.
 Calling FoFCou, ICntrl=  3107 FMM=F I1Cent=   0 AccDes= 0.00D+00.
 Calling FoFCou, ICntrl=  3107 FMM=F I1Cent=   0 AccDes= 0.00D+00.
 NEqPCM:  Using equilibrium solvation (IEInf=0, Eps=  78.3553, EpsInf=   1.7778)
 G2PCM: DoFxE=T DoFxN=T DoGrad=T DoDP/DQ/DG/TGxP=FFFF NFrqRd=   0 IEInf=0 SqF1=F DoCFld=F IF1Alg=4.
 CoulSu:  requested number of processors reduced to:   3 ShMem   1 Linda.
 CoulSu:  requested number of processors reduced to:   3 ShMem   1 Linda.
 CoulSu:  requested number of processors reduced to:   3 ShMem   1 Linda.
 CoulSu:  requested number of processors reduced to:   3 ShMem   1 Linda.
 End of G2Drv F.D. properties file   721 does not exist.
 End of G2Drv F.D. properties file   722 does not exist.
 End of G2Drv F.D. properties file   788 does not exist.
          IDoAtm=1111111111111111111111111111111111111111111
 NEqPCM:  Using equilibrium solvation (IEInf=0, Eps=  78.3553, EpsInf=   1.7778)
          Differentiating once with respect to electric field.
                with respect to dipole field.
          Differentiating once with respect to nuclear coordinates.
          There are   132 degrees of freedom in the 1st order CPHF.  IDoFFX=6 NUNeed=     3.
    132 vectors produced by pass  0 Test12= 3.54D-14 1.00D-09 XBig12= 3.74D+02 1.26D+01.
 AX will form    16 AO Fock derivatives at one time.
    132 vectors produced by pass  1 Test12= 3.54D-14 1.00D-09 XBig12= 9.12D+01 1.26D+00.
    129 vectors produced by pass  2 Test12= 3.54D-14 1.00D-09 XBig12= 7.11D-01 7.80D-02.
    129 vectors produced by pass  3 Test12= 3.54D-14 1.00D-09 XBig12= 2.74D-03 4.26D-03.
    129 vectors produced by pass  4 Test12= 3.54D-14 1.00D-09 XBig12= 6.08D-06 1.88D-04.
    128 vectors produced by pass  5 Test12= 3.54D-14 1.00D-09 XBig12= 7.57D-09 4.81D-06.
     67 vectors produced by pass  6 Test12= 3.54D-14 1.00D-09 XBig12= 8.53D-12 2.08D-07.
     38 vectors produced by pass  7 Test12= 3.54D-14 1.00D-09 XBig12= 1.52D-13 2.31D-08.
     26 vectors produced by pass  8 Test12= 3.54D-14 1.00D-09 XBig12= 2.04D-14 8.22D-09.
     25 vectors produced by pass  9 Test12= 3.54D-14 1.00D-09 XBig12= 8.22D-15 6.43D-09.
     25 vectors produced by pass 10 Test12= 3.54D-14 1.00D-09 XBig12= 9.56D-15 5.74D-09.
     25 vectors produced by pass 11 Test12= 3.54D-14 1.00D-09 XBig12= 1.01D-14 5.48D-09.
     24 vectors produced by pass 12 Test12= 3.54D-14 1.00D-09 XBig12= 1.08D-14 5.58D-09.
     23 vectors produced by pass 13 Test12= 3.54D-14 1.00D-09 XBig12= 6.49D-15 4.22D-09.
     22 vectors produced by pass 14 Test12= 3.54D-14 1.00D-09 XBig12= 3.85D-15 3.49D-09.
     21 vectors produced by pass 15 Test12= 3.54D-14 1.00D-09 XBig12= 4.03D-15 3.34D-09.
     17 vectors produced by pass 16 Test12= 3.54D-14 1.00D-09 XBig12= 3.29D-15 2.98D-09.
     17 vectors produced by pass 17 Test12= 3.54D-14 1.00D-09 XBig12= 5.65D-15 3.54D-09.
     11 vectors produced by pass 18 Test12= 3.54D-14 1.00D-09 XBig12= 3.68D-15 3.55D-09.
      8 vectors produced by pass 19 Test12= 3.54D-14 1.00D-09 XBig12= 2.46D-15 3.19D-09.
      8 vectors produced by pass 20 Test12= 3.54D-14 1.00D-09 XBig12= 2.67D-15 2.91D-09.
      8 vectors produced by pass 21 Test12= 3.54D-14 1.00D-09 XBig12= 2.63D-15 2.55D-09.
      7 vectors produced by pass 22 Test12= 3.54D-14 1.00D-09 XBig12= 1.05D-15 1.92D-09.
      7 vectors produced by pass 23 Test12= 3.54D-14 1.00D-09 XBig12= 2.43D-15 2.73D-09.
      7 vectors produced by pass 24 Test12= 3.54D-14 1.00D-09 XBig12= 2.11D-15 2.35D-09.
      7 vectors produced by pass 25 Test12= 3.54D-14 1.00D-09 XBig12= 2.52D-15 3.15D-09.
      7 vectors produced by pass 26 Test12= 3.54D-14 1.00D-09 XBig12= 1.44D-15 2.05D-09.
      7 vectors produced by pass 27 Test12= 3.54D-14 1.00D-09 XBig12= 3.33D-15 3.82D-09.
      7 vectors produced by pass 28 Test12= 3.54D-14 1.00D-09 XBig12= 1.73D-15 2.14D-09.
      7 vectors produced by pass 29 Test12= 3.54D-14 1.00D-09 XBig12= 2.85D-15 2.79D-09.
      6 vectors produced by pass 30 Test12= 3.54D-14 1.00D-09 XBig12= 1.07D-15 1.81D-09.
      6 vectors produced by pass 31 Test12= 3.54D-14 1.00D-09 XBig12= 2.36D-15 2.38D-09.
      6 vectors produced by pass 32 Test12= 3.54D-14 1.00D-09 XBig12= 1.81D-15 2.06D-09.
      6 vectors produced by pass 33 Test12= 3.54D-14 1.00D-09 XBig12= 2.72D-15 2.89D-09.
      6 vectors produced by pass 34 Test12= 3.54D-14 1.00D-09 XBig12= 2.86D-15 2.53D-09.
      6 vectors produced by pass 35 Test12= 3.54D-14 1.00D-09 XBig12= 2.04D-15 2.93D-09.
      6 vectors produced by pass 36 Test12= 3.54D-14 1.00D-09 XBig12= 2.45D-15 2.36D-09.
      6 vectors produced by pass 37 Test12= 3.54D-14 1.00D-09 XBig12= 1.99D-15 2.38D-09.
      5 vectors produced by pass 38 Test12= 3.54D-14 1.00D-09 XBig12= 1.48D-15 1.76D-09.
      4 vectors produced by pass 39 Test12= 3.54D-14 1.00D-09 XBig12= 1.43D-15 1.96D-09.
      4 vectors produced by pass 40 Test12= 3.54D-14 1.00D-09 XBig12= 1.83D-15 2.51D-09.
      4 vectors produced by pass 41 Test12= 3.54D-14 1.00D-09 XBig12= 3.40D-15 3.22D-09.
      4 vectors produced by pass 42 Test12= 3.54D-14 1.00D-09 XBig12= 1.41D-15 1.84D-09.
      4 vectors produced by pass 43 Test12= 3.54D-14 1.00D-09 XBig12= 2.97D-15 2.42D-09.
      4 vectors produced by pass 44 Test12= 3.54D-14 1.00D-09 XBig12= 1.99D-15 2.32D-09.
      4 vectors produced by pass 45 Test12= 3.54D-14 1.00D-09 XBig12= 1.97D-15 2.89D-09.
      4 vectors produced by pass 46 Test12= 3.54D-14 1.00D-09 XBig12= 1.50D-15 1.89D-09.
      4 vectors produced by pass 47 Test12= 3.54D-14 1.00D-09 XBig12= 1.25D-15 1.46D-09.
      4 vectors produced by pass 48 Test12= 3.54D-14 1.00D-09 XBig12= 1.98D-15 2.15D-09.
      4 vectors produced by pass 49 Test12= 3.54D-14 1.00D-09 XBig12= 1.49D-15 2.19D-09.
      4 vectors produced by pass 50 Test12= 3.54D-14 1.00D-09 XBig12= 1.72D-15 1.98D-09.
      3 vectors produced by pass 51 Test12= 3.54D-14 1.00D-09 XBig12= 9.89D-16 1.60D-09.
      3 vectors produced by pass 52 Test12= 3.54D-14 1.00D-09 XBig12= 1.15D-15 1.61D-09.
      3 vectors produced by pass 53 Test12= 3.54D-14 1.00D-09 XBig12= 1.62D-15 2.27D-09.
      1 vectors produced by pass 54 Test12= 3.54D-14 1.00D-09 XBig12= 5.15D-16 1.18D-09.
 InvSVY:  IOpt=1 It=  1 EMax= 4.26D-14
 Solved reduced A of dimension  1311 with   132 vectors.
 Isotropic polarizability for W=    0.000000      301.24 Bohr**3.
 End of Minotr F.D. properties file   721 does not exist.
 End of Minotr F.D. properties file   722 does not exist.
 End of Minotr F.D. properties file   788 does not exist.

 **********************************************************************

            Population analysis using the SCF density.

 **********************************************************************

 Orbital symmetries:
       Occupied  (A) (A) (A) (A) (A) (A) (A) (A) (A) (A) (A) (A)
                 (A) (A) (A) (A) (A) (A) (A) (A) (A) (A) (A) (A)
                 (A) (A) (A) (A) (A) (A) (A) (A) (A) (A) (A) (A)
                 (A) (A) (A) (A) (A) (A) (A) (A) (A) (A) (A) (A)
                 (A) (A) (A) (A) (A) (A) (A) (A) (A) (A) (A) (A)
                 (A) (A) (A) (A) (A) (A) (A) (A) (A) (A) (A) (A)
                 (A) (A) (A) (A) (A) (A) (A) (A) (A) (A) (A)
       Virtual   (A) (A) (A) (A) (A) (A) (A) (A) (A) (A) (A) (A)
                 (A) (A) (A) (A) (A) (A) (A) (A) (A) (A) (A) (A)
                 (A) (A) (A) (A) (A) (A) (A) (A) (A) (A) (A) (A)
                 (A) (A) (A) (A) (A) (A) (A) (A) (A) (A) (A) (A)
                 (A) (A) (A) (A) (A) (A) (A) (A) (A) (A) (A) (A)
                 (A) (A) (A) (A) (A) (A) (A) (A) (A) (A) (A) (A)
                 (A) (A) (A) (A) (A) (A) (A) (A) (A) (A) (A) (A)
                 (A) (A) (A) (A) (A) (A) (A) (A) (A) (A) (A) (A)
                 (A) (A) (A) (A) (A) (A) (A) (A) (A) (A) (A) (A)
                 (A) (A) (A) (A) (A) (A) (A) (A) (A) (A) (A) (A)
                 (A) (A) (A) (A) (A) (A) (A) (A) (A) (A) (A) (A)
                 (A) (A) (A) (A) (A) (A) (A) (A) (A) (A) (A) (A)
                 (A) (A) (A) (A) (A) (A) (A) (A) (A) (A) (A) (A)
                 (A) (A) (A) (A) (A) (A) (A) (A) (A) (A) (A) (A)
                 (A) (A) (A) (A) (A) (A) (A) (A) (A) (A) (A) (A)
                 (A) (A) (A) (A) (A) (A) (A) (A) (A) (A) (A) (A)
                 (A) (A) (A) (A) (A) (A) (A) (A) (A) (A) (A) (A)
                 (A) (A) (A) (A) (A) (A) (A) (A) (A) (A) (A) (A)
                 (A) (A) (A) (A) (A) (A) (A) (A) (A) (A) (A) (A)
                 (A) (A) (A) (A) (A) (A) (A) (A) (A) (A) (A) (A)
                 (A) (A) (A) (A) (A) (A) (A) (A) (A) (A) (A) (A)
                 (A) (A) (A) (A) (A) (A) (A) (A) (A) (A) (A) (A)
                 (A) (A) (A) (A) (A) (A) (A) (A) (A) (A) (A) (A)
                 (A) (A) (A) (A) (A) (A) (A) (A) (A) (A) (A) (A)
                 (A) (A) (A) (A) (A) (A) (A) (A) (A) (A) (A) (A)
                 (A) (A) (A) (A) (A) (A) (A) (A) (A) (A) (A) (A)
                 (A) (A) (A) (A) (A) (A) (A) (A) (A) (A) (A) (A)
                 (A) (A) (A) (A) (A) (A) (A) (A) (A) (A) (A) (A)
                 (A) (A) (A) (A) (A) (A) (A) (A) (A) (A) (A) (A)
                 (A) (A) (A) (A) (A) (A) (A) (A) (A) (A) (A) (A)
                 (A) (A) (A) (A) (A) (A) (A) (A) (A) (A) (A) (A)
                 (A) (A) (A) (A) (A) (A) (A) (A) (A) (A) (A) (A)
                 (A) (A) (A) (A) (A) (A) (A) (A) (A) (A) (A) (A)
                 (A) (A) (A) (A) (A) (A) (A) (A) (A) (A) (A) (A)
                 (A) (A) (A) (A) (A) (A) (A) (A) (A) (A) (A) (A)
                 (A) (A) (A) (A) (A) (A)
 The electronic state is 1-A.
 Alpha  occ. eigenvalues --  -19.22607 -19.21694 -19.17437 -19.16283 -19.16146
 Alpha  occ. eigenvalues --  -19.15781 -19.15309 -19.14790 -14.41705 -14.38519
 Alpha  occ. eigenvalues --  -10.36653 -10.35353 -10.26694 -10.25928 -10.25403
 Alpha  occ. eigenvalues --  -10.25004 -10.24602 -10.24331 -10.23941 -10.23050
 Alpha  occ. eigenvalues --  -10.20939  -1.14369  -1.12948  -1.05360  -1.03600
 Alpha  occ. eigenvalues --   -1.02226  -1.01573  -1.00905  -1.00409  -0.99656
 Alpha  occ. eigenvalues --   -0.98548  -0.82474  -0.81504  -0.76153  -0.74607
 Alpha  occ. eigenvalues --   -0.71718  -0.71033  -0.61236  -0.60697  -0.58407
 Alpha  occ. eigenvalues --   -0.57864  -0.57370  -0.56881  -0.55706  -0.54554
 Alpha  occ. eigenvalues --   -0.53800  -0.52985  -0.52118  -0.51359  -0.50492
 Alpha  occ. eigenvalues --   -0.50093  -0.49461  -0.48298  -0.47232  -0.47039
 Alpha  occ. eigenvalues --   -0.45737  -0.44613  -0.43809  -0.42970  -0.42554
 Alpha  occ. eigenvalues --   -0.41889  -0.41103  -0.40622  -0.39170  -0.39068
 Alpha  occ. eigenvalues --   -0.38588  -0.38476  -0.37831  -0.37281  -0.37045
 Alpha  occ. eigenvalues --   -0.36263  -0.33632  -0.33380  -0.32831  -0.32426
 Alpha  occ. eigenvalues --   -0.32187  -0.31943  -0.31378  -0.31064  -0.30971
 Alpha  occ. eigenvalues --   -0.30668  -0.27046  -0.22229
 Alpha virt. eigenvalues --   -0.13135  -0.02315  -0.00616   0.00334   0.00570
 Alpha virt. eigenvalues --    0.01127   0.01680   0.02372   0.02712   0.02989
 Alpha virt. eigenvalues --    0.03631   0.03789   0.04252   0.04363   0.05130
 Alpha virt. eigenvalues --    0.05463   0.05810   0.06377   0.06945   0.07217
 Alpha virt. eigenvalues --    0.08229   0.08901   0.09114   0.09483   0.10238
 Alpha virt. eigenvalues --    0.10303   0.10321   0.10940   0.11327   0.11714
 Alpha virt. eigenvalues --    0.11935   0.12468   0.12743   0.12908   0.13268
 Alpha virt. eigenvalues --    0.13409   0.13902   0.14611   0.14853   0.14894
 Alpha virt. eigenvalues --    0.15152   0.15548   0.15857   0.16256   0.16788
 Alpha virt. eigenvalues --    0.16991   0.17328   0.17374   0.17804   0.18337
 Alpha virt. eigenvalues --    0.18579   0.18817   0.19124   0.19142   0.19544
 Alpha virt. eigenvalues --    0.19745   0.20089   0.20467   0.20861   0.21112
 Alpha virt. eigenvalues --    0.21338   0.21548   0.21934   0.22208   0.22485
 Alpha virt. eigenvalues --    0.22946   0.23294   0.23798   0.23820   0.24388
 Alpha virt. eigenvalues --    0.24560   0.24864   0.25273   0.25523   0.25800
 Alpha virt. eigenvalues --    0.26067   0.26314   0.26848   0.27197   0.27363
 Alpha virt. eigenvalues --    0.27683   0.27894   0.28777   0.29152   0.29551
 Alpha virt. eigenvalues --    0.29899   0.30127   0.30390   0.31043   0.31094
 Alpha virt. eigenvalues --    0.32010   0.32147   0.32302   0.32788   0.33273
 Alpha virt. eigenvalues --    0.33580   0.34168   0.34524   0.35137   0.35230
 Alpha virt. eigenvalues --    0.35768   0.36488   0.36610   0.37444   0.37883
 Alpha virt. eigenvalues --    0.38482   0.38569   0.39061   0.39545   0.40735
 Alpha virt. eigenvalues --    0.41161   0.41835   0.42338   0.43023   0.43896
 Alpha virt. eigenvalues --    0.44908   0.45423   0.46006   0.46962   0.47058
 Alpha virt. eigenvalues --    0.48305   0.49392   0.52177   0.54331   0.54822
 Alpha virt. eigenvalues --    0.55186   0.57594   0.60630   0.65001   0.65898
 Alpha virt. eigenvalues --    0.67151   0.67834   0.68994   0.70797   0.72020
 Alpha virt. eigenvalues --    0.73714   0.74564   0.75037   0.75929   0.76248
 Alpha virt. eigenvalues --    0.77209   0.77794   0.78469   0.79666   0.79940
 Alpha virt. eigenvalues --    0.81175   0.82257   0.82949   0.83583   0.84819
 Alpha virt. eigenvalues --    0.86346   0.87891   0.88999   0.90503   0.91809
 Alpha virt. eigenvalues --    0.92192   0.92687   0.93336   0.95067   0.95679
 Alpha virt. eigenvalues --    0.96662   0.97206   0.97648   0.97972   0.99264
 Alpha virt. eigenvalues --    0.99611   1.00814   1.01467   1.02535   1.02977
 Alpha virt. eigenvalues --    1.04329   1.04684   1.05744   1.06432   1.07968
 Alpha virt. eigenvalues --    1.08996   1.09615   1.10613   1.11022   1.11698
 Alpha virt. eigenvalues --    1.13008   1.13224   1.13529   1.14022   1.14521
 Alpha virt. eigenvalues --    1.14912   1.15285   1.15975   1.16448   1.17471
 Alpha virt. eigenvalues --    1.18876   1.19006   1.20044   1.20502   1.21230
 Alpha virt. eigenvalues --    1.22299   1.23076   1.23253   1.23834   1.24520
 Alpha virt. eigenvalues --    1.24874   1.25322   1.25892   1.26789   1.27087
 Alpha virt. eigenvalues --    1.28317   1.29110   1.29498   1.30087   1.30612
 Alpha virt. eigenvalues --    1.31934   1.32724   1.34004   1.35356   1.35946
 Alpha virt. eigenvalues --    1.36597   1.37633   1.38750   1.40074   1.40378
 Alpha virt. eigenvalues --    1.41270   1.42830   1.44258   1.45965   1.47052
 Alpha virt. eigenvalues --    1.48470   1.48831   1.49522   1.51921   1.52845
 Alpha virt. eigenvalues --    1.53489   1.54199   1.54527   1.54791   1.55905
 Alpha virt. eigenvalues --    1.56164   1.56840   1.58550   1.59848   1.61438
 Alpha virt. eigenvalues --    1.61874   1.62311   1.62775   1.65090   1.65555
 Alpha virt. eigenvalues --    1.66499   1.66821   1.68047   1.69637   1.70446
 Alpha virt. eigenvalues --    1.71522   1.73500   1.74111   1.75093   1.76287
 Alpha virt. eigenvalues --    1.77655   1.79188   1.79931   1.81422   1.82668
 Alpha virt. eigenvalues --    1.82790   1.84175   1.85121   1.87009   1.87270
 Alpha virt. eigenvalues --    1.88501   1.89430   1.90081   1.90397   1.92513
 Alpha virt. eigenvalues --    1.92845   1.93602   1.94066   1.94564   1.96514
 Alpha virt. eigenvalues --    1.96695   1.97896   1.99902   2.00317   2.01695
 Alpha virt. eigenvalues --    2.02199   2.02903   2.03687   2.05385   2.05587
 Alpha virt. eigenvalues --    2.06757   2.07082   2.08351   2.09421   2.10683
 Alpha virt. eigenvalues --    2.12015   2.12625   2.14062   2.14671   2.15363
 Alpha virt. eigenvalues --    2.17563   2.19609   2.20395   2.22438   2.26023
 Alpha virt. eigenvalues --    2.27238   2.28379   2.29250   2.30849   2.31659
 Alpha virt. eigenvalues --    2.32660   2.34564   2.35380   2.36095   2.37404
 Alpha virt. eigenvalues --    2.37878   2.38190   2.39372   2.40337   2.41002
 Alpha virt. eigenvalues --    2.42257   2.43341   2.43843   2.45442   2.46565
 Alpha virt. eigenvalues --    2.47529   2.48746   2.49941   2.51102   2.51573
 Alpha virt. eigenvalues --    2.52955   2.53864   2.55201   2.55844   2.56398
 Alpha virt. eigenvalues --    2.57476   2.58686   2.59120   2.59224   2.59844
 Alpha virt. eigenvalues --    2.59964   2.60983   2.61092   2.62449   2.63914
 Alpha virt. eigenvalues --    2.63921   2.64489   2.64890   2.65191   2.65906
 Alpha virt. eigenvalues --    2.67012   2.67271   2.67429   2.68826   2.68904
 Alpha virt. eigenvalues --    2.69636   2.70989   2.72226   2.74182   2.75667
 Alpha virt. eigenvalues --    2.76214   2.76919   2.78566   2.79039   2.80516
 Alpha virt. eigenvalues --    2.82556   2.83062   2.84299   2.85685   2.86480
 Alpha virt. eigenvalues --    2.86771   2.90608   2.91880   2.94505   2.97588
 Alpha virt. eigenvalues --    3.02367   3.04128   3.04901   3.06252   3.07354
 Alpha virt. eigenvalues --    3.09053   3.10273   3.11754   3.15465   3.20215
 Alpha virt. eigenvalues --    3.22983   3.26082   3.27319   3.29761   3.30870
 Alpha virt. eigenvalues --    3.32262   3.32961   3.36493   3.40090   3.42154
 Alpha virt. eigenvalues --    3.42593   3.43934   3.45386   3.47156   3.48044
 Alpha virt. eigenvalues --    3.49263   3.50885   3.52471   3.53934   3.65604
 Alpha virt. eigenvalues --    3.66899   3.69115   3.69274   3.70068   3.73069
 Alpha virt. eigenvalues --    4.10466   4.22578   4.24187   4.29393   4.38020
 Alpha virt. eigenvalues --    4.46027   4.47806   4.50430   4.53803   4.55509
 Alpha virt. eigenvalues --    4.58686   4.61890   4.64478   4.68525   4.70145
 Alpha virt. eigenvalues --    4.76380   4.80484   4.83906   4.85364   4.91968
 Alpha virt. eigenvalues --    5.04896
          Condensed to atoms (all electrons):
               1          2          3          4          5          6
     1  C   12.938305  -0.883197   1.603131  -7.632621   0.302849   0.131743
     2  C   -0.883197   8.713091  -0.488081   0.349114  -0.048590  -0.019843
     3  C    1.603131  -0.488081   7.782759  -3.066483  -0.005212   0.039250
     4  C   -7.632621   0.349114  -3.066483  18.297249   0.018118   0.147736
     5  H    0.302849  -0.048590  -0.005212   0.018118   0.475310  -0.002587
     6  H    0.131743  -0.019843   0.039250   0.147736  -0.002587   0.487081
     7  C   -0.683123  -0.319977  -0.903067   1.672431   0.008347   0.000340
     8  H    0.006603  -0.082188  -0.005722  -0.011387  -0.000069  -0.000082
     9  H   -0.038469  -0.013028   0.019319  -0.062391   0.000019   0.000079
    10  C   -3.816258  -1.897449  -0.673330   4.879425   0.014743  -0.044057
    11  H    0.149002   0.060818  -0.001784  -0.100444  -0.002125  -0.000018
    12  C    4.699985   0.154718   1.559408  -8.833002   0.001168   0.071393
    13  H   -0.010203  -0.007514   0.018254   0.052747   0.000067  -0.002824
    14  H    0.042114   0.185349   0.039962  -0.020589  -0.001385  -0.000033
    15  H   -0.030571   0.012479   0.206087   0.058670  -0.000048  -0.002269
    16  N   -0.163460  -0.019415  -0.126581   0.440059  -0.000170  -0.007415
    17  N   -0.091731   0.061678   0.081418  -0.164799   0.012047  -0.001669
    18  C    0.100684   0.070985  -0.286063   0.203059  -0.007999  -0.005575
    19  C   -0.323178  -0.012658   0.291861  -0.382383   0.009804   0.006784
    20  O   -0.030210   0.029638   0.036842  -0.042790   0.000062  -0.000084
    21  O    0.008893   0.000737  -0.008131  -0.019303  -0.000034   0.000695
    22  O   -0.074123  -0.004269   0.043487   0.001576   0.002276   0.000028
    23  O    0.057353   0.006689  -0.006235  -0.003864  -0.002535   0.004461
    24  C   -0.007774  -0.005577  -0.016051   0.030571  -0.000206   0.003671
    25  H   -0.003375   0.000082  -0.000470   0.002997  -0.000002  -0.000025
    26  H    0.001163   0.000135   0.000294  -0.003780   0.000000  -0.000001
    27  H    0.003336  -0.000581  -0.000820   0.001067  -0.000001   0.000345
    28  C    0.000523   0.042046   0.007992  -0.003072   0.000429   0.000059
    29  H   -0.001859   0.003988  -0.000180   0.001149   0.000004   0.000000
    30  H   -0.000667  -0.001297   0.000153  -0.000331  -0.000002   0.000000
    31  H    0.001260  -0.001194   0.000105  -0.000321   0.000003   0.000000
    32  O   -0.007379   0.002073   0.000143   0.000169   0.000062   0.000001
    33  H   -0.003575   0.000655  -0.000017   0.000659   0.000021   0.000000
    34  H   -0.002467   0.000481  -0.000018   0.000193  -0.000004   0.000000
    35  O   -0.007953  -0.013045   0.002434   0.002288  -0.000008   0.000000
    36  H   -0.000013  -0.000532   0.000402  -0.000115   0.000000   0.000000
    37  H    0.002689  -0.004865   0.001254   0.000072   0.000000   0.000000
    38  O   -0.099672   0.009053   0.000182   0.033265   0.007033   0.000281
    39  H    0.010844   0.000139   0.000049  -0.006639  -0.000106   0.000003
    40  H   -0.015772   0.005815   0.002131   0.000490  -0.001603   0.000190
    41  O    0.001190  -0.000114   0.000834  -0.000326   0.000000   0.000021
    42  H   -0.000527   0.000016  -0.000332   0.001016   0.000000  -0.000020
    43  H   -0.000064   0.000001  -0.000116   0.000427   0.000000   0.000000
               7          8          9         10         11         12
     1  C   -0.683123   0.006603  -0.038469  -3.816258   0.149002   4.699985
     2  C   -0.319977  -0.082188  -0.013028  -1.897449   0.060818   0.154718
     3  C   -0.903067  -0.005722   0.019319  -0.673330  -0.001784   1.559408
     4  C    1.672431  -0.011387  -0.062391   4.879425  -0.100444  -8.833002
     5  H    0.008347  -0.000069   0.000019   0.014743  -0.002125   0.001168
     6  H    0.000340  -0.000082   0.000079  -0.044057  -0.000018   0.071393
     7  C    6.367439   0.388622   0.378937   0.684905  -0.001529  -1.179400
     8  H    0.388622   0.530047  -0.023273   0.022452  -0.000026   0.002077
     9  H    0.378937  -0.023273   0.509218   0.012825  -0.000085   0.026483
    10  C    0.684905   0.022452   0.012825  11.177294   0.105202  -4.067404
    11  H   -0.001529  -0.000026  -0.000085   0.105202   0.485196   0.111618
    12  C   -1.179400   0.002077   0.026483  -4.067404   0.111618  13.481716
    13  H   -0.002125   0.000071  -0.000078   0.035546  -0.002737   0.248398
    14  H   -0.018628  -0.001162  -0.000899   0.097863  -0.002795  -0.002665
    15  H    0.040212  -0.001447  -0.001482   0.015628  -0.000036   0.028663
    16  N    0.050410   0.000816  -0.035973   0.156910  -0.001619  -0.196235
    17  N   -0.011991  -0.002027   0.051698  -0.169405   0.000664   0.405879
    18  C    0.208646  -0.001362  -0.003541   0.232628  -0.000195  -0.644535
    19  C   -0.266924   0.007909  -0.006908  -0.466856   0.002695   0.398931
    20  O   -0.075140  -0.000380  -0.001021  -0.030964   0.000023   0.031941
    21  O    0.003464  -0.000012  -0.000700   0.007352   0.000001  -0.043672
    22  O   -0.039308   0.000207  -0.000671   0.001734   0.000110   0.018095
    23  O    0.008890  -0.000015  -0.000026   0.006797   0.000008  -0.013913
    24  C    0.003434   0.000009  -0.000255  -0.003490  -0.000031   0.002962
    25  H    0.000104   0.000000   0.000000  -0.000245   0.000000   0.000847
    26  H   -0.000026   0.000000   0.000000   0.000108   0.000000  -0.000476
    27  H    0.000118   0.000000   0.000000   0.000164   0.000000  -0.000638
    28  C   -0.026123  -0.000720   0.000441  -0.004331   0.000307  -0.005535
    29  H   -0.004128   0.000001  -0.000022  -0.004609   0.000000  -0.000180
    30  H    0.000926   0.000000   0.000004  -0.000377   0.000000   0.000124
    31  H   -0.000477   0.000000   0.000000   0.001568   0.000000  -0.000049
    32  O   -0.000404   0.000000   0.000000  -0.001094   0.000000   0.000284
    33  H   -0.000051   0.000000   0.000000  -0.000070   0.000000  -0.000079
    34  H   -0.000119   0.000000   0.000000  -0.000318   0.000000   0.000070
    35  O    0.029489  -0.000284  -0.000940  -0.009083   0.000003  -0.002020
    36  H    0.001374   0.000003   0.000030  -0.000370   0.000000   0.000047
    37  H   -0.003265   0.000111   0.000369  -0.002396   0.000000  -0.000345
    38  O   -0.000538  -0.000001   0.000005  -0.013090   0.000057   0.010146
    39  H   -0.000162   0.000000   0.000000   0.000390   0.000000  -0.000937
    40  H   -0.002460   0.000000  -0.000004  -0.007094   0.000004   0.002824
    41  O    0.000069   0.000000   0.000000  -0.000048   0.000000  -0.000233
    42  H    0.000058   0.000000   0.000000  -0.000031   0.000000   0.000279
    43  H    0.000017   0.000000   0.000000  -0.000007   0.000000   0.000092
              13         14         15         16         17         18
     1  C   -0.010203   0.042114  -0.030571  -0.163460  -0.091731   0.100684
     2  C   -0.007514   0.185349   0.012479  -0.019415   0.061678   0.070985
     3  C    0.018254   0.039962   0.206087  -0.126581   0.081418  -0.286063
     4  C    0.052747  -0.020589   0.058670   0.440059  -0.164799   0.203059
     5  H    0.000067  -0.001385  -0.000048  -0.000170   0.012047  -0.007999
     6  H   -0.002824  -0.000033  -0.002269  -0.007415  -0.001669  -0.005575
     7  C   -0.002125  -0.018628   0.040212   0.050410  -0.011991   0.208646
     8  H    0.000071  -0.001162  -0.001447   0.000816  -0.002027  -0.001362
     9  H   -0.000078  -0.000899  -0.001482  -0.035973   0.051698  -0.003541
    10  C    0.035546   0.097863   0.015628   0.156910  -0.169405   0.232628
    11  H   -0.002737  -0.002795  -0.000036  -0.001619   0.000664  -0.000195
    12  C    0.248398  -0.002665   0.028663  -0.196235   0.405879  -0.644535
    13  H    0.490799  -0.000026  -0.002347  -0.000073   0.000105  -0.002126
    14  H   -0.000026   0.499821  -0.000119  -0.000336  -0.018803  -0.003183
    15  H   -0.002347  -0.000119   0.498992   0.000439  -0.004181   0.008729
    16  N   -0.000073  -0.000336   0.000439  11.993982  -3.986296   0.605548
    17  N    0.000105  -0.018803  -0.004181  -3.986296  11.958334  -0.782739
    18  C   -0.002126  -0.003183   0.008729   0.605548  -0.782739   5.905995
    19  C    0.001516   0.002380  -0.002674  -0.424074  -0.185420  -0.535714
    20  O    0.000004   0.000771  -0.000083  -0.138288  -0.053116  -0.047600
    21  O    0.000039   0.000004  -0.000005  -0.103071  -0.030423   0.613306
    22  O    0.000030   0.011136  -0.000089  -0.192870  -0.053112  -0.087392
    23  O   -0.000088  -0.000069   0.000017  -0.066956   0.033327   0.194160
    24  C   -0.000050   0.000013  -0.000058   0.055542  -0.060810  -0.127360
    25  H    0.000000   0.000000   0.000000   0.003140  -0.006461   0.008188
    26  H    0.000000   0.000000   0.000000  -0.000694  -0.002581  -0.000888
    27  H    0.000000   0.000000  -0.000001  -0.003038  -0.000102  -0.024340
    28  C    0.000002   0.000979  -0.000033  -0.010963  -0.059758  -0.009908
    29  H    0.000000   0.000319   0.000000   0.000544  -0.006771  -0.000175
    30  H    0.000000   0.000029   0.000000   0.000080   0.000207  -0.000246
    31  H    0.000000  -0.000042   0.000000  -0.001177  -0.005944  -0.000149
    32  O    0.000000   0.000008   0.000000   0.002911  -0.017800  -0.002891
    33  H    0.000000   0.000000   0.000000   0.001238  -0.004295  -0.000233
    34  H    0.000000   0.000000   0.000000   0.001822  -0.002150  -0.000395
    35  O    0.000000   0.000158  -0.000002   0.001854  -0.005741  -0.000909
    36  H    0.000000   0.000009   0.000000   0.000537   0.000316   0.000122
    37  H    0.000000   0.000137   0.000000   0.003909   0.003370   0.001343
    38  O    0.000004   0.000026  -0.000002  -0.052009   0.075731  -0.020894
    39  H    0.000000   0.000000   0.000000  -0.002109  -0.010490   0.000049
    40  H    0.000000   0.000007   0.000000  -0.030152   0.052265  -0.012808
    41  O    0.000000   0.000000  -0.000002   0.005657   0.000799  -0.035058
    42  H    0.000000   0.000000   0.000000   0.003610  -0.002305   0.008181
    43  H    0.000000   0.000000   0.000000  -0.000048  -0.000188  -0.000967
              19         20         21         22         23         24
     1  C   -0.323178  -0.030210   0.008893  -0.074123   0.057353  -0.007774
     2  C   -0.012658   0.029638   0.000737  -0.004269   0.006689  -0.005577
     3  C    0.291861   0.036842  -0.008131   0.043487  -0.006235  -0.016051
     4  C   -0.382383  -0.042790  -0.019303   0.001576  -0.003864   0.030571
     5  H    0.009804   0.000062  -0.000034   0.002276  -0.002535  -0.000206
     6  H    0.006784  -0.000084   0.000695   0.000028   0.004461   0.003671
     7  C   -0.266924  -0.075140   0.003464  -0.039308   0.008890   0.003434
     8  H    0.007909  -0.000380  -0.000012   0.000207  -0.000015   0.000009
     9  H   -0.006908  -0.001021  -0.000700  -0.000671  -0.000026  -0.000255
    10  C   -0.466856  -0.030964   0.007352   0.001734   0.006797  -0.003490
    11  H    0.002695   0.000023   0.000001   0.000110   0.000008  -0.000031
    12  C    0.398931   0.031941  -0.043672   0.018095  -0.013913   0.002962
    13  H    0.001516   0.000004   0.000039   0.000030  -0.000088  -0.000050
    14  H    0.002380   0.000771   0.000004   0.011136  -0.000069   0.000013
    15  H   -0.002674  -0.000083  -0.000005  -0.000089   0.000017  -0.000058
    16  N   -0.424074  -0.138288  -0.103071  -0.192870  -0.066956   0.055542
    17  N   -0.185420  -0.053116  -0.030423  -0.053112   0.033327  -0.060810
    18  C   -0.535714  -0.047600   0.613306  -0.087392   0.194160  -0.127360
    19  C    6.702374   0.808170   0.002052   0.395366  -0.077463  -0.002151
    20  O    0.808170   8.144448  -0.001689  -0.163361  -0.006758  -0.000960
    21  O    0.002052  -0.001689   8.293409   0.002981  -0.210283  -0.031230
    22  O    0.395366  -0.163361   0.002981   8.345503  -0.015031  -0.001153
    23  O   -0.077463  -0.006758  -0.210283  -0.015031   8.610433  -0.008743
    24  C   -0.002151  -0.000960  -0.031230  -0.001153  -0.008743   5.071782
    25  H   -0.000816  -0.000003  -0.000703  -0.000024  -0.066533   0.421958
    26  H    0.000140  -0.000002   0.002581  -0.000006  -0.042348   0.407251
    27  H   -0.000500  -0.000001   0.005527   0.000000  -0.041773   0.422216
    28  C   -0.207976  -0.036270   0.000178   0.045659  -0.000180  -0.000321
    29  H   -0.006455   0.006598   0.000001  -0.040802  -0.000007  -0.000006
    30  H   -0.018022   0.003605  -0.000001  -0.038162   0.000007   0.000008
    31  H    0.011410  -0.000636   0.000000  -0.062741  -0.000007  -0.000002
    32  O    0.003158  -0.000266   0.000016   0.015223  -0.000120   0.000128
    33  H    0.008746   0.000047   0.000004   0.006240  -0.000660  -0.000106
    34  H    0.002699  -0.000039   0.000001   0.006330  -0.000038   0.000062
    35  O   -0.015543  -0.007381   0.000002   0.002379   0.000004  -0.000001
    36  H   -0.003956   0.001188   0.000000   0.000229   0.000000   0.000000
    37  H   -0.000553   0.030490   0.000007   0.000120   0.000008  -0.000001
    38  O    0.002445  -0.002202   0.000069   0.001406   0.009408   0.001305
    39  H    0.000515  -0.000010   0.000041   0.000539   0.007740   0.003716
    40  H    0.006479  -0.000384   0.000218   0.007482   0.016840   0.000409
    41  O   -0.000373   0.000000   0.005640  -0.000001   0.002782   0.015372
    42  H    0.000150  -0.000002   0.043573   0.000000  -0.001186  -0.007292
    43  H   -0.000009   0.000000   0.001716   0.000000   0.000064   0.000189
              25         26         27         28         29         30
     1  C   -0.003375   0.001163   0.003336   0.000523  -0.001859  -0.000667
     2  C    0.000082   0.000135  -0.000581   0.042046   0.003988  -0.001297
     3  C   -0.000470   0.000294  -0.000820   0.007992  -0.000180   0.000153
     4  C    0.002997  -0.003780   0.001067  -0.003072   0.001149  -0.000331
     5  H   -0.000002   0.000000  -0.000001   0.000429   0.000004  -0.000002
     6  H   -0.000025  -0.000001   0.000345   0.000059   0.000000   0.000000
     7  C    0.000104  -0.000026   0.000118  -0.026123  -0.004128   0.000926
     8  H    0.000000   0.000000   0.000000  -0.000720   0.000001   0.000000
     9  H    0.000000   0.000000   0.000000   0.000441  -0.000022   0.000004
    10  C   -0.000245   0.000108   0.000164  -0.004331  -0.004609  -0.000377
    11  H    0.000000   0.000000   0.000000   0.000307   0.000000   0.000000
    12  C    0.000847  -0.000476  -0.000638  -0.005535  -0.000180   0.000124
    13  H    0.000000   0.000000   0.000000   0.000002   0.000000   0.000000
    14  H    0.000000   0.000000   0.000000   0.000979   0.000319   0.000029
    15  H    0.000000   0.000000  -0.000001  -0.000033   0.000000   0.000000
    16  N    0.003140  -0.000694  -0.003038  -0.010963   0.000544   0.000080
    17  N   -0.006461  -0.002581  -0.000102  -0.059758  -0.006771   0.000207
    18  C    0.008188  -0.000888  -0.024340  -0.009908  -0.000175  -0.000246
    19  C   -0.000816   0.000140  -0.000500  -0.207976  -0.006455  -0.018022
    20  O   -0.000003  -0.000002  -0.000001  -0.036270   0.006598   0.003605
    21  O   -0.000703   0.002581   0.005527   0.000178   0.000001  -0.000001
    22  O   -0.000024  -0.000006   0.000000   0.045659  -0.040802  -0.038162
    23  O   -0.066533  -0.042348  -0.041773  -0.000180  -0.000007   0.000007
    24  C    0.421958   0.407251   0.422216  -0.000321  -0.000006   0.000008
    25  H    0.527709  -0.026397  -0.026866   0.000000   0.000000   0.000000
    26  H   -0.026397   0.523423  -0.032540   0.000001   0.000000   0.000000
    27  H   -0.026866  -0.032540   0.525439  -0.000002   0.000000   0.000000
    28  C    0.000000   0.000001  -0.000002   5.132722   0.415961   0.414670
    29  H    0.000000   0.000000   0.000000   0.415961   0.520744  -0.031985
    30  H    0.000000   0.000000   0.000000   0.414670  -0.031985   0.518497
    31  H    0.000000   0.000000   0.000000   0.418485  -0.025389  -0.026839
    32  O    0.000003  -0.000001   0.000000   0.008697  -0.000005  -0.000212
    33  H    0.000000   0.000000   0.000000  -0.002425   0.000001   0.000009
    34  H    0.000000   0.000000   0.000000   0.002670   0.000015  -0.000005
    35  O    0.000000   0.000000   0.000000   0.006480   0.001401   0.000655
    36  H    0.000000   0.000000   0.000000   0.002001  -0.000158  -0.000129
    37  H    0.000000   0.000000   0.000000  -0.002280  -0.001052  -0.000335
    38  O   -0.000170  -0.000049  -0.000004   0.001635  -0.000036   0.000001
    39  H    0.000661   0.000002  -0.000001  -0.000018   0.000000   0.000000
    40  H   -0.000019   0.000010   0.000015   0.001213  -0.000005   0.000004
    41  O   -0.000302   0.000275   0.000390  -0.000002   0.000000   0.000000
    42  H    0.000065   0.000026  -0.000169   0.000001   0.000000   0.000000
    43  H   -0.000002   0.000065   0.000066   0.000000   0.000000   0.000000
              31         32         33         34         35         36
     1  C    0.001260  -0.007379  -0.003575  -0.002467  -0.007953  -0.000013
     2  C   -0.001194   0.002073   0.000655   0.000481  -0.013045  -0.000532
     3  C    0.000105   0.000143  -0.000017  -0.000018   0.002434   0.000402
     4  C   -0.000321   0.000169   0.000659   0.000193   0.002288  -0.000115
     5  H    0.000003   0.000062   0.000021  -0.000004  -0.000008   0.000000
     6  H    0.000000   0.000001   0.000000   0.000000   0.000000   0.000000
     7  C   -0.000477  -0.000404  -0.000051  -0.000119   0.029489   0.001374
     8  H    0.000000   0.000000   0.000000   0.000000  -0.000284   0.000003
     9  H    0.000000   0.000000   0.000000   0.000000  -0.000940   0.000030
    10  C    0.001568  -0.001094  -0.000070  -0.000318  -0.009083  -0.000370
    11  H    0.000000   0.000000   0.000000   0.000000   0.000003   0.000000
    12  C   -0.000049   0.000284  -0.000079   0.000070  -0.002020   0.000047
    13  H    0.000000   0.000000   0.000000   0.000000   0.000000   0.000000
    14  H   -0.000042   0.000008   0.000000   0.000000   0.000158   0.000009
    15  H    0.000000   0.000000   0.000000   0.000000  -0.000002   0.000000
    16  N   -0.001177   0.002911   0.001238   0.001822   0.001854   0.000537
    17  N   -0.005944  -0.017800  -0.004295  -0.002150  -0.005741   0.000316
    18  C   -0.000149  -0.002891  -0.000233  -0.000395  -0.000909   0.000122
    19  C    0.011410   0.003158   0.008746   0.002699  -0.015543  -0.003956
    20  O   -0.000636  -0.000266   0.000047  -0.000039  -0.007381   0.001188
    21  O    0.000000   0.000016   0.000004   0.000001   0.000002   0.000000
    22  O   -0.062741   0.015223   0.006240   0.006330   0.002379   0.000229
    23  O   -0.000007  -0.000120  -0.000660  -0.000038   0.000004   0.000000
    24  C   -0.000002   0.000128  -0.000106   0.000062  -0.000001   0.000000
    25  H    0.000000   0.000003   0.000000   0.000000   0.000000   0.000000
    26  H    0.000000  -0.000001   0.000000   0.000000   0.000000   0.000000
    27  H    0.000000   0.000000   0.000000   0.000000   0.000000   0.000000
    28  C    0.418485   0.008697  -0.002425   0.002670   0.006480   0.002001
    29  H   -0.025389  -0.000005   0.000001   0.000015   0.001401  -0.000158
    30  H   -0.026839  -0.000212   0.000009  -0.000005   0.000655  -0.000129
    31  H    0.513577  -0.000606   0.000026  -0.000060  -0.000083   0.000002
    32  O   -0.000606   8.315028   0.251182   0.263847   0.000000   0.000000
    33  H    0.000026   0.251182   0.308245  -0.016554   0.000000   0.000000
    34  H   -0.000060   0.263847  -0.016554   0.364557   0.000000   0.000000
    35  O   -0.000083   0.000000   0.000000   0.000000   8.303856   0.262145
    36  H    0.000002   0.000000   0.000000   0.000000   0.262145   0.361272
    37  H    0.000054   0.000002   0.000000   0.000000   0.245444  -0.014788
    38  O    0.000002  -0.028622   0.013461   0.001722  -0.000011   0.000000
    39  H   -0.000001   0.001330  -0.002333   0.000008   0.000000   0.000000
    40  H    0.000005   0.001667  -0.002981  -0.000266   0.000001   0.000000
    41  O    0.000000   0.000000   0.000000   0.000000   0.000000   0.000000
    42  H    0.000000   0.000000   0.000000   0.000000   0.000000   0.000000
    43  H    0.000000   0.000000   0.000000   0.000000   0.000000   0.000000
              37         38         39         40         41         42
     1  C    0.002689  -0.099672   0.010844  -0.015772   0.001190  -0.000527
     2  C   -0.004865   0.009053   0.000139   0.005815  -0.000114   0.000016
     3  C    0.001254   0.000182   0.000049   0.002131   0.000834  -0.000332
     4  C    0.000072   0.033265  -0.006639   0.000490  -0.000326   0.001016
     5  H    0.000000   0.007033  -0.000106  -0.001603   0.000000   0.000000
     6  H    0.000000   0.000281   0.000003   0.000190   0.000021  -0.000020
     7  C   -0.003265  -0.000538  -0.000162  -0.002460   0.000069   0.000058
     8  H    0.000111  -0.000001   0.000000   0.000000   0.000000   0.000000
     9  H    0.000369   0.000005   0.000000  -0.000004   0.000000   0.000000
    10  C   -0.002396  -0.013090   0.000390  -0.007094  -0.000048  -0.000031
    11  H    0.000000   0.000057   0.000000   0.000004   0.000000   0.000000
    12  C   -0.000345   0.010146  -0.000937   0.002824  -0.000233   0.000279
    13  H    0.000000   0.000004   0.000000   0.000000   0.000000   0.000000
    14  H    0.000137   0.000026   0.000000   0.000007   0.000000   0.000000
    15  H    0.000000  -0.000002   0.000000   0.000000  -0.000002   0.000000
    16  N    0.003909  -0.052009  -0.002109  -0.030152   0.005657   0.003610
    17  N    0.003370   0.075731  -0.010490   0.052265   0.000799  -0.002305
    18  C    0.001343  -0.020894   0.000049  -0.012808  -0.035058   0.008181
    19  C   -0.000553   0.002445   0.000515   0.006479  -0.000373   0.000150
    20  O    0.030490  -0.002202  -0.000010  -0.000384   0.000000  -0.000002
    21  O    0.000007   0.000069   0.000041   0.000218   0.005640   0.043573
    22  O    0.000120   0.001406   0.000539   0.007482  -0.000001   0.000000
    23  O    0.000008   0.009408   0.007740   0.016840   0.002782  -0.001186
    24  C   -0.000001   0.001305   0.003716   0.000409   0.015372  -0.007292
    25  H    0.000000  -0.000170   0.000661  -0.000019  -0.000302   0.000065
    26  H    0.000000  -0.000049   0.000002   0.000010   0.000275   0.000026
    27  H    0.000000  -0.000004  -0.000001   0.000015   0.000390  -0.000169
    28  C   -0.002280   0.001635  -0.000018   0.001213  -0.000002   0.000001
    29  H   -0.001052  -0.000036   0.000000  -0.000005   0.000000   0.000000
    30  H   -0.000335   0.000001   0.000000   0.000004   0.000000   0.000000
    31  H    0.000054   0.000002  -0.000001   0.000005   0.000000   0.000000
    32  O    0.000002  -0.028622   0.001330   0.001667   0.000000   0.000000
    33  H    0.000000   0.013461  -0.002333  -0.002981   0.000000   0.000000
    34  H    0.000000   0.001722   0.000008  -0.000266   0.000000   0.000000
    35  O    0.245444  -0.000011   0.000000   0.000001   0.000000   0.000000
    36  H   -0.014788   0.000000   0.000000   0.000000   0.000000   0.000000
    37  H    0.320341   0.000002   0.000000   0.000000   0.000000   0.000000
    38  O    0.000002   8.386330   0.261615   0.216558  -0.000002   0.000000
    39  H    0.000000   0.261615   0.348930  -0.010847   0.000000   0.000000
    40  H    0.000000   0.216558  -0.010847   0.294990   0.000001   0.000000
    41  O    0.000000  -0.000002   0.000000   0.000001   8.349713   0.209806
    42  H    0.000000   0.000000   0.000000   0.000000   0.209806   0.303102
    43  H    0.000000   0.000000   0.000000   0.000000   0.270979  -0.014763
              43
     1  C   -0.000064
     2  C    0.000001
     3  C   -0.000116
     4  C    0.000427
     5  H    0.000000
     6  H    0.000000
     7  C    0.000017
     8  H    0.000000
     9  H    0.000000
    10  C   -0.000007
    11  H    0.000000
    12  C    0.000092
    13  H    0.000000
    14  H    0.000000
    15  H    0.000000
    16  N   -0.000048
    17  N   -0.000188
    18  C   -0.000967
    19  C   -0.000009
    20  O    0.000000
    21  O    0.001716
    22  O    0.000000
    23  O    0.000064
    24  C    0.000189
    25  H   -0.000002
    26  H    0.000065
    27  H    0.000066
    28  C    0.000000
    29  H    0.000000
    30  H    0.000000
    31  H    0.000000
    32  O    0.000000
    33  H    0.000000
    34  H    0.000000
    35  O    0.000000
    36  H    0.000000
    37  H    0.000000
    38  O    0.000000
    39  H    0.000000
    40  H    0.000000
    41  O    0.270979
    42  H   -0.014763
    43  H    0.367356
 Mulliken charges:
               1
     1  C   -0.133424
     2  C    0.113633
     3  C   -0.149059
     4  C    0.160094
     5  H    0.220322
     6  H    0.192345
     7  C   -0.309267
     8  H    0.171230
     9  H    0.190338
    10  C   -0.241158
    11  H    0.197718
    12  C   -0.266829
    13  H    0.182611
    14  H    0.189650
    15  H    0.175534
    16  N   -0.765985
    17  N    0.003270
    18  C    0.483625
    19  C    0.275023
    20  O   -0.454185
    21  O   -0.543247
    22  O   -0.135017
    23  O   -0.394158
    24  C   -0.166972
    25  H    0.166661
    26  H    0.174317
    27  H    0.172696
    28  C   -0.133236
    29  H    0.173097
    30  H    0.179631
    31  H    0.179218
    32  O   -0.806529
    33  H    0.442845
    34  H    0.377957
    35  O   -0.795587
    36  H    0.390384
    37  H    0.420160
    38  O   -0.814438
    39  H    0.397081
    40  H    0.474778
    41  O   -0.827065
    42  H    0.456744
    43  H    0.375196
 Sum of Mulliken charges =   0.00000
 Mulliken charges with hydrogens summed into heavy atoms:
               1
     1  C    0.086898
     2  C    0.303283
     3  C    0.026474
     4  C    0.352439
     7  C    0.052301
    10  C   -0.043440
    12  C   -0.084218
    16  N   -0.765985
    17  N    0.003270
    18  C    0.483625
    19  C    0.275023
    20  O   -0.454185
    21  O   -0.543247
    22  O   -0.135017
    23  O   -0.394158
    24  C    0.346702
    28  C    0.398710
    32  O    0.014273
    35  O    0.014957
    38  O    0.057421
    41  O    0.004875
 APT charges:
               1
     1  C   -0.975122
     2  C    0.242687
     3  C    0.097528
     4  C   -0.571639
     5  H    0.149097
     6  H    0.143799
     7  C    0.039884
     8  H    0.005973
     9  H    0.058621
    10  C    0.410327
    11  H    0.102065
    12  C    0.397043
    13  H    0.060443
    14  H    0.076114
    15  H    0.081375
    16  N   -0.943784
    17  N    0.027425
    18  C    2.117752
    19  C    1.782137
    20  O   -1.108191
    21  O   -1.385983
    22  O   -1.070365
    23  O   -1.102613
    24  C    0.619526
    25  H    0.003608
    26  H   -0.019865
    27  H   -0.017680
    28  C    0.589168
    29  H    0.001653
    30  H   -0.009561
    31  H    0.017566
    32  O   -0.837020
    33  H    0.558693
    34  H    0.338745
    35  O   -0.784854
    36  H    0.326442
    37  H    0.506149
    38  O   -0.925113
    39  H    0.331702
    40  H    0.581637
    41  O   -0.848894
    42  H    0.611885
    43  H    0.321637
 Sum of APT charges =   0.00000
 APT charges with hydrogens summed into heavy atoms:
               1
     1  C   -0.826026
     2  C    0.318800
     3  C    0.178904
     4  C   -0.427840
     7  C    0.104478
    10  C    0.512392
    12  C    0.457486
    16  N   -0.943784
    17  N    0.027425
    18  C    2.117752
    19  C    1.782137
    20  O   -1.108191
    21  O   -1.385983
    22  O   -1.070365
    23  O   -1.102613
    24  C    0.585590
    28  C    0.598825
    32  O    0.060417
    35  O    0.047737
    38  O   -0.011773
    41  O    0.084628
 Electronic spatial extent (au):  <R**2>=           7257.9999
 Charge=              0.0000 electrons
 Dipole moment (field-independent basis, Debye):
    X=             -3.8740    Y=             -6.4852    Z=             -7.4029  Tot=             10.5767
 Quadrupole moment (field-independent basis, Debye-Ang):
   XX=           -134.3272   YY=           -145.1312   ZZ=           -122.1674
   XY=              0.3951   XZ=            -10.1562   YZ=             22.4872
 Traceless Quadrupole moment (field-independent basis, Debye-Ang):
   XX=             -0.4519   YY=            -11.2559   ZZ=             11.7079
   XY=              0.3951   XZ=            -10.1562   YZ=             22.4872
 Octapole moment (field-independent basis, Debye-Ang**2):
  XXX=           -220.9669  YYY=           -167.0230  ZZZ=            -16.8780  XYY=             89.2769
  XXY=             50.0482  XXZ=             -4.4983  XZZ=              4.7872  YZZ=            -17.0029
  YYZ=              7.1673  XYZ=            -64.6812
 Hexadecapole moment (field-independent basis, Debye-Ang**3):
 XXXX=          -5511.4256 YYYY=          -3697.0710 ZZZZ=          -1329.9334 XXXY=           -278.1033
 XXXZ=           -211.9424 YYYX=            208.5545 YYYZ=            207.2092 ZZZX=             18.9995
 ZZZY=             59.4550 XXYY=          -1301.9882 XXZZ=           -797.5215 YYZZ=           -701.1956
 XXYZ=            -16.3248 YYXZ=            -52.3801 ZZXY=            -38.4343
 N-N= 1.931716578167D+03 E-N=-6.536389317653D+03  KE= 1.133227715242D+03
  Exact polarizability: 298.116  32.099 299.754  44.078  71.978 305.859
 Approx polarizability: 329.528  60.438 373.304  94.104 143.038 441.417
 D2PCM: C-PCM CHGder 2nd derivatives, FixD1E=F FixD2E=F DoIter=F DoCFld=F I1PDM=0
 Calling FoFJK, ICntrl=    100127 FMM=F ISym2X=0 I1Cent= 0 IOpClX= 0 NMat=1 NMatS=1 NMatT=0.
 Full mass-weighted force constant matrix:
 Low frequencies --- -382.5029   -3.0170   -0.0035   -0.0018   -0.0004    3.2098
 Low frequencies ---    9.3495   16.2035   20.4799
 ******    1 imaginary frequencies (negative Signs) ****** 
 Diagonal vibrational polarizability:
      730.5594109    1667.0089757    2025.3293161
 Harmonic frequencies (cm**-1), IR intensities (KM/Mole), Raman scattering
 activities (A**4/AMU), depolarization ratios for plane and unpolarized
[...]
 00108354,-0.00089126,0.00014426,0.00015759,-0.00014319,-0.00013744,0.0
 0012746,0.00009824,-0.00002944,0.00000522,0.00012399,0.00004268,0.0000
 0535,-0.00004202,-0.00003249,-0.00001588,0.00001693,0.00000224,-0.0000
 0658,0.00001212,-0.00000360,-0.00000463,-0.00000463,0.00000226,0.00000
 496,-0.00006943,0.00051375,0.00018745,0.00123478,-0.00046582,-0.000716
 49,-0.00012835,-0.00012942,0.00006348,-0.00000302,-0.00000104,0.000000
 28,0.00000006,0.00000080,-0.00000016,0.00000485,0.00000015,-0.00000131
 ,0.03522165,-0.03197230,-0.02999690,-0.06915326,0.04077043,0.03419712,
 0.00005216,0.00071998,-0.00010221,-0.00019115,0.00008703,-0.00011780,-
 0.00012063,-0.00000122,-0.00012674,0.00008510,-0.00082730,0.00035515,-
 0.00001385,0.00120396,-0.00098031,-0.00005374,-0.00004801,-0.00006468,
 0.00004630,-0.00003640,0.00001046,-0.00000498,-0.00005173,-0.00001411,
 0.00001798,0.00003317,0.00001099,0.00023380,0.00013188,0.00001936,-0.0
 0001062,-0.00000474,-0.00003131,-0.00054158,0.00032055,-0.00000350,0.0
 0003415,-0.00010329,-0.00002905,-0.00000752,0.00002885,-0.00007977,0.0
 0002565,-0.00004573,-0.00002679,0.00075417,-0.00223989,-0.00256306,-0.
 00886184,-0.00211411,-0.00096104,0.00287052,-0.00314633,-0.00383200,-0
 .00022570,0.00377471,0.00436559,-0.00007402,-0.00055301,-0.00100788,-0
 .00005203,0.00100739,0.00140845,0.00064121,-0.00054447,-0.00070789,-0.
 00098509,0.00107860,0.00136020,-0.00141379,0.00086937,0.00092524,-0.00
 011414,-0.00007026,-0.00004817,0.00034642,-0.00004382,0.00002618,0.000
 42731,0.00003959,-0.00003497,-0.00109534,-0.00050703,-0.00022599,0.000
 27079,-0.00001430,-0.00009448,0.00024263,0.00002985,-0.00012077,0.0000
 5133,0.00005315,0.00003211,-0.00087371,0.00017539,0.00110286,0.0013357
 5,-0.00147258,-0.00305206,-0.00041430,-0.00060030,0.00038133,0.0000770
 9,-0.00006481,-0.00006465,-0.00000402,-0.00000607,0.00001201,-0.000133
 06,0.00010966,0.00010968,-0.05239104,-0.03066746,-0.03542574,-0.002176
 11,0.03188212,0.03332015,0.06229369,-0.00061888,-0.00264146,-0.0000161
 9,0.00038823,-0.00024558,0.00023153,0.00023705,-0.00011853,0.00038778,
 0.00033108,0.00258242,-0.00168161,0.00090067,-0.00139918,0.00192532,-0
 .00001337,-0.00013764,0.00054047,-0.00016745,0.00010235,0.00007841,-0.
 00003942,0.00017036,0.00003647,-0.00002684,-0.00017076,-0.00003284,-0.
 00110882,-0.00115617,-0.00006160,-0.00001269,0.00006017,0.00013358,0.0
 0226561,-0.00133607,0.00022312,-0.00016427,0.00039094,0.00011222,-0.00
 006626,0.00003793,0.00028118,-0.00009201,0.00013529,0.00017722,-0.0040
 0973,0.00241752,0.00151108,-0.00042742,-0.00214627,0.00630327,-0.00306
 610,-0.00101282,-0.00138613,0.00716113,0.00515532,-0.00054787,-0.00371
 063,0.00014778,0.00323240,0.00165986,0.00033240,0.00046063,-0.00189484
 ,-0.00168076,-0.00058449,0.00036958,-0.00227665,-0.00142757,-0.0007428
 5,0.00045541,0.00068071,0.00021317,-0.00003301,-0.00011139,0.00028974,
 -0.00005181,-0.00003422,0.00020050,-0.00000353,-0.00004990,0.00071536,
 0.00004941,-0.00015617,-0.00008420,0.00001913,0.00004733,-0.00015278,-
 0.00000343,0.00006096,-0.00015959,-0.00003500,-0.00001354,0.00176436,0
 .00210041,-0.00025987,-0.00346205,-0.00556218,-0.00107276,-0.00056095,
 -0.00014349,0.00036475,-0.00028413,0.00018890,0.00013105,0.00001303,0.
 00001898,-0.00002135,0.00048137,-0.00036574,-0.00024713,0.00565283,-0.
 20045835,-0.19942343,-0.00323833,-0.00710311,-0.00841538,0.00163107,0.
 21374267,-0.00244842,0.00161812,-0.00126965,-0.00043139,-0.00033461,0.
 00000711,-0.00009438,0.00007733,0.00037538,0.00114053,0.00298867,-0.00
 247709,-0.00119540,0.00245446,-0.00063067,0.00004649,-0.00012886,0.000
 59641,0.00002319,-0.00017690,0.00018175,-0.00007441,0.00008465,-0.0000
 2802,-0.00005459,-0.00011550,0.00000254,-0.00124799,-0.00249523,-0.000
 02691,-0.00005280,0.00005885,0.00016177,0.00327786,-0.00147132,0.00076
 772,-0.00017559,0.00042732,0.00015849,-0.00006516,0.00008534,0.0003227
 8,-0.00007540,0.00004877,0.00022144,-0.00612272,-0.00044182,0.00193825
 ,0.00249911,0.00621824,0.00179264,-0.00145718,-0.00025880,-0.00167083,
 0.00584810,0.00324245,-0.00122501,-0.00294880,-0.00013166,0.00313223,0
 .00061656,-0.00024226,-0.00011683,-0.00113036,-0.00096640,-0.00057028,
 0.00003167,-0.00146466,-0.00185195,-0.00030876,0.00046531,0.00021081,0
 .00022805,-0.00002634,-0.00005797,0.00008878,-0.00002729,-0.00001697,0
 .00016994,-0.00002570,-0.00005534,0.00064872,0.00021120,-0.00024694,-0
 .00011380,0.00002911,0.00006701,-0.00011125,-0.00000613,0.00004984,-0.
 00012436,-0.00004869,-0.00000168,0.00230724,0.00142564,-0.00184307,-0.
 00384775,-0.00204933,0.00356203,0.00022614,0.00037915,-0.00005395,-0.0
 0022046,0.00015234,0.00010524,0.00001109,0.00001398,-0.00001636,0.0003
 7477,-0.00029195,-0.00020028,0.00258366,-0.20578938,-0.23291166,-0.004
 04281,-0.00212920,-0.00337762,0.00629761,0.19865615,0.23500741,-0.0013
 1963,0.00108901,-0.00142204,0.00006021,-0.00021164,0.00016033,0.000021
 63,0.00008915,0.00014994,0.00039545,0.00088030,-0.00050127,-0.00002551
 ,-0.00000645,0.00012880,0.00001805,-0.00009738,0.00026484,-0.00004650,
 0.00001768,0.00004552,-0.00002169,0.00004318,0.00001383,0.00000464,-0.
 00000935,0.00001268,-0.00043290,-0.00109181,-0.00014558,-0.00004648,0.
 00007558,0.00006778,0.00104862,-0.00055854,0.00035574,-0.00003574,0.00
 013098,0.00005376,-0.00004105,0.00004841,0.00010116,-0.00002760,0.0000
 2796,0.00008738,-0.00426258,-0.00146122,-0.00171549,0.00083273,0.00022
 931,0.00161477,0.00596899,0.00576681,0.00781190,0.00012436,0.00027003,
 -0.00025182,-0.00022089,-0.00003807,0.00011867,-0.01932787,-0.00621217
 ,-0.00844925,-0.00026896,-0.00013266,0.00004968,-0.00055022,-0.0015462
 8,-0.00209481,-0.00057172,0.00019504,0.00022339,-0.00007997,-0.0000864
 1,-0.00010861,0.00000280,0.00036063,-0.00004106,-0.00008564,-0.0001865
 1,0.00034242,0.00010119,0.00000302,-0.00003218,-0.00000176,0.00000603,
 0.00000390,-0.00001937,-0.00000272,0.00000976,-0.00002034,-0.00000933,
 0.00000117,-0.00002601,-0.00003777,0.00001541,0.00004008,0.00005343,-0
 .00001836,0.00000238,0.00001631,-0.00000490,-0.00003796,0.00002013,0.0
 0002225,0.00000247,0.00000177,-0.00000250,0.00006115,-0.00003782,-0.00
 004424,-0.00006261,-0.00020767,-0.00011362,0.00002997,0.00007697,0.000
 05917,0.00007862,0.00022313,0.00010689,0.54072763,-0.00023252,0.000191
 33,-0.00024896,0.00001801,-0.00004180,0.00003055,-0.00000123,0.0000095
 4,0.00002221,0.00007676,0.00015972,-0.00009842,-0.00000178,-0.00000225
 ,0.00002442,0.00000859,-0.00003043,0.00005764,-0.00000867,0.00000495,0
 .00001179,-0.00000525,0.00000824,0.00000215,0.00000099,-0.00000347,0.0
 0000164,-0.00007434,-0.00019649,-0.00002281,-0.00000850,0.00001409,0.0
 0001172,0.00018845,-0.00009253,0.00006306,-0.00000768,0.00002404,0.000
 00883,-0.00000753,0.00000853,0.00001848,-0.00000563,0.00000764,0.00001
 719,-0.00085188,-0.00032315,-0.00012456,0.00015721,0.00001381,0.000339
 41,0.00172385,0.00080345,0.00043352,0.00003069,0.00006410,-0.00004520,
 -0.00004982,-0.00000661,0.00002546,-0.00294908,0.00190272,-0.00054702,
 -0.00005184,-0.00002391,0.00000541,-0.00071764,0.00004741,-0.00002593,
 0.00037511,-0.00054649,-0.00020977,-0.00025865,-0.00001868,-0.00017771
 ,0.00003852,0.00080486,-0.00009613,-0.00007613,-0.00039456,0.00040161,
 0.00001856,0.00000073,-0.00000790,-0.00000049,0.00000147,0.00000070,-0
 .00000415,-0.00000122,0.00000160,-0.00000405,-0.00000181,0.00000076,-0
 .00000931,-0.00000850,0.00000325,0.00001296,0.00001325,-0.00000473,0.0
 0000142,0.00000237,-0.00000061,-0.00000769,0.00000452,0.00000395,0.000
 00046,0.00000008,-0.00000087,0.00001310,-0.00000703,-0.00000808,-0.000
 02599,-0.00004815,-0.00002722,0.00001595,0.00002838,0.00002130,0.00003
 910,0.00004512,0.00002311,0.06677024,0.18031291,-0.00033812,0.00027443
 ,-0.00036097,0.00001688,-0.00005975,0.00003926,0.00000118,0.00002096,0
 .00003240,0.00010909,0.00022455,-0.00012658,-0.00000540,-0.00000208,0.
 00003483,0.00001574,-0.00003799,0.00007403,-0.00001245,0.00000779,0.00
 001259,-0.00000685,0.00001167,0.00000344,0.00000144,-0.00000459,0.0000
 0291,-0.00010577,-0.00027942,-0.00002835,-0.00001144,0.00001873,0.0000
 1658,0.00026394,-0.00013505,0.00008607,-0.00000902,0.00003381,0.000013
 95,-0.00001116,0.00001348,0.00002567,-0.00000679,0.00000595,0.00002286
 ,-0.00114219,-0.00013490,-0.00035916,0.00023962,0.00007651,0.00037558,
 0.00232627,0.00040278,0.00105636,0.00004822,0.00008018,-0.00004609,-0.
 00007391,-0.00000765,0.00004092,-0.00408170,-0.00054281,0.00165980,-0.
 00007443,-0.00003693,0.00001322,-0.00097446,-0.00004109,0.00003039,0.0
 0050898,-0.00017661,-0.00068636,-0.00035736,-0.00019109,-0.00012620,-0
 .00001052,0.00076713,-0.00023602,-0.00000201,-0.00047782,0.00084814,0.
 00002890,0.00000140,-0.00001112,-0.00000117,0.00000204,0.00000073,-0.0
 0000552,-0.00000135,0.00000314,-0.00000551,-0.00000197,0.00000051,-0.0
 0001091,-0.00001372,0.00000775,0.00001706,0.00002142,-0.00000834,0.000
 00046,0.00000462,-0.00000241,-0.00001159,0.00000534,0.00000744,-0.0000
 0009,0.00000090,-0.00000128,0.00001820,-0.00000956,-0.00001404,-0.0000
 3606,-0.00007231,-0.00003830,0.00002644,0.00004113,0.00002831,0.000051
 78,0.00006895,0.00002813,0.09226768,0.25584050,0.37781010,0.00252106,-
 0.00207661,0.00272235,-0.00011514,0.00039438,-0.00029922,-0.00003481,-
 0.00017122,-0.00028232,-0.00074902,-0.00166882,0.00097450,0.00004784,0
 .00001273,-0.00024319,-0.00002177,0.00017539,-0.00049433,0.00008850,-0
 .00003465,-0.00008866,0.00004234,-0.00008029,-0.00002638,-0.00000694,0
 .00001538,-0.00002365,0.00083205,0.00208934,0.00026910,0.00009008,-0.0
 0014662,-0.00012896,-0.00200165,0.00106736,-0.00068352,0.00006990,-0.0
 0025043,-0.00010250,0.00007829,-0.00009259,-0.00019101,0.00005359,-0.0
 0005800,-0.00016526,0.00812317,0.00248402,0.00291455,-0.00176117,-0.00
 039937,-0.00299582,-0.01410699,-0.01016685,-0.01385719,-0.00018365,-0.
 00051313,0.00041694,0.00039914,0.00007695,-0.00019697,0.00975972,0.007
 93046,0.01069633,0.00046204,0.00023510,-0.00009013,0.00010483,0.003477
 41,0.00468553,0.00144070,-0.00096343,-0.00121820,0.00000140,0.00013550
 ,0.00017337,-0.00009239,-0.00022350,-0.00024972,-0.00007526,-0.0002151
 6,-0.00025897,-0.00018115,-0.00000782,0.00005505,0.00000280,-0.0000110
 9,-0.00000567,0.00003578,0.00000647,-0.00001675,0.00003645,0.00001676,
 -0.00000215,0.00004492,0.00006610,-0.00002823,-0.00007050,-0.00009410,
 0.00003293,-0.00000233,-0.00002776,0.00000874,0.00006866,-0.00003231,-
 0.00004134,-0.00000238,-0.00000515,0.00000459,-0.00010919,0.00006284,0
 .00008002,0.00010743,0.00037479,0.00020439,-0.00004501,-0.00013583,-0.
 00010484,-0.00012906,-0.00040109,-0.00018467,-0.46354096,-0.03027673,-
 0.03968863,0.46568623,0.00027419,-0.00024376,0.00030957,-0.00002352,0.
 00005641,-0.00004192,-0.00000098,-0.00001214,-0.00002502,-0.00009319,-
 0.00020323,0.00010534,0.00000217,0.00000334,-0.00003380,-0.00000876,0.
 00003706,-0.00006446,0.00001547,-0.00000813,-0.00001286,0.00000519,-0.
 00001089,-0.00000329,-0.00000384,0.00000593,-0.00000160,0.00009151,0.0
 0023901,0.00003963,0.00001068,-0.00001747,-0.00001480,-0.00022731,0.00
 011671,-0.00007466,0.00000954,-0.00003018,-0.00001157,0.00000960,-0.00
 000992,-0.00002345,0.00000440,-0.00000517,-0.00002163,0.00121549,0.000
 69851,-0.00002599,-0.00017811,0.00003780,-0.00050170,-0.00345300,-0.00
 151483,-0.00073820,-0.00005657,-0.00009871,0.00008999,0.00007427,0.000
 01234,-0.00003677,0.00360143,-0.00335358,0.00094993,0.00007977,0.00002
 940,-0.00000866,0.00068949,-0.00023599,0.00011703,-0.00089716,0.000574
 35,-0.00046596,0.00039136,-0.00008689,0.00036145,-0.00014493,-0.001712
 79,-0.00044209,-0.00011895,0.00020039,-0.00063393,-0.00002621,0.000000
 93,0.00000829,0.00000051,-0.00000188,-0.00000125,0.00000595,0.00000157
 ,-0.00000224,0.00000510,0.00000250,-0.00000061,0.00001205,0.00001327,-
 0.00000571,-0.00001747,-0.00002035,0.00000707,-0.00000107,-0.00000402,
 0.00000137,0.00001026,-0.00000544,-0.00000683,-0.00000036,-0.00000076,
 0.00000108,-0.00001838,0.00001008,0.00001243,0.00003743,0.00007099,0.0
 0004058,-0.00002849,-0.00004097,-0.00002669,-0.00005151,-0.00006530,-0
 .00003570,0.00026240,-0.02115869,-0.02024481,0.02566260,0.02919085,0.0
 0045749,-0.00036956,0.00049021,-0.00001416,0.00007571,-0.00005314,-0.0
 0000158,-0.00003009,-0.00004927,-0.00014657,-0.00031528,0.00019880,0.0
 0000907,0.00000332,-0.00004664,-0.00002147,0.00005610,-0.00011147,0.00
 001722,-0.00001001,-0.00001488,0.00000849,-0.00001556,-0.00000557,-0.0
 0000121,0.00000701,-0.00000375,0.00014871,0.00037546,0.00004302,0.0000
 1469,-0.00002449,-0.00002332,-0.00035956,0.00018494,-0.00012253,0.0000
 1282,-0.00004470,-0.00001854,0.00001467,-0.00001780,-0.00003608,0.0000
 1109,-0.00000996,-0.00003149,0.00158567,-0.00005387,0.00059737,-0.0003
 4371,-0.00012460,-0.00046378,-0.00463345,-0.00064505,-0.00189862,-0.00
 006307,-0.00009668,0.00004040,0.00009741,0.00000815,-0.00004916,0.0050
 0940,0.00091625,-0.00285025,0.00009532,0.00005054,-0.00001751,0.000941
 01,0.00011833,-0.00021129,-0.00124126,-0.00051746,0.00032468,0.0005277
 4,0.00036683,0.00011968,-0.00015361,-0.00114542,-0.00011178,-0.0001415
 7,0.00009853,-0.00212003,-0.00003533,-0.00000407,0.00001351,0.00000129
 ,-0.00000206,-0.00000104,0.00000666,0.00000191,-0.00000430,0.00000599,
 0.00000321,0.,0.00001561,0.00001934,-0.00001012,-0.00002347,-0.0000283
 1,0.00001195,-0.00000061,-0.00000634,0.00000278,0.00001383,-0.00000711
 ,-0.00000997,-0.00000054,-0.00000128,0.00000151,-0.00002215,0.00001489
 ,0.00001754,0.00005385,0.00009966,0.00005149,-0.00004125,-0.00005791,-
 0.00003854,-0.00007236,-0.00009033,-0.00003479,0.00499520,-0.01998306,
 -0.03657197,0.03289494,0.02430754,0.04757104,-0.00002729,0.00002337,-0
 .00002917,0.00000092,-0.00000500,0.00000444,0.00000216,-0.00000005,0.0
 0000447,0.00001134,0.00002150,-0.00001106,-0.00000059,-0.00000106,0.00
 000401,0.00000223,-0.00000406,0.00000734,-0.00000004,0.00000023,0.0000
 0154,-0.00000029,0.00000109,0.00000022,-0.00000050,-0.00000037,0.00000
 019,-0.00001051,-0.00002317,-0.00000471,-0.00000120,0.00000167,0.00000
 166,0.00002695,-0.00001550,0.00000878,-0.00000182,0.00000369,0.0000009
 0,-0.00000097,0.00000131,0.00000258,-0.00000091,0.00000165,0.00000222,
 -0.00014337,-0.00004434,-0.00006977,-0.00000232,-0.00000269,0.00003824
 ,0.00034424,0.00017111,0.00026012,-0.00000227,0.00000611,-0.00000762,-
 0.00000713,0.00000092,0.00000603,-0.00131061,0.00036707,0.00053581,-0.
 00000656,0.00000039,0.00000166,-0.00007150,0.00003042,0.00004206,0.000
 12655,-0.00002533,-0.00004747,-0.00004652,-0.00001331,-0.00001625,-0.0
 0003064,0.00008358,-0.00000307,-0.00004235,-0.00002893,0.00007939,0.00
 000273,-0.00000085,-0.00000226,-0.00000047,-0.00000005,0.00000003,-0.0
 0000083,-0.00000058,-0.00000003,-0.00000032,-0.00000059,-0.00000031,-0
 .00000021,-0.00000073,0.00000077,0.00000121,0.00000160,-0.00000047,-0.
 00000049,0.00000039,-0.00000017,0.00000014,0.00000071,0.00000063,-0.00
 000024,0.00000021,-0.00000010,0.00000106,-0.00000151,-0.00000137,-0.00
 000189,-0.00000592,-0.00000356,0.00000296,0.00000306,0.00000176,0.0000
 0269,0.00000697,0.00000206,-0.05844702,-0.03385340,-0.04895884,-0.0068
 6749,-0.02712105,-0.03962122,0.06650119,0.00005642,-0.00004244,0.00005
 425,-0.00000489,0.00000873,-0.00000538,0.00000175,-0.00000198,-0.00000
 466,-0.00001719,-0.00002986,0.00002510,0.00000045,0.,-0.00000439,-0.00
 000198,0.00000231,-0.00001285,0.00000120,-0.00000126,-0.00000357,0.000
 00155,-0.00000131,-0.00000043,-0.00000082,0.00000123,-0.00000068,0.000
 01542,0.00004432,0.00000116,0.00000176,-0.00000332,-0.00000217,-0.0000
 4198,0.00001836,-0.00001427,0.00000148,-0.00000520,-0.00000231,0.00000
 153,-0.00000207,-0.00000349,0.00000115,-0.00000173,-0.00000367,0.00013
 938,0.00003180,0.00006247,-0.00003580,-0.00001036,-0.00005316,-0.00024
 389,-0.00022908,-0.00021923,-0.00000015,-0.00000589,0.00000300,0.00000
 418,-0.00000028,-0.00000075,0.00063986,0.00027384,0.00014024,0.0000077
 9,0.00000499,-0.00000172,-0.00003621,0.00014320,0.00005417,0.00005933,
 -0.00025024,0.00015355,-0.00002028,0.00006838,-0.00004753,-0.00001520,
 0.00015297,-0.00006936,0.00001979,0.00004229,-0.00004164,-0.00000228,0
 .00000030,0.00000139,0.,-0.00000047,0.00000002,0.00000056,0.00000006,-
 0.00000046,0.00000070,-0.00000006,-0.00000052,0.00000141,0.00000051,0.
 00000016,-0.00000125,-0.00000093,0.00000006,-0.00000048,-0.00000013,0.
 00000007,0.00000172,-0.00000057,-0.00000058,0.00000006,0.00000009,0.00
 000018,-0.00000261,-0.00000003,0.00000145,0.00000203,0.00000445,0.0000
 0302,-0.00000017,-0.00000115,-0.00000254,-0.00000105,-0.00000567,-0.00
 000243,-0.06472373,-0.16156750,-0.23545276,0.00376898,-0.00246034,-0.0
 0310670,0.06042144,0.16382407,0.00007601,-0.00006112,0.00007782,-0.000
 00714,0.00001315,-0.00000777,0.00000142,-0.00000395,-0.00000564,-0.000
 02273,-0.00004174,0.00002383,0.00000079,0.00000022,-0.00000655,-0.0000
 0002,0.00000359,-0.00001288,0.00000163,-0.00000117,-0.00000375,0.00000
 207,-0.00000209,-0.00000051,-0.00000136,0.00000112,-0.00000075,0.00002
 099,0.00006083,0.00000244,0.00000260,-0.00000474,-0.00000304,-0.000054
 99,0.00002735,-0.00001797,0.00000192,-0.00000741,-0.00000314,0.0000023
 6,-0.00000267,-0.00000477,0.00000159,-0.00000169,-0.00000438,0.0002176
 9,0.00007397,0.00007264,-0.00004312,-0.00000680,-0.00008167,-0.0003835
 4,-0.00023618,-0.00038425,-0.00000944,-0.00001414,0.00001145,0.0000098
 7,0.00000126,-0.00000574,0.00096162,0.00016604,0.00036303,0.00001555,0
 .00000807,-0.00000093,-0.00003258,0.00006255,0.00018794,0.00009128,0.0
 0016430,-0.00014036,-0.00001836,-0.00004072,0.00004668,0.00001565,-0.0
 0003465,0.00001376,-0.00001276,-0.00008586,0.00009210,-0.00000462,-0.0
 0000052,0.00000258,-0.00000005,-0.00000056,-0.00000004,0.00000114,0.00
 000019,-0.00000090,0.00000121,0.00000002,-0.00000059,0.00000137,0.0000
 0174,-0.00000085,-0.00000190,-0.00000282,0.00000076,-0.00000032,-0.000
 00074,0.00000045,0.00000246,-0.00000054,-0.00000121,0.00000021,0.00000
 012,0.00000043,-0.00000424,0.00000004,0.00000255,0.00000258,0.00000907
 ,0.00000462,-0.00000024,-0.00000331,-0.00000271,-0.00000182,-0.0000107
 7,-0.00000510,-0.09413830,-0.23574130,-0.34365791,0.00553499,-0.002845
 09,-0.00457414,0.08777051,0.23855693,0.34802447\\0.00000034,0.00000037
 ,-0.00000292,-0.00000060,0.00000010,0.00000218,0.00000019,0.00000053,0
 .00000009,-0.00000058,-0.00000036,0.00000031,-0.00000096,-0.00000091,0
 .00000119,-0.00000028,-0.00000028,-0.00000102,-0.00000093,-0.00000101,
 0.00000056,-0.00000056,0.00000031,0.00000049,-0.00000014,-0.00000066,0
 .00000033,-0.00000019,-0.00000166,-0.00000062,-0.00000116,0.00000037,0
 .00000049,-0.00000056,0.00000066,-0.00000087,-0.00000096,-0.00000049,-
 0.00000021,-0.00000052,-0.00000018,0.00000164,-0.00000037,0.00000011,-
 0.00000078,0.00000026,0.00000057,-0.00000009,0.00000088,0.00000030,0.0
 0000106,0.,0.00000050,-0.00000207,-0.00000011,-0.00000075,0.00000119,0
 .00000027,0.00000102,-0.00000068,0.00000088,-0.00000064,0.00000074,-0.
 00000054,0.00000180,-0.00000079,-0.00000010,0.00000029,-0.00000012,-0.
 00000021,0.00000054,-0.00000088,-0.00000016,0.00000021,-0.00000098,0.0
 0000035,0.00000024,-0.00000088,-0.00000003,-0.00000007,-0.00000110,0.0
 0000060,-0.00000084,0.00000155,0.00000043,-0.00000009,0.00000121,0.000
 00075,-0.00000043,0.00000068,0.00000043,-0.00000043,0.00000124,-0.0000
 0052,-0.00000040,0.00000105,0.00000024,0.00000037,0.00000069,0.0000000
 3,0.00000042,0.00000085,0.00000053,0.00000029,-0.00000014,0.00000148,0
 .00000006,0.00000192,0.00000088,-0.00000094,-0.00000096,0.00000037,-0.
 00000027,0.00000096,-0.00000055,-0.00000009,-0.00000053,-0.00000034,-0
 .00000047,0.00000010,-0.00000021,0.00000019,-0.00000156,0.00000098,0.0
 0000074,-0.00000182,0.00000066,0.00000100,-0.00000151\\\@


 YOU KNOW YOU'VE SPOKEN TOO LONG WHEN THE AUDIENCE STOPS LOOKING AT
 THEIR WATCHES AND STARTS SHAKING THEM.
 Job cpu time:       0 days  9 hours 36 minutes 41.2 seconds.
 File lengths (MBytes):  RWF=   1125 Int=      0 D2E=      0 Chk=     42 Scr=      1
 Normal termination of Gaussian 09 at Thu Sep 24 16:03:39 2020.
