 Entering Gaussian System, Link 0=g09
 Input=freq_m062x_TS_4H2O_associated_cycloaddition_PM6_toluene_3_6.com
 Output=freq_m062x_TS_4H2O_associated_cycloaddition_PM6_toluene_3_6.log
 Initial command:
 /apps/applications/gaussian/G09.D01/2/default/g09/l1.exe "/local/730031.1.40core-192G.q/Gau-138836.inp" -scrdir="/local/730031.1.40core-192G.q/"
 Entering Link 1 = /apps/applications/gaussian/G09.D01/2/default/g09/l1.exe PID=    138837.
  
 Copyright (c) 1988,1990,1992,1993,1995,1998,2003,2009,2013,
            Gaussian, Inc.  All Rights Reserved.
  
 This is part of the Gaussian(R) 09 program.  It is based on
 the Gaussian(R) 03 system (copyright 2003, Gaussian, Inc.),
 the Gaussian(R) 98 system (copyright 1998, Gaussian, Inc.),
 the Gaussian(R) 94 system (copyright 1995, Gaussian, Inc.),
 the Gaussian 92(TM) system (copyright 1992, Gaussian, Inc.),
 the Gaussian 90(TM) system (copyright 1990, Gaussian, Inc.),
 the Gaussian 88(TM) system (copyright 1988, Gaussian, Inc.),
 the Gaussian 86(TM) system (copyright 1986, Carnegie Mellon
 University), and the Gaussian 82(TM) system (copyright 1983,
 Carnegie Mellon University). Gaussian is a federally registered
 trademark of Gaussian, Inc.
  
 This software contains proprietary and confidential information,
 including trade secrets, belonging to Gaussian, Inc.
  
 This software is provided under written license and may be
 used, copied, transmitted, or stored only in accord with that
 written license.
  
 The following legend is applicable only to US Government
 contracts under FAR:
  
                    RESTRICTED RIGHTS LEGEND
  
 Use, reproduction and disclosure by the US Government is
 subject to restrictions as set forth in subparagraphs (a)
 and (c) of the Commercial Computer Software - Restricted
 Rights clause in FAR 52.227-19.
  
 Gaussian, Inc.
 340 Quinnipiac St., Bldg. 40, Wallingford CT 06492
  
  
 ---------------------------------------------------------------
 Warning -- This program may not be used in any manner that
 competes with the business of Gaussian, Inc. or will provide
 assistance to any competitor of Gaussian, Inc.  The licensee
 of this program is prohibited from giving any competitor of
 Gaussian, Inc. access to this program.  By using this program,
 the user acknowledges that Gaussian, Inc. is engaged in the
 business of creating and licensing software in the field of
 computational chemistry and represents and warrants to the
 licensee that it is not a competitor of Gaussian, Inc. and that
 it will not use this program in any manner prohibited above.
 ---------------------------------------------------------------
  

 Cite this work as:
 Gaussian 09, Revision D.01,
 M. J. Frisch, G. W. Trucks, H. B. Schlegel, G. E. Scuseria, 
 M. A. Robb, J. R. Cheeseman, G. Scalmani, V. Barone, B. Mennucci, 
 G. A. Petersson, H. Nakatsuji, M. Caricato, X. Li, H. P. Hratchian, 
 A. F. Izmaylov, J. Bloino, G. Zheng, J. L. Sonnenberg, M. Hada, 
 M. Ehara, K. Toyota, R. Fukuda, J. Hasegawa, M. Ishida, T. Nakajima, 
 Y. Honda, O. Kitao, H. Nakai, T. Vreven, J. A. Montgomery, Jr., 
 J. E. Peralta, F. Ogliaro, M. Bearpark, J. J. Heyd, E. Brothers, 
 K. N. Kudin, V. N. Staroverov, T. Keith, R. Kobayashi, J. Normand, 
 K. Raghavachari, A. Rendell, J. C. Burant, S. S. Iyengar, J. Tomasi, 
 M. Cossi, N. Rega, J. M. Millam, M. Klene, J. E. Knox, J. B. Cross, 
 V. Bakken, C. Adamo, J. Jaramillo, R. Gomperts, R. E. Stratmann, 
 O. Yazyev, A. J. Austin, R. Cammi, C. Pomelli, J. W. Ochterski, 
 R. L. Martin, K. Morokuma, V. G. Zakrzewski, G. A. Voth, 
 P. Salvador, J. J. Dannenberg, S. Dapprich, A. D. Daniels, 
 O. Farkas, J. B. Foresman, J. V. Ortiz, J. Cioslowski, 
 and D. J. Fox, Gaussian, Inc., Wallingford CT, 2013.
 
 ******************************************
 Gaussian 09:  ES64L-G09RevD.01 24-Apr-2013
                 8-Sep-2020 
 ******************************************
 %nprocshared=4
 Will use up to    4 processors via shared memory.
 %chk=TS_4H2O_associated_cycloaddition_PM6_toluene_6.chk
 ----------------------------------------------------------------------
 # freq scrf=(cpcm,solvent=toluene) geom=connectivity def2svp empirical
 dispersion=gd3 m062x
 ----------------------------------------------------------------------
 1/10=4,30=1,38=1,57=2/1,3;
 2/12=2,17=6,18=5,40=1/2;
 3/5=43,7=101,11=2,16=1,25=1,30=1,70=2101,71=2,72=13,74=-55,124=31,140=1/1,2,3;
 4//1;
 5/5=2,38=5,53=13,98=1/2;
 8/6=4,10=90,11=11/1;
 11/6=1,8=1,9=11,15=111,16=1/1,2,10;
 10/6=1/2;
 6/7=2,8=2,9=2,10=2,18=1,28=1/1;
 7/8=1,10=1,25=1/1,2,3,16;
 1/10=4,30=1/3;
 99//99;
 -------------------
 Title Card Required
 -------------------
 Symbolic Z-matrix:
 Charge =  0 Multiplicity = 1
 C                     0.7704   -0.976     1.05239 
 C                     2.01032  -1.52061   0.27349 
 C                     0.26248  -2.8915   -0.32145 
 C                    -0.27497  -2.04807   0.8041 
 H                     0.83121  -0.38697   1.9661 
 H                    -1.31959  -1.97917   1.09877 
 C                     1.43675  -2.18029  -0.96951 
 H                     2.1649   -2.87268  -1.41458 
 H                     1.11029  -1.44583  -1.71767 
 C                     1.78444  -2.38862   1.40614 
 H                     2.30141  -2.33278   2.36223 
 C                     0.62076  -3.26028   1.08552 
 H                     0.31583  -4.1494    1.6308 
 H                     2.87478  -0.86003   0.21776 
 H                    -0.43622  -3.51001  -0.88233 
 N                    -0.7164    0.02651  -0.94692 
 N                     0.06084   0.49822  -0.03228 
 C                    -2.03293  -0.12632  -0.53393 
 C                     1.23609   1.13864  -0.52679 
 O                     1.40922   1.44776  -1.67672 
 O                    -2.88196  -0.59989  -1.25831 
 O                     2.05863   1.40633   0.47006 
 O                    -2.30503   0.31056   0.71025 
 C                    -3.64145   0.12189   1.16342 
 H                    -3.72379   0.66276   2.1118 
 H                    -4.36244   0.50318   0.43032 
 H                    -3.83734  -0.94835   1.32718 
 C                     3.12265   2.30918   0.171 
 H                     3.79151   1.86767  -0.57881 
 H                     2.69164   3.25239  -0.18659 
 H                     3.65547   2.4632    1.11401 
 O                     0.3002    3.66447   0.40014 
 H                     0.14233   3.15858   1.21835 
 H                    -0.46058   3.44538  -0.14981 
 O                     3.75558  -0.11743  -1.90069 
 H                     3.9051   -0.72967  -2.62957 
 H                     3.02852   0.4484   -2.2029 
 O                    -0.33555   1.79667   2.42241 
 H                    -1.22175   1.86156   2.79629 
 H                    -0.45958   1.27931   1.59979 
 O                    -5.52735   0.39272  -1.58325 
 H                    -4.69415  -0.10554  -1.56511 
 H                    -5.26577   1.22719  -1.98895 
 

 GradGradGradGradGradGradGradGradGradGradGradGradGradGradGradGradGradGrad
 Berny optimization.
 Initialization pass.
 Trust Radius=3.00D-01 FncErr=1.00D-07 GrdErr=1.00D-07
 Number of steps in this run=      2 maximum allowed number of steps=      2.
 GradGradGradGradGradGradGradGradGradGradGradGradGradGradGradGradGradGrad

                          Input orientation:                          
 ---------------------------------------------------------------------
 Center     Atomic      Atomic             Coordinates (Angstroms)
 Number     Number       Type             X           Y           Z
 ---------------------------------------------------------------------
      1          6           0        0.770395   -0.976003    1.052385
      2          6           0        2.010321   -1.520605    0.273488
      3          6           0        0.262476   -2.891498   -0.321453
      4          6           0       -0.274972   -2.048074    0.804095
      5          1           0        0.831205   -0.386965    1.966095
      6          1           0       -1.319592   -1.979170    1.098773
      7          6           0        1.436751   -2.180292   -0.969507
      8          1           0        2.164898   -2.872675   -1.414581
      9          1           0        1.110294   -1.445831   -1.717665
     10          6           0        1.784442   -2.388616    1.406142
     11          1           0        2.301410   -2.332776    2.362230
     12          6           0        0.620756   -3.260282    1.085519
     13          1           0        0.315827   -4.149395    1.630797
     14          1           0        2.874778   -0.860025    0.217763
     15          1           0       -0.436220   -3.510014   -0.882328
     16          7           0       -0.716398    0.026514   -0.946924
     17          7           0        0.060843    0.498219   -0.032284
     18          6           0       -2.032925   -0.126319   -0.533930
     19          6           0        1.236093    1.138635   -0.526794
     20          8           0        1.409215    1.447764   -1.676718
     21          8           0       -2.881956   -0.599891   -1.258306
     22          8           0        2.058634    1.406331    0.470058
     23          8           0       -2.305033    0.310558    0.710246
     24          6           0       -3.641451    0.121886    1.163421
     25          1           0       -3.723787    0.662758    2.111802
     26          1           0       -4.362439    0.503181    0.430316
     27          1           0       -3.837342   -0.948350    1.327178
     28          6           0        3.122652    2.309176    0.171002
     29          1           0        3.791514    1.867673   -0.578807
     30          1           0        2.691637    3.252392   -0.186587
     31          1           0        3.655466    2.463195    1.114007
     32          8           0        0.300196    3.664466    0.400140
     33          1           0        0.142331    3.158585    1.218347
     34          1           0       -0.460576    3.445375   -0.149812
     35          8           0        3.755584   -0.117427   -1.900685
     36          1           0        3.905101   -0.729665   -2.629574
     37          1           0        3.028520    0.448403   -2.202902
     38          8           0       -0.335550    1.796674    2.422409
     39          1           0       -1.221750    1.861559    2.796285
     40          1           0       -0.459576    1.279311    1.599786
     41          8           0       -5.527353    0.392724   -1.583246
     42          1           0       -4.694151   -0.105536   -1.565110
     43          1           0       -5.265772    1.227193   -1.988948
 ---------------------------------------------------------------------
                    Distance matrix (angstroms):
                    1          2          3          4          5
     1  C    0.000000
     2  C    1.562270   0.000000
     3  C    2.411334   2.299623   0.000000
     4  C    1.517820   2.404648   1.505680   0.000000
     5  H    1.088820   2.353800   3.439333   2.309362   0.000000
     6  H    2.318737   3.461170   2.313509   1.087572   2.813057
     7  C    2.445892   1.519607   1.518127   2.468429   3.492917
     8  H    3.409974   2.168309   2.194195   3.399332   4.403006
     9  H    2.830097   2.186397   2.181320   2.939546   3.843069
    10  C    1.774517   1.444773   2.356662   2.172468   2.286660
    11  H    2.429101   2.259911   3.416369   3.024332   2.470750
    12  C    2.289415   2.369971   1.497977   1.533289   3.012583
    13  H    3.257547   3.409418   2.323022   2.334101   3.812338
    14  H    2.266820   1.089384   3.352873   3.417041   2.730685
    15  H    3.408848   3.358455   1.088724   2.237698   4.412858
    16  N    2.685671   3.364220   3.140733   2.750425   3.324413
    17  N    1.962983   2.823050   3.407999   2.701094   2.317440
    18  C    3.331210   4.352447   3.600032   2.928114   3.810683
    19  C    2.679995   2.882956   4.151152   3.769575   2.950574
    20  O    3.705501   3.602200   4.688384   4.605627   4.119516
    21  O    4.338251   5.208501   4.002076   3.625893   4.922364
    22  O    2.770231   2.933927   4.724829   4.182130   2.638299
    23  O    3.351202   4.708099   4.231982   3.113374   3.449592
    24  C    4.547755   5.952502   5.150338   4.021321   4.572512
    25  H    4.899548   6.405191   5.868880   4.577448   4.676655
    26  H    5.377819   6.688227   5.786090   4.832804   5.488617
    27  H    4.616007   5.969330   4.827247   3.764769   4.745387
    28  C    4.135499   3.989362   5.955680   5.561500   3.967652
    29  H    4.458076   3.921668   5.930434   5.812211   4.508142
    30  H    4.806823   4.843280   6.608055   6.154442   4.619542
    31  H    4.489489   4.391314   6.499666   5.991322   4.101941
    32  O    4.709614   5.461275   6.595664   5.755616   4.375875
    33  H    4.185311   5.126106   6.244111   5.239756   3.688441
    34  H    4.744381   5.562865   6.380300   5.578743   4.564273
    35  O    4.285922   3.121198   4.731939   5.223851   4.855577
    36  H    4.841889   3.555776   4.823864   5.567881   5.539535
    37  H    4.210101   3.323587   4.727133   5.117371   4.786081
    38  O    3.284481   4.596228   5.464922   4.171894   2.517503
    39  H    3.880926   5.315056   5.874927   4.488924   3.155899
    40  H    2.626579   3.962195   4.648458   3.426178   2.139340
    41  O    6.962873   7.995300   6.774980   6.264535   7.323728
    42  H    6.121295   7.094562   5.820345   5.377335   6.563396
    43  H    7.109085   8.100033   7.092650   6.590641   7.444528
                    6          7          8          9         10
     6  H    0.000000
     7  C    3.451907   0.000000
     8  H    4.388276   1.098946   0.000000
     9  H    3.757808   1.098065   1.799981   0.000000
    10  C    3.145973   2.409978   2.887133   3.331890   0.000000
    11  H    3.851366   3.445484   3.817647   4.341771   1.088337
    12  C    2.325161   2.460764   2.963969   3.374866   1.488881
    13  H    2.769029   3.448973   3.784627   4.376372   2.303832
    14  H    4.429605   2.284871   2.686864   2.683739   2.222086
    15  H    2.654918   2.298648   2.730441   2.711152   3.380232
    16  N    2.927710   3.083270   4.114106   2.469544   4.198092
    17  N    3.053252   3.153717   4.207222   2.778702   3.657004
    18  C    2.570529   4.055513   5.093107   3.608624   4.842949
    19  C    4.346804   3.354331   4.212060   2.848414   4.059363
    20  O    5.185905   3.696444   4.393855   2.909282   4.935852
    21  O    3.146302   4.607852   5.537211   4.106664   5.663399
    22  O    4.823827   3.914454   4.676863   3.717568   3.918298
    23  O    2.522876   4.798630   5.884568   4.543579   4.949103
    24  C    3.132035   5.969719   7.023331   5.773861   5.983465
    25  H    3.712973   6.648951   7.720834   6.517615   6.336357
    26  H    3.983443   6.541493   7.576686   6.193810   6.862862
    27  H    2.730169   5.882899   6.873657   5.830751   5.803883
    28  C    6.243733   4.929335   5.502994   4.660121   5.038415
    29  H    6.613311   4.699317   5.080876   4.411944   5.107285
    30  H    6.716498   5.630431   6.269120   5.188270   5.931337
    31  H    6.669786   5.552090   6.089915   5.456808   5.208276
    32  O    5.912904   6.109737   7.035946   5.590751   6.313068
    33  H    5.343037   5.913192   6.884707   5.545968   5.788198
    34  H    5.632279   5.993320   6.957766   5.371191   6.441782
    35  O    6.182253   3.240292   3.218380   2.965757   4.469766
    36  H    6.539056   3.309516   3.016124   3.025792   4.851424
    37  H    5.974968   3.311349   3.520916   2.739191   4.756218
    38  O    4.120358   5.519276   6.540455   5.453853   4.800398
    39  H    4.200276   6.130691   7.184271   6.062425   5.388291
    40  H    3.407101   4.708097   5.763095   4.571255   4.304277
    41  O    5.524885   7.449552   8.358349   6.888883   8.374643
    42  H    4.689821   6.499793   7.397721   5.959131   7.484181
    43  H    5.948708   7.587755   8.506096   6.919022   8.620106
                   11         12         13         14         15
    11  H    0.000000
    12  C    2.305397   0.000000
    13  H    2.788842   1.086661   0.000000
    14  H    2.663923   3.405121   4.400551   0.000000
    15  H    4.405413   2.247662   2.700033   4.381250   0.000000
    16  N    5.062007   4.089234   5.014813   3.878014   3.548197
    17  N    4.332248   3.960974   4.942790   3.134578   4.127418
    18  C    5.660623   4.414336   5.136908   5.018856   3.757691
    19  C    4.640264   4.725322   5.784924   2.689665   4.953077
    20  O    5.603713   5.515190   6.592673   3.326082   5.349416
    21  O    6.555795   4.983993   5.583163   5.948650   3.819921
    22  O    4.197639   4.921744   5.937237   2.422006   5.676592
    23  O    5.561977   4.631627   5.254284   5.333221   4.541533
    24  C    6.540650   5.441648   5.841432   6.657301   5.258259
    25  H    6.733419   5.942941   6.301322   7.031878   6.097945
    26  H    7.495454   6.278947   6.706250   7.367552   5.765758
    27  H    6.377479   5.027730   5.252398   6.803761   4.797048
    28  C    5.198426   6.173709   7.191829   3.179224   6.902032
    29  H    5.339839   6.254567   7.291629   2.985844   6.847290
    30  H    6.151654   6.951383   7.983346   4.136304   7.483160
    31  H    5.137399   6.478307   7.426076   3.529379   7.510424
    32  O    6.619786   6.965963   7.910195   5.208911   7.325312
    33  H    6.010419   6.438042   7.321666   4.961518   7.015538
    34  H    6.879386   6.903706   7.839254   5.458587   6.993898
    35  O    5.019446   5.349962   6.368678   2.411450   5.487979
    36  H    5.482691   5.567123   6.536681   3.030823   5.443370
    37  H    5.394819   5.510480   6.572343   2.755946   5.423781
    38  O    4.899953   5.317387   6.033795   4.714310   6.252388
    39  H    5.494862   5.705682   6.313008   5.553138   6.557671
    40  H    4.609939   4.694624   5.483891   4.195791   5.394355
    41  O    9.180668   7.633217   8.068685   8.683825   6.453083
    42  H    8.326012   6.725065   7.187941   7.812591   5.494237
    43  H    9.427002   8.015048   8.553625   8.688763   6.854948
                   16         17         18         19         20
    16  N    0.000000
    17  N    1.289642   0.000000
    18  C    1.388224   2.241776   0.000000
    19  C    2.285945   1.426845   3.505230   0.000000
    20  O    2.659094   2.328928   3.953736   1.203269   0.000000
    21  O    2.275738   3.371801   1.212372   4.529449   4.773061
    22  O    3.407717   2.251263   4.483064   1.319829   2.243236
    23  O    2.313148   2.486752   1.346432   3.841296   4.559218
    24  C    3.608128   3.908749   2.351587   5.261277   5.944205
    25  H    4.336473   4.352884   3.237523   5.638179   6.427817
    26  H    3.926527   4.447409   2.598591   5.715192   6.216415
    27  H    3.982737   4.374534   2.719445   5.790722   6.503162
    28  C    4.604195   3.563084   5.745306   2.327271   2.663075
    29  H    4.883303   4.011483   6.156469   2.657890   2.656517
    30  H    4.753851   3.811870   5.818747   2.588884   2.668666
    31  H    5.412767   4.253990   6.463673   3.209370   3.723559
    32  O    4.010329   3.204591   4.548185   2.848672   3.233733
    33  H    3.903291   2.940793   4.311938   2.884793   3.593509
    34  H    3.519864   2.995233   3.921330   2.888226   3.133370
    35  O    4.574823   4.185816   5.947683   3.132587   2.829387
    36  H    4.976080   4.799160   6.325812   3.877607   3.446531
    37  H    3.972390   3.677114   5.360410   2.549226   1.974270
    38  O    3.825038   2.805108   3.913940   3.406006   4.468645
    39  H    4.199331   3.391835   3.962322   4.196006   5.205858
    40  H    2.849770   1.882709   3.000661   2.723495   3.775743
    41  O    4.866652   5.800392   3.685308   6.885977   7.016967
    42  H    4.027668   5.032300   2.854100   6.147671   6.298911
    43  H    4.819154   5.721255   3.794782   6.664832   6.685925
                   21         22         23         24         25
    21  O    0.000000
    22  O    5.605497   0.000000
    23  O    2.244316   4.505552   0.000000
    24  C    2.638666   5.884005   1.423720   0.000000
    25  H    3.696024   6.056783   2.025159   1.094874   0.000000
    26  H    2.502008   6.484400   2.085278   1.096655   1.805751
    27  H    2.778293   6.406380   2.076879   1.100270   1.795605
    28  C    6.823555   1.427129   5.809047   7.177898   7.304185
    29  H    7.147433   2.077457   6.422939   7.831481   8.072852
    30  H    6.859563   2.059082   5.867317   7.192398   7.290162
    31  H    7.599227   2.020273   6.350151   7.663496   7.660975
    32  O    5.573264   2.862895   4.258178   5.354349   5.304006
    33  H    5.422754   2.702323   3.789329   4.851965   4.687673
    34  H    4.843141   3.299751   3.737486   4.784154   4.848340
    35  O    6.685982   3.289666   6.612958   8.010128   8.523481
    36  H    6.925414   4.192808   7.127568   8.488957   9.089523
    37  H    6.076587   3.000503   6.078834   7.478453   8.016001
    38  O    5.076945   3.113866   3.003149   3.913943   3.586418
    39  H    5.025408   4.047157   2.816144   3.398185   2.857592
    40  H    4.191422   2.762933   2.266159   3.413851   3.361156
    41  O    2.844116   7.924055   3.956034   3.342777   4.120576
    42  H    1.903304   7.213027   3.325397   2.933390   3.879634
    43  H    3.091060   7.728242   4.109969   3.714506   4.417290
                   26         27         28         29         30
    26  H    0.000000
    27  H    1.785226   0.000000
    28  C    7.704249   7.771083   0.000000
    29  H    8.328692   8.352377   1.097504   0.000000
    30  H    7.595967   7.909822   1.096950   1.811357   0.000000
    31  H    8.282264   8.235670   1.094016   1.799660   1.800928
    32  O    5.633365   6.265516   3.139359   4.046740   2.496606
    33  H    5.288205   5.719839   3.271199   4.267640   2.912319
    34  H    4.921137   5.734882   3.772717   4.555595   3.158329
    35  O    8.468826   8.292289   3.252828   2.385220   3.927569
    36  H    8.901407   8.697651   4.205949   3.311301   4.826744
    37  H    7.846216   7.845537   3.017740   2.287831   3.470068
    38  O    4.675189   4.582274   4.158203   5.103430   4.253215
    39  H    4.160160   4.110375   5.095714   6.043517   5.113369
    40  H    4.147575   4.055378   3.991792   4.812920   4.124842
    41  O    2.328875   3.622870   9.031764   9.488185   8.813635
    42  H    2.112414   3.132058   8.363452   8.767717   8.229573
    43  H    2.681985   4.215459   8.729360   9.188751   8.406563
                   31         32         33         34         35
    31  H    0.000000
    32  O    3.634624   0.000000
    33  H    3.582816   0.974833   0.000000
    34  H    4.416301   0.963962   1.522368   0.000000
    35  O    3.969635   5.615712   5.789319   5.790952   0.000000
    36  H    4.926568   6.440722   6.639535   6.529879   0.963571
    37  H    3.931200   4.956071   5.232601   5.036945   0.969598
    38  O    4.252573   2.825313   1.879611   3.057804   6.252224
    39  H    5.194156   3.362782   2.456193   3.430357   7.124027
    40  H    4.309424   2.775855   2.009840   2.784408   5.654357
    41  O    9.792149   6.971258   6.902480   6.086513   9.302362
    42  H    9.137404   6.558858   6.464803   5.703963   8.456404
    43  H    9.525992   6.529015   6.577583   5.602915   9.121439
                   36         37         38         39         40
    36  H    0.000000
    37  H    1.529146   0.000000
    38  O    7.063147   5.876079   0.000000
    39  H    7.901835   6.712203   0.964025   0.000000
    40  H    6.401084   5.226630   0.979671   1.533471   0.000000
    41  O    9.556451   8.578464   6.706054   6.314743   6.049801
    42  H    8.687333   7.768737   6.206135   5.911751   5.464979
    43  H    9.399181   8.333521   6.640141   6.297221   5.998437
                   41         42         43
    41  O    0.000000
    42  H    0.970988   0.000000
    43  H    0.964032   1.510813   0.000000
 Stoichiometry    C11H22N2O8
 Framework group  C1[X(C11H22N2O8)]
 Deg. of freedom   123
 Full point group                 C1      NOp   1
 Largest Abelian subgroup         C1      NOp   1
 Largest concise Abelian subgroup C1      NOp   1
                         Standard orientation:                         
 ---------------------------------------------------------------------
 Center     Atomic      Atomic             Coordinates (Angstroms)
 Number     Number       Type             X           Y           Z
 ---------------------------------------------------------------------
      1          6           0       -0.770395    0.976003    1.052385
      2          6           0       -2.010321    1.520605    0.273488
      3          6           0       -0.262476    2.891498   -0.321453
      4          6           0        0.274972    2.048074    0.804095
      5          1           0       -0.831205    0.386965    1.966095
      6          1           0        1.319592    1.979170    1.098773
      7          6           0       -1.436751    2.180292   -0.969507
      8          1           0       -2.164898    2.872675   -1.414581
      9          1           0       -1.110294    1.445831   -1.717665
     10          6           0       -1.784442    2.388616    1.406142
     11          1           0       -2.301410    2.332776    2.362230
     12          6           0       -0.620756    3.260282    1.085519
     13          1           0       -0.315827    4.149395    1.630797
     14          1           0       -2.874778    0.860025    0.217763
     15          1           0        0.436220    3.510014   -0.882328
     16          7           0        0.716398   -0.026514   -0.946924
     17          7           0       -0.060843   -0.498219   -0.032284
     18          6           0        2.032925    0.126319   -0.533930
     19          6           0       -1.236093   -1.138635   -0.526794
     20          8           0       -1.409215   -1.447764   -1.676718
     21          8           0        2.881956    0.599891   -1.258306
     22          8           0       -2.058634   -1.406331    0.470058
     23          8           0        2.305033   -0.310558    0.710246
     24          6           0        3.641451   -0.121886    1.163421
     25          1           0        3.723787   -0.662758    2.111802
     26          1           0        4.362439   -0.503181    0.430316
     27          1           0        3.837342    0.948350    1.327178
     28          6           0       -3.122652   -2.309176    0.171002
     29          1           0       -3.791514   -1.867673   -0.578807
     30          1           0       -2.691637   -3.252392   -0.186587
     31          1           0       -3.655466   -2.463195    1.114007
     32          8           0       -0.300196   -3.664466    0.400140
     33          1           0       -0.142331   -3.158585    1.218347
     34          1           0        0.460576   -3.445375   -0.149812
     35          8           0       -3.755584    0.117427   -1.900685
     36          1           0       -3.905101    0.729665   -2.629574
     37          1           0       -3.028520   -0.448403   -2.202902
     38          8           0        0.335550   -1.796674    2.422409
     39          1           0        1.221750   -1.861559    2.796285
     40          1           0        0.459576   -1.279311    1.599786
     41          8           0        5.527353   -0.392724   -1.583246
     42          1           0        4.694151    0.105536   -1.565110
     43          1           0        5.265772   -1.227193   -1.988948
 ---------------------------------------------------------------------
 Rotational constants (GHZ):      0.3580341      0.2366628      0.1897486
 Standard basis: def2SVP (5D, 7F)
 There are   425 symmetry adapted cartesian basis functions of A   symmetry.
 There are   404 symmetry adapted basis functions of A   symmetry.
   404 basis functions,   679 primitive gaussians,   425 cartesian basis functions
    83 alpha electrons       83 beta electrons
       nuclear repulsion energy      2013.2383281530 Hartrees.
 NAtoms=   43 NActive=   43 NUniq=   43 SFac= 1.00D+00 NAtFMM=   60 NAOKFM=F Big=F
 Integral buffers will be    131072 words long.
 Raffenetti 2 integral format.
 Two-electron integral symmetry is turned on.
 Nuclear repulsion after empirical dispersion term =     2013.2348360721 Hartrees.
 Force inversion solution in PCM.
 ------------------------------------------------------------------------------
 Polarizable Continuum Model (PCM)
 =================================
 Model                : C-PCM.
 Atomic radii         : UFF (Universal Force Field).
 Polarization charges : Total charges.
 Charge compensation  : None.
 Solution method      : Matrix inversion.
 Cavity type          : Scaled VdW (van der Waals Surface) (Alpha=1.100).
 Cavity algorithm     : GePol (No added spheres)
                        Default sphere list used, NSphG=   43.
                        Lebedev-Laikov grids with approx.  5.0 points / Ang**2.
                        Smoothing algorithm: Karplus/York (Gamma=1.0000).
                        Polarization charges: spherical gaussians, with
                                              point-specific exponents (IZeta= 3).
                        Self-potential: point-specific (ISelfS= 7).
                        Self-field    : sphere-specific E.n sum rule (ISelfD= 2).
 1st derivatives      : Analytical E(r).r(x)/FMM algorithm (CHGder, D1EAlg=3).
                        Cavity 1st derivative terms included.
 2nd derivatives      : Analytical E(r).r(xy)/FMM algorithm (CHGder, D2EAlg=3).
                        Cavity 2nd derivative terms included.
 Solvent              : Toluene, Eps=   2.374100 Eps(inf)=   2.238315
 ------------------------------------------------------------------------------
 One-electron integrals computed using PRISM.
   1 Symmetry operations used in ECPInt.
 ECPInt:  NShTT=   18528 NPrTT=   66042 LenC2=   17017 LenP2D=   42355.
 LDataN:  DoStor=T MaxTD1= 4 Len=   56
 NBasis=   404 RedAO= T EigKep=  3.58D-04  NBF=   404
 NBsUse=   404 1.00D-06 EigRej= -1.00D+00 NBFU=   404
 ExpMin= 1.22D-01 ExpMax= 2.27D+03 ExpMxC= 3.41D+02 IAcc=1 IRadAn=         1 AccDes= 0.00D+00
 Harris functional with IExCor= 1009 and IRadAn=       1 diagonalized for initial guess.
 HarFok:  IExCor= 1009 AccDes= 0.00D+00 IRadAn=         1 IDoV= 1 UseB2=F ITyADJ=14
 ICtDFT=  3500011 ScaDFX=  1.000000  1.000000  1.000000  1.000000
 FoFCou: FMM=F IPFlag=           0 FMFlag=      100000 FMFlg1=           0
         NFxFlg=           0 DoJE=T BraDBF=F KetDBF=T FulRan=T
         wScrn=  0.000000 ICntrl=     500 IOpCl=  0 I1Cent=   200000004 NGrid=           0
         NMat0=    1 NMatS0=      1 NMatT0=    0 NMatD0=    1 NMtDS0=    0 NMtDT0=    0
 Petite list used in FoFCou.
 Requested convergence on RMS density matrix=1.00D-08 within 128 cycles.
 Requested convergence on MAX density matrix=1.00D-06.
 Requested convergence on             energy=1.00D-06.
 No special actions if energy rises.
 Inv3:  Mode=2 IEnd=    17122952.
 Iteration    1 A*A^-1 deviation from unit magnitude is 5.66D-15 for   2893.
 Iteration    1 A*A^-1 deviation from orthogonality  is 2.11D-15 for   2926   2754.
 Iteration    1 A^-1*A deviation from unit magnitude is 5.66D-15 for   2893.
 Iteration    1 A^-1*A deviation from orthogonality  is 1.62D-15 for    772    380.
 Error on total polarization charges =  0.00447
 SCF Done:  E(RM062X) =  -1142.22211150     A.U. after   16 cycles
            NFock= 16  Conv=0.93D-08     -V/T= 2.0087
 DoSCS=F DFT=T ScalE2(SS,OS)=  1.000000  1.000000
 Range of M.O.s used for correlation:     1   404
 NBasis=   404 NAE=    83 NBE=    83 NFC=     0 NFV=     0
 NROrb=    404 NOA=    83 NOB=    83 NVA=   321 NVB=   321
 PrsmSu:  requested number of processors reduced to:   2 ShMem   1 Linda.
   1 Symmetry operations used in ECPInt.
 ECPInt:  NShTT=   18528 NPrTT=   66042 LenC2=   17017 LenP2D=   42355.
 LDataN:  DoStor=T MaxTD1= 5 Len=  102
 Number of processors reduced to   1 by ecpmxn.
 Symmetrizing basis deriv contribution to polar:
 IMax=3 JMax=2 DiffMx= 0.00D+00
 G2DrvN: will do    15 centers at a time, making    3 passes.
 Calling FoFCou, ICntrl=  3107 FMM=F I1Cent=   0 AccDes= 0.00D+00.
 Calling FoFCou, ICntrl=  3107 FMM=F I1Cent=   0 AccDes= 0.00D+00.
 Calling FoFCou, ICntrl=  3107 FMM=F I1Cent=   0 AccDes= 0.00D+00.
 NEqPCM:  Using equilibrium solvation (IEInf=0, Eps=   2.3741, EpsInf=   2.2383)
 G2PCM: DoFxE=T DoFxN=T DoGrad=T DoDP/DQ/DG/TGxP=FFFF NFrqRd=   0 IEInf=0 SqF1=F DoCFld=F IF1Alg=4.
 CoulSu:  requested number of processors reduced to:   3 ShMem   1 Linda.
 CoulSu:  requested number of processors reduced to:   3 ShMem   1 Linda.
 CoulSu:  requested number of processors reduced to:   3 ShMem   1 Linda.
 CoulSu:  requested number of processors reduced to:   3 ShMem   1 Linda.
 End of G2Drv F.D. properties file   721 does not exist.
 End of G2Drv F.D. properties file   722 does not exist.
 End of G2Drv F.D. properties file   788 does not exist.
          IDoAtm=1111111111111111111111111111111111111111111
 NEqPCM:  Using equilibrium solvation (IEInf=0, Eps=   2.3741, EpsInf=   2.2383)
          Differentiating once with respect to electric field.
                with respect to dipole field.
          Differentiating once with respect to nuclear coordinates.
          There are   132 degrees of freedom in the 1st order CPHF.  IDoFFX=6 NUNeed=     3.
    132 vectors produced by pass  0 Test12= 2.66D-14 1.00D-09 XBig12= 1.48D+02 7.92D+00.
 AX will form    28 AO Fock derivatives at one time.
    132 vectors produced by pass  1 Test12= 2.66D-14 1.00D-09 XBig12= 2.02D+01 7.38D-01.
    129 vectors produced by pass  2 Test12= 2.66D-14 1.00D-09 XBig12= 3.78D-01 4.93D-02.
    129 vectors produced by pass  3 Test12= 2.66D-14 1.00D-09 XBig12= 3.56D-03 4.95D-03.
    129 vectors produced by pass  4 Test12= 2.66D-14 1.00D-09 XBig12= 1.90D-05 3.17D-04.
    129 vectors produced by pass  5 Test12= 2.66D-14 1.00D-09 XBig12= 6.46D-08 1.82D-05.
     78 vectors produced by pass  6 Test12= 2.66D-14 1.00D-09 XBig12= 1.94D-10 8.73D-07.
      3 vectors produced by pass  7 Test12= 2.66D-14 1.00D-09 XBig12= 5.31D-13 4.03D-08.
      3 vectors produced by pass  8 Test12= 2.66D-14 1.00D-09 XBig12= 1.50D-15 2.26D-09.
 InvSVY:  IOpt=1 It=  1 EMax= 1.78D-14
 Solved reduced A of dimension   864 with   132 vectors.
 Isotropic polarizability for W=    0.000000      211.65 Bohr**3.
 End of Minotr F.D. properties file   721 does not exist.
 End of Minotr F.D. properties file   722 does not exist.
 End of Minotr F.D. properties file   788 does not exist.

 **********************************************************************

            Population analysis using the SCF density.

 **********************************************************************

 Orbital symmetries:
       Occupied  (A) (A) (A) (A) (A) (A) (A) (A) (A) (A) (A) (A)
                 (A) (A) (A) (A) (A) (A) (A) (A) (A) (A) (A) (A)
                 (A) (A) (A) (A) (A) (A) (A) (A) (A) (A) (A) (A)
                 (A) (A) (A) (A) (A) (A) (A) (A) (A) (A) (A) (A)
                 (A) (A) (A) (A) (A) (A) (A) (A) (A) (A) (A) (A)
                 (A) (A) (A) (A) (A) (A) (A) (A) (A) (A) (A) (A)
                 (A) (A) (A) (A) (A) (A) (A) (A) (A) (A) (A)
       Virtual   (A) (A) (A) (A) (A) (A) (A) (A) (A) (A) (A) (A)
                 (A) (A) (A) (A) (A) (A) (A) (A) (A) (A) (A) (A)
                 (A) (A) (A) (A) (A) (A) (A) (A) (A) (A) (A) (A)
                 (A) (A) (A) (A) (A) (A) (A) (A) (A) (A) (A) (A)
                 (A) (A) (A) (A) (A) (A) (A) (A) (A) (A) (A) (A)
                 (A) (A) (A) (A) (A) (A) (A) (A) (A) (A) (A) (A)
                 (A) (A) (A) (A) (A) (A) (A) (A) (A) (A) (A) (A)
                 (A) (A) (A) (A) (A) (A) (A) (A) (A) (A) (A) (A)
                 (A) (A) (A) (A) (A) (A) (A) (A) (A) (A) (A) (A)
                 (A) (A) (A) (A) (A) (A) (A) (A) (A) (A) (A) (A)
                 (A) (A) (A) (A) (A) (A) (A) (A) (A) (A) (A) (A)
                 (A) (A) (A) (A) (A) (A) (A) (A) (A) (A) (A) (A)
                 (A) (A) (A) (A) (A) (A) (A) (A) (A) (A) (A) (A)
                 (A) (A) (A) (A) (A) (A) (A) (A) (A) (A) (A) (A)
                 (A) (A) (A) (A) (A) (A) (A) (A) (A) (A) (A) (A)
                 (A) (A) (A) (A) (A) (A) (A) (A) (A) (A) (A) (A)
                 (A) (A) (A) (A) (A) (A) (A) (A) (A) (A) (A) (A)
                 (A) (A) (A) (A) (A) (A) (A) (A) (A) (A) (A) (A)
                 (A) (A) (A) (A) (A) (A) (A) (A) (A) (A) (A) (A)
                 (A) (A) (A) (A) (A) (A) (A) (A) (A) (A) (A) (A)
                 (A) (A) (A) (A) (A) (A) (A) (A) (A) (A) (A) (A)
                 (A) (A) (A) (A) (A) (A) (A) (A) (A) (A) (A) (A)
                 (A) (A) (A) (A) (A) (A) (A) (A) (A) (A) (A) (A)
                 (A) (A) (A) (A) (A) (A) (A) (A) (A) (A) (A) (A)
                 (A) (A) (A) (A) (A) (A) (A) (A) (A) (A) (A) (A)
                 (A) (A) (A) (A) (A) (A) (A) (A) (A) (A) (A) (A)
                 (A) (A) (A) (A) (A) (A) (A) (A) (A)
 The electronic state is 1-A.
 Alpha  occ. eigenvalues --  -19.68292 -19.68195 -19.63322 -19.62251 -19.62134
 Alpha  occ. eigenvalues --  -19.61913 -19.60113 -19.60047 -14.83767 -14.78394
 Alpha  occ. eigenvalues --  -10.71707 -10.70336 -10.62753 -10.62083 -10.60860
 Alpha  occ. eigenvalues --  -10.60250 -10.60129 -10.60023 -10.59640 -10.58927
 Alpha  occ. eigenvalues --  -10.57136  -1.24517  -1.23221  -1.14588  -1.12850
 Alpha  occ. eigenvalues --   -1.11584  -1.10037  -1.09913  -1.08648  -1.08053
 Alpha  occ. eigenvalues --   -1.07806  -0.91100  -0.89225  -0.84730  -0.81994
 Alpha  occ. eigenvalues --   -0.79043  -0.78023  -0.67968  -0.67174  -0.65693
 Alpha  occ. eigenvalues --   -0.65360  -0.64313  -0.63809  -0.62851  -0.61196
 Alpha  occ. eigenvalues --   -0.60339  -0.58811  -0.58018  -0.57505  -0.57171
 Alpha  occ. eigenvalues --   -0.56481  -0.55889  -0.54724  -0.54123  -0.53457
 Alpha  occ. eigenvalues --   -0.51806  -0.50530  -0.49628  -0.48889  -0.48488
 Alpha  occ. eigenvalues --   -0.47743  -0.46580  -0.46051  -0.45550  -0.44522
 Alpha  occ. eigenvalues --   -0.44456  -0.44143  -0.43442  -0.43152  -0.43037
 Alpha  occ. eigenvalues --   -0.41558  -0.39019  -0.38555  -0.38199  -0.38041
 Alpha  occ. eigenvalues --   -0.37764  -0.37400  -0.37218  -0.36722  -0.36534
 Alpha  occ. eigenvalues --   -0.35948  -0.31648  -0.25849
 Alpha virt. eigenvalues --   -0.07917   0.05171   0.06880   0.07546   0.08960
 Alpha virt. eigenvalues --    0.09448   0.10573   0.11870   0.12447   0.13060
 Alpha virt. eigenvalues --    0.14109   0.14555   0.14813   0.15779   0.16072
 Alpha virt. eigenvalues --    0.16545   0.16688   0.17020   0.18030   0.18429
 Alpha virt. eigenvalues --    0.19138   0.19993   0.20933   0.21443   0.21573
 Alpha virt. eigenvalues --    0.22325   0.22954   0.23264   0.23813   0.24410
 Alpha virt. eigenvalues --    0.25926   0.26585   0.27047   0.28205   0.29659
 Alpha virt. eigenvalues --    0.31249   0.32395   0.33703   0.35651   0.36844
 Alpha virt. eigenvalues --    0.38148   0.39780   0.40983   0.44379   0.45697
 Alpha virt. eigenvalues --    0.46616   0.48276   0.49466   0.50289   0.50463
 Alpha virt. eigenvalues --    0.50738   0.51198   0.51642   0.52305   0.53831
 Alpha virt. eigenvalues --    0.54697   0.55147   0.56872   0.57539   0.59170
 Alpha virt. eigenvalues --    0.60405   0.60946   0.61273   0.61760   0.62414
 Alpha virt. eigenvalues --    0.63161   0.64703   0.65042   0.65691   0.66679
 Alpha virt. eigenvalues --    0.66797   0.67346   0.68027   0.68472   0.68929
 Alpha virt. eigenvalues --    0.69405   0.69964   0.70461   0.70671   0.71156
 Alpha virt. eigenvalues --    0.71170   0.71741   0.72376   0.72577   0.73148
 Alpha virt. eigenvalues --    0.73495   0.74009   0.74443   0.74785   0.75368
 Alpha virt. eigenvalues --    0.76052   0.76812   0.77694   0.78412   0.78910
 Alpha virt. eigenvalues --    0.79875   0.81193   0.82756   0.83575   0.83927
 Alpha virt. eigenvalues --    0.86277   0.88503   0.91632   0.93827   0.94195
 Alpha virt. eigenvalues --    0.96873   0.97228   0.98142   0.99093   0.99613
 Alpha virt. eigenvalues --    1.02232   1.02932   1.03918   1.05403   1.06759
 Alpha virt. eigenvalues --    1.07156   1.07761   1.08920   1.09745   1.10532
 Alpha virt. eigenvalues --    1.10976   1.11970   1.13147   1.13500   1.14725
 Alpha virt. eigenvalues --    1.15176   1.16037   1.17267   1.17977   1.19463
 Alpha virt. eigenvalues --    1.21261   1.22299   1.23326   1.25237   1.27007
 Alpha virt. eigenvalues --    1.27535   1.28185   1.29337   1.30466   1.31347
 Alpha virt. eigenvalues --    1.34544   1.35245   1.35541   1.36674   1.37697
 Alpha virt. eigenvalues --    1.39566   1.40309   1.41351   1.42198   1.45239
 Alpha virt. eigenvalues --    1.45963   1.46384   1.47106   1.48622   1.50137
 Alpha virt. eigenvalues --    1.50726   1.51369   1.52894   1.53910   1.54674
 Alpha virt. eigenvalues --    1.56092   1.57074   1.57304   1.58146   1.59151
 Alpha virt. eigenvalues --    1.60468   1.61849   1.62031   1.62866   1.63429
 Alpha virt. eigenvalues --    1.63991   1.65261   1.65371   1.65964   1.67379
 Alpha virt. eigenvalues --    1.68887   1.69103   1.70028   1.71304   1.72860
 Alpha virt. eigenvalues --    1.72923   1.75028   1.75696   1.77848   1.78819
 Alpha virt. eigenvalues --    1.78862   1.80099   1.80893   1.82452   1.83454
 Alpha virt. eigenvalues --    1.84552   1.85623   1.86386   1.86467   1.87620
 Alpha virt. eigenvalues --    1.88185   1.88885   1.89550   1.90928   1.91936
 Alpha virt. eigenvalues --    1.92395   1.93592   1.94340   1.95515   1.95585
 Alpha virt. eigenvalues --    1.96580   1.98156   1.99195   2.00126   2.00608
 Alpha virt. eigenvalues --    2.02174   2.02452   2.03381   2.04433   2.06439
 Alpha virt. eigenvalues --    2.07898   2.09198   2.10009   2.10799   2.12570
 Alpha virt. eigenvalues --    2.12933   2.14648   2.15201   2.17879   2.18891
 Alpha virt. eigenvalues --    2.19382   2.20100   2.23969   2.25177   2.26408
 Alpha virt. eigenvalues --    2.28532   2.29210   2.29937   2.30791   2.30811
 Alpha virt. eigenvalues --    2.33459   2.34302   2.35124   2.36204   2.37518
 Alpha virt. eigenvalues --    2.39014   2.40305   2.40605   2.43114   2.43787
 Alpha virt. eigenvalues --    2.44894   2.46104   2.46814   2.48056   2.49890
 Alpha virt. eigenvalues --    2.51320   2.53935   2.55779   2.57059   2.57175
 Alpha virt. eigenvalues --    2.59420   2.63079   2.66832   2.68747   2.69344
 Alpha virt. eigenvalues --    2.70646   2.71734   2.72003   2.73075   2.74457
 Alpha virt. eigenvalues --    2.74999   2.76021   2.78575   2.82382   2.84433
 Alpha virt. eigenvalues --    2.86174   2.87800   2.89864   2.91139   2.91896
 Alpha virt. eigenvalues --    2.93503   2.94504   2.95785   2.97507   2.98013
 Alpha virt. eigenvalues --    2.99437   3.00842   3.01491   3.02566   3.02903
 Alpha virt. eigenvalues --    3.04105   3.04605   3.05358   3.06253   3.06969
 Alpha virt. eigenvalues --    3.07302   3.07959   3.08083   3.09338   3.11366
 Alpha virt. eigenvalues --    3.18589   3.20510   3.21450   3.25075   3.25714
 Alpha virt. eigenvalues --    3.26635   3.27439   3.28099   3.29884   3.31681
 Alpha virt. eigenvalues --    3.33682   3.40446   3.49586   3.51681   3.56817
 Alpha virt. eigenvalues --    3.57870   3.58886   3.63587   3.69681   3.72191
 Alpha virt. eigenvalues --    3.77204   3.81051   3.88471   3.89255   3.89509
 Alpha virt. eigenvalues --    3.92997
          Condensed to atoms (all electrons):
               1          2          3          4          5          6
     1  C    5.734559   0.107202   0.029626   0.115984   0.362328  -0.032399
     2  C    0.107202   5.552454  -0.057395   0.001108  -0.036032   0.006090
     3  C    0.029626  -0.057395   5.589828   0.050938   0.008796  -0.030119
     4  C    0.115984   0.001108   0.050938   5.559670  -0.025680   0.411886
     5  H    0.362328  -0.036032   0.008796  -0.025680   0.569910  -0.003227
     6  H   -0.032399   0.006090  -0.030119   0.411886  -0.003227   0.566774
     7  C   -0.099278   0.278016   0.180787  -0.034552   0.004182   0.003086
     8  H    0.009077  -0.023217  -0.014373   0.007843  -0.000193  -0.000160
     9  H   -0.001203  -0.023842  -0.008749  -0.014312  -0.000125   0.000393
    10  C    0.059998   0.053482   0.039042  -0.090286   0.036754   0.001523
    11  H    0.018773  -0.057060   0.008228  -0.006547  -0.003928  -0.000033
    12  C   -0.142730   0.055791  -0.020864   0.134503  -0.015468  -0.002195
    13  H    0.005508   0.005322  -0.037405  -0.015581   0.000220  -0.004135
    14  H   -0.023880   0.376460   0.005745   0.005349  -0.002528  -0.000049
    15  H    0.004289   0.003798   0.407536  -0.014422  -0.000118  -0.003981
    16  N   -0.081889  -0.016610  -0.006109   0.036798   0.002764  -0.005568
    17  N    0.065255  -0.013527  -0.012137  -0.030485  -0.016416  -0.001383
    18  C   -0.001238   0.001100   0.002229   0.007050  -0.000006   0.008592
    19  C   -0.058884   0.003572  -0.001627   0.005827  -0.001431  -0.000154
    20  O   -0.001128  -0.001372  -0.000039   0.000129   0.000047   0.000001
    21  O    0.000699   0.000016   0.000337  -0.005079  -0.000010  -0.000818
    22  O   -0.005377  -0.009335   0.000015   0.001382   0.004885   0.000006
    23  O    0.001123   0.000146  -0.000106  -0.004825  -0.000303   0.008139
    24  C    0.000068   0.000003  -0.000029  -0.001171   0.000026   0.000804
    25  H    0.000061   0.000000  -0.000004  -0.000034  -0.000018  -0.000163
    26  H   -0.000006   0.000001   0.000003   0.000066   0.000002   0.000030
    27  H    0.000016  -0.000015   0.000074   0.000146  -0.000008   0.000307
    28  C    0.000082  -0.000121   0.000003  -0.000017   0.000179   0.000000
    29  H    0.000235  -0.000625  -0.000026   0.000005   0.000027   0.000000
    30  H   -0.000078  -0.000029   0.000000   0.000008  -0.000003   0.000000
    31  H   -0.000039   0.000114   0.000000  -0.000007  -0.000035   0.000000
    32  O   -0.000031  -0.000014   0.000000  -0.000005  -0.000008   0.000000
    33  H    0.000017  -0.000059  -0.000001   0.000036  -0.000276  -0.000003
    34  H    0.000232  -0.000004   0.000001  -0.000010  -0.000087  -0.000001
    35  O    0.000827  -0.015019   0.001007  -0.000070  -0.000010   0.000000
    36  H   -0.000017   0.000601  -0.000021   0.000003   0.000001   0.000000
    37  H   -0.000814   0.002447  -0.000201   0.000085   0.000015   0.000000
    38  O   -0.007110   0.000384  -0.000006  -0.000129   0.029567   0.000091
    39  H    0.000639  -0.000003   0.000005  -0.000015  -0.001443  -0.000009
    40  H   -0.001980  -0.001006   0.000043  -0.001459  -0.007632   0.000117
    41  O    0.000000   0.000000   0.000000   0.000000   0.000000  -0.000001
    42  H   -0.000003   0.000000  -0.000001   0.000008   0.000000  -0.000001
    43  H    0.000000   0.000000   0.000000   0.000001   0.000000   0.000000
               7          8          9         10         11         12
     1  C   -0.099278   0.009077  -0.001203   0.059998   0.018773  -0.142730
     2  C    0.278016  -0.023217  -0.023842   0.053482  -0.057060   0.055791
     3  C    0.180787  -0.014373  -0.008749   0.039042   0.008228  -0.020864
     4  C   -0.034552   0.007843  -0.014312  -0.090286  -0.006547   0.134503
     5  H    0.004182  -0.000193  -0.000125   0.036754  -0.003928  -0.015468
     6  H    0.003086  -0.000160   0.000393   0.001523  -0.000033  -0.002195
     7  C    4.775996   0.380475   0.370141  -0.060813   0.005113  -0.018817
     8  H    0.380475   0.608925  -0.018439  -0.003477   0.000055  -0.009312
     9  H    0.370141  -0.018439   0.581537   0.009586  -0.000166   0.007719
    10  C   -0.060813  -0.003477   0.009586   5.351351   0.438580   0.118364
    11  H    0.005113   0.000055  -0.000166   0.438580   0.563369  -0.046314
    12  C   -0.018817  -0.009312   0.007719   0.118364  -0.046314   5.525524
    13  H    0.004184   0.000253  -0.000192  -0.052694  -0.004396   0.453805
    14  H   -0.012887  -0.002132  -0.002069  -0.026620  -0.004600   0.006477
    15  H   -0.016506  -0.002176  -0.001749   0.006520  -0.000063  -0.027251
    16  N    0.000738   0.000037   0.027213   0.003529  -0.000020   0.003030
    17  N    0.004567   0.000108  -0.010519   0.001935  -0.000003   0.007634
    18  C   -0.000650  -0.000014  -0.000502  -0.000037   0.000001  -0.001300
    19  C    0.002199  -0.000206   0.001433  -0.001706  -0.000049   0.000709
    20  O   -0.001598   0.000029   0.005388  -0.000020   0.000000   0.000003
    21  O   -0.000115   0.000000   0.000021  -0.000006   0.000000  -0.000091
    22  O   -0.000335  -0.000029   0.000375   0.001492   0.000061  -0.000138
    23  O    0.000003   0.000000   0.000088  -0.000071   0.000000   0.000512
    24  C    0.000002   0.000000  -0.000004  -0.000002   0.000000  -0.000021
    25  H    0.000000   0.000000   0.000000  -0.000001   0.000000   0.000001
    26  H    0.000000   0.000000  -0.000001   0.000000   0.000000   0.000004
    27  H   -0.000001   0.000000   0.000001   0.000015   0.000000  -0.000153
    28  C    0.000126   0.000003   0.000014  -0.000005   0.000000   0.000001
    29  H    0.000008   0.000001  -0.000150  -0.000090  -0.000002   0.000007
    30  H    0.000003   0.000000  -0.000008   0.000010   0.000000  -0.000001
    31  H   -0.000006   0.000000  -0.000004  -0.000003  -0.000001   0.000001
    32  O    0.000001   0.000000   0.000000  -0.000001   0.000000   0.000000
    33  H    0.000005   0.000000   0.000001   0.000003   0.000000   0.000000
    34  H   -0.000003   0.000000   0.000002   0.000000   0.000000   0.000000
    35  O    0.003914   0.001486   0.004352   0.001058  -0.000003  -0.000076
    36  H    0.000728   0.000579   0.000466  -0.000092   0.000000   0.000009
    37  H    0.000790  -0.000278   0.001495  -0.000142   0.000001   0.000014
    38  O   -0.000005   0.000000  -0.000005   0.000016  -0.000021  -0.000005
    39  H    0.000000   0.000000   0.000000  -0.000005   0.000001   0.000001
    40  H    0.000059   0.000002   0.000139   0.000668   0.000012   0.000074
    41  O    0.000000   0.000000   0.000000   0.000000   0.000000   0.000000
    42  H    0.000000   0.000000  -0.000001   0.000000   0.000000   0.000000
    43  H    0.000000   0.000000   0.000000   0.000000   0.000000   0.000000
              13         14         15         16         17         18
     1  C    0.005508  -0.023880   0.004289  -0.081889   0.065255  -0.001238
     2  C    0.005322   0.376460   0.003798  -0.016610  -0.013527   0.001100
     3  C   -0.037405   0.005745   0.407536  -0.006109  -0.012137   0.002229
     4  C   -0.015581   0.005349  -0.014422   0.036798  -0.030485   0.007050
     5  H    0.000220  -0.002528  -0.000118   0.002764  -0.016416  -0.000006
     6  H   -0.004135  -0.000049  -0.003981  -0.005568  -0.001383   0.008592
     7  C    0.004184  -0.012887  -0.016506   0.000738   0.004567  -0.000650
     8  H    0.000253  -0.002132  -0.002176   0.000037   0.000108  -0.000014
     9  H   -0.000192  -0.002069  -0.001749   0.027213  -0.010519  -0.000502
    10  C   -0.052694  -0.026620   0.006520   0.003529   0.001935  -0.000037
    11  H   -0.004396  -0.004600  -0.000063  -0.000020  -0.000003   0.000001
    12  C    0.453805   0.006477  -0.027251   0.003030   0.007634  -0.001300
    13  H    0.581869   0.000007  -0.003885   0.000039  -0.000040  -0.000003
    14  H    0.000007   0.557560  -0.000222   0.000674  -0.004679  -0.000056
    15  H   -0.003885  -0.000222   0.572338  -0.001307   0.000147   0.000248
    16  N    0.000039   0.000674  -0.001307   6.882851   0.240684   0.352025
    17  N   -0.000040  -0.004679   0.000147   0.240684   7.061349  -0.058777
    18  C   -0.000003  -0.000056   0.000248   0.352025  -0.058777   4.444408
    19  C    0.000001   0.009600  -0.000012  -0.062254   0.193567   0.005866
    20  O    0.000000  -0.000848  -0.000001   0.002553  -0.085795  -0.000390
    21  O   -0.000002   0.000000   0.000618  -0.090328   0.003156   0.653807
    22  O    0.000000   0.010334   0.000001   0.003709  -0.094042  -0.000223
    23  O   -0.000001  -0.000001  -0.000009  -0.103035  -0.002386   0.314829
    24  C    0.000000   0.000000   0.000002   0.005348  -0.000264  -0.028526
    25  H    0.000000   0.000000   0.000000  -0.000008   0.000004   0.004635
    26  H    0.000000   0.000000  -0.000001   0.000148  -0.000038  -0.003921
    27  H    0.000000   0.000000   0.000007   0.000058  -0.000028   0.000143
    28  C    0.000000  -0.001647   0.000000  -0.000162   0.005017   0.000012
    29  H    0.000000   0.000936   0.000000   0.000022  -0.000122   0.000001
    30  H    0.000000   0.000297   0.000000  -0.000028   0.000540  -0.000002
    31  H    0.000000  -0.000356   0.000000   0.000003  -0.000034   0.000000
    32  O    0.000000   0.000002   0.000000  -0.000297  -0.008693   0.000087
    33  H    0.000000   0.000002   0.000000   0.000058   0.002128   0.000047
    34  H    0.000000   0.000001   0.000000   0.000587   0.001782   0.000300
    35  O    0.000000   0.032073   0.000001  -0.000008  -0.000012  -0.000001
    36  H    0.000000  -0.002133  -0.000001  -0.000004  -0.000007   0.000000
    37  H    0.000000  -0.005021  -0.000002  -0.000199   0.000263   0.000007
    38  O    0.000000  -0.000018   0.000000   0.000380  -0.025402   0.000622
    39  H    0.000000   0.000000   0.000000  -0.000007   0.001371   0.000241
    40  H    0.000001   0.000100  -0.000001  -0.004887   0.022717  -0.005948
    41  O    0.000000   0.000000   0.000000  -0.000004   0.000000   0.001281
    42  H    0.000000   0.000000   0.000000   0.000334  -0.000021  -0.003904
    43  H    0.000000   0.000000   0.000000   0.000005   0.000000   0.001020
              19         20         21         22         23         24
     1  C   -0.058884  -0.001128   0.000699  -0.005377   0.001123   0.000068
     2  C    0.003572  -0.001372   0.000016  -0.009335   0.000146   0.000003
     3  C   -0.001627  -0.000039   0.000337   0.000015  -0.000106  -0.000029
     4  C    0.005827   0.000129  -0.005079   0.001382  -0.004825  -0.001171
     5  H   -0.001431   0.000047  -0.000010   0.004885  -0.000303   0.000026
     6  H   -0.000154   0.000001  -0.000818   0.000006   0.008139   0.000804
     7  C    0.002199  -0.001598  -0.000115  -0.000335   0.000003   0.000002
     8  H   -0.000206   0.000029   0.000000  -0.000029   0.000000   0.000000
     9  H    0.001433   0.005388   0.000021   0.000375   0.000088  -0.000004
    10  C   -0.001706  -0.000020  -0.000006   0.001492  -0.000071  -0.000002
    11  H   -0.000049   0.000000   0.000000   0.000061   0.000000   0.000000
    12  C    0.000709   0.000003  -0.000091  -0.000138   0.000512  -0.000021
    13  H    0.000001   0.000000  -0.000002   0.000000  -0.000001   0.000000
    14  H    0.009600  -0.000848   0.000000   0.010334  -0.000001   0.000000
    15  H   -0.000012  -0.000001   0.000618   0.000001  -0.000009   0.000002
    16  N   -0.062254   0.002553  -0.090328   0.003709  -0.103035   0.005348
    17  N    0.193567  -0.085795   0.003156  -0.094042  -0.002386  -0.000264
    18  C    0.005866  -0.000390   0.653807  -0.000223   0.314829  -0.028526
    19  C    4.565785   0.645673  -0.000109   0.345105  -0.001569   0.000043
    20  O    0.645673   7.759338   0.000002  -0.078119  -0.000002   0.000000
    21  O   -0.000109   0.000002   7.808421   0.000000  -0.091626   0.006081
    22  O    0.345105  -0.078119   0.000000   7.985404   0.000010   0.000000
    23  O   -0.001569  -0.000002  -0.091626   0.000010   8.071737   0.248528
    24  C    0.000043   0.000000   0.006081   0.000000   0.248528   4.537533
    25  H   -0.000002   0.000000   0.000674   0.000000  -0.025014   0.389652
    26  H    0.000005   0.000000   0.000538   0.000000  -0.020137   0.339536
    27  H   -0.000002   0.000000   0.003051   0.000000  -0.033247   0.398623
    28  C   -0.036245   0.003325   0.000000   0.257770   0.000000   0.000000
    29  H   -0.002825   0.002097   0.000000  -0.028331   0.000000   0.000000
    30  H    0.000398   0.003160   0.000000  -0.028919   0.000000   0.000000
    31  H    0.004814   0.000757   0.000000  -0.022446   0.000000   0.000000
    32  O    0.051044  -0.003309   0.000000  -0.008635  -0.000034  -0.000002
    33  H   -0.003144   0.000243   0.000000   0.003671  -0.000070   0.000016
    34  H    0.000491   0.000932  -0.000014  -0.000440   0.000291  -0.000016
    35  O    0.009743  -0.011848   0.000000  -0.000391   0.000000   0.000000
    36  H   -0.000687   0.000297   0.000000   0.000027   0.000000   0.000000
    37  H   -0.007519   0.031964   0.000000  -0.001291   0.000000   0.000000
    38  O    0.002950   0.000008   0.000000  -0.000203  -0.003386   0.000138
    39  H   -0.000471   0.000001   0.000006   0.000128   0.001901   0.000212
    40  H    0.003633  -0.000236   0.000094  -0.000598   0.019338  -0.001580
    41  O    0.000000   0.000000  -0.011681   0.000000   0.000071  -0.021949
    42  H    0.000003   0.000000   0.037070   0.000000  -0.000367   0.007021
    43  H    0.000000   0.000000   0.000844   0.000000  -0.000087   0.000544
              25         26         27         28         29         30
     1  C    0.000061  -0.000006   0.000016   0.000082   0.000235  -0.000078
     2  C    0.000000   0.000001  -0.000015  -0.000121  -0.000625  -0.000029
     3  C   -0.000004   0.000003   0.000074   0.000003  -0.000026   0.000000
     4  C   -0.000034   0.000066   0.000146  -0.000017   0.000005   0.000008
     5  H   -0.000018   0.000002  -0.000008   0.000179   0.000027  -0.000003
     6  H   -0.000163   0.000030   0.000307   0.000000   0.000000   0.000000
     7  C    0.000000   0.000000  -0.000001   0.000126   0.000008   0.000003
     8  H    0.000000   0.000000   0.000000   0.000003   0.000001   0.000000
     9  H    0.000000  -0.000001   0.000001   0.000014  -0.000150  -0.000008
    10  C   -0.000001   0.000000   0.000015  -0.000005  -0.000090   0.000010
    11  H    0.000000   0.000000   0.000000   0.000000  -0.000002   0.000000
    12  C    0.000001   0.000004  -0.000153   0.000001   0.000007  -0.000001
    13  H    0.000000   0.000000   0.000000   0.000000   0.000000   0.000000
    14  H    0.000000   0.000000   0.000000  -0.001647   0.000936   0.000297
    15  H    0.000000  -0.000001   0.000007   0.000000   0.000000   0.000000
    16  N   -0.000008   0.000148   0.000058  -0.000162   0.000022  -0.000028
    17  N    0.000004  -0.000038  -0.000028   0.005017  -0.000122   0.000540
    18  C    0.004635  -0.003921   0.000143   0.000012   0.000001  -0.000002
    19  C   -0.000002   0.000005  -0.000002  -0.036245  -0.002825   0.000398
    20  O    0.000000   0.000000   0.000000   0.003325   0.002097   0.003160
    21  O    0.000674   0.000538   0.003051   0.000000   0.000000   0.000000
    22  O    0.000000   0.000000   0.000000   0.257770  -0.028331  -0.028919
    23  O   -0.025014  -0.020137  -0.033247   0.000000   0.000000   0.000000
    24  C    0.389652   0.339536   0.398623   0.000000   0.000000   0.000000
    25  H    0.611580  -0.014889  -0.024288   0.000000   0.000000   0.000000
    26  H   -0.014889   0.637771  -0.026220   0.000000   0.000000   0.000000
    27  H   -0.024288  -0.026220   0.624821   0.000000   0.000000   0.000000
    28  C    0.000000   0.000000   0.000000   4.492496   0.385277   0.393520
    29  H    0.000000   0.000000   0.000000   0.385277   0.608583  -0.023653
    30  H    0.000000   0.000000   0.000000   0.393520  -0.023653   0.584067
    31  H    0.000000   0.000000   0.000000   0.398246  -0.021249  -0.019477
    32  O    0.000001   0.000000   0.000000  -0.008693   0.000428   0.022526
    33  H   -0.000017  -0.000004   0.000000   0.000649   0.000024  -0.002334
    34  H    0.000002  -0.000008   0.000002   0.000453  -0.000085  -0.001164
    35  O    0.000000   0.000000   0.000000  -0.012357   0.030108   0.000152
    36  H    0.000000   0.000000   0.000000   0.000625  -0.001680  -0.000013
    37  H    0.000000   0.000000   0.000000   0.003009  -0.003430  -0.000477
    38  O    0.000487  -0.000010  -0.000021  -0.000131  -0.000003   0.000050
    39  H    0.001331   0.000001  -0.000005   0.000005   0.000000  -0.000003
    40  H   -0.000712   0.000135   0.000207  -0.000010   0.000017  -0.000165
    41  O    0.000296   0.063622   0.000285   0.000000   0.000000   0.000000
    42  H   -0.000066  -0.013632   0.000042   0.000000   0.000000   0.000000
    43  H   -0.000041  -0.000589  -0.000060   0.000000   0.000000   0.000000
              31         32         33         34         35         36
     1  C   -0.000039  -0.000031   0.000017   0.000232   0.000827  -0.000017
     2  C    0.000114  -0.000014  -0.000059  -0.000004  -0.015019   0.000601
     3  C    0.000000   0.000000  -0.000001   0.000001   0.001007  -0.000021
     4  C   -0.000007  -0.000005   0.000036  -0.000010  -0.000070   0.000003
     5  H   -0.000035  -0.000008  -0.000276  -0.000087  -0.000010   0.000001
     6  H    0.000000   0.000000  -0.000003  -0.000001   0.000000   0.000000
     7  C   -0.000006   0.000001   0.000005  -0.000003   0.003914   0.000728
     8  H    0.000000   0.000000   0.000000   0.000000   0.001486   0.000579
     9  H   -0.000004   0.000000   0.000001   0.000002   0.004352   0.000466
    10  C   -0.000003  -0.000001   0.000003   0.000000   0.001058  -0.000092
    11  H   -0.000001   0.000000   0.000000   0.000000  -0.000003   0.000000
    12  C    0.000001   0.000000   0.000000   0.000000  -0.000076   0.000009
    13  H    0.000000   0.000000   0.000000   0.000000   0.000000   0.000000
    14  H   -0.000356   0.000002   0.000002   0.000001   0.032073  -0.002133
    15  H    0.000000   0.000000   0.000000   0.000000   0.000001  -0.000001
    16  N    0.000003  -0.000297   0.000058   0.000587  -0.000008  -0.000004
    17  N   -0.000034  -0.008693   0.002128   0.001782  -0.000012  -0.000007
    18  C    0.000000   0.000087   0.000047   0.000300  -0.000001   0.000000
    19  C    0.004814   0.051044  -0.003144   0.000491   0.009743  -0.000687
    20  O    0.000757  -0.003309   0.000243   0.000932  -0.011848   0.000297
    21  O    0.000000   0.000000   0.000000  -0.000014   0.000000   0.000000
    22  O   -0.022446  -0.008635   0.003671  -0.000440  -0.000391   0.000027
    23  O    0.000000  -0.000034  -0.000070   0.000291   0.000000   0.000000
    24  C    0.000000  -0.000002   0.000016  -0.000016   0.000000   0.000000
    25  H    0.000000   0.000001  -0.000017   0.000002   0.000000   0.000000
    26  H    0.000000   0.000000  -0.000004  -0.000008   0.000000   0.000000
    27  H    0.000000   0.000000   0.000000   0.000002   0.000000   0.000000
    28  C    0.398246  -0.008693   0.000649   0.000453  -0.012357   0.000625
    29  H   -0.021249   0.000428   0.000024  -0.000085   0.030108  -0.001680
    30  H   -0.019477   0.022526  -0.002334  -0.001164   0.000152  -0.000013
    31  H    0.598077  -0.000282  -0.000008   0.000021   0.000014  -0.000004
    32  O   -0.000282   7.653726   0.331357   0.329944   0.000000   0.000000
    33  H   -0.000008   0.331357   0.475057  -0.030956   0.000000   0.000000
    34  H    0.000021   0.329944  -0.030956   0.519260   0.000000   0.000000
    35  O    0.000014   0.000000   0.000000   0.000000   7.655242   0.326698
    36  H   -0.000004   0.000000   0.000000   0.000000   0.326698   0.499581
    37  H    0.000093  -0.000001   0.000003  -0.000002   0.311405  -0.011797
    38  O    0.000079  -0.018406   0.066195   0.000990   0.000000   0.000000
    39  H   -0.000003   0.000657  -0.003453   0.000114   0.000000   0.000000
    40  H   -0.000069   0.007962  -0.008846   0.003240   0.000000   0.000000
    41  O    0.000000   0.000000   0.000000   0.000000   0.000000   0.000000
    42  H    0.000000   0.000000   0.000000   0.000000   0.000000   0.000000
    43  H    0.000000   0.000000   0.000000   0.000000   0.000000   0.000000
              37         38         39         40         41         42
     1  C   -0.000814  -0.007110   0.000639  -0.001980   0.000000  -0.000003
     2  C    0.002447   0.000384  -0.000003  -0.001006   0.000000   0.000000
     3  C   -0.000201  -0.000006   0.000005   0.000043   0.000000  -0.000001
     4  C    0.000085  -0.000129  -0.000015  -0.001459   0.000000   0.000008
     5  H    0.000015   0.029567  -0.001443  -0.007632   0.000000   0.000000
     6  H    0.000000   0.000091  -0.000009   0.000117  -0.000001  -0.000001
     7  C    0.000790  -0.000005   0.000000   0.000059   0.000000   0.000000
     8  H   -0.000278   0.000000   0.000000   0.000002   0.000000   0.000000
     9  H    0.001495  -0.000005   0.000000   0.000139   0.000000  -0.000001
    10  C   -0.000142   0.000016  -0.000005   0.000668   0.000000   0.000000
    11  H    0.000001  -0.000021   0.000001   0.000012   0.000000   0.000000
    12  C    0.000014  -0.000005   0.000001   0.000074   0.000000   0.000000
    13  H    0.000000   0.000000   0.000000   0.000001   0.000000   0.000000
    14  H   -0.005021  -0.000018   0.000000   0.000100   0.000000   0.000000
    15  H   -0.000002   0.000000   0.000000  -0.000001   0.000000   0.000000
    16  N   -0.000199   0.000380  -0.000007  -0.004887  -0.000004   0.000334
    17  N    0.000263  -0.025402   0.001371   0.022717   0.000000  -0.000021
    18  C    0.000007   0.000622   0.000241  -0.005948   0.001281  -0.003904
    19  C   -0.007519   0.002950  -0.000471   0.003633   0.000000   0.000003
    20  O    0.031964   0.000008   0.000001  -0.000236   0.000000   0.000000
    21  O    0.000000   0.000000   0.000006   0.000094  -0.011681   0.037070
    22  O   -0.001291  -0.000203   0.000128  -0.000598   0.000000   0.000000
    23  O    0.000000  -0.003386   0.001901   0.019338   0.000071  -0.000367
    24  C    0.000000   0.000138   0.000212  -0.001580  -0.021949   0.007021
    25  H    0.000000   0.000487   0.001331  -0.000712   0.000296  -0.000066
    26  H    0.000000  -0.000010   0.000001   0.000135   0.063622  -0.013632
    27  H    0.000000  -0.000021  -0.000005   0.000207   0.000285   0.000042
    28  C    0.003009  -0.000131   0.000005  -0.000010   0.000000   0.000000
    29  H   -0.003430  -0.000003   0.000000   0.000017   0.000000   0.000000
    30  H   -0.000477   0.000050  -0.000003  -0.000165   0.000000   0.000000
    31  H    0.000093   0.000079  -0.000003  -0.000069   0.000000   0.000000
    32  O   -0.000001  -0.018406   0.000657   0.007962   0.000000   0.000000
    33  H    0.000003   0.066195  -0.003453  -0.008846   0.000000   0.000000
    34  H   -0.000002   0.000990   0.000114   0.003240   0.000000   0.000000
    35  O    0.311405   0.000000   0.000000   0.000000   0.000000   0.000000
    36  H   -0.011797   0.000000   0.000000   0.000000   0.000000   0.000000
    37  H    0.490185   0.000000   0.000000   0.000000   0.000000   0.000000
    38  O    0.000000   7.683312   0.329444   0.302353   0.000000   0.000000
    39  H    0.000000   0.329444   0.497234  -0.015543   0.000000   0.000000
    40  H    0.000000   0.302353  -0.015543   0.482691   0.000000  -0.000004
    41  O    0.000000   0.000000   0.000000   0.000000   7.648748   0.341285
    42  H    0.000000   0.000000   0.000000  -0.000004   0.341285   0.476440
    43  H    0.000000   0.000000   0.000000   0.000000   0.332555  -0.031062
              43
     1  C    0.000000
     2  C    0.000000
     3  C    0.000000
     4  C    0.000001
     5  H    0.000000
     6  H    0.000000
     7  C    0.000000
     8  H    0.000000
     9  H    0.000000
    10  C    0.000000
    11  H    0.000000
    12  C    0.000000
    13  H    0.000000
    14  H    0.000000
    15  H    0.000000
    16  N    0.000005
    17  N    0.000000
    18  C    0.001020
    19  C    0.000000
    20  O    0.000000
    21  O    0.000844
    22  O    0.000000
    23  O   -0.000087
    24  C    0.000544
    25  H   -0.000041
    26  H   -0.000589
    27  H   -0.000060
    28  C    0.000000
    29  H    0.000000
    30  H    0.000000
    31  H    0.000000
    32  O    0.000000
    33  H    0.000000
    34  H    0.000000
    35  O    0.000000
    36  H    0.000000
    37  H    0.000000
    38  O    0.000000
    39  H    0.000000
    40  H    0.000000
    41  O    0.332555
    42  H   -0.031062
    43  H    0.520535
 Mulliken charges:
               1
     1  C   -0.058515
     2  C   -0.192823
     3  C   -0.135034
     4  C   -0.094140
     5  H    0.095283
     6  H    0.076561
     7  C    0.230445
     8  H    0.065135
     9  H    0.071676
    10  C    0.112149
    11  H    0.089012
    12  C   -0.029447
    13  H    0.067123
    14  H    0.084131
    15  H    0.076201
    16  N   -0.190867
    17  N   -0.247415
    18  C    0.306945
    19  C    0.326432
    20  O   -0.271241
    21  O   -0.315558
    22  O   -0.335524
    23  O   -0.380440
    24  C    0.119383
    25  H    0.056534
    26  H    0.037592
    27  H    0.056249
    28  C    0.118575
    29  H    0.054495
    30  H    0.071623
    31  H    0.061805
    32  O   -0.349327
    33  H    0.169657
    34  H    0.174143
    35  O   -0.338282
    36  H    0.186842
    37  H    0.189400
    38  O   -0.362203
    39  H    0.187668
    40  H    0.207074
    41  O   -0.354509
    42  H    0.186858
    43  H    0.176336
 Sum of Mulliken charges =   0.00000
 Mulliken charges with hydrogens summed into heavy atoms:
               1
     1  C    0.036768
     2  C   -0.108692
     3  C   -0.058832
     4  C   -0.017580
     7  C    0.367255
    10  C    0.201161
    12  C    0.037676
    16  N   -0.190867
    17  N   -0.247415
    18  C    0.306945
    19  C    0.326432
    20  O   -0.271241
    21  O   -0.315558
    22  O   -0.335524
    23  O   -0.380440
    24  C    0.269759
    28  C    0.306497
    32  O   -0.005526
    35  O    0.037959
    38  O    0.032539
    41  O    0.008685
 APT charges:
               1
     1  C   -1.142210
     2  C    0.319099
     3  C    0.044303
     4  C   -0.295656
     5  H    0.176206
     6  H    0.112369
     7  C   -0.012563
     8  H    0.019639
     9  H    0.062210
    10  C    0.235603
    11  H    0.086210
    12  C    0.180712
    13  H    0.075354
    14  H    0.123462
    15  H    0.078864
    16  N   -0.949473
    17  N    0.302486
    18  C    1.859742
    19  C    1.608274
    20  O   -0.947154
    21  O   -1.177299
    22  O   -0.943249
    23  O   -1.019706
    24  C    0.534765
    25  H   -0.000100
    26  H    0.047498
    27  H   -0.026970
    28  C    0.522711
    29  H    0.016727
    30  H    0.033277
    31  H    0.010615
    32  O   -0.737019
    33  H    0.437048
    34  H    0.308177
    35  O   -0.683457
    36  H    0.307793
    37  H    0.376956
    38  O   -0.777666
    39  H    0.293848
    40  H    0.479902
    41  O   -0.749645
    42  H    0.507680
    43  H    0.300632
 Sum of APT charges =   0.00000
 APT charges with hydrogens summed into heavy atoms:
               1
     1  C   -0.966004
     2  C    0.442561
     3  C    0.123167
     4  C   -0.183288
     7  C    0.069286
    10  C    0.321813
    12  C    0.256066
    16  N   -0.949473
    17  N    0.302486
    18  C    1.859742
    19  C    1.608274
    20  O   -0.947154
    21  O   -1.177299
    22  O   -0.943249
    23  O   -1.019706
    24  C    0.555194
    28  C    0.583330
    32  O    0.008206
    35  O    0.001292
    38  O   -0.003916
    41  O    0.058667
 Electronic spatial extent (au):  <R**2>=           6425.8942
 Charge=              0.0000 electrons
 Dipole moment (field-independent basis, Debye):
    X=             -3.6296    Y=              5.7274    Z=              4.4470  Tot=              8.1088
 Quadrupole moment (field-independent basis, Debye-Ang):
   XX=           -138.1882   YY=           -118.3446   ZZ=           -119.5218
   XY=            -14.9267   XZ=             13.6894   YZ=              6.0026
 Traceless Quadrupole moment (field-independent basis, Debye-Ang):
   XX=            -12.8367   YY=              7.0069   ZZ=              5.8298
   XY=            -14.9267   XZ=             13.6894   YZ=              6.0026
 Octapole moment (field-independent basis, Debye-Ang**2):
  XXX=           -158.8779  YYY=             45.1779  ZZZ=            -10.5994  XYY=             19.2148
  XXY=            -41.0247  XXZ=             51.1313  XZZ=            -12.3955  YZZ=              3.9576
  YYZ=             -0.7394  XYZ=             16.2281
 Hexadecapole moment (field-independent basis, Debye-Ang**3):
 XXXX=          -5267.0667 YYYY=          -2632.1756 ZZZZ=          -1072.7605 XXXY=            -93.1745
 XXXZ=            305.4703 YYYX=            -45.3705 YYYZ=             53.0309 ZZZX=            106.7150
 ZZZY=            -24.9823 XXYY=           -959.5101 XXZZ=           -762.6478 YYZZ=           -562.5152
 XXYZ=             14.6019 YYXZ=            -18.8674 ZZXY=           -110.5513
 N-N= 2.013234836072D+03 E-N=-6.698997026145D+03  KE= 1.132320529577D+03
  Exact polarizability: 233.276 -34.492 220.603 -25.653  29.705 181.077
 Approx polarizability: 242.360 -44.313 233.483 -48.680  46.037 223.675
   1 Symmetry operations used in ECPInt.
 ECPInt:  NShTT=   18528 NPrTT=   66042 LenC2=   17017 LenP2D=   42355.
 LDataN:  DoStor=T MaxTD1= 6 Len=  172
 D2PCM: C-PCM CHGder 2nd derivatives, FixD1E=F FixD2E=F DoIter=F DoCFld=F I1PDM=0
 Calling FoFJK, ICntrl=    100127 FMM=F ISym2X=0 I1Cent= 0 IOpClX= 0 NMat=1 NMatS=1 NMatT=0.
 Full mass-weighted force constant matrix:
 Low frequencies --- -579.6940  -10.0918   -6.5185   -0.0010   -0.0005    0.0002
 Low frequencies ---    8.8829   24.3281   27.4000
 ******    1 imaginary frequencies (negative Signs) ****** 
 Diagonal vibrational polarizability:
      382.3831608     554.0752561     268.5823524
 Harmonic frequencies (cm**-1), IR intensities (KM/Mole), Raman scattering
 activities (A**4/AMU), depolarization ratios for plane and unpolarized
 incident light, reduced masses (AMU), force constants (mDyne/A),
 and normal coordinates:
                      1                      2                      3
                      A                      A                      A
 Frequencies --   -579.6938                24.2444                25.4336
 Red. masses --      9.1958                 6.2753                 6.2818
 Frc consts  --      1.8207                 0.0022                 0.0024
 IR Inten    --   2106.1855                 0.3254                 3.6156
  Atom  AN      X      Y      Z        X      Y      Z        X      Y      Z
     1   6    -0.29   0.50   0.37    -0.04   0.00   0.03     0.00   0.03  -0.01
     2   6    -0.02  -0.02  -0.08    -0.03   0.00   0.00    -0.03  -0.02   0.02
     3   6    -0.01   0.01  -0.03    -0.03   0.04   0.09    -0.08   0.02  -0.06
     4   6     0.03   0.08   0.05    -0.05   0.02   0.08    -0.03   0.06  -0.05
     5   1     0.00  -0.23  -0.11    -0.05  -0.03   0.01     0.04   0.05   0.01
     6   1     0.06  -0.08  -0.09    -0.05   0.02   0.11    -0.03   0.10  -0.07
     7   6    -0.01   0.00  -0.03     0.00   0.05   0.04    -0.08  -0.03  -0.01
     8   1     0.00   0.03  -0.02     0.00   0.05   0.04    -0.11  -0.06  -0.01
     9   1    -0.05   0.03  -0.08     0.03   0.07   0.03    -0.07  -0.04  -0.01
    10   6     0.08  -0.18   0.08    -0.07  -0.04   0.04    -0.03   0.02  -0.01
    11   1    -0.21   0.10  -0.08    -0.10  -0.07   0.02     0.00   0.02   0.00
    12   6     0.09   0.01  -0.02    -0.07  -0.01   0.10    -0.06   0.04  -0.06
    13   1    -0.07   0.17  -0.19    -0.10  -0.02   0.13    -0.07   0.06  -0.08
    14   1    -0.03   0.00  -0.09    -0.01  -0.02  -0.04    -0.02  -0.04   0.05
    15   1    -0.02  -0.01  -0.06    -0.02   0.07   0.13    -0.11   0.02  -0.09
    16   7    -0.08  -0.10   0.00     0.00   0.08   0.02     0.03   0.03   0.02
    17   7     0.21  -0.27  -0.15     0.01   0.03   0.00     0.02   0.03   0.01
    18   6     0.07   0.02   0.06     0.00   0.09   0.02     0.03   0.02   0.04
    19   6    -0.04  -0.02  -0.05     0.05  -0.01  -0.02     0.02   0.05   0.00
    20   8    -0.03   0.00  -0.04     0.12  -0.09  -0.01    -0.03   0.14  -0.02
    21   8    -0.04   0.01  -0.01    -0.01   0.13   0.04     0.05  -0.03   0.03
    22   8     0.04   0.00  -0.02     0.00   0.01  -0.05     0.06  -0.04   0.01
    23   8     0.01   0.00  -0.03     0.02   0.04   0.00     0.00   0.07   0.06
    24   6     0.02   0.00   0.01     0.04  -0.02  -0.03     0.00   0.04   0.07
    25   1    -0.01  -0.01   0.00     0.04  -0.03  -0.04    -0.04   0.10   0.10
    26   1     0.01   0.00   0.00     0.00  -0.06  -0.06    -0.01  -0.03   0.10
    27   1    -0.02   0.00   0.01     0.09  -0.03  -0.04     0.04   0.05   0.01
    28   6     0.00   0.01   0.00     0.03  -0.01  -0.07     0.08  -0.05   0.00
    29   1     0.01   0.02   0.01     0.07  -0.05  -0.12     0.04  -0.04   0.05
    30   1    -0.01   0.00   0.00     0.06  -0.02  -0.01     0.10  -0.02  -0.08
    31   1     0.02   0.02   0.01    -0.02   0.02  -0.10     0.12  -0.13   0.01
    32   8     0.00   0.01   0.00     0.01  -0.01   0.13     0.19   0.09  -0.22
    33   1     0.02  -0.01   0.01     0.00   0.04   0.10     0.15   0.01  -0.16
    34   1     0.05  -0.09   0.03     0.01  -0.03   0.12     0.17   0.22  -0.19
    35   8    -0.01  -0.01  -0.01     0.18  -0.04  -0.15    -0.16  -0.02   0.13
    36   1    -0.01   0.05   0.04     0.22  -0.04  -0.16    -0.23  -0.01   0.15
    37   1    -0.02   0.02  -0.06     0.18  -0.06  -0.12    -0.12   0.05   0.08
    38   8     0.00  -0.01   0.00     0.00   0.09   0.03     0.03  -0.04  -0.03
    39   1    -0.02   0.02   0.04    -0.01   0.10   0.07     0.05  -0.02  -0.06
    40   1    -0.02   0.07   0.05     0.04   0.06   0.02     0.00   0.00  -0.01
    41   8     0.01  -0.01   0.01    -0.20  -0.29  -0.20    -0.05  -0.34   0.08
    42   1     0.06   0.06  -0.08    -0.09  -0.11  -0.10     0.01  -0.23   0.05
    43   1     0.00   0.01  -0.02    -0.42  -0.20  -0.24    -0.15  -0.32   0.08
                      4                      5                      6
                      A                      A                      A
 Frequencies --     48.2460                57.0619                64.8103
 Red. masses --      4.6660                 5.2247                 5.1330
 Frc consts  --      0.0064                 0.0100                 0.0127
 IR Inten    --      0.9454                 2.6064                 0.3737
  Atom  AN      X      Y      Z        X      Y      Z        X      Y      Z
     1   6     0.05  -0.01   0.01     0.04  -0.03   0.00    -0.03  -0.02   0.01
     2   6     0.01  -0.03   0.06    -0.02  -0.04   0.10     0.01   0.02  -0.02
     3   6    -0.05   0.03   0.01    -0.09   0.02   0.03     0.05   0.01   0.09
     4   6     0.01   0.02  -0.03     0.00   0.00  -0.04     0.00  -0.04   0.08
     5   1     0.10  -0.02   0.00     0.12  -0.07  -0.02    -0.07  -0.05  -0.01
     6   1     0.03   0.05  -0.07     0.02   0.01  -0.11    -0.01  -0.08   0.10
     7   6    -0.06   0.00   0.04    -0.11   0.01   0.08     0.06   0.06   0.03
     8   1    -0.09  -0.02   0.07    -0.15   0.00   0.14     0.09   0.08   0.03
     9   1    -0.06   0.01   0.03    -0.13   0.04   0.05     0.07   0.07   0.01
    10   6     0.03  -0.04   0.06     0.03  -0.07   0.11    -0.01  -0.03   0.03
    11   1     0.06  -0.06   0.08     0.10  -0.12   0.14    -0.06  -0.06   0.00
    12   6    -0.01   0.00   0.03    -0.01  -0.04   0.07     0.02  -0.04   0.10
    13   1    -0.01  -0.01   0.03     0.01  -0.05   0.08     0.01  -0.06   0.14
    14   1     0.02  -0.05   0.09    -0.01  -0.06   0.13     0.00   0.04  -0.08
    15   1    -0.09   0.05  -0.01    -0.14   0.06   0.01     0.08   0.02   0.14
    16   7     0.01   0.01  -0.04     0.01   0.04  -0.07    -0.07  -0.06  -0.03
    17   7     0.02   0.00  -0.03     0.01   0.00  -0.09    -0.05  -0.03   0.00
    18   6     0.01   0.03  -0.05     0.02  -0.03  -0.07    -0.06  -0.06  -0.07
    19   6     0.02  -0.01  -0.02     0.01   0.01  -0.10    -0.06  -0.04   0.03
[...]
 ,0.00213434,-0.00112805,-0.00030663,0.00031565,-0.00025314,-0.00020899
 ,0.00009394,0.00008300,0.00002197,-0.00004622,0.00010716,0.00012800,0.
 00002138,0.00010635,0.00006396,-0.00000722,-0.00001678,0.00000220,0.00
 000500,0.00003848,0.00000274,-0.00001403,0.00000719,0.00000016,-0.0000
 1156,-0.00057804,0.00023787,0.00037779,0.00139264,0.00014231,-0.001345
 74,0.00011323,0.00011657,-0.00037388,-0.00005639,0.00000935,0.00003449
 ,0.00001709,-0.00000264,-0.00000707,0.00003419,-0.00001141,-0.00002577
 ,0.15528899,-0.03234410,-0.10182296,-0.19391012,0.03337020,0.11667851,
 -0.00117517,0.00226921,-0.00030194,-0.00040082,-0.00006700,-0.00014305
 ,-0.00027992,-0.00001102,-0.00009896,0.00054583,-0.00062199,-0.0001975
 5,-0.00100121,0.00204213,-0.00085443,-0.00010313,-0.00014914,-0.000085
 03,0.00012999,-0.00005151,0.00001403,-0.00002722,-0.00006805,-0.000036
 64,-0.00001969,0.00005428,0.00004073,0.00036698,-0.00013191,-0.0001731
 7,-0.00003395,0.00001140,-0.00003134,-0.00033734,0.00011274,0.00028754
 ,0.00004964,-0.00007430,-0.00005610,-0.00009696,0.00006220,0.00000066,
 0.00004898,-0.00006705,-0.00002462,-0.00074439,-0.00205939,-0.00310865
 ,-0.00351565,-0.00167880,-0.00087369,0.00519413,-0.00201949,-0.0073009
 4,-0.00198137,0.00049735,0.00610747,0.00011184,0.00044848,-0.00166553,
 -0.00065547,0.00069750,0.00203888,0.00103757,0.00005432,-0.00134794,-0
 .00123591,0.00169341,0.00324687,-0.00186871,-0.00016152,0.00135050,-0.
 00019003,-0.00003338,0.00001497,0.00030447,0.00007872,-0.00010987,0.00
 034685,0.00022925,-0.00008589,-0.00096498,-0.00092164,-0.00018050,0.00
 023176,0.00018114,-0.00009596,0.00008778,0.00009387,-0.00004688,0.0000
 8789,0.00003832,0.00004337,-0.00091341,0.00108216,0.00031659,0.0012593
 6,-0.00244217,-0.00119102,0.00043966,0.00001605,-0.00025971,0.00020552
 ,-0.00010583,-0.00014687,-0.00003385,0.00000956,0.00002723,-0.00020188
 ,0.00010135,0.00017150,-0.05695827,-0.05251793,-0.07160107,0.00096026,
 0.02336915,0.03783100,0.06128913,0.00232005,-0.00398676,-0.00007370,0.
 00063457,-0.00008872,0.00005624,0.00029951,-0.00016014,-0.00003250,-0.
 00039245,0.00040851,0.00011559,0.00191267,-0.00118959,0.00110437,-0.00
 015852,-0.00017201,0.00008059,-0.00021907,0.00013149,0.00007220,-0.000
 01067,0.00010014,0.00004735,0.00009393,-0.00010958,-0.00009958,-0.0005
 1857,0.00034524,0.00017174,0.00005508,0.00003049,0.00005858,0.00016228
 ,-0.00011323,-0.00037752,-0.00007932,0.00008635,0.00006385,0.00005311,
 0.00005000,0.00003679,-0.00004925,0.00003851,0.00005199,0.00000426,0.0
 0200133,0.00111806,-0.00485400,-0.00577088,0.00245665,-0.00257964,-0.0
 0134106,-0.00171276,0.00437827,0.00751330,0.00147566,-0.00144899,-0.00
 241399,0.00182684,0.00155902,0.00070693,0.00086982,-0.00186739,-0.0020
 0700,-0.00147725,0.00051425,-0.00211152,-0.00136143,-0.00113250,-0.000
 00408,0.00120398,0.00017738,0.00009842,-0.00020159,0.00034657,0.000069
 83,-0.00010663,0.00015555,0.00003195,-0.00009753,0.00033585,0.00043623
 ,-0.00006443,-0.00001447,-0.00009524,0.00003719,-0.00039133,-0.0001186
 0,0.00017404,-0.00011067,-0.00005161,-0.00000834,0.00166653,0.00356503
 ,-0.00303486,-0.00361254,-0.00928064,0.00210359,0.00026828,-0.00079584
 ,0.00124385,-0.00027874,-0.00011271,0.00015604,0.00005979,0.00001915,-
 0.00005179,0.00023410,0.00002347,-0.00013580,-0.02485630,-0.13531729,-
 0.19950984,-0.00256987,-0.00066790,-0.00091276,0.03003775,0.15021901,-
 0.00259343,0.00177486,-0.00110194,0.00017416,-0.00141433,0.00021885,0.
 00014671,-0.00010748,0.00026266,0.00055892,0.00299828,-0.00120478,-0.0
 0188602,0.00233929,0.00090471,0.00020195,-0.00016132,0.00068516,-0.000
 09359,-0.00023355,0.00006549,-0.00003378,0.00011300,-0.00001326,0.0000
 4894,-0.00016714,-0.00005984,-0.00099339,-0.00188162,-0.00128489,-0.00
 007604,0.00018487,0.00030025,0.00295354,-0.00076806,-0.00029694,-0.000
 20399,0.00033396,0.00035053,0.00005677,0.00012481,0.00031408,-0.000041
 22,-0.00003138,0.00016848,-0.00478739,-0.00169154,0.00043209,-0.001631
 05,0.00145963,0.00727685,-0.00314111,-0.00037015,-0.00125898,0.0085806
 5,0.00768945,-0.00167433,-0.00200161,-0.00317577,0.00296543,0.00130013
 ,0.00001284,-0.00010576,-0.00321240,-0.00186252,-0.00170707,0.00035369
 ,-0.00171160,-0.00399753,-0.00088679,0.00046968,0.00115880,0.00043484,
 -0.00004158,-0.00017720,0.00024065,0.00001962,-0.00010719,0.00030429,0
 .00008019,-0.00012082,0.00097286,0.00082426,-0.00000553,-0.00014707,-0
 .00014539,0.00006178,-0.00019422,-0.00010291,0.00008078,-0.00022933,-0
 .00008032,-0.00004858,0.00057051,-0.00075741,-0.00284762,-0.00090012,-
 0.00029932,0.00564677,-0.00032775,0.00121959,-0.00010306,-0.00051810,0
 .00000023,0.00029381,0.00009167,0.00000001,-0.00007224,0.00046833,-0.0
 0009892,-0.00029911,-0.02714225,-0.19084542,-0.32099474,-0.00479242,-0
 .00847571,-0.01307684,0.03850000,0.19475618,0.32941518,-0.00215527,0.0
 0209817,-0.00130855,0.00042489,-0.00063495,0.00012422,0.00009885,-0.00
 000230,0.00014486,0.00026784,0.00071898,-0.00006001,0.00002843,-0.0000
 6909,0.00017596,0.00005904,-0.00017062,0.00021809,-0.00008591,0.000017
 52,0.00005475,-0.00002014,0.00003989,0.00002708,0.00003351,-0.00001436
 ,0.00000200,-0.00017847,-0.00084089,-0.00074420,-0.00006104,0.00010176
 ,0.00012908,0.00083822,-0.00034991,-0.00001028,-0.00003759,0.00008075,
 0.00009459,0.00000337,0.00009488,0.00007099,0.00000039,-0.00003840,0.0
 0006574,-0.00456884,-0.00211231,-0.00136090,0.00191566,-0.00055190,0.0
 0256069,0.00865232,0.00461817,0.00566615,0.00024809,0.00065047,-0.0000
 9978,-0.00026275,-0.00024537,0.00017967,-0.01341673,0.00174660,-0.0070
 1064,-0.00034752,-0.00033212,-0.00004555,-0.00107464,-0.00063607,-0.00
 160154,0.00064033,-0.00020166,-0.00038846,-0.00050352,0.00031835,-0.00
 062648,-0.00193393,0.00005463,-0.00051423,-0.00022872,0.00027412,-0.00
 030716,0.00018746,0.00015759,-0.00002199,-0.00001606,-0.00000728,0.000
 00960,-0.00001376,-0.00001878,0.00001008,-0.00002071,-0.00001024,-0.00
 001132,0.00000448,-0.00018324,0.00000375,0.00002669,0.00012466,-0.0000
 1419,-0.00000129,0.00010895,-0.00000838,-0.00016686,-0.00006009,0.0001
 2880,0.00005194,0.00000675,-0.00003713,0.00008824,0.00001836,-0.000071
 08,-0.00008303,-0.00027357,-0.00020152,0.00003810,0.00009942,0.0001246
 0,0.00013000,0.00025078,0.00018939,0.47384496,0.00059891,-0.00058739,0
 .00036194,-0.00009980,0.00018059,-0.00002543,-0.00003765,-0.00000989,-
 0.00004114,-0.00007939,-0.00014050,-0.00000702,0.00000965,0.00000094,-
 0.00004924,-0.00001854,0.00001339,-0.00007536,0.00001499,-0.00000188,0
 .00000310,0.00000435,-0.00001073,-0.00000808,-0.00001352,-0.00000614,-
 0.00000291,0.00003377,0.00020500,0.00020680,0.00002038,-0.00002843,-0.
 00003549,-0.00018916,0.00008840,-0.00000298,0.00000170,-0.00001921,-0.
 00002733,0.00000103,-0.00003209,-0.00001387,-0.00001792,0.00002267,-0.
 00001487,0.00155026,0.00070849,0.00068354,-0.00036775,0.00027067,-0.00
 066959,-0.00229012,-0.00289715,-0.00367145,-0.00013173,-0.00029420,0.0
 0011031,0.00007507,0.00013229,-0.00009244,0.00628239,0.00252045,0.0034
 5584,0.00012570,0.00014560,0.00001768,-0.00034028,0.00079761,0.0016959
 6,0.00123521,0.00091347,-0.00000095,0.00009068,0.00006985,0.00006209,-
 0.00046865,-0.00230077,-0.00011612,-0.00049018,0.00026568,-0.00056511,
 -0.00005165,-0.00006489,0.00001055,0.00000492,0.00000394,-0.00000259,0
 .00001635,0.00000807,-0.00000809,0.00000998,0.00000375,0.00000177,-0.0
 0009290,0.00011667,-0.00001404,0.00002758,-0.00007315,0.00002351,0.000
 07853,-0.00006073,0.00001526,0.00004534,0.00004818,-0.00003531,-0.0000
 1680,-0.00001174,0.00001173,-0.00001778,-0.00002615,0.00001668,-0.0000
 4635,0.00017051,0.00005237,0.00002783,-0.00005375,0.00000472,0.0000326
 8,-0.00014316,-0.00010661,-0.08903794,0.55860683,-0.00060533,0.0006009
 4,-0.00034103,0.00014321,-0.00023783,0.00002825,0.00000941,-0.00002910
 ,0.00003180,0.00012869,0.00025612,-0.00003672,0.00003607,-0.00003595,0
 .00005411,0.00007116,-0.00011551,0.00005146,-0.00004385,0.00004060,0.0
 0002761,-0.00002205,0.00001927,0.00001178,0.00000818,-0.00002244,-0.00
 001830,-0.00003798,-0.00021592,-0.00021320,-0.00000692,0.00002431,0.00
 003860,0.00021736,-0.00009659,-0.00000065,-0.00000328,0.00001612,0.000
 02313,0.00000431,0.00003597,0.00001910,-0.00000186,-0.00000797,0.00000
 408,-0.00154626,-0.00047507,-0.00000666,0.00039361,-0.00009514,0.00087
 916,0.00292890,-0.00109547,-0.00274787,0.00026764,0.00035003,-0.000261
 44,-0.00016060,-0.00016665,0.00027785,-0.00244921,0.00091623,0.0021884
 1,-0.00017482,-0.00013843,0.00004324,-0.00382497,0.00093655,0.00220875
 ,0.00251630,-0.00117258,-0.00109694,-0.00097254,0.00050342,-0.00092959
 ,-0.00111419,0.00039262,-0.00131659,-0.00043247,0.00046930,-0.00034264
 ,0.00009612,0.00007395,-0.00001841,-0.00001112,-0.00000324,0.00000299,
 -0.00000086,-0.00000953,-0.00000400,-0.00000606,-0.00000643,-0.0000035
 0,-0.00005939,-0.00009754,0.00010483,0.00006786,0.00010231,-0.00007790
 ,0.00002848,0.00004876,-0.00007289,-0.00007284,-0.00001337,0.00008562,
 0.00001450,0.00000393,-0.00002714,0.00004609,-0.00000475,-0.00005918,-
 0.00020734,-0.00015197,-0.00001456,0.00012071,0.00009867,0.00009752,0.
 00024307,0.00011044,-0.00001341,-0.06455825,-0.20921627,0.11481979,0.0
 0333239,-0.00322282,0.00203461,-0.00063463,0.00093325,-0.00018621,-0.0
 0015439,-0.00001049,-0.00022843,-0.00036235,-0.00105338,0.00010037,-0.
 00002833,0.00009563,-0.00026055,-0.00005062,0.00020699,-0.00032345,0.0
 0012453,-0.00001841,-0.00008314,0.00002453,-0.00005576,-0.00003882,-0.
 00003711,0.00001515,-0.00000553,0.00028815,0.00132099,0.00112828,0.000
 10111,-0.00016233,-0.00019698,-0.00133048,0.00055065,0.00000812,0.0000
 6197,-0.00012888,-0.00014586,0.00000095,-0.00014228,-0.00010819,0.0000
 1135,0.00003881,-0.00010003,0.00717202,0.00334777,0.00234569,-0.002972
 35,0.00080446,-0.00381927,-0.01441002,-0.00888284,-0.01201927,-0.00019
 736,-0.00089133,0.00020390,0.00031992,0.00033864,-0.00024420,0.0049641
 1,0.00488207,0.00847575,0.00041427,0.00045076,0.00002159,-0.00091597,0
 .00192038,0.00534814,0.00219718,-0.00024703,-0.00123951,-0.00007569,0.
 00006325,0.00013822,0.00081193,-0.00012691,0.00014315,-0.00021772,0.00
 001620,-0.00005283,-0.00022257,-0.00020014,0.00003060,0.00001952,0.000
 00929,-0.00001103,0.00002480,0.00002593,-0.00001510,0.00002804,0.00001
 394,0.00001161,-0.00005616,0.00022662,-0.00000826,-0.00000531,-0.00014
 962,0.00001934,0.00004408,-0.00012644,0.00001972,0.00020369,0.00009354
 ,-0.00017607,-0.00006038,-0.00001087,0.00004923,-0.00009781,-0.0000346
 6,0.00009237,0.00001586,0.00036100,0.00025873,0.00000716,-0.00009353,-
 0.00011633,-0.00006157,-0.00034672,-0.00027644,-0.38394296,0.22416968,
 -0.00687572,0.37819419,-0.00049213,0.00047953,-0.00029049,0.00007803,-
 0.00015228,0.00002060,0.00003717,0.00001178,0.00003378,0.00007055,0.00
 011316,0.00002135,-0.00001044,-0.00000338,0.00004219,0.00001167,-0.000
 00811,0.00007073,-0.00001195,0.00000233,-0.00000804,-0.00000421,0.0000
 0867,0.00000654,0.00001225,0.00000407,0.00000206,-0.00003211,-0.000157
 38,-0.00017127,-0.00001738,0.00002192,0.00002894,0.00014799,-0.0000774
 2,-0.00000270,-0.00000168,0.00001554,0.00002273,-0.00000082,0.00002709
 ,0.00001022,0.00002021,-0.00002447,0.00001135,-0.00140940,-0.00043723,
 -0.00089911,0.00016952,-0.00020949,0.00046026,0.00092582,0.00267401,0.
 00391801,0.00011326,0.00022465,-0.00011489,-0.00006376,-0.00010952,0.0
 0009599,-0.00056335,-0.00580334,-0.00265036,-0.00010695,-0.00012379,-0
 .00000786,0.00069333,-0.00101496,-0.00196884,-0.00119158,0.00072468,0.
 00027456,0.00019543,-0.00022522,0.00020314,-0.00036795,-0.00029091,-0.
 00157201,0.00031010,-0.00029423,0.00038463,0.00004123,0.00005093,-0.00
 000834,-0.00000472,-0.00000314,0.00000190,-0.00001270,-0.00000676,0.00
 000558,-0.00000795,-0.00000343,-0.00000122,0.00006465,-0.00007926,0.00
 001513,-0.00001962,0.00005069,-0.00001756,-0.00005497,0.00003593,-0.00
 001729,-0.00003868,-0.00003853,0.00003171,0.00001387,0.00000978,-0.000
 01049,0.00001506,0.00002033,-0.00001623,0.00004336,-0.00012149,-0.0000
 4371,-0.00002719,0.00002833,-0.00000612,-0.00004064,0.00010716,0.00008
 623,0.17595552,-0.15539195,0.02163403,-0.21205838,0.18451111,0.0008393
 0,-0.00082646,0.00048697,-0.00018052,0.00028741,-0.00004086,-0.0000275
 0,0.00002214,-0.00004782,-0.00012925,-0.00031265,0.00004144,-0.0000239
 4,0.00003452,-0.00007157,-0.00005345,0.00010026,-0.00008540,0.00004682
 ,-0.00003161,-0.00002829,0.00001804,-0.00001972,-0.00001308,-0.0000083
 4,0.00001875,0.00001316,0.00006251,0.00030283,0.00029050,0.00001938,-0
 .00003886,-0.00005166,-0.00030780,0.00013276,0.00000613,0.00000958,-0.
 00002795,-0.00003502,-0.00000181,-0.00004327,-0.00002731,0.00000090,0.
 00000854,-0.00001258,0.00214039,0.00094188,0.00053686,-0.00052074,0.00
 023199,-0.00108371,-0.00517893,-0.00098444,-0.00135491,-0.00019631,-0.
 00037015,0.00023612,0.00014464,0.00016043,-0.00022580,0.00345972,0.000
 15275,-0.00123835,0.00017634,0.00016119,-0.00002607,0.00152387,-0.0003
 6784,-0.00044534,-0.00174750,0.00076383,-0.00027365,0.00068212,-0.0002
 0176,0.00058340,0.00013783,-0.00204782,-0.00331148,0.00005886,0.000040
 02,-0.00018489,-0.00008772,-0.00007351,0.00001748,0.00001005,0.0000041
 3,-0.00000329,0.00000621,0.00000997,-0.00000039,0.00000890,0.00000658,
 0.00000319,0.00001527,0.00009671,-0.00006273,-0.00003543,-0.00008785,0
 .00004972,-0.00000103,-0.00004815,0.00004614,0.00006932,0.00002105,-0.
 00007744,-0.00001456,-0.00000404,0.00002313,-0.00003970,-0.00000149,0.
 00005008,0.00012006,0.00015941,0.00005192,-0.00006345,-0.00007993,-0.0
 0007334,-0.00015273,-0.00013089,-0.00004608,0.01344956,0.00924501,-0.0
 1524602,0.00286018,-0.02028925,0.02211713,0.00040019,-0.00038660,0.000
 23995,-0.00007757,0.00011644,-0.00002477,-0.00001842,-0.00000162,-0.00
 002745,-0.00004735,-0.00013976,0.00001046,-0.00000624,0.00001508,-0.00
 003328,-0.00000560,0.00002598,-0.00003707,0.00001551,-0.00000030,-0.00
 001043,0.00000322,-0.00000778,-0.00000482,-0.00000839,0.00000316,-0.00
 000298,0.00003195,0.00015515,0.00013770,0.00001008,-0.00001770,-0.0000
 2375,-0.00015324,0.00006243,0.00000415,0.00000625,-0.00001416,-0.00001
 746,-0.00000218,-0.00001591,-0.00001385,-0.00000062,0.00000956,-0.0000
 1298,0.00067387,0.00024290,0.00014597,-0.00042307,0.00004996,-0.000431
 05,-0.00152354,-0.00031336,-0.00049828,-0.00005070,-0.00008045,-0.0000
 7516,0.00005865,0.00001868,0.00001460,0.00027274,-0.00067044,0.0007157
 8,0.00007318,0.00005789,0.00003321,0.00007067,0.00008584,0.00016467,-0
 .00010257,-0.00012514,-0.00031078,0.00004306,-0.00002157,0.00005064,-0
 .00013413,0.00030174,-0.00001883,0.00005652,-0.00005186,0.00008390,-0.
 00004574,-0.00003169,0.00000100,0.00000297,0.00000101,-0.00000252,-0.0
 0000099,0.00000277,-0.00000215,0.00000367,0.00000089,0.00000407,0.0000
 2077,0.00003059,0.00002766,-0.00000895,-0.00001255,-0.00001740,-0.0000
 2450,-0.00002641,-0.00002244,0.00004198,0.00000687,-0.00002293,-0.0000
 1481,0.00000049,0.00000693,-0.00002467,0.00000002,0.00001219,0.0000206
 1,0.00003217,0.00005782,-0.00000597,-0.00001369,-0.00003500,-0.0000267
 2,-0.00002857,-0.00003850,-0.07846308,-0.14064888,0.07584624,0.0074720
 5,0.03761954,-0.01708912,0.07189113,-0.00031230,0.00030658,-0.00019073
 ,0.00005711,-0.00009254,0.00001389,0.00001632,0.00000140,0.00002086,0.
 00003966,0.00009345,-0.00000288,0.00000036,-0.00000387,0.00002555,0.00
 001025,-0.00002148,0.00003202,-0.00000951,0.00000016,0.00000451,-0.000
 00262,0.00000599,0.00000469,0.00000707,0.00000241,0.00000196,-0.000023
 44,-0.00011326,-0.00010946,-0.00000959,0.00001519,0.00001897,0.0001082
 4,-0.00004827,0.00000066,-0.00000309,0.00001052,0.00001298,-0.00000042
 ,0.00001606,0.00000867,0.00000268,-0.00000973,0.00001003,-0.00065786,-
 0.00030962,-0.00012810,0.00026903,-0.00009050,0.00034899,0.00141804,0.
 00069662,0.00075037,0.00006648,0.00014656,-0.00002361,-0.00004104,-0.0
 0006506,0.00003581,-0.00122905,0.00028419,-0.00089291,-0.00005930,-0.0
 0006843,-0.00001183,-0.00013380,-0.00022660,-0.00033115,-0.00007981,-0
 .00025260,-0.00006741,-0.00008182,0.00002051,-0.00010100,0.00051568,0.
 00063799,0.00058189,0.00001057,0.00000380,0.00000910,0.00002869,0.0000
 3330,-0.00000501,-0.00000218,-0.00000195,0.00000162,-0.00000728,-0.000
 00380,0.00000387,-0.00000434,-0.00000162,-0.00000128,0.00004138,-0.000
 06744,0.00001436,-0.00000607,0.00004326,-0.00001737,-0.00003643,0.0000
 4167,-0.00001229,-0.00002448,-0.00002173,0.00001702,0.00000924,0.00000
 461,-0.00000541,0.00001091,0.00001196,-0.00000770,0.00000023,-0.000086
 93,-0.00002283,0.00000085,0.00003253,0.00000811,0.00000976,0.00006901,
 0.00004305,-0.09174521,-0.40313916,0.18677418,-0.01192220,-0.02454545,
 0.01308549,0.10376929,0.42669227,0.00024100,-0.00023309,0.00013847,-0.
 00005312,0.00008212,-0.00001143,-0.00000883,0.00000590,-0.00001576,-0.
 00003453,-0.00009453,0.00001133,-0.00001148,0.00001528,-0.00001909,-0.
 00001109,0.00002688,-0.00002002,0.00001468,-0.00001201,-0.00000890,0.0
 0000643,-0.00000670,-0.00000371,-0.00000195,0.00000682,0.00000522,0.00
 001885,0.00008998,0.00008145,0.00000376,-0.00000964,-0.00001488,-0.000
 09132,0.00004035,0.00000092,0.00000225,-0.00000712,-0.00000956,-0.0000
 0179,-0.00001167,-0.00000662,0.00000033,0.00000261,-0.00000287,0.00050
 933,0.00021644,0.00002801,-0.00019427,0.00001917,-0.00032050,-0.001165
 26,0.00014211,0.00028644,-0.00006630,-0.00008468,0.00009397,0.00004782
 ,0.00004068,-0.00009081,0.00073603,-0.00029701,-0.00000410,0.00004694,
 0.00003483,-0.00002528,0.00042076,-0.00021211,-0.00036546,-0.00062358,
 -0.00043317,-0.00017164,0.00003654,-0.00003165,0.00003381,-0.00000116,
 0.00120924,-0.00085492,0.00022719,-0.00011506,0.00020409,-0.00003060,-
 0.00002075,0.00000568,0.00000350,-0.00000019,-0.00000041,-0.00000329,0
 .00000268,0.00000337,0.00000097,0.00000195,0.00000110,0.00004761,0.000
 01253,-0.00003461,-0.00003174,-0.00001655,0.00001585,-0.00003684,-0.00
 000896,0.00002828,0.00002379,0.00000305,-0.00003168,-0.00000440,-0.000
 00137,0.00001032,-0.00001497,0.00000271,0.00002204,0.00006752,0.000008
 41,0.00000640,-0.00003413,-0.00000489,-0.00003360,-0.00006435,-0.00000
 246,0.00001606,0.05557198,0.19882344,-0.09814944,0.00324162,0.00071411
 ,-0.00048628,-0.05878392,-0.19989767,0.09968874\\-0.00000660,0.0000069
 8,-0.00000682,-0.00000139,-0.00000588,-0.00000266,-0.00000382,0.000000
 50,-0.00000466,-0.00000034,-0.00000160,-0.00000262,0.00000241,-0.00000
 602,-0.00000044,-0.00000129,-0.00000012,-0.00000092,-0.00000411,0.0000
 0042,-0.00000562,-0.00000534,-0.00000026,-0.00000758,-0.00000468,0.000
 00204,-0.00000370,0.00000106,-0.00000673,-0.00000825,-0.00000003,-0.00
 000633,-0.00000665,-0.00000230,-0.00000191,-0.00000627,-0.00000321,-0.
 00000245,-0.00000705,-0.00000113,-0.00000431,-0.00000656,-0.00000579,0
 .00000255,-0.00000532,-0.00000411,0.00000064,-0.00000073,0.00000411,-0
 .00000427,0.00000621,0.00000156,0.00000407,0.00000340,-0.00000368,0.00
 000042,-0.00000195,0.00000102,0.00000203,0.00000148,-0.00000283,0.0000
 0585,0.00000152,0.00000256,-0.00000120,-0.00000129,0.00000192,-0.00000
 017,0.00000524,0.00000170,0.00000447,0.00000414,0.00000365,0.00000141,
 0.00000668,0.00000107,0.00000494,0.00000719,0.00000042,0.00000257,0.00
 000377,0.00000163,-0.00000435,0.00000118,0.00000171,-0.00000357,-0.000
 00183,0.00000427,-0.00000422,0.00000226,0.00000568,-0.00000483,-0.0000
 0060,0.00000527,0.00000087,0.00000564,0.00000510,-0.00000147,0.0000074
 5,0.00000537,-0.00000011,0.00000721,-0.00000227,-0.00000243,-0.0000050
 6,-0.00000497,0.00000095,-0.00000737,-0.00000228,-0.00000014,-0.000002
 69,0.00000558,-0.00000352,0.00000367,0.00000599,-0.00000375,0.00000487
 ,0.00000412,-0.00000004,0.00000084,-0.00000297,0.00001168,0.00000774,-
 0.00000143,0.00000743,0.00000627,-0.00000162,0.00000987,0.00000985\\\@


 A BIRD IN THE HAND IS SAFER THAN ONE OVERHEAD.

                       -- NEWTON'S SEVENTH LAW
 Job cpu time:       0 days  3 hours 56 minutes 41.3 seconds.
 File lengths (MBytes):  RWF=    839 Int=      0 D2E=      0 Chk=     34 Scr=      1
 Normal termination of Gaussian 09 at Tue Sep  8 11:24:39 2020.
