 Entering Gaussian System, Link 0=g09
 Input=m062x_dmad_4H2O_cycloaddition_PM6_toluene.com
 Output=m062x_dmad_4H2O_cycloaddition_PM6_toluene.log
 Initial command:
 /apps/applications/gaussian/G09.D01/2/default/g09/l1.exe "/local/726097.1.40core-192G.q/Gau-355874.inp" -scrdir="/local/726097.1.40core-192G.q/"
 Entering Link 1 = /apps/applications/gaussian/G09.D01/2/default/g09/l1.exe PID=    355875.
  
 Copyright (c) 1988,1990,1992,1993,1995,1998,2003,2009,2013,
            Gaussian, Inc.  All Rights Reserved.
  
 This is part of the Gaussian(R) 09 program.  It is based on
 the Gaussian(R) 03 system (copyright 2003, Gaussian, Inc.),
 the Gaussian(R) 98 system (copyright 1998, Gaussian, Inc.),
 the Gaussian(R) 94 system (copyright 1995, Gaussian, Inc.),
 the Gaussian 92(TM) system (copyright 1992, Gaussian, Inc.),
 the Gaussian 90(TM) system (copyright 1990, Gaussian, Inc.),
 the Gaussian 88(TM) system (copyright 1988, Gaussian, Inc.),
 the Gaussian 86(TM) system (copyright 1986, Carnegie Mellon
 University), and the Gaussian 82(TM) system (copyright 1983,
 Carnegie Mellon University). Gaussian is a federally registered
 trademark of Gaussian, Inc.
  
 This software contains proprietary and confidential information,
 including trade secrets, belonging to Gaussian, Inc.
  
 This software is provided under written license and may be
 used, copied, transmitted, or stored only in accord with that
 written license.
  
 The following legend is applicable only to US Government
 contracts under FAR:
  
                    RESTRICTED RIGHTS LEGEND
  
 Use, reproduction and disclosure by the US Government is
 subject to restrictions as set forth in subparagraphs (a)
 and (c) of the Commercial Computer Software - Restricted
 Rights clause in FAR 52.227-19.
  
 Gaussian, Inc.
 340 Quinnipiac St., Bldg. 40, Wallingford CT 06492
  
  
 ---------------------------------------------------------------
 Warning -- This program may not be used in any manner that
 competes with the business of Gaussian, Inc. or will provide
 assistance to any competitor of Gaussian, Inc.  The licensee
 of this program is prohibited from giving any competitor of
 Gaussian, Inc. access to this program.  By using this program,
 the user acknowledges that Gaussian, Inc. is engaged in the
 business of creating and licensing software in the field of
 computational chemistry and represents and warrants to the
 licensee that it is not a competitor of Gaussian, Inc. and that
 it will not use this program in any manner prohibited above.
 ---------------------------------------------------------------
  

 Cite this work as:
 Gaussian 09, Revision D.01,
 M. J. Frisch, G. W. Trucks, H. B. Schlegel, G. E. Scuseria, 
 M. A. Robb, J. R. Cheeseman, G. Scalmani, V. Barone, B. Mennucci, 
 G. A. Petersson, H. Nakatsuji, M. Caricato, X. Li, H. P. Hratchian, 
 A. F. Izmaylov, J. Bloino, G. Zheng, J. L. Sonnenberg, M. Hada, 
 M. Ehara, K. Toyota, R. Fukuda, J. Hasegawa, M. Ishida, T. Nakajima, 
 Y. Honda, O. Kitao, H. Nakai, T. Vreven, J. A. Montgomery, Jr., 
 J. E. Peralta, F. Ogliaro, M. Bearpark, J. J. Heyd, E. Brothers, 
 K. N. Kudin, V. N. Staroverov, T. Keith, R. Kobayashi, J. Normand, 
 K. Raghavachari, A. Rendell, J. C. Burant, S. S. Iyengar, J. Tomasi, 
 M. Cossi, N. Rega, J. M. Millam, M. Klene, J. E. Knox, J. B. Cross, 
 V. Bakken, C. Adamo, J. Jaramillo, R. Gomperts, R. E. Stratmann, 
 O. Yazyev, A. J. Austin, R. Cammi, C. Pomelli, J. W. Ochterski, 
 R. L. Martin, K. Morokuma, V. G. Zakrzewski, G. A. Voth, 
 P. Salvador, J. J. Dannenberg, S. Dapprich, A. D. Daniels, 
 O. Farkas, J. B. Foresman, J. V. Ortiz, J. Cioslowski, 
 and D. J. Fox, Gaussian, Inc., Wallingford CT, 2013.
 
 ******************************************
 Gaussian 09:  ES64L-G09RevD.01 24-Apr-2013
                 7-Sep-2020 
 ******************************************
 %nprocshared=4
 Will use up to    4 processors via shared memory.
 %chk=m062x_dmad_4H2O_cycloaddition_PM6_toluene.chk
 ----------------------------------------------------------------------
 # opt freq scrf=(cpcm,solvent=toluene) geom=connectivity def2svp m062x
  empiricaldispersion=gd3
 ----------------------------------------------------------------------
 1/14=-1,18=20,19=15,26=3,38=1,57=2/1,3;
 2/9=110,12=2,17=6,18=5,40=1/2;
 3/5=43,7=101,11=2,16=1,25=1,30=1,70=2101,71=1,72=13,74=-55,124=31/1,2,3;
 4//1;
 5/5=2,38=5,53=13/2;
 6/7=2,8=2,9=2,10=2,28=1/1;
 7//1,2,3,16;
 1/14=-1,18=20,19=15,26=3/3(2);
 2/9=110/2;
 99//99;
 2/9=110/2;
 3/5=43,7=101,11=2,16=1,25=1,30=1,70=2105,71=1,72=13,74=-55,124=31/1,2,3;
 4/5=5,16=3,69=1/1;
 5/5=2,38=5,53=13/2;
 7//1,2,3,16;
 1/14=-1,18=20,19=15,26=3/3(-5);
 2/9=110/2;
 6/7=2,8=2,9=2,10=2,19=2,28=1/1;
 99/9=1/99;
 -------------------
 Title Card Required
 -------------------
 Symbolic Z-matrix:
 Charge =  0 Multiplicity = 1
 N                     0.39632  -0.24942   0.25421 
 N                    -0.36608   0.24228  -0.577 
 C                     1.80704  -0.49902  -0.08909 
 C                    -1.77622   0.4971   -0.23921 
 O                    -2.22045   1.60586  -0.08335 
 O                     2.26811  -1.60718  -0.18802 
 O                    -2.44462  -0.67728  -0.3054 
 O                     2.45614   0.68773  -0.10935 
 C                     3.91659   0.66253  -0.23271 
 H                     4.14979   1.74025  -0.21787 
 H                     4.35483   0.133     0.62492 
 H                     4.19669   0.19342  -1.17938 
 C                    -3.90861  -0.62928  -0.24802 
 H                    -4.15665  -1.70402  -0.23369 
 H                    -4.23686  -0.12093   0.66909 
 H                    -4.28962  -0.12863  -1.14182 
 O                     4.9523   -1.93736   0.8274 
 H                     4.13787  -2.24188   0.40623 
 H                     5.13942  -2.55346   1.53193 
 O                     2.74298   3.55471  -0.18571 
 H                     2.3585    4.04852  -0.90698 
 H                     2.11006   2.86915   0.0434 
 O                    -2.87678  -3.56952  -0.10421 
 H                    -2.18239  -2.91134  -0.01777 
 H                    -2.61175  -4.15147  -0.81379 
 O                    -4.90734   1.93326   0.92164 
 H                    -4.07309   2.2283    0.5333 
 H                    -5.10406   2.53932   1.63207 
 
 Add virtual bond connecting atoms O26        and H15        Dist= 4.11D+00.
 Add virtual bond connecting atoms H27        and O5         Dist= 3.87D+00.
 Add virtual bond connecting atoms O17        and H11        Dist= 4.09D+00.
 Add virtual bond connecting atoms H18        and O6         Dist= 3.90D+00.
 Add virtual bond connecting atoms O20        and H10        Dist= 4.34D+00.
 Add virtual bond connecting atoms H22        and O8         Dist= 4.18D+00.
 Add virtual bond connecting atoms H22        and H10        Dist= 4.43D+00.
 Add virtual bond connecting atoms O23        and H14        Dist= 4.28D+00.
 Add virtual bond connecting atoms H24        and O7         Dist= 4.29D+00.
 Add virtual bond connecting atoms H24        and H14        Dist= 4.39D+00.

 GradGradGradGradGradGradGradGradGradGradGradGradGradGradGradGradGradGrad
 Berny optimization.
 Initialization pass.
                           ----------------------------
                           !    Initial Parameters    !
                           ! (Angstroms and Degrees)  !
 --------------------------                            --------------------------
 ! Name  Definition              Value          Derivative Info.                !
 --------------------------------------------------------------------------------
 ! R1    R(1,2)                  1.2304         estimate D2E/DX2                !
 ! R2    R(1,3)                  1.4732         estimate D2E/DX2                !
 ! R3    R(2,4)                  1.4723         estimate D2E/DX2                !
 ! R4    R(3,6)                  1.2043         estimate D2E/DX2                !
 ! R5    R(3,8)                  1.3528         estimate D2E/DX2                !
 ! R6    R(4,5)                  1.2046         estimate D2E/DX2                !
 ! R7    R(4,7)                  1.3529         estimate D2E/DX2                !
 ! R8    R(5,27)                 2.0494         estimate D2E/DX2                !
 ! R9    R(6,18)                 2.062          estimate D2E/DX2                !
 ! R10   R(7,13)                 1.4659         estimate D2E/DX2                !
 ! R11   R(7,24)                 2.2677         estimate D2E/DX2                !
 ! R12   R(8,9)                  1.4659         estimate D2E/DX2                !
 ! R13   R(8,22)                 2.214          estimate D2E/DX2                !
 ! R14   R(9,10)                 1.1028         estimate D2E/DX2                !
 ! R15   R(9,11)                 1.0991         estimate D2E/DX2                !
 ! R16   R(9,12)                 1.093          estimate D2E/DX2                !
 ! R17   R(10,20)                2.2962         estimate D2E/DX2                !
 ! R18   R(10,22)                2.3459         estimate D2E/DX2                !
 ! R19   R(11,17)                2.1643         estimate D2E/DX2                !
 ! R20   R(13,14)                1.1031         estimate D2E/DX2                !
 ! R21   R(13,15)                1.0987         estimate D2E/DX2                !
 ! R22   R(13,16)                1.093          estimate D2E/DX2                !
 ! R23   R(14,23)                2.266          estimate D2E/DX2                !
 ! R24   R(14,24)                2.3242         estimate D2E/DX2                !
 ! R25   R(15,26)                2.1756         estimate D2E/DX2                !
 ! R26   R(17,18)                0.9661         estimate D2E/DX2                !
 ! R27   R(17,19)                0.9544         estimate D2E/DX2                !
 ! R28   R(20,21)                0.9549         estimate D2E/DX2                !
 ! R29   R(20,22)                0.9608         estimate D2E/DX2                !
 ! R30   R(23,24)                0.9607         estimate D2E/DX2                !
 ! R31   R(23,25)                0.9552         estimate D2E/DX2                !
 ! R32   R(26,27)                0.9663         estimate D2E/DX2                !
 ! R33   R(26,28)                0.9543         estimate D2E/DX2                !
 ! A1    A(2,1,3)              120.2405         estimate D2E/DX2                !
 ! A2    A(1,2,4)              120.5074         estimate D2E/DX2                !
 ! A3    A(1,3,6)              122.7961         estimate D2E/DX2                !
 ! A4    A(1,3,8)              108.3205         estimate D2E/DX2                !
 ! A5    A(6,3,8)              128.4822         estimate D2E/DX2                !
 ! A6    A(2,4,5)              122.8356         estimate D2E/DX2                !
 ! A7    A(2,4,7)              108.1642         estimate D2E/DX2                !
 ! A8    A(5,4,7)              128.5458         estimate D2E/DX2                !
 ! A9    A(4,5,27)             130.6836         estimate D2E/DX2                !
 ! A10   A(3,6,18)             127.3516         estimate D2E/DX2                !
 ! A11   A(4,7,13)             117.5856         estimate D2E/DX2                !
 ! A12   A(4,7,24)             142.3575         estimate D2E/DX2                !
 ! A13   A(13,7,24)             98.2084         estimate D2E/DX2                !
 ! A14   A(3,8,9)              117.66           estimate D2E/DX2                !
 ! A15   A(3,8,22)             142.0273         estimate D2E/DX2                !
 ! A16   A(9,8,22)             100.2814         estimate D2E/DX2                !
 ! A17   A(8,9,10)             101.1137         estimate D2E/DX2                !
 ! A18   A(8,9,11)             109.8693         estimate D2E/DX2                !
 ! A19   A(8,9,12)             109.6077         estimate D2E/DX2                !
 ! A20   A(10,9,11)            112.0878         estimate D2E/DX2                !
 ! A21   A(10,9,12)            112.1422         estimate D2E/DX2                !
 ! A22   A(11,9,12)            111.5228         estimate D2E/DX2                !
 ! A23   A(9,10,20)            130.0078         estimate D2E/DX2                !
 ! A24   A(9,10,22)            106.7337         estimate D2E/DX2                !
 ! A25   A(9,11,17)            130.0864         estimate D2E/DX2                !
 ! A26   A(7,13,14)            101.1382         estimate D2E/DX2                !
 ! A27   A(7,13,15)            110.2538         estimate D2E/DX2                !
 ! A28   A(7,13,16)            109.3362         estimate D2E/DX2                !
 ! A29   A(14,13,15)           111.8859         estimate D2E/DX2                !
 ! A30   A(14,13,16)           112.2411         estimate D2E/DX2                !
 ! A31   A(15,13,16)           111.4997         estimate D2E/DX2                !
 ! A32   A(13,14,23)           132.5185         estimate D2E/DX2                !
 ! A33   A(13,14,24)           108.4398         estimate D2E/DX2                !
 ! A34   A(13,15,26)           128.7422         estimate D2E/DX2                !
 ! A35   A(11,17,18)            91.6062         estimate D2E/DX2                !
 ! A36   A(11,17,19)           137.7879         estimate D2E/DX2                !
 ! A37   A(18,17,19)           106.4747         estimate D2E/DX2                !
 ! A38   A(6,18,17)            142.4649         estimate D2E/DX2                !
 ! A39   A(10,20,21)           130.1452         estimate D2E/DX2                !
 ! A40   A(21,20,22)           106.4907         estimate D2E/DX2                !
 ! A41   A(8,22,10)             51.8481         estimate D2E/DX2                !
 ! A42   A(8,22,20)            125.7067         estimate D2E/DX2                !
 ! A43   A(14,23,25)           128.0111         estimate D2E/DX2                !
 ! A44   A(24,23,25)           106.4812         estimate D2E/DX2                !
 ! A45   A(7,24,14)             51.5558         estimate D2E/DX2                !
 ! A46   A(7,24,23)            125.4487         estimate D2E/DX2                !
 ! A47   A(15,26,27)            88.5999         estimate D2E/DX2                !
 ! A48   A(15,26,28)           138.5555         estimate D2E/DX2                !
 ! A49   A(27,26,28)           106.4529         estimate D2E/DX2                !
 ! A50   A(5,27,26)            143.9609         estimate D2E/DX2                !
 ! D1    D(3,1,2,4)           -179.8576         estimate D2E/DX2                !
 ! D2    D(2,1,3,6)           -112.3924         estimate D2E/DX2                !
 ! D3    D(2,1,3,8)             74.3178         estimate D2E/DX2                !
 ! D4    D(1,2,4,5)            108.8321         estimate D2E/DX2                !
 ! D5    D(1,2,4,7)            -78.3028         estimate D2E/DX2                !
 ! D6    D(1,3,6,18)          -141.7382         estimate D2E/DX2                !
 ! D7    D(8,3,6,18)            30.1154         estimate D2E/DX2                !
 ! D8    D(1,3,8,9)            171.0826         estimate D2E/DX2                !
 ! D9    D(1,3,8,22)            -6.3718         estimate D2E/DX2                !
 ! D10   D(6,3,8,9)             -1.7092         estimate D2E/DX2                !
 ! D11   D(6,3,8,22)          -179.1635         estimate D2E/DX2                !
 ! D12   D(2,4,5,27)          -174.2838         estimate D2E/DX2                !
 ! D13   D(7,4,5,27)            14.395          estimate D2E/DX2                !
 ! D14   D(2,4,7,13)          -169.0617         estimate D2E/DX2                !
 ! D15   D(2,4,7,24)            30.6916         estimate D2E/DX2                !
 ! D16   D(5,4,7,13)             3.2701         estimate D2E/DX2                !
 ! D17   D(5,4,7,24)          -156.9766         estimate D2E/DX2                !
 ! D18   D(4,5,27,26)           11.1176         estimate D2E/DX2                !
 ! D19   D(3,6,18,17)            1.0947         estimate D2E/DX2                !
 ! D20   D(4,7,13,14)         -175.341          estimate D2E/DX2                !
 ! D21   D(4,7,13,15)          -56.812          estimate D2E/DX2                !
 ! D22   D(4,7,13,16)           66.1093         estimate D2E/DX2                !
 ! D23   D(24,7,13,14)          -7.3782         estimate D2E/DX2                !
 ! D24   D(24,7,13,15)         111.1508         estimate D2E/DX2                !
 ! D25   D(24,7,13,16)        -125.9279         estimate D2E/DX2                !
 ! D26   D(4,7,24,14)          166.762          estimate D2E/DX2                !
 ! D27   D(4,7,24,23)          177.4034         estimate D2E/DX2                !
 ! D28   D(13,7,24,14)           4.3789         estimate D2E/DX2                !
 ! D29   D(13,7,24,23)          15.0203         estimate D2E/DX2                !
 ! D30   D(3,8,9,10)          -179.8247         estimate D2E/DX2                !
 ! D31   D(3,8,9,11)           -61.2398         estimate D2E/DX2                !
 ! D32   D(3,8,9,12)            61.6378         estimate D2E/DX2                !
 ! D33   D(22,8,9,10)           -1.4163         estimate D2E/DX2                !
 ! D34   D(22,8,9,11)          117.1687         estimate D2E/DX2                !
 ! D35   D(22,8,9,12)         -119.9538         estimate D2E/DX2                !
 ! D36   D(3,8,22,10)          178.5393         estimate D2E/DX2                !
 ! D37   D(3,8,22,20)         -166.3629         estimate D2E/DX2                !
 ! D38   D(9,8,22,10)            0.8307         estimate D2E/DX2                !
 ! D39   D(9,8,22,20)           15.9285         estimate D2E/DX2                !
 ! D40   D(8,9,10,20)           -4.6719         estimate D2E/DX2                !
 ! D41   D(8,9,10,22)            1.3733         estimate D2E/DX2                !
 ! D42   D(11,9,10,20)        -121.6418         estimate D2E/DX2                !
 ! D43   D(11,9,10,22)        -115.5966         estimate D2E/DX2                !
 ! D44   D(12,9,10,20)         112.0176         estimate D2E/DX2                !
 ! D45   D(12,9,10,22)         118.0628         estimate D2E/DX2                !
 ! D46   D(8,9,11,17)           95.1621         estimate D2E/DX2                !
 ! D47   D(10,9,11,17)        -153.255          estimate D2E/DX2                !
 ! D48   D(12,9,11,17)         -26.5792         estimate D2E/DX2                !
 ! D49   D(9,10,20,21)         -89.566          estimate D2E/DX2                !
 ! D50   D(9,10,22,8)           -1.1346         estimate D2E/DX2                !
 ! D51   D(9,11,17,18)         -44.8194         estimate D2E/DX2                !
 ! D52   D(9,11,17,19)        -161.7663         estimate D2E/DX2                !
 ! D53   D(7,13,14,23)           5.9031         estimate D2E/DX2                !
 ! D54   D(7,13,14,24)           7.5115         estimate D2E/DX2                !
 ! D55   D(15,13,14,23)       -111.4401         estimate D2E/DX2                !
 ! D56   D(15,13,14,24)       -109.8317         estimate D2E/DX2                !
 ! D57   D(16,13,14,23)        122.3332         estimate D2E/DX2                !
 ! D58   D(16,13,14,24)        123.9416         estimate D2E/DX2                !
 ! D59   D(7,13,15,26)          99.9632         estimate D2E/DX2                !
 ! D60   D(14,13,15,26)       -148.3132         estimate D2E/DX2                !
 ! D61   D(16,13,15,26)        -21.6833         estimate D2E/DX2                !
 ! D62   D(13,14,23,25)       -100.4535         estimate D2E/DX2                !
 ! D63   D(13,14,24,7)          -6.0768         estimate D2E/DX2                !
 ! D64   D(13,15,26,27)        -55.9321         estimate D2E/DX2                !
 ! D65   D(13,15,26,28)       -169.5322         estimate D2E/DX2                !
 ! D66   D(11,17,18,6)         -12.7723         estimate D2E/DX2                !
 ! D67   D(19,17,18,6)         128.577          estimate D2E/DX2                !
 ! D68   D(10,20,21,22)         92.0406         estimate D2E/DX2                !
 ! D69   D(21,20,22,8)         117.097          estimate D2E/DX2                !
 ! D70   D(14,23,24,25)       -127.1952         estimate D2E/DX2                !
 ! D71   D(25,23,24,7)         118.5652         estimate D2E/DX2                !
 ! D72   D(15,26,27,5)          -9.2252         estimate D2E/DX2                !
 ! D73   D(28,26,27,5)         131.5451         estimate D2E/DX2                !
 --------------------------------------------------------------------------------
 Trust Radius=3.00D-01 FncErr=1.00D-07 GrdErr=1.00D-06
 Number of steps in this run=    166 maximum allowed number of steps=    168.
 GradGradGradGradGradGradGradGradGradGradGradGradGradGradGradGradGradGrad

                          Input orientation:                          
 ---------------------------------------------------------------------
 Center     Atomic      Atomic             Coordinates (Angstroms)
 Number     Number       Type             X           Y           Z
 ---------------------------------------------------------------------
      1          7           0        0.396317   -0.249421    0.254206
      2          7           0       -0.366075    0.242278   -0.577003
      3          6           0        1.807042   -0.499019   -0.089093
      4          6           0       -1.776217    0.497098   -0.239209
      5          8           0       -2.220447    1.605857   -0.083354
      6          8           0        2.268108   -1.607175   -0.188016
      7          8           0       -2.444615   -0.677277   -0.305400
      8          8           0        2.456144    0.687726   -0.109351
      9          6           0        3.916588    0.662529   -0.232710
     10          1           0        4.149790    1.740254   -0.217868
     11          1           0        4.354830    0.133002    0.624920
     12          1           0        4.196687    0.193417   -1.179377
     13          6           0       -3.908611   -0.629280   -0.248015
     14          1           0       -4.156652   -1.704021   -0.233693
     15          1           0       -4.236856   -0.120933    0.669089
     16          1           0       -4.289615   -0.128634   -1.141815
     17          8           0        4.952295   -1.937359    0.827404
     18          1           0        4.137874   -2.241885    0.406233
     19          1           0        5.139416   -2.553462    1.531932
     20          8           0        2.742982    3.554713   -0.185707
     21          1           0        2.358495    4.048517   -0.906977
     22          1           0        2.110061    2.869147    0.043402
     23          8           0       -2.876782   -3.569521   -0.104207
     24          1           0       -2.182390   -2.911341   -0.017766
     25          1           0       -2.611753   -4.151467   -0.813789
     26          8           0       -4.907340    1.933263    0.921641
     27          1           0       -4.073087    2.228299    0.533302
     28          1           0       -5.104061    2.539323    1.632066
 ---------------------------------------------------------------------
                    Distance matrix (angstroms):
                    1          2          3          4          5
     1  N    0.000000
     2  N    1.230414   0.000000
     3  C    1.473193   2.347342   0.000000
     4  C    2.349607   1.472256   3.722167   0.000000
     5  O    3.225439   2.354088   4.544360   1.204565   0.000000
     6  O    2.354285   3.242022   1.204316   4.559293   5.521019
     7  O    2.926963   2.289034   4.260886   1.352884   2.304833
     8  O    2.292009   2.895176   1.352815   4.238642   4.765936
     9  C    3.668930   4.316984   2.412468   5.695212   6.210908
    10  H    4.274368   4.771367   3.243362   6.055035   6.373074
    11  H    3.994183   4.872731   2.720384   6.202340   6.775339
    12  H    4.085839   4.602612   2.716356   6.054066   6.661521
    13  C    4.350738   3.662978   5.719346   2.411620   2.805860
    14  H    4.804522   4.274859   6.085933   3.242133   3.837549
    15  H    4.653486   4.082599   6.102990   2.694756   2.759326
    16  H    4.890953   3.981301   6.197954   2.742883   2.900044
    17  O    4.892303   5.916776   3.577905   7.234440   8.051838
    18  H    4.241730   5.236733   2.952238   6.549435   7.448024
    19  H    5.425696   6.524891   4.237119   7.763301   8.606780
    20  O    4.491302   4.559778   4.161497   5.456650   5.333305
    21  H    4.865260   4.692507   4.653291   5.491296   5.254679
    22  H    3.564663   3.662867   3.384364   4.561759   4.512789
    23  O    4.675971   4.588790   5.600573   4.215075   5.216871
    24  H    3.716116   3.681991   4.662612   3.439690   4.517834
    25  H    5.041335   4.940054   5.778521   4.757880   5.816652
    26  O    5.773938   5.072322   7.212524   3.635117   2.887318
    27  H    5.117867   4.349597   6.511648   2.978161   2.049384
    28  H    6.318999   5.710071   7.743207   4.329769   3.482708
                    6          7          8          9         10
     6  O    0.000000
     7  O    4.805023   0.000000
     8  O    2.303935   5.091081   0.000000
     9  C    2.805537   6.501174   1.465861   0.000000
    10  H    3.840169   7.024122   1.997005   1.102767   0.000000
    11  H    2.836105   6.910463   2.109948   1.099083   1.826360
    12  H    2.818571   6.754912   2.102091   1.093023   1.821923
    13  C    6.253938   1.465906   6.501064   7.931125   8.399609
    14  H    6.425652   1.997603   7.033135   8.412952   8.992233
    15  H    6.727414   2.114539   6.786468   8.240492   8.636350
    16  H    6.789665   2.098720   6.872968   8.294226   8.693099
    17  O    2.888764   7.588500   3.741571   2.992649   3.906590
    18  H    2.062041   6.803204   3.417113   2.982086   4.030766
    19  H    3.478231   8.025795   4.516532   3.866765   4.741008
    20  O    5.183686   6.695911   2.882312   3.121584   2.296172
    21  H    5.701923   6.764975   3.455526   3.787770   3.001947
    22  H    4.485085   5.783067   2.213979   2.865125   2.345881
    23  O    5.507061   2.931266   6.823802   8.004788   8.807914
    24  H    4.640772   2.267716   5.871769   7.072219   7.859636
    25  H    5.538778   3.515166   7.042556   8.132124   8.988101
    26  O    8.077939   3.792830   7.538913   8.989382   9.130572
    27  H    7.445933   3.434780   6.739230   8.177611   8.271526
    28  H    8.651880   4.601407   7.976067   9.400630   9.470719
                   11         12         13         14         15
    11  H    0.000000
    12  H    1.812222   0.000000
    13  C    8.344312   8.200007   0.000000
    14  H    8.749697   8.618170   1.103086   0.000000
    15  H    8.595551   8.639461   1.098745   1.824175   0.000000
    16  H    8.827017   8.492494   1.093018   1.823241   1.811689
    17  O    2.164338   3.022965   9.021267   9.173510   9.368296
    18  H    2.394782   2.906598   8.232524   8.336544   8.643126
    19  H    2.941995   3.973069   9.420057   9.500309   9.725028
    20  O    3.868239   3.794595   7.858331   8.675341   7.934683
    21  H    4.654387   4.279597   7.848097   8.717347   7.960336
    22  H    3.586592   3.606761   6.967663   7.762882   7.043821
    23  O    8.156992   8.083913   3.119354   2.266037   3.786891
    24  H    7.239911   7.188984   2.870654   2.324211   3.532560
    25  H    8.304206   8.084957   3.795753   2.951816   4.591851
    26  O    9.440168   9.503928   2.988676   3.889494   2.175558
    27  H    8.684955   8.686954   2.967030   4.007294   2.358845
    28  H    9.812000   9.995569   3.873480   4.731238   2.959110
                   16         17         18         19         20
    16  H    0.000000
    17  O    9.620926   0.000000
    18  H    8.825240   0.966128   0.000000
    19  H   10.096303   0.954441   1.538624   0.000000
    20  O    7.996162   6.005857   5.991383   6.782550   0.000000
    21  H    7.855005   6.750303   6.667823   7.567557   0.954936
    22  H    7.165702   5.638746   5.510564   6.387284   0.960771
    23  O    3.861662   8.051478   7.157413   8.244317   9.074310
    24  H    3.667062   7.250288   6.369748   7.492562   8.130028
    25  H    4.371042   8.050504   7.119861   8.254493   9.404939
    26  O    2.981754  10.592592   9.975640  11.020003   7.898275
    27  H    2.899661   9.944683   9.349790  10.427498   6.981056
    28  H    3.933921  11.037140  10.477403  11.440075   8.118584
                   21         22         23         24         25
    21  H    0.000000
    22  H    1.534879   0.000000
    23  O    9.278312   8.145357   0.000000
    24  H    8.357629   7.200203   0.960652   0.000000
    25  H    9.589149   8.504077   0.955201   1.534900   0.000000
    26  O    7.785275   7.133800   5.954508   5.637200   6.730927
    27  H    6.837605   6.235544   5.954182   5.504027   6.682183
    28  H    8.025843   7.394335   6.730036   6.400613   7.547216
                   26         27         28
    26  O    0.000000
    27  H    0.966350   0.000000
    28  H    0.954312   1.538482   0.000000
 Stoichiometry    C4H14N2O8
 Framework group  C1[X(C4H14N2O8)]
 Deg. of freedom    78
 Full point group                 C1      NOp   1
 Largest Abelian subgroup         C1      NOp   1
 Largest concise Abelian subgroup C1      NOp   1
                         Standard orientation:                         
 ---------------------------------------------------------------------
 Center     Atomic      Atomic             Coordinates (Angstroms)
 Number     Number       Type             X           Y           Z
 ---------------------------------------------------------------------
      1          7           0       -0.396317    0.249421    0.254206
      2          7           0        0.366075   -0.242278   -0.577003
      3          6           0       -1.807042    0.499019   -0.089093
      4          6           0        1.776217   -0.497098   -0.239209
      5          8           0        2.220447   -1.605857   -0.083354
      6          8           0       -2.268108    1.607175   -0.188016
      7          8           0        2.444615    0.677277   -0.305400
      8          8           0       -2.456144   -0.687726   -0.109351
      9          6           0       -3.916588   -0.662529   -0.232710
     10          1           0       -4.149790   -1.740254   -0.217868
     11          1           0       -4.354830   -0.133002    0.624920
     12          1           0       -4.196687   -0.193417   -1.179377
     13          6           0        3.908611    0.629280   -0.248015
     14          1           0        4.156652    1.704021   -0.233693
     15          1           0        4.236856    0.120933    0.669089
     16          1           0        4.289615    0.128634   -1.141815
     17          8           0       -4.952295    1.937359    0.827404
     18          1           0       -4.137874    2.241885    0.406233
     19          1           0       -5.139416    2.553462    1.531932
     20          8           0       -2.742982   -3.554713   -0.185707
     21          1           0       -2.358495   -4.048517   -0.906977
     22          1           0       -2.110061   -2.869147    0.043402
     23          8           0        2.876782    3.569521   -0.104207
     24          1           0        2.182390    2.911341   -0.017766
     25          1           0        2.611753    4.151467   -0.813789
     26          8           0        4.907340   -1.933263    0.921641
     27          1           0        4.073087   -2.228299    0.533302
     28          1           0        5.104061   -2.539323    1.632066
 ---------------------------------------------------------------------
 Rotational constants (GHZ):      0.6590861      0.2412476      0.1824732
 Standard basis: def2SVP (5D, 7F)
 There are   280 symmetry adapted cartesian basis functions of A   symmetry.
 There are   266 symmetry adapted basis functions of A   symmetry.
   266 basis functions,   448 primitive gaussians,   280 cartesian basis functions
    58 alpha electrons       58 beta electrons
       nuclear repulsion energy       935.6454994609 Hartrees.
 NAtoms=   28 NActive=   28 NUniq=   28 SFac= 1.00D+00 NAtFMM=   60 NAOKFM=F Big=F
 Integral buffers will be    131072 words long.
 Raffenetti 2 integral format.
 Two-electron integral symmetry is turned on.
 Nuclear repulsion after empirical dispersion term =      935.6442276584 Hartrees.
 ------------------------------------------------------------------------------
 Polarizable Continuum Model (PCM)
 =================================
 Model                : C-PCM.
 Atomic radii         : UFF (Universal Force Field).
 Polarization charges : Total charges.
 Charge compensation  : None.
 Solution method      : On-the-fly selection.
 Cavity type          : Scaled VdW (van der Waals Surface) (Alpha=1.100).
 Cavity algorithm     : GePol (No added spheres)
                        Default sphere list used, NSphG=   28.
                        Lebedev-Laikov grids with approx.  5.0 points / Ang**2.
                        Smoothing algorithm: Karplus/York (Gamma=1.0000).
                        Polarization charges: spherical gaussians, with
                                              point-specific exponents (IZeta= 3).
                        Self-potential: point-specific (ISelfS= 7).
                        Self-field    : sphere-specific E.n sum rule (ISelfD= 2).
 1st derivatives      : Analytical E(r).r(x)/FMM algorithm (CHGder, D1EAlg=3).
                        Cavity 1st derivative terms included.
 Solvent              : Toluene, Eps=   2.374100 Eps(inf)=   2.238315
 ------------------------------------------------------------------------------
 One-electron integrals computed using PRISM.
   1 Symmetry operations used in ECPInt.
 ECPInt:  NShTT=    8001 NPrTT=   28665 LenC2=    6747 LenP2D=   16649.
 LDataN:  DoStor=T MaxTD1= 4 Len=   56
 NBasis=   266 RedAO= T EigKep=  4.77D-03  NBF=   266
 NBsUse=   266 1.00D-06 EigRej= -1.00D+00 NBFU=   266
 ExpMin= 1.22D-01 ExpMax= 2.27D+03 ExpMxC= 3.41D+02 IAcc=1 IRadAn=         1 AccDes= 0.00D+00
 Harris functional with IExCor= 1009 and IRadAn=       1 diagonalized for initial guess.
 HarFok:  IExCor= 1009 AccDes= 0.00D+00 IRadAn=         1 IDoV= 1 UseB2=F ITyADJ=14
 ICtDFT=  3500011 ScaDFX=  1.000000  1.000000  1.000000  1.000000
 FoFCou: FMM=F IPFlag=           0 FMFlag=      100000 FMFlg1=           0
         NFxFlg=           0 DoJE=T BraDBF=F KetDBF=T FulRan=T
         wScrn=  0.000000 ICntrl=     500 IOpCl=  0 I1Cent=   200000004 NGrid=           0
         NMat0=    1 NMatS0=      1 NMatT0=    0 NMatD0=    1 NMtDS0=    0 NMtDT0=    0
 Petite list used in FoFCou.
 Requested convergence on RMS density matrix=1.00D-08 within 128 cycles.
 Requested convergence on MAX density matrix=1.00D-06.
 Requested convergence on             energy=1.00D-06.
 No special actions if energy rises.
 Inv3:  Mode=1 IEnd=    19768467.
 Iteration    1 A*A^-1 deviation from unit magnitude is 1.25D-14 for   2554.
 Iteration    1 A*A^-1 deviation from orthogonality  is 3.05D-15 for   2554    945.
 Iteration    1 A^-1*A deviation from unit magnitude is 1.25D-14 for   2554.
 Iteration    1 A^-1*A deviation from orthogonality  is 3.50D-15 for   2562   2097.
 Error on total polarization charges =  0.00308
 SCF Done:  E(RM062X) =  -871.064159017     A.U. after   15 cycles
            NFock= 15  Conv=0.62D-08     -V/T= 2.0081

 **********************************************************************

            Population analysis using the SCF density.

 **********************************************************************

 Orbital symmetries:
       Occupied  (A) (A) (A) (A) (A) (A) (A) (A) (A) (A) (A) (A)
                 (A) (A) (A) (A) (A) (A) (A) (A) (A) (A) (A) (A)
                 (A) (A) (A) (A) (A) (A) (A) (A) (A) (A) (A) (A)
                 (A) (A) (A) (A) (A) (A) (A) (A) (A) (A) (A) (A)
                 (A) (A) (A) (A) (A) (A) (A) (A) (A) (A)
       Virtual   (A) (A) (A) (A) (A) (A) (A) (A) (A) (A) (A) (A)
                 (A) (A) (A) (A) (A) (A) (A) (A) (A) (A) (A) (A)
                 (A) (A) (A) (A) (A) (A) (A) (A) (A) (A) (A) (A)
                 (A) (A) (A) (A) (A) (A) (A) (A) (A) (A) (A) (A)
                 (A) (A) (A) (A) (A) (A) (A) (A) (A) (A) (A) (A)
                 (A) (A) (A) (A) (A) (A) (A) (A) (A) (A) (A) (A)
                 (A) (A) (A) (A) (A) (A) (A) (A) (A) (A) (A) (A)
                 (A) (A) (A) (A) (A) (A) (A) (A) (A) (A) (A) (A)
                 (A) (A) (A) (A) (A) (A) (A) (A) (A) (A) (A) (A)
                 (A) (A) (A) (A) (A) (A) (A) (A) (A) (A) (A) (A)
                 (A) (A) (A) (A) (A) (A) (A) (A) (A) (A) (A) (A)
                 (A) (A) (A) (A) (A) (A) (A) (A) (A) (A) (A) (A)
                 (A) (A) (A) (A) (A) (A) (A) (A) (A) (A) (A) (A)
                 (A) (A) (A) (A) (A) (A) (A) (A) (A) (A) (A) (A)
                 (A) (A) (A) (A) (A) (A) (A) (A) (A) (A) (A) (A)
                 (A) (A) (A) (A) (A) (A) (A) (A) (A) (A) (A) (A)
                 (A) (A) (A) (A) (A) (A) (A) (A) (A) (A) (A) (A)
                 (A) (A) (A) (A)
 The electronic state is 1-A.
 Alpha  occ. eigenvalues --  -19.70773 -19.70746 -19.66867 -19.66826 -19.61704
 Alpha  occ. eigenvalues --  -19.61498 -19.61192 -19.61028 -14.87088 -14.87008
 Alpha  occ. eigenvalues --  -10.74925 -10.74887 -10.60852 -10.60826  -1.25794
 Alpha  occ. eigenvalues --   -1.24576  -1.17343  -1.16271  -1.16241  -1.10001
 Alpha  occ. eigenvalues --   -1.09809  -1.09480  -1.09329  -0.90553  -0.83071
 Alpha  occ. eigenvalues --   -0.79058  -0.70803  -0.65476  -0.64862  -0.61542
 Alpha  occ. eigenvalues --   -0.61042  -0.60728  -0.59706  -0.59526  -0.58242
 Alpha  occ. eigenvalues --   -0.57675  -0.57431  -0.54773  -0.52455  -0.51808
 Alpha  occ. eigenvalues --   -0.49417  -0.49231  -0.48089  -0.47129  -0.46850
 Alpha  occ. eigenvalues --   -0.45146  -0.44985  -0.43408  -0.43188  -0.41545
 Alpha  occ. eigenvalues --   -0.41077  -0.40355  -0.40292  -0.38139  -0.37989
 Alpha  occ. eigenvalues --   -0.37354  -0.37267  -0.32658
 Alpha virt. eigenvalues --   -0.05411   0.02912   0.03077   0.09293   0.09438
 Alpha virt. eigenvalues --    0.10640   0.10783   0.13620   0.14333   0.15091
 Alpha virt. eigenvalues --    0.15444   0.18728   0.19675   0.20274   0.20361
 Alpha virt. eigenvalues --    0.20565   0.20803   0.20989   0.21238   0.23916
 Alpha virt. eigenvalues --    0.24745   0.29092   0.34605   0.37745   0.38350
 Alpha virt. eigenvalues --    0.43218   0.46655   0.46876   0.47388   0.48911
 Alpha virt. eigenvalues --    0.49859   0.50979   0.52101   0.52680   0.52723
 Alpha virt. eigenvalues --    0.52946   0.58860   0.60937   0.64503   0.64626
 Alpha virt. eigenvalues --    0.65995   0.66116   0.67408   0.67712   0.68249
 Alpha virt. eigenvalues --    0.68431   0.69999   0.70163   0.70774   0.71003
 Alpha virt. eigenvalues --    0.73943   0.74510   0.75578   0.75776   0.76918
 Alpha virt. eigenvalues --    0.79757   0.80888   0.82447   0.85211   0.88631
 Alpha virt. eigenvalues --    0.91012   0.95125   0.95404   0.97348   0.97796
 Alpha virt. eigenvalues --    0.99480   0.99886   1.00523   1.00723   1.01876
 Alpha virt. eigenvalues --    1.04093   1.06193   1.06417   1.07688   1.07801
 Alpha virt. eigenvalues --    1.11033   1.11342   1.12508   1.13819   1.14249
 Alpha virt. eigenvalues --    1.15354   1.16036   1.17327   1.17890   1.18177
 Alpha virt. eigenvalues --    1.20208   1.23454   1.25464   1.27597   1.28469
 Alpha virt. eigenvalues --    1.32001   1.32642   1.36019   1.36822   1.40718
 Alpha virt. eigenvalues --    1.41934   1.46285   1.46671   1.47081   1.47167
 Alpha virt. eigenvalues --    1.48920   1.49688   1.49980   1.50830   1.54588
 Alpha virt. eigenvalues --    1.55231   1.58179   1.59003   1.59866   1.60908
 Alpha virt. eigenvalues --    1.64124   1.65276   1.68417   1.68606   1.69612
 Alpha virt. eigenvalues --    1.70320   1.71184   1.72428   1.76529   1.76622
 Alpha virt. eigenvalues --    1.78908   1.80379   1.80889   1.82650   1.83843
 Alpha virt. eigenvalues --    1.85846   1.86033   1.86736   1.86908   1.88002
 Alpha virt. eigenvalues --    1.89535   1.94908   1.97130   1.97646   2.00515
 Alpha virt. eigenvalues --    2.00900   2.04054   2.07137   2.12824   2.13552
 Alpha virt. eigenvalues --    2.16551   2.24268   2.30409   2.30786   2.31260
 Alpha virt. eigenvalues --    2.31797   2.33371   2.33586   2.33759   2.35900
 Alpha virt. eigenvalues --    2.36999   2.37068   2.37621   2.39070   2.40953
 Alpha virt. eigenvalues --    2.46421   2.53883   2.58644   2.66382   2.66998
 Alpha virt. eigenvalues --    2.68233   2.68553   2.69805   2.71012   2.80129
 Alpha virt. eigenvalues --    2.82851   2.83912   2.85093   2.88483   2.89297
 Alpha virt. eigenvalues --    2.92433   2.93088   2.95808   2.97044   3.01766
 Alpha virt. eigenvalues --    3.01916   3.01962   3.02153   3.02729   3.03669
 Alpha virt. eigenvalues --    3.08530   3.08948   3.09084   3.09140   3.16900
 Alpha virt. eigenvalues --    3.17070   3.20722   3.23987   3.24357   3.24437
 Alpha virt. eigenvalues --    3.24924   3.25040   3.30445   3.34370   3.41271
 Alpha virt. eigenvalues --    3.41837   3.58002   3.58204   3.58785   3.59039
 Alpha virt. eigenvalues --    3.59991   3.62803   3.68790   3.70136   3.86624
 Alpha virt. eigenvalues --    3.86763   3.89385   3.89807
          Condensed to atoms (all electrons):
               1          2          3          4          5          6
     1  N    6.709984   0.357562   0.262257  -0.042183   0.000545  -0.066931
     2  N    0.357562   6.709439  -0.043158   0.262672  -0.067297   0.000540
     3  C    0.262257  -0.043158   4.346734   0.001572  -0.000183   0.664257
     4  C   -0.042183   0.262672   0.001572   4.340055   0.665312  -0.000172
     5  O    0.000545  -0.067297  -0.000183   0.665312   7.705913   0.000000
     6  O   -0.066931   0.000540   0.664257  -0.000172   0.000000   7.707064
     7  O    0.003048  -0.094073  -0.000345   0.376024  -0.069208   0.000004
     8  O   -0.094993   0.004019   0.373230  -0.000333   0.000004  -0.069459
     9  C    0.004606  -0.000406  -0.022960   0.000013   0.000000   0.002559
    10  H   -0.000089  -0.000017   0.004127  -0.000001   0.000000   0.000141
    11  H   -0.000119   0.000014  -0.001031   0.000001   0.000000  -0.000170
    12  H    0.000167  -0.000043  -0.003874  -0.000002   0.000000   0.003339
    13  C   -0.000409   0.004692   0.000012  -0.022396   0.002435   0.000000
    14  H   -0.000011  -0.000108   0.000000   0.003966   0.000140   0.000000
    15  H   -0.000008   0.000059  -0.000001  -0.001840   0.000367   0.000000
    16  H    0.000007  -0.000071   0.000001  -0.003080   0.002530   0.000000
    17  O   -0.000003   0.000000   0.001946   0.000000   0.000000  -0.007013
    18  H    0.000209  -0.000010  -0.003310   0.000001   0.000000   0.025000
    19  H    0.000002   0.000000   0.000134   0.000000   0.000000   0.000052
    20  O   -0.000007  -0.000018  -0.000019   0.000000   0.000000   0.000000
    21  H   -0.000002  -0.000018   0.000033   0.000000  -0.000001   0.000000
    22  H    0.000296   0.001104  -0.000530   0.000014   0.000052   0.000065
    23  O   -0.000015  -0.000001   0.000000  -0.000047   0.000000   0.000000
    24  H    0.001169   0.000043   0.000008  -0.000281   0.000056   0.000031
    25  H   -0.000012  -0.000001   0.000000   0.000016   0.000000  -0.000001
    26  O    0.000000  -0.000002   0.000000   0.000792  -0.006980   0.000000
    27  H   -0.000016   0.000228   0.000000  -0.002674   0.025368   0.000000
    28  H    0.000000   0.000001   0.000000   0.000127   0.000001   0.000000
               7          8          9         10         11         12
     1  N    0.003048  -0.094993   0.004606  -0.000089  -0.000119   0.000167
     2  N   -0.094073   0.004019  -0.000406  -0.000017   0.000014  -0.000043
     3  C   -0.000345   0.373230  -0.022960   0.004127  -0.001031  -0.003874
     4  C    0.376024  -0.000333   0.000013  -0.000001   0.000001  -0.000002
     5  O   -0.069208   0.000004   0.000000   0.000000   0.000000   0.000000
     6  O    0.000004  -0.069459   0.002559   0.000141  -0.000170   0.003339
     7  O    8.006047   0.000000   0.000000   0.000000   0.000000   0.000000
     8  O    0.000000   8.008286   0.215687  -0.024304  -0.019616  -0.024286
     9  C    0.000000   0.215687   4.591490   0.370387   0.382847   0.404092
    10  H    0.000000  -0.024304   0.370387   0.567604  -0.010448  -0.017143
    11  H    0.000000  -0.019616   0.382847  -0.010448   0.543961  -0.025956
    12  H    0.000000  -0.024286   0.404092  -0.017143  -0.025956   0.591277
    13  C    0.215567   0.000000   0.000000   0.000000   0.000000   0.000000
    14  H   -0.024212   0.000000   0.000000   0.000000   0.000000   0.000000
    15  H   -0.019041   0.000000   0.000000   0.000000   0.000000   0.000000
    16  H   -0.025196   0.000000   0.000000   0.000000   0.000000   0.000000
    17  O    0.000000   0.000058  -0.023383   0.000678   0.049230   0.001005
    18  H    0.000000  -0.000458   0.005997  -0.000078  -0.008484  -0.000098
    19  H    0.000000  -0.000031   0.000633  -0.000049  -0.001279  -0.000077
    20  O    0.000000  -0.003562  -0.014325   0.043685   0.000183  -0.000071
    21  H    0.000000  -0.000063   0.001164  -0.002173   0.000005  -0.000074
    22  H    0.000001   0.017311   0.001412  -0.012192   0.000106   0.000420
    23  O   -0.002650   0.000000   0.000000   0.000000   0.000000   0.000000
    24  H    0.016327   0.000001   0.000000   0.000000   0.000000   0.000000
    25  H   -0.000108   0.000000   0.000000   0.000000   0.000000   0.000000
    26  O    0.000098   0.000000   0.000000   0.000000   0.000000   0.000000
    27  H   -0.000389   0.000000   0.000000   0.000000   0.000000   0.000000
    28  H   -0.000026   0.000000   0.000000   0.000000   0.000000   0.000000
              13         14         15         16         17         18
     1  N   -0.000409  -0.000011  -0.000008   0.000007  -0.000003   0.000209
     2  N    0.004692  -0.000108   0.000059  -0.000071   0.000000  -0.000010
     3  C    0.000012   0.000000  -0.000001   0.000001   0.001946  -0.003310
     4  C   -0.022396   0.003966  -0.001840  -0.003080   0.000000   0.000001
     5  O    0.002435   0.000140   0.000367   0.002530   0.000000   0.000000
     6  O    0.000000   0.000000   0.000000   0.000000  -0.007013   0.025000
     7  O    0.215567  -0.024212  -0.019041  -0.025196   0.000000   0.000000
     8  O    0.000000   0.000000   0.000000   0.000000   0.000058  -0.000458
     9  C    0.000000   0.000000   0.000000   0.000000  -0.023383   0.005997
    10  H    0.000000   0.000000   0.000000   0.000000   0.000678  -0.000078
    11  H    0.000000   0.000000   0.000000   0.000000   0.049230  -0.008484
    12  H    0.000000   0.000000   0.000000   0.000000   0.001005  -0.000098
    13  C    4.597187   0.368286   0.379545   0.405898   0.000000   0.000000
    14  H    0.368286   0.566313  -0.010834  -0.016258   0.000000   0.000000
    15  H    0.379545  -0.010834   0.551803  -0.026954   0.000000   0.000000
    16  H    0.405898  -0.016258  -0.026954   0.589157   0.000000   0.000000
    17  O    0.000000   0.000000   0.000000   0.000000   7.661930   0.330001
    18  H    0.000000   0.000000   0.000000   0.000000   0.330001   0.487669
    19  H    0.000000   0.000000   0.000000   0.000000   0.333911  -0.019850
    20  O    0.000000   0.000000   0.000000   0.000000   0.000000   0.000000
    21  H    0.000000   0.000000   0.000000   0.000000   0.000000   0.000000
    22  H    0.000000   0.000000   0.000000   0.000000   0.000000  -0.000002
    23  O   -0.016843   0.047756   0.000087   0.000057   0.000000   0.000000
    24  H    0.001712  -0.012640   0.000136   0.000369   0.000000   0.000000
    25  H    0.001103  -0.002094   0.000008  -0.000071   0.000000   0.000000
    26  O   -0.022429   0.000688   0.048545   0.001480   0.000000   0.000000
    27  H    0.005501  -0.000078  -0.008767   0.000114   0.000000   0.000000
    28  H    0.000586  -0.000049  -0.001084  -0.000093   0.000000   0.000000
              19         20         21         22         23         24
     1  N    0.000002  -0.000007  -0.000002   0.000296  -0.000015   0.001169
     2  N    0.000000  -0.000018  -0.000018   0.001104  -0.000001   0.000043
     3  C    0.000134  -0.000019   0.000033  -0.000530   0.000000   0.000008
     4  C    0.000000   0.000000   0.000000   0.000014  -0.000047  -0.000281
     5  O    0.000000   0.000000  -0.000001   0.000052   0.000000   0.000056
     6  O    0.000052   0.000000   0.000000   0.000065   0.000000   0.000031
     7  O    0.000000   0.000000   0.000000   0.000001  -0.002650   0.016327
     8  O   -0.000031  -0.003562  -0.000063   0.017311   0.000000   0.000001
     9  C    0.000633  -0.014325   0.001164   0.001412   0.000000   0.000000
    10  H   -0.000049   0.043685  -0.002173  -0.012192   0.000000   0.000000
    11  H   -0.001279   0.000183   0.000005   0.000106   0.000000   0.000000
    12  H   -0.000077  -0.000071  -0.000074   0.000420   0.000000   0.000000
    13  C    0.000000   0.000000   0.000000   0.000000  -0.016843   0.001712
    14  H    0.000000   0.000000   0.000000   0.000000   0.047756  -0.012640
    15  H    0.000000   0.000000   0.000000   0.000000   0.000087   0.000136
    16  H    0.000000   0.000000   0.000000   0.000000   0.000057   0.000369
    17  O    0.333911   0.000000   0.000000   0.000000   0.000000   0.000000
    18  H   -0.019850   0.000000   0.000000  -0.000002   0.000000   0.000000
    19  H    0.507754   0.000000   0.000000   0.000000   0.000000   0.000000
    20  O    0.000000   7.650530   0.338690   0.332102   0.000000   0.000000
    21  H    0.000000   0.338690   0.504331  -0.023263   0.000000   0.000000
    22  H    0.000000   0.332102  -0.023263   0.498468   0.000000   0.000000
    23  O    0.000000   0.000000   0.000000   0.000000   7.645167   0.332291
    24  H    0.000000   0.000000   0.000000   0.000000   0.332291   0.498456
    25  H    0.000000   0.000000   0.000000   0.000000   0.338507  -0.023171
    26  O    0.000000   0.000000   0.000000   0.000000   0.000000   0.000000
    27  H    0.000000   0.000000   0.000000   0.000000   0.000000  -0.000002
    28  H    0.000000   0.000000   0.000000   0.000000   0.000000   0.000000
              25         26         27         28
     1  N   -0.000012   0.000000  -0.000016   0.000000
     2  N   -0.000001  -0.000002   0.000228   0.000001
     3  C    0.000000   0.000000   0.000000   0.000000
     4  C    0.000016   0.000792  -0.002674   0.000127
     5  O    0.000000  -0.006980   0.025368   0.000001
     6  O   -0.000001   0.000000   0.000000   0.000000
     7  O   -0.000108   0.000098  -0.000389  -0.000026
     8  O    0.000000   0.000000   0.000000   0.000000
     9  C    0.000000   0.000000   0.000000   0.000000
    10  H    0.000000   0.000000   0.000000   0.000000
    11  H    0.000000   0.000000   0.000000   0.000000
    12  H    0.000000   0.000000   0.000000   0.000000
    13  C    0.001103  -0.022429   0.005501   0.000586
    14  H   -0.002094   0.000688  -0.000078  -0.000049
    15  H    0.000008   0.048545  -0.008767  -0.001084
    16  H   -0.000071   0.001480   0.000114  -0.000093
    17  O    0.000000   0.000000   0.000000   0.000000
    18  H    0.000000   0.000000   0.000000   0.000000
    19  H    0.000000   0.000000   0.000000   0.000000
    20  O    0.000000   0.000000   0.000000   0.000000
    21  H    0.000000   0.000000   0.000000   0.000000
    22  H    0.000000   0.000000   0.000000   0.000000
    23  O    0.338507   0.000000   0.000000   0.000000
    24  H   -0.023171   0.000000  -0.000002   0.000000
    25  H    0.503692   0.000000   0.000000   0.000000
    26  O    0.000000   7.663334   0.329998   0.333962
    27  H    0.000000   0.329998   0.487609  -0.019871
    28  H    0.000000   0.333962  -0.019871   0.508466
 Mulliken charges:
               1
     1  N   -0.135056
     2  N   -0.135151
     3  C    0.421099
     4  C    0.422445
     5  O   -0.259054
     6  O   -0.259307
     7  O   -0.381869
     8  O   -0.381489
     9  C    0.080186
    10  H    0.079872
    11  H    0.090757
    12  H    0.071324
    13  C    0.079554
    14  H    0.079138
    15  H    0.087980
    16  H    0.072109
    17  O   -0.348359
    18  H    0.183413
    19  H    0.178801
    20  O   -0.347188
    21  H    0.181370
    22  H    0.184634
    23  O   -0.344309
    24  H    0.185496
    25  H    0.182131
    26  O   -0.349486
    27  H    0.182978
    28  H    0.177981
 Sum of Mulliken charges =   0.00000
 Mulliken charges with hydrogens summed into heavy atoms:
               1
     1  N   -0.135056
     2  N   -0.135151
     3  C    0.421099
     4  C    0.422445
     5  O   -0.259054
     6  O   -0.259307
     7  O   -0.381869
     8  O   -0.381489
     9  C    0.322138
    13  C    0.318781
    17  O    0.013855
    20  O    0.018816
    23  O    0.023318
    26  O    0.011474
 Electronic spatial extent (au):  <R**2>=           5753.9956
 Charge=              0.0000 electrons
 Dipole moment (field-independent basis, Debye):
    X=              0.0913    Y=              0.2797    Z=             -1.0180  Tot=              1.0596
 Quadrupole moment (field-independent basis, Debye-Ang):
   XX=            -95.9185   YY=            -76.9489   ZZ=            -75.8978
   XY=            -11.6494   XZ=             -1.5124   YZ=             -1.0477
 Traceless Quadrupole moment (field-independent basis, Debye-Ang):
   XX=            -12.9967   YY=              5.9728   ZZ=              7.0239
   XY=            -11.6494   XZ=             -1.5124   YZ=             -1.0477
 Octapole moment (field-independent basis, Debye-Ang**2):
  XXX=             -0.9382  YYY=             11.7179  ZZZ=             10.4685  XYY=              6.3035
  XXY=              4.0444  XXZ=             17.3266  XZZ=              0.6752  YZZ=             -1.7287
  YYZ=            -18.6726  XYZ=            -58.6897
 Hexadecapole moment (field-independent basis, Debye-Ang**3):
 XXXX=          -5294.7845 YYYY=          -1401.3515 ZZZZ=           -156.2854 XXXY=           -237.1000
 XXXZ=            -20.8549 YYYX=           -257.5735 YYYZ=            -13.6199 ZZZX=              5.3301
 ZZZY=             -2.7941 XXYY=          -1044.1027 XXZZ=           -671.5303 YYZZ=           -218.6420
 XXYZ=            -10.8538 YYXZ=            -12.9615 ZZXY=            -65.2643
 N-N= 9.356442276584D+02 E-N=-3.917018675126D+03  KE= 8.640522429501D+02
   1 Symmetry operations used in ECPInt.
 ECPInt:  NShTT=    8001 NPrTT=   28665 LenC2=    6747 LenP2D=   16649.
 LDataN:  DoStor=T MaxTD1= 5 Len=  102
 D1PCM: C-PCM CHGder 1st derivatives, ID1Alg=3 FixD1E=F DoIter=F DoCFld=F I1PDM=0.
 Calling FoFJK, ICntrl=      2127 FMM=F ISym2X=0 I1Cent= 0 IOpClX= 0 NMat=1 NMatS=1 NMatT=0.
 ***** Axes restored to original set *****
 -------------------------------------------------------------------
 Center     Atomic                   Forces (Hartrees/Bohr)
 Number     Number              X              Y              Z
 -------------------------------------------------------------------
      1        7          -0.010266412   -0.002817815    0.003828243
      2        7           0.010044923    0.002653240   -0.003488215
      3        6           0.006742751    0.023789809   -0.004777196
      4        6          -0.006496478   -0.023418444    0.004122693
      5        8           0.011281009   -0.022531373   -0.003911853
      6        8          -0.011707192    0.022391057    0.001510731
      7        8           0.009394872    0.035581745    0.001853118
      8        8          -0.008714097   -0.036162823   -0.000902068
      9        6          -0.013523319    0.013680815    0.007892101
     10        1           0.002432851   -0.007078077   -0.002591088
     11        1          -0.001983148   -0.001026306   -0.004588297
     12        1           0.000556619   -0.002081863   -0.001258651
     13        6           0.014018154   -0.014074886    0.006822053
     14        1          -0.002630397    0.007420712   -0.001726285
     15        1           0.001550143    0.001143026   -0.004607900
     16        1          -0.000869178    0.002431032   -0.001090505
     17        8           0.003072622    0.005557966   -0.006122174
     18        1          -0.000982083    0.000018541    0.001904338
     19        1          -0.000746974   -0.007389155    0.005597197
     20        8           0.010087534    0.000938813    0.008882352
     21        1          -0.005990139    0.001688693   -0.006385562
     22        1          -0.004134359   -0.002663200   -0.002529313
     23        8          -0.008957905    0.000613215    0.009513299
     24        1           0.004256906    0.002386376   -0.002883268
     25        1           0.005081423   -0.002668031   -0.006585654
     26        8          -0.003104052   -0.005230046   -0.006410355
     27        1           0.000873236   -0.000402103    0.002130091
     28        1           0.000712688    0.007249084    0.005802166
 -------------------------------------------------------------------
 Cartesian Forces:  Max     0.036162823 RMS     0.009448948

 GradGradGradGradGradGradGradGradGradGradGradGradGradGradGradGradGradGrad
 Berny optimization.
 FormGI is forming the generalized inverse of G from B-inverse, IUseBI=4.
 Internal  Forces:  Max     0.037813191 RMS     0.007523992
 Search for a local minimum.
 Step number   1 out of a maximum of  166
 All quantities printed in internal units (Hartrees-Bohrs-Radians)
 Mixed Optimization -- RFO/linear search
 Second derivative matrix not updated -- first step.
 ITU=  0
     Eigenvalues ---    0.00407   0.00443   0.00600   0.00605   0.00724
     Eigenvalues ---    0.00736   0.00816   0.00866   0.00995   0.01036
     Eigenvalues ---    0.01444   0.01612   0.02494   0.02657   0.02753
     Eigenvalues ---    0.02758   0.03102   0.03117   0.03538   0.03661
     Eigenvalues ---    0.03722   0.04137   0.04222   0.04337   0.04447
     Eigenvalues ---    0.04810   0.05003   0.05590   0.05676   0.05897
     Eigenvalues ---    0.06293   0.06422   0.06535   0.07117   0.07247
     Eigenvalues ---    0.07863   0.08631   0.09940   0.10399   0.10983
     Eigenvalues ---    0.11515   0.11973   0.12314   0.14245   0.14268
     Eigenvalues ---    0.17178   0.17374   0.20489   0.20542   0.21828
     Eigenvalues ---    0.22604   0.24895   0.24906   0.25000   0.25000
     Eigenvalues ---    0.31227   0.31403   0.31806   0.31901   0.33026
     Eigenvalues ---    0.33077   0.34466   0.34466   0.35361   0.35472
     Eigenvalues ---    0.52319   0.52385   0.52795   0.53569   0.53685
     Eigenvalues ---    0.53691   0.56519   0.56577   0.56687   0.56715
     Eigenvalues ---    0.90914   0.98184   0.98563
 RFO step:  Lambda=-2.12280803D-02 EMin= 4.06826187D-03
 Linear search not attempted -- first point.
 Iteration  1 RMS(Cart)=  0.09291727 RMS(Int)=  0.00119685
 Iteration  2 RMS(Cart)=  0.00220044 RMS(Int)=  0.00013089
 Iteration  3 RMS(Cart)=  0.00000269 RMS(Int)=  0.00013088
 Iteration  4 RMS(Cart)=  0.00000000 RMS(Int)=  0.00013088
 Variable       Old X    -DE/DX   Delta X   Delta X   Delta X     New X
                                 (Linear)    (Quad)   (Total)
    R1        2.32514  -0.02496   0.00000  -0.02682  -0.02682   2.29832
    R2        2.78393  -0.02502   0.00000  -0.06676  -0.06676   2.71717
    R3        2.78216  -0.02534   0.00000  -0.06742  -0.06742   2.71475
    R4        2.27583  -0.02394   0.00000  -0.02386  -0.02383   2.25199
    R5        2.55645  -0.03752   0.00000  -0.06918  -0.06915   2.48730
    R6        2.27630  -0.02393   0.00000  -0.02395  -0.02391   2.25239
    R7        2.55658  -0.03781   0.00000  -0.06964  -0.06963   2.48695
    R8        3.87277  -0.00019   0.00000  -0.00368  -0.00364   3.86914
    R9        3.89669  -0.00044   0.00000  -0.00730  -0.00726   3.88943
   R10        2.77016  -0.00907   0.00000  -0.02812  -0.02811   2.74205
   R11        4.28536  -0.00078   0.00000  -0.00531  -0.00534   4.28002
   R12        2.77008  -0.00905   0.00000  -0.02875  -0.02871   2.74137
   R13        4.18381  -0.00015   0.00000   0.00055   0.00052   4.18434
   R14        2.08393  -0.00601   0.00000  -0.01882  -0.01877   2.06516
   R15        2.07697  -0.00216   0.00000  -0.00383  -0.00391   2.07306
   R16        2.06551   0.00212   0.00000   0.00581   0.00581   2.07132
   R17        4.33914  -0.00016   0.00000   0.00423   0.00437   4.34350
   R18        4.43307  -0.00019   0.00000   0.00180   0.00164   4.43471
   R19        4.09001   0.00069   0.00000   0.03592   0.03588   4.12589
   R20        2.08453  -0.00614   0.00000  -0.01971  -0.01968   2.06485
   R21        2.07633  -0.00261   0.00000  -0.00464  -0.00468   2.07164
   R22        2.06551   0.00231   0.00000   0.00632   0.00632   2.07183
   R23        4.28219   0.00076   0.00000   0.00930   0.00937   4.29156
   R24        4.39212  -0.00061   0.00000  -0.00053  -0.00063   4.39149
   R25        4.11121   0.00060   0.00000   0.03349   0.03345   4.14466
   R26        1.82572  -0.00152   0.00000  -0.00126  -0.00122   1.82449
   R27        1.80363   0.00876   0.00000   0.01489   0.01489   1.81852
   R28        1.80457   0.00810   0.00000   0.01379   0.01379   1.81836
   R29        1.81559   0.00323   0.00000   0.00717   0.00719   1.82278
   R30        1.81537   0.00352   0.00000   0.00756   0.00757   1.82294
   R31        1.80507   0.00793   0.00000   0.01353   0.01353   1.81860
   R32        1.82614  -0.00145   0.00000  -0.00127  -0.00124   1.82490
   R33        1.80339   0.00878   0.00000   0.01492   0.01492   1.81831
    A1        2.09859  -0.03065   0.00000  -0.11299  -0.11299   1.98560
    A2        2.10325  -0.03045   0.00000  -0.11226  -0.11226   1.99099
    A3        2.14320  -0.00737   0.00000  -0.02106  -0.02122   2.12198
    A4        1.89055   0.00192   0.00000   0.01317   0.01305   1.90360
    A5        2.24244   0.00563   0.00000   0.01078   0.01076   2.25320
    A6        2.14389  -0.00737   0.00000  -0.02165  -0.02172   2.12216
    A7        1.88782   0.00195   0.00000   0.01277   0.01272   1.90054
    A8        2.24355   0.00554   0.00000   0.01099   0.01096   2.25451
    A9        2.28086   0.00435   0.00000   0.01319   0.01329   2.29415
   A10        2.22270   0.00435   0.00000   0.01132   0.01141   2.23412
   A11        2.05226   0.00139   0.00000  -0.00163  -0.00167   2.05058
   A12        2.48461  -0.00100   0.00000   0.00423   0.00425   2.48886
   A13        1.71406  -0.00040   0.00000  -0.00357  -0.00356   1.71050
   A14        2.05355   0.00149   0.00000  -0.00181  -0.00178   2.05177
   A15        2.47884  -0.00098   0.00000   0.00683   0.00679   2.48563
   A16        1.75024  -0.00050   0.00000  -0.00478  -0.00479   1.74545
   A17        1.76477   0.00391   0.00000   0.01851   0.01849   1.78326
   A18        1.91758  -0.00132   0.00000   0.00004  -0.00021   1.91738
   A19        1.91301  -0.00129   0.00000  -0.00909  -0.00913   1.90388
   A20        1.95630   0.00034   0.00000   0.01067   0.01062   1.96692
   A21        1.95725  -0.00093   0.00000  -0.00338  -0.00336   1.95390
   A22        1.94644  -0.00044   0.00000  -0.01413  -0.01417   1.93227
   A23        2.26906  -0.00107   0.00000  -0.00755  -0.00758   2.26148
   A24        1.86285  -0.00193   0.00000  -0.01118  -0.01110   1.85175
   A25        2.27044   0.00073   0.00000   0.00966   0.00953   2.27997
   A26        1.76519   0.00355   0.00000   0.01582   0.01581   1.78100
   A27        1.92429  -0.00110   0.00000   0.00285   0.00253   1.92682
   A28        1.90828  -0.00123   0.00000  -0.00778  -0.00779   1.90048
   A29        1.95278   0.00052   0.00000   0.01002   0.00996   1.96274
   A30        1.95898  -0.00073   0.00000  -0.00155  -0.00154   1.95744
   A31        1.94604  -0.00073   0.00000  -0.01657  -0.01654   1.92950
   A32        2.31288  -0.00081   0.00000  -0.00854  -0.00857   2.30431
   A33        1.89263  -0.00169   0.00000  -0.01045  -0.01041   1.88222
   A34        2.24698   0.00043   0.00000   0.00749   0.00755   2.25453
   A35        1.59883  -0.00608   0.00000  -0.02175  -0.02181   1.57702
   A36        2.40485   0.00166   0.00000   0.00626   0.00578   2.41063
   A37        1.85833   0.00116   0.00000  -0.01963  -0.01968   1.83865
   A38        2.48648  -0.00311   0.00000  -0.00087  -0.00077   2.48571
   A39        2.27146  -0.00056   0.00000  -0.00534  -0.00561   2.26585
   A40        1.85861  -0.00210   0.00000  -0.02943  -0.02946   1.82916
   A41        0.90492  -0.00149   0.00000  -0.00273  -0.00280   0.90212
   A42        2.19400  -0.00153   0.00000   0.00177   0.00170   2.19570
   A43        2.23422  -0.00033   0.00000  -0.00330  -0.00377   2.23045
   A44        1.85845  -0.00279   0.00000  -0.03225  -0.03221   1.82624
   A45        0.89982  -0.00152   0.00000  -0.00285  -0.00292   0.89689
   A46        2.18949  -0.00091   0.00000   0.00361   0.00354   2.19303
   A47        1.54636  -0.00619   0.00000  -0.02390  -0.02399   1.52237
   A48        2.41825   0.00118   0.00000   0.00476   0.00421   2.42246
   A49        1.85795   0.00149   0.00000  -0.02055  -0.02055   1.83740
   A50        2.51259  -0.00291   0.00000   0.00032   0.00041   2.51300
    D1       -3.13911   0.00043   0.00000   0.00767   0.00767  -3.13143
    D2       -1.96162   0.00110   0.00000   0.01517   0.01504  -1.94658
    D3        1.29709  -0.00096   0.00000  -0.01007  -0.00993   1.28716
    D4        1.89948  -0.00042   0.00000   0.00266   0.00277   1.90225
    D5       -1.36664   0.00107   0.00000   0.02037   0.02025  -1.34639
    D6       -2.47380  -0.00061   0.00000  -0.01444  -0.01413  -2.48793
    D7        0.52561   0.00134   0.00000   0.01567   0.01576   0.54137
    D8        2.98595   0.00076   0.00000   0.01758   0.01784   3.00379
    D9       -0.11121   0.00029   0.00000   0.00787   0.00809  -0.10312
   D10       -0.02983  -0.00028   0.00000  -0.00675  -0.00680  -0.03663
   D11       -3.12699  -0.00076   0.00000  -0.01647  -0.01655   3.13965
   D12       -3.04183   0.00102   0.00000   0.01737   0.01724  -3.02458
   D13        0.25124  -0.00022   0.00000  -0.00353  -0.00346   0.24778
   D14       -2.95068  -0.00071   0.00000  -0.02134  -0.02149  -2.97217
   D15        0.53567  -0.00074   0.00000  -0.01524  -0.01534   0.52033
   D16        0.05707  -0.00034   0.00000  -0.00535  -0.00533   0.05175
   D17       -2.73976  -0.00037   0.00000   0.00075   0.00083  -2.73893
   D18        0.19404   0.00068   0.00000  -0.00003   0.00007   0.19411
   D19        0.01911   0.00047   0.00000  -0.01408  -0.01384   0.00527
   D20       -3.06028  -0.00028   0.00000  -0.00436  -0.00444  -3.06472
   D21       -0.99156   0.00172   0.00000   0.01668   0.01669  -0.97487
   D22        1.15382  -0.00074   0.00000  -0.00738  -0.00740   1.14642
   D23       -0.12877  -0.00053   0.00000  -0.00671  -0.00678  -0.13556
   D24        1.93995   0.00147   0.00000   0.01433   0.01434   1.95429
   D25       -2.19786  -0.00099   0.00000  -0.00973  -0.00974  -2.20760
   D26        2.91055   0.00041   0.00000  -0.00232  -0.00237   2.90817
   D27        3.09627  -0.00097   0.00000  -0.01520  -0.01520   3.08107
   D28        0.07643   0.00014   0.00000   0.00319   0.00319   0.07961
   D29        0.26215  -0.00125   0.00000  -0.00969  -0.00964   0.25251
   D30       -3.13853  -0.00062   0.00000  -0.01199  -0.01203   3.13262
   D31       -1.06884   0.00124   0.00000   0.00983   0.00988  -1.05896
   D32        1.07578  -0.00103   0.00000  -0.01381  -0.01378   1.06201
   D33       -0.02472  -0.00035   0.00000  -0.00565  -0.00573  -0.03045
   D34        2.04498   0.00151   0.00000   0.01617   0.01618   2.06116
   D35       -2.09359  -0.00076   0.00000  -0.00748  -0.00748  -2.10106
   D36        3.11610   0.00063   0.00000   0.01189   0.01194   3.12804
   D37       -2.90358  -0.00070   0.00000  -0.00891  -0.00887  -2.91245
   D38        0.01450   0.00017   0.00000   0.00315   0.00316   0.01766
   D39        0.27801  -0.00117   0.00000  -0.01765  -0.01764   0.26036
   D40       -0.08154   0.00080   0.00000   0.01711   0.01716  -0.06438
   D41        0.02397   0.00033   0.00000   0.00541   0.00548   0.02945
   D42       -2.12305   0.00002   0.00000   0.00224   0.00211  -2.12094
   D43       -2.01754  -0.00045   0.00000  -0.00946  -0.00957  -2.02711
   D44        1.95508   0.00108   0.00000   0.01539   0.01537   1.97045
   D45        2.06059   0.00061   0.00000   0.00368   0.00369   2.06428
   D46        1.66089  -0.00171   0.00000  -0.00162  -0.00163   1.65927
   D47       -2.67480   0.00244   0.00000   0.02667   0.02673  -2.64807
   D48       -0.46389   0.00112   0.00000   0.01932   0.01928  -0.44462
   D49       -1.56322   0.00176   0.00000   0.01220   0.01227  -1.55095
   D50       -0.01980  -0.00022   0.00000  -0.00423  -0.00423  -0.02403
   D51       -0.78225  -0.00028   0.00000  -0.00320  -0.00327  -0.78552
   D52       -2.82335   0.00449   0.00000   0.05174   0.05181  -2.77154
   D53        0.10303   0.00108   0.00000   0.01500   0.01496   0.11799
   D54        0.13110   0.00046   0.00000   0.00629   0.00635   0.13745
   D55       -1.94500   0.00017   0.00000  -0.00138  -0.00144  -1.94644
   D56       -1.91692  -0.00045   0.00000  -0.01008  -0.01005  -1.92698
   D57        2.13512   0.00132   0.00000   0.01409   0.01405   2.14916
   D58        2.16319   0.00069   0.00000   0.00538   0.00543   2.16862
   D59        1.74469  -0.00156   0.00000   0.00193   0.00190   1.74659
   D60       -2.58855   0.00240   0.00000   0.02835   0.02838  -2.56017
   D61       -0.37844   0.00125   0.00000   0.02105   0.02102  -0.35743
   D62       -1.75324   0.00301   0.00000   0.02570   0.02574  -1.72751
   D63       -0.10606  -0.00010   0.00000  -0.00404  -0.00403  -0.11009
   D64       -0.97620   0.00001   0.00000  -0.01156  -0.01150  -0.98770
   D65       -2.95890   0.00468   0.00000   0.04800   0.04809  -2.91080
   D66       -0.22292   0.00198   0.00000   0.01171   0.01142  -0.21150
   D67        2.24409   0.00124   0.00000  -0.00046   0.00001   2.24410
   D68        1.60641  -0.00265   0.00000  -0.02988  -0.02974   1.57667
   D69        2.04373   0.00052   0.00000   0.01000   0.01022   2.05395
   D70       -2.21997   0.00076   0.00000   0.00613   0.00587  -2.21410
   D71        2.06935   0.00055   0.00000   0.00482   0.00501   2.07436
   D72       -0.16101   0.00217   0.00000   0.01172   0.01138  -0.14963
   D73        2.29590   0.00123   0.00000  -0.00017   0.00038   2.29627
         Item               Value     Threshold  Converged?
 Maximum Force            0.037813     0.000450     NO 
 RMS     Force            0.007524     0.000300     NO 
 Maximum Displacement     0.324342     0.001800     NO 
 RMS     Displacement     0.094445     0.001200     NO 
 Predicted change in Energy=-1.142392D-02
 GradGradGradGradGradGradGradGradGradGradGradGradGradGradGradGradGradGrad

                          Input orientation:                          
 ---------------------------------------------------------------------
 Center     Atomic      Atomic             Coordinates (Angstroms)
 Number     Number       Type             X           Y           Z
 ---------------------------------------------------------------------
      1          7           0        0.337532   -0.253957    0.282899
      2          7           0       -0.315267    0.231571   -0.621150
      3          6           0        1.718382   -0.473510   -0.052527
      4          6           0       -1.693066    0.465999   -0.288763
      5          8           0       -2.119884    1.568466   -0.136952
      6          8           0        2.165455   -1.572095   -0.168259
      7          8           0       -2.341699   -0.678399   -0.328545
      8          8           0        2.344027    0.684226   -0.078015
      9          6           0        3.787048    0.664187   -0.225450
     10          1           0        4.033533    1.728861   -0.225078
     11          1           0        4.240073    0.124535    0.615374
     12          1           0        4.043435    0.184609   -1.177130
     13          6           0       -3.788962   -0.631587   -0.235152
     14          1           0       -4.050288   -1.692269   -0.210755
     15          1           0       -4.096244   -0.103557    0.675103
     16          1           0       -4.185952   -0.128350   -1.124628
     17          8           0        4.853908   -1.962566    0.800123
     18          1           0        4.027099   -2.248193    0.391518
     19          1           0        5.025197   -2.599690    1.500691
     20          8           0        2.639122    3.554672   -0.153999
     21          1           0        2.225002    4.042163   -0.872856
     22          1           0        2.003235    2.866696    0.075657
     23          8           0       -2.778073   -3.568979   -0.080912
     24          1           0       -2.078081   -2.907481   -0.026169
     25          1           0       -2.508353   -4.149535   -0.799481
     26          8           0       -4.777544    1.967677    0.912191
     27          1           0       -3.945079    2.238663    0.504598
     28          1           0       -4.932427    2.602471    1.618513
 ---------------------------------------------------------------------
                    Distance matrix (angstroms):
                    1          2          3          4          5
     1  N    0.000000
     2  N    1.216219   0.000000
     3  C    1.437867   2.226252   0.000000
     4  C    2.229004   1.436582   3.546330   0.000000
     5  O    3.088105   2.297473   4.348457   1.191912   0.000000
     6  O    2.298333   3.100371   1.191704   4.365379   5.313025
     7  O    2.780700   2.240555   4.074607   1.316038   2.265902
     8  O    2.244209   2.751679   1.316220   4.048476   4.551029
     9  C    3.605630   4.143998   2.367200   5.484062   5.976404
    10  H    4.224930   4.616364   3.200021   5.864538   6.156138
    11  H    3.934924   4.721395   2.676318   6.011339   6.565058
    12  H    4.007211   4.394269   2.665281   5.811696   6.401839
    13  C    4.175995   3.600083   5.512638   2.366506   2.763276
    14  H    4.643856   4.221370   5.898132   3.196984   3.790026
    15  H    4.453629   4.011031   5.871642   2.651169   2.713133
    16  H    4.739073   3.919852   6.010798   2.695627   2.850145
    17  O    4.856389   5.792635   3.574328   7.067281   7.872742
    18  H    4.195436   5.102045   2.945650   6.367881   7.254762
    19  H    5.381420   6.406153   4.227074   7.598397   8.432531
    20  O    4.471449   4.470978   4.133317   5.322209   5.156884
    21  H    4.832697   4.586604   4.617456   5.336793   5.053589
    22  H    3.543444   3.578391   3.354780   4.422532   4.327900
    23  O    4.563849   4.560860   5.459014   4.183479   5.179739
    24  H    3.601651   3.648994   4.509771   3.405519   4.477513
    25  H    4.944303   4.902603   5.651229   4.714730   5.769349
    26  O    5.612100   5.027635   7.006221   3.634740   2.885000
    27  H    4.960147   4.297821   6.304051   2.973773   2.047458
    28  H    6.141296   5.652913   7.515803   4.323850   3.472927
                    6          7          8          9         10
     6  O    0.000000
     7  O    4.597697   0.000000
     8  O    2.265175   4.886261   0.000000
     9  C    2.762932   6.274927   1.450671   0.000000
    10  H    3.793317   6.815364   1.991813   1.092834   0.000000
    11  H    2.792253   6.697418   2.095002   1.097014   1.822877
    12  H    2.762361   6.498832   2.084624   1.096095   1.814171
    13  C    6.028608   1.451029   6.274521   7.686030   8.170878
    14  H    6.217050   1.990247   6.822948   8.183944   8.777955
    15  H    6.486658   2.101471   6.531836   7.971619   8.382204
    16  H    6.583268   2.082684   6.663056   8.062591   8.474571
    17  O    2.884096   7.395927   3.751817   3.014933   3.917995
    18  H    2.058198   6.598813   3.413543   2.986675   4.024573
    19  H    3.466910   7.829982   4.523835   3.894286   4.764244
    20  O    5.148622   6.538955   2.886575   3.110907   2.298482
    21  H    5.658612   6.590503   3.452778   3.777545   3.006953
    22  H    4.448447   5.622235   2.214256   2.850211   2.346747
    23  O    5.332320   2.933803   6.657753   7.812899   8.630519
    24  H    4.450959   2.264892   5.697200   6.869953   7.673790
    25  H    5.374581   3.506899   6.887042   7.945659   8.813725
    26  O    7.867820   3.804535   7.303734   8.737594   8.887378
    27  H    7.232789   3.431356   6.504504   7.924502   8.028111
    28  H    8.426119   4.611617   7.713926   9.120657   9.195132
                   11         12         13         14         15
    11  H    0.000000
    12  H    1.804258   0.000000
    13  C    8.109286   7.930949   0.000000
    14  H    8.527212   8.364503   1.092673   0.000000
    15  H    8.339650   8.352735   1.096266   1.819578   0.000000
    16  H    8.607523   8.235503   1.096365   1.816428   1.802135
    17  O    2.183327   3.029316   8.805822   8.965469   9.142032
    18  H    2.392761   2.894727   8.006057   8.118865   8.406461
    19  H    2.970119   3.985837   9.196520   9.279918   9.492784
    20  O    3.862747   3.791598   7.671481   8.501872   7.709423
    21  H    4.650070   4.275512   7.643191   8.526509   7.716302
    22  H    3.579691   3.595203   6.773783   7.583623   6.810681
    23  O    7.961233   7.862829   3.110299   2.270997   3.783951
    24  H    7.037312   6.954041   2.854906   2.323879   3.525160
    25  H    8.112382   7.864690   3.786078   2.960121   4.589742
    26  O    9.208837   9.238737   3.008299   3.896809   2.193261
    27  H    8.454497   8.418058   2.968154   3.996878   2.353278
    28  H    9.554120   9.707099   3.899066   4.750704   2.985266
                   16         17         18         19         20
    16  H    0.000000
    17  O    9.422743   0.000000
    18  H    8.616650   0.965481   0.000000
    19  H    9.891667   0.962321   1.532975   0.000000
    20  O    7.815908   6.021257   5.991436   6.804962   0.000000
    21  H    7.652248   6.765114   6.664441   7.588743   0.962236
    22  H    6.979758   5.654463   5.509799   6.406586   0.964575
    23  O    3.861269   7.848816   6.948240   8.020723   8.949734
    24  H    3.656953   7.044720   6.154863   7.272041   8.001735
    25  H    4.369209   7.845027   6.909828   8.027900   9.288054
    26  O    2.981936  10.403088   9.775807  10.830554   7.659129
    27  H    2.883600   9.754990   9.148786  10.240493   6.746653
    28  H    3.942009  10.829666  10.261948  11.235240   7.834337
                   21         22         23         24         25
    21  H    0.000000
    22  H    1.526623   0.000000
    23  O    9.142615   8.018936   0.000000
    24  H    8.217721   7.071678   0.964658   0.000000
    25  H    9.461181   8.387359   0.962359   1.525072   0.000000
    26  O    7.518346   6.891080   5.969816   5.651088   6.745319
    27  H    6.574183   5.996737   5.952599   5.500018   6.676367
    28  H    7.714170   7.110107   6.753968   6.419645   7.570496
                   26         27         28
    26  O    0.000000
    27  H    0.965693   0.000000
    28  H    0.962208   1.532325   0.000000
 Stoichiometry    C4H14N2O8
 Framework group  C1[X(C4H14N2O8)]
 Deg. of freedom    78
 Full point group                 C1      NOp   1
 Largest Abelian subgroup         C1      NOp   1
 Largest concise Abelian subgroup C1      NOp   1
                         Standard orientation:                         
 ---------------------------------------------------------------------
 Center     Atomic      Atomic             Coordinates (Angstroms)
 Number     Number       Type             X           Y           Z
 ---------------------------------------------------------------------
      1          7           0       -0.339638    0.251558    0.282870
      2          7           0        0.317794   -0.231184   -0.619312
[...]
 0457,0.00000715,-0.00003623,-0.00001595,-0.00000787,-0.00004371,0.0000
 0048,-0.00001357,0.00028901,-0.00028732,-0.00000647,-0.00040665,0.0003
 4856,0.00001566,-0.00005249,0.00008212,-0.00003581,0.01425427,-0.23990
 108,-0.17463697,-0.01073408,0.25589361,0.18677402,-0.00008786,0.003251
 14,-0.00165521,-0.00296459,-0.00231906,0.00156891,0.00530402,0.0029678
 1,-0.00358199,-0.00332700,0.00054696,0.00087086,0.00114287,-0.00024417
 ,-0.00110278,-0.00154151,-0.00059083,0.00129555,0.00113466,0.00017742,
 0.00025436,-0.00099485,-0.00145156,0.00112020,-0.00052677,-0.00003062,
 -0.00031914,-0.00001169,-0.00002082,0.00007950,-0.00000246,0.00000346,
 0.00002918,-0.00064386,0.00006325,-0.00020391,-0.00060362,-0.00009318,
 -0.00016083,0.00010440,0.00002156,-0.00001101,0.00007339,0.00003676,0.
 00002892,0.00005109,-0.00000242,0.00002339,0.00004457,-0.00013919,0.00
 002854,-0.00003584,0.00010553,-0.00003232,-0.00000636,0.00003658,-0.00
 001774,-0.45661351,0.03917017,0.17319668,-0.00170217,-0.00562818,-0.00
 368937,0.46124551,-0.00029048,0.00090219,0.00283725,0.00234884,-0.0040
 7033,-0.00235413,0.00244156,-0.00180547,0.00285087,-0.00358581,0.00193
 655,-0.00005776,0.00152838,-0.00055062,-0.00103524,-0.00075553,0.00027
 606,-0.00061612,0.00131726,-0.00022894,0.00070376,-0.00132088,-0.00086
 710,-0.00076685,0.00070188,0.00012527,0.00010503,-0.00011945,-0.000011
 61,-0.00007214,-0.00007226,-0.00003488,-0.00000937,0.00012100,-0.00000
 990,0.00020057,-0.00040819,-0.00010690,-0.00007983,0.00005099,0.000004
 64,-0.00000128,0.00007673,0.00004388,0.00002109,0.00007400,0.00001988,
 0.00002914,-0.00021544,0.00014533,-0.00001278,0.00029004,-0.00017657,-
 0.00002042,0.00004777,-0.00004442,0.00003422,-0.00435307,-0.03357116,-
 0.02036761,0.03802203,-0.00552355,-0.01537882,-0.03584132,0.04361620,0
 .00088946,0.00051020,0.00094858,-0.00272011,-0.00029666,-0.00375211,-0
 .00439703,0.00399267,-0.00082648,0.00541971,-0.00151459,0.00160924,-0.
 00218287,0.00047077,0.00119241,0.00164636,-0.00088906,-0.00142426,-0.0
 0159741,0.00017716,-0.00134710,0.00187207,-0.00040058,0.00063302,-0.00
 216902,-0.00058010,-0.00011161,0.00014962,0.00014219,-0.00018797,0.000
 18912,0.00008032,-0.00010355,0.00069462,0.00030662,0.00031005,0.000553
 59,0.00007434,0.00008119,-0.00009417,-0.00000860,0.00001285,-0.0000639
 2,-0.00003672,-0.00001218,-0.00010950,-0.00000892,-0.00003573,0.000196
 28,-0.00012995,-0.00004980,-0.00028316,0.00015292,0.00008037,-0.000041
 37,0.00004710,-0.00001368,0.14260924,-0.03361894,-0.07491226,0.0271248
 3,-0.00234745,-0.00975698,-0.16778836,0.03386486,0.08780700,-0.0045204
 9,-0.00581773,-0.00238057,-0.00029836,0.00122351,0.00119933,0.00298768
 ,0.00003483,0.00106673,-0.00601436,0.00078507,0.00035092,0.00256182,0.
 00211370,-0.00086634,-0.00113155,0.00031186,0.00021858,0.00143159,0.00
 018458,0.00054927,-0.00115568,-0.00067168,-0.00059590,0.00038244,0.000
 15833,-0.00009033,-0.00006615,-0.00002120,-0.00001303,-0.00005266,-0.0
 0003391,0.00000957,-0.00004538,0.00000622,0.00000647,-0.00161157,-0.00
 031624,-0.00049384,0.00014908,0.00092353,0.00007640,0.00023354,0.00028
 189,-0.00011406,0.00017039,0.00049239,-0.00011587,-0.00018645,0.000101
 78,-0.00001655,0.00022490,-0.00011160,-0.00001559,0.00005994,-0.000035
 93,0.00003174,-0.00015061,-0.00024187,0.00029925,0.00003868,0.00005227
 ,-0.00016405,0.00016873,0.00029473,-0.00026931,0.48215904,-0.00414475,
 -0.00328865,-0.00063274,-0.00137688,0.00033994,-0.00000917,0.00482997,
 -0.00133308,0.00014943,0.00174305,0.00475480,-0.00205794,0.00066254,-0
 .00718007,-0.00102364,-0.00191399,0.00137760,0.00066216,0.00291352,-0.
 00568706,0.00228634,-0.00193152,-0.00059305,-0.00046165,0.00060144,0.0
 0014408,-0.00011978,-0.00010058,-0.00003576,-0.00000638,-0.00007047,-0
 .00006113,0.00001054,-0.00006232,-0.00000699,0.00001325,-0.00344384,-0
 .00041122,-0.00020441,0.00034304,-0.00069116,-0.00030886,0.00023091,0.
 00014450,0.00003855,0.00020415,-0.00023685,0.00019062,-0.00016966,0.00
 030872,0.00000129,0.00026600,-0.00029983,-0.00002387,0.00000227,-0.000
 10814,0.00001507,-0.00042941,-0.00019333,0.00047829,0.00009744,-0.0000
 2713,-0.00020328,0.00041618,0.00036155,-0.00051701,-0.07204813,0.08090
 823,-0.00143874,-0.00033804,-0.00026425,-0.00010474,-0.00013849,0.0008
 2204,0.00066553,-0.00053662,-0.00021002,0.00041047,-0.00033777,-0.0089
 2137,-0.00066049,-0.00402981,0.00241911,-0.00014869,0.00024227,0.00031
 091,-0.00039089,0.00404505,0.00206613,-0.00018190,0.00000396,0.0000459
 3,0.00004640,0.00003178,-0.00004845,-0.00001124,0.00000431,0.00000079,
 -0.00000772,-0.00000879,-0.00000717,-0.00001422,-0.00000678,-0.0000059
 2,0.00065278,0.00024119,0.00042215,0.00047554,-0.00039183,-0.00096824,
 0.00000079,0.00028394,-0.00021583,0.00000227,-0.00008486,0.00000539,-0
 .00001124,0.00001818,0.00006122,0.00001281,-0.00001961,-0.00005970,0.0
 0001503,-0.00000690,-0.00002342,0.00004266,0.00000889,0.00014085,-0.00
 006668,-0.00003622,-0.00004827,0.00000147,-0.00000788,-0.00012851,-0.0
 2002369,0.18020351,0.61336449,0.00070077,0.00063173,0.00143493,-0.0004
 2930,-0.00027604,-0.00122374,-0.00235357,-0.00004592,-0.00059911,0.003
 54784,0.00127978,-0.00261394,-0.00190581,-0.00151976,0.00182037,0.0007
 6269,-0.00028634,-0.00027371,-0.00047758,-0.00018297,0.00065129,0.0007
 8234,0.00046377,0.00039845,-0.00027255,-0.00010346,0.00005931,0.000047
 19,0.00001277,0.00000831,0.00003270,0.00002324,-0.00000342,0.00003598,
 -0.00000250,-0.00000244,-0.00028892,0.00014020,0.00000250,0.00024241,-
 0.00007816,-0.00020022,-0.00000851,0.00009827,-0.00007292,-0.00003228,
 -0.00000557,0.00001292,0.00012846,-0.00007875,-0.00000513,-0.00015359,
 0.00008468,0.00002829,-0.00004476,0.00003023,-0.00001466,0.00009892,0.
 00014451,-0.00021159,-0.00001238,-0.00001986,0.00010931,-0.00013063,-0
 .00017596,0.00020079,-0.14521247,-0.04332664,-0.22154836,0.13480917,0.
 00206603,-0.00078901,0.00034418,-0.00014470,-0.00082768,-0.00026299,-0
 .00367564,0.00129643,-0.00036399,0.00106278,-0.00394549,0.00753409,-0.
 00034983,0.00270347,-0.00215019,0.00132058,-0.00111358,-0.00048329,-0.
 00142320,-0.00089624,-0.00236042,0.00138028,0.00045907,0.00037392,-0.0
 0040599,-0.00009955,0.00010403,0.00007663,0.00002387,0.00000459,0.0000
 5123,0.00004202,-0.00000767,0.00004669,0.00000335,-0.00000649,0.001174
 86,-0.00001651,0.00023172,-0.00053714,0.00019066,0.00008353,-0.0000914
 0,-0.00013027,0.00004153,-0.00011748,-0.00002338,-0.00005134,0.0001194
 7,-0.00019817,0.00000805,-0.00018882,0.00019652,0.00001191,-0.00000009
 ,0.00006930,-0.00001573,0.00025700,0.00014267,-0.00033592,-0.00004362,
 0.00000938,0.00014031,-0.00026812,-0.00024892,0.00037781,-0.02872401,-
 0.02483758,-0.08749715,0.03486813,0.03020350,-0.00136918,-0.00272811,-
 0.00200892,0.00010620,0.00184969,0.00058160,0.00140587,0.00036131,0.00
 078979,-0.00075022,0.00297450,0.00090163,0.00067223,-0.00058424,-0.001
 63692,-0.00063897,0.00016637,0.00000447,0.00029361,-0.00067597,-0.0003
 2420,-0.00050216,-0.00032295,-0.00037713,0.00015413,0.00005304,-0.0000
 0951,-0.00002822,-0.00001659,-0.00000460,-0.00002314,-0.00001423,0.000
 00980,-0.00001849,0.00000445,0.00000416,-0.00038760,0.00003705,-0.0001
 0571,-0.00036324,0.00023573,-0.00013157,0.00002876,-0.00000563,0.00005
 143,0.00002710,-0.00004727,0.00003213,-0.00007253,0.00005041,-0.000044
 82,0.00010212,-0.00006092,0.00002406,0.00000631,-0.00001264,0.00003066
 ,-0.00012487,-0.00010687,0.00009976,0.00004181,0.00002102,-0.00005772,
 0.00010521,0.00014667,-0.00009680,-0.16747692,-0.09384216,-0.40298200,
 0.18654722,0.09739922,0.43173629,-0.00046675,0.00018794,0.00048239,-0.
 00022723,-0.00044524,-0.00063527,-0.00018829,-0.00141671,-0.00086241,0
 .00109251,0.00070859,0.00046333,-0.00029209,-0.00049843,-0.00002892,0.
 00048238,0.00086699,0.00042038,-0.00016875,-0.00051350,-0.00016130,0.0
 0020435,0.00046054,0.00033108,-0.00016801,-0.00005742,-0.00000190,0.00
 001063,0.00001182,0.00000783,0.00000830,0.00000604,-0.00000886,0.00002
 221,-0.00000809,-0.00000579,-0.00038594,-0.00000218,-0.00012934,0.0000
 6487,0.00014761,0.00022385,-0.00000935,-0.00000290,-0.00000272,0.00000
 017,0.00010742,-0.00001644,0.00010263,-0.00002016,0.00002663,-0.000111
 10,0.00002499,-0.00001124,-0.00003626,0.00000933,-0.00002490,0.0000064
 8,0.00012964,-0.00010165,-0.00000310,-0.00005160,0.00007243,-0.0000020
 0,-0.00008714,0.00004984,-0.33008339,0.11711441,0.24241512,0.01016519,
 -0.00666610,-0.01767639,0.31998504,0.00029668,0.00095419,0.00068615,-0
 .00005893,-0.00130399,-0.00042496,-0.00235002,-0.00018903,-0.00054840,
 0.00225353,-0.00163562,-0.00229547,-0.00106575,-0.00113254,0.00093278,
 0.00110552,-0.00044309,-0.00008882,-0.00082786,0.00104541,0.00031492,0
 .00084382,0.00040107,0.00031397,-0.00030619,-0.00007567,0.00003549,0.0
 0004338,0.00001817,0.00000651,0.00002891,0.00003169,-0.00000542,0.0000
 3211,0.,-0.00000826,0.00094138,-0.00000186,0.00018387,-0.00002679,-0.0
 0014070,-0.00007882,-0.00010902,-0.00002037,-0.00003369,-0.00007371,-0
 .00004216,-0.00001567,0.00009666,-0.00017522,-0.00000347,-0.00015054,0
 .00017262,0.00001321,-0.00000313,0.00006259,-0.00000381,0.00021756,0.0
 0014546,-0.00020507,-0.00008595,-0.00001555,0.00011541,-0.00018588,-0.
 00021337,0.00019323,0.10107223,-0.04343192,-0.09176706,0.00825893,-0.0
 0212600,-0.00487389,-0.11000269,0.04811984,0.00093340,0.00158292,0.001
 01007,0.00009678,-0.00052550,-0.00078483,-0.00120773,-0.00005422,-0.00
 006921,0.00023394,-0.00123481,0.00131954,-0.00017905,0.00060805,0.0001
 2017,0.00042957,-0.00020260,-0.00041582,-0.00030769,0.00002624,-0.0007
 0744,0.00033707,0.00012363,0.00012885,-0.00011602,-0.00005717,0.000035
 64,0.00001962,0.00000389,0.00000141,0.00001578,0.00001373,0.00000348,0
 .00002101,0.00000529,0.00000284,-0.00008517,-0.00004780,-0.00008011,0.
 00037689,-0.00011390,0.00030374,-0.00001014,-0.00000014,-0.00000952,-0
 .00002162,0.00015669,-0.00005075,0.00004858,-0.00003811,-0.00004484,-0
 .00006006,0.00004398,0.00005470,-0.00002395,0.00001160,0.00000826,0.00
 004337,0.00003087,-0.00018213,0.00003774,0.00004127,0.00007559,-0.0000
 8369,-0.00006553,0.00016425,0.18879541,-0.08487303,-0.20586599,0.03547
 767,-0.01298574,-0.02655184,-0.22481785,0.09757770,0.23156610,-0.00027
 786,0.00022951,0.00004769,-0.00106885,-0.00039066,0.00112636,0.0012679
 6,-0.00012899,-0.00018038,0.00170612,-0.00043309,-0.00840047,-0.006787
 24,0.00365837,0.00703455,-0.00054721,0.00028060,0.00019146,0.00124191,
 0.00009681,0.00268446,-0.00061272,-0.00021348,-0.00009816,0.00025844,0
 .00004716,-0.00002042,-0.00002568,-0.00001349,-0.00000463,-0.00001901,
 -0.00001431,0.00000386,-0.00002333,-0.00000294,0.00000794,0.00009565,0
 .00026821,0.00024427,0.00000088,0.00012162,0.00009766,-0.00222915,-0.0
 0039656,0.00020043,-0.00015276,0.00031996,0.00033216,-0.00009245,0.000
 08500,-0.00000044,0.00010713,-0.00008061,-0.00000918,0.00002595,-0.000
 03002,0.00001052,-0.00018134,-0.00008732,0.00021469,0.00003693,0.00000
 206,-0.00008292,0.00016323,0.00012767,-0.00022261,0.00003170,0.0007013
 1,0.00011431,0.00001522,-0.00037582,0.00009824,-0.00000034,-0.00013195
 ,-0.00008056,0.64228403,0.00026747,-0.00012915,-0.00004850,0.00038488,
 -0.00004862,-0.00037613,-0.00060237,-0.00009571,0.00001683,-0.00082385
 ,-0.00024969,0.00118564,0.00269715,0.00125639,-0.00179259,0.00023705,-
 0.00004627,-0.00004585,0.00134316,-0.00005636,-0.00043598,0.00030421,0
 .00018087,0.00009081,-0.00011325,-0.00002504,0.00000399,0.00001818,0.0
 0000409,0.00000540,0.00001172,0.00000398,-0.00000345,0.00001600,-0.000
 00266,-0.00000529,-0.00054815,0.00117117,-0.00063811,-0.00010685,0.000
 13578,0.00030922,-0.00012075,-0.00215721,-0.00062312,0.00042776,-0.000
 44138,-0.00047540,0.00004009,-0.00001068,0.00000689,-0.00004562,0.0000
 1879,-0.00000026,-0.00001346,0.00000256,-0.00000649,0.00006299,0.00008
 187,-0.00007709,-0.00001691,-0.00001389,0.00003101,-0.00006035,-0.0000
 9925,0.00007893,0.00014087,-0.00020924,-0.00007040,-0.00009566,0.00010
 416,-0.00002008,-0.00001082,0.00004531,0.00005092,0.04842835,0.4709387
 0,0.00039388,-0.00005564,0.00010719,0.00057552,0.00013352,-0.00012822,
 -0.00095847,-0.00016953,-0.00012942,-0.00319076,0.00068018,-0.00199130
 ,0.00282771,-0.00147126,0.00168717,0.00042465,-0.00013477,-0.00005190,
 0.00420860,-0.00039116,0.00107340,0.00043397,0.00023013,0.00017122,-0.
 00016444,-0.00003065,-0.00000705,0.00002432,0.00001244,0.00000373,0.00
 001463,0.00000615,-0.00000651,0.00001379,-0.00000109,-0.00000836,-0.00
 261553,0.00056939,-0.00104318,0.00033070,-0.00042475,-0.00043608,0.000
 13036,-0.00121281,-0.00141585,0.00075301,-0.00093191,-0.00092151,0.000
 06303,-0.00003950,0.00002869,-0.00007553,0.00004707,-0.00001374,-0.000
 01576,0.00001055,-0.00001919,0.00014966,0.00005114,-0.00006158,-0.0000
 4795,0.00000267,0.00002843,-0.00013524,-0.00008318,0.00007862,0.000157
 15,-0.00051746,0.00021843,0.00003083,0.00017346,-0.00020126,-0.0000183
 2,0.00012071,0.00002741,-0.07248936,-0.10709116,0.04264464,0.00033318,
 -0.00031198,-0.00004106,0.00159513,0.00064166,-0.00172254,-0.00165966,
 0.00015383,0.00021812,-0.00248222,0.00053191,0.01520046,-0.00133735,-0
 .00090577,-0.00817768,0.00069952,-0.00035376,-0.00024156,-0.00377236,-
 0.00019177,-0.00584485,0.00079677,0.00029469,0.00014225,-0.00031784,-0
 .00005824,0.00002407,0.00003741,0.00001675,0.00000582,0.00002639,0.000
 01728,-0.00000615,0.00003321,0.00000259,-0.00000985,0.00309270,-0.0002
 2514,0.00066678,-0.00031071,0.00002056,0.00008375,0.00036307,-0.000250
 77,-0.00129810,-0.00029554,0.00017825,0.00010413,0.00010686,-0.0000966
 0,0.00000407,-0.00012865,0.00009608,0.00000937,-0.00002770,0.00003292,
 -0.00001405,0.00022394,0.00013026,-0.00028146,-0.00003792,-0.00000450,
 0.00010371,-0.00020213,-0.00019238,0.00030025,-0.00012093,-0.00097057,
 -0.00018786,0.00000473,0.00051780,-0.00016870,-0.00000322,0.00015456,0
 .00010001,-0.44734563,0.13728914,0.01017243,0.47655565,-0.00036862,0.0
 0027367,0.00014051,-0.00073296,0.00010086,0.00096192,0.00084525,0.0000
 1965,-0.00011632,0.00079040,0.00026205,-0.00540105,0.00004967,-0.00284
 976,0.00294404,-0.00032199,0.00009738,0.00008282,0.00068498,-0.0000191
 5,0.00198762,-0.00043974,-0.00023004,-0.00011221,0.00015031,0.00002671
 ,-0.00000718,-0.00002595,-0.00000689,-0.00000524,-0.00001526,-0.000006
 31,0.00000427,-0.00002272,0.00000167,0.00000597,-0.00040510,-0.0002426
 7,-0.00011209,0.00013603,-0.00022634,-0.00024027,-0.00026297,0.0004687
 7,-0.00033516,-0.00007943,0.00004982,0.00015805,-0.00004940,0.00002355
 ,-0.00000717,0.00005956,-0.00003168,-0.00000118,0.00001454,-0.00000671
 ,0.00000804,-0.00008942,-0.00010020,0.00011858,0.00001714,0.00001325,-
 0.00004466,0.00008162,0.00012888,-0.00012535,-0.00009009,0.00035416,0.
 00014837,0.00010938,-0.00022522,0.00003742,0.00000500,-0.00005736,-0.0
 0006890,0.19028079,-0.10995111,0.00716316,-0.15025850,0.10370459,-0.00
 030781,0.00011558,-0.00007587,-0.00107598,-0.00040471,0.00081468,0.001
 09679,0.00007746,0.00003930,0.00457898,-0.00122304,-0.00520983,-0.0032
 3508,0.00169151,0.00085877,-0.00046751,0.00017973,0.00009527,-0.000552
 54,0.00037541,0.00095812,-0.00050124,-0.00023916,-0.00016368,0.0001840
 1,0.00003238,0.00000003,-0.00002796,-0.00001280,-0.00000373,-0.0000168
 4,-0.00000811,0.00000612,-0.00001848,0.00000012,0.00000778,0.00100418,
 -0.00066427,-0.00020300,-0.00006365,0.00004720,0.00012786,-0.00123053,
 -0.00036233,-0.00293099,-0.00037022,0.00044234,0.00049968,-0.00006483,
 0.00004726,-0.00002076,0.00008056,-0.00005415,0.00000724,0.00001510,-0
 .00001342,0.00001632,-0.00016181,-0.00007287,0.00012248,0.00003849,-0.
 00000088,-0.00004711,0.00014389,0.00011381,-0.00014173,-0.00005745,0.0
 0062819,-0.00007102,-0.00001590,-0.00026911,0.00020376,0.00000459,-0.0
 0011205,-0.00005236,-0.00246207,0.01115215,-0.00871126,-0.00790851,-0.
 00825429,0.01371478,0.00013204,-0.00004831,-0.00003648,0.00013085,-0.0
 0007851,-0.00009375,-0.00028710,0.00001880,0.00004500,-0.00058051,0.00
 014152,0.00064458,0.00045439,0.00066781,-0.00043926,0.00012680,-0.0000
 5784,-0.00004344,0.00022840,-0.00001450,-0.00027422,0.00014744,0.00005
 518,0.00002066,-0.00006669,-0.00001346,0.00000602,0.00000547,0.0000028
 3,0.00000164,0.00000435,0.00000362,-0.00000055,0.00000557,0.00000062,-
 0.00000218,-0.00029552,0.00010815,0.00002534,0.00000907,0.00005278,0.0
 0007759,-0.00005978,0.00033592,0.00069293,0.00012089,-0.00007911,-0.00
 015095,0.00002642,-0.00002123,-0.00000151,-0.00002835,0.00001929,0.000
 00342,-0.00000894,0.00000800,-0.00000198,0.00003952,0.00002005,-0.0000
 4625,-0.00001088,-0.00000217,0.00001998,-0.00003562,-0.00002495,0.0000
 4304,0.00005053,-0.00013746,-0.00005870,-0.00005127,0.00007048,0.00001
 183,0.00000106,0.00003315,0.00002669,-0.18787157,-0.18911098,0.0590071
 3,-0.02582669,-0.04006252,0.01139179,0.21364013,-0.00002186,-0.0000107
 1,0.00000883,0.00007176,0.00009056,-0.00007033,-0.00000800,0.00003240,
 0.00001448,-0.00006084,0.00007401,0.00046550,0.00049211,-0.00078272,-0
 .00034862,0.00000661,-0.00002181,-0.00000926,-0.00016992,-0.00008349,-
 0.00014883,-0.00000505,-0.00001549,-0.00000744,0.00000406,0.00000288,0
 .00000032,-0.00000045,0.00000029,-0.00000077,-0.00000056,0.00000052,0.
 00000018,-0.00000057,0.00000059,0.00000042,0.00009668,0.00008393,-0.00
 013140,0.00003440,-0.00009976,-0.00007795,0.00009473,0.00026628,0.0004
 6444,-0.00003119,-0.00002655,-0.00000079,-0.00000323,-0.00000544,-0.00
 000059,0.00000159,0.00000376,0.00000013,0.00000254,0.00000212,0.000000
 36,0.00000350,-0.00000611,-0.00000256,0.00000086,0.00000341,-0.0000002
 0,-0.00000273,0.00000256,0.00000484,-0.00006541,-0.00006140,0.00004676
 ,0.00005195,0.00003321,-0.00002534,0.00000268,0.00000810,-0.00000933,-
 0.24234818,-0.36040741,0.10335429,0.01374169,0.00842844,-0.00321195,0.
 22811286,0.35248784,-0.00011043,0.00001264,-0.00002771,-0.00013767,-0.
 00000785,0.00001081,0.00024898,0.00005181,0.00004244,0.00068770,-0.000
 01608,0.00063352,-0.00031374,-0.00003357,-0.00025428,-0.00011060,0.000
 03045,0.00000739,-0.00104873,0.00008138,-0.00020966,-0.00011681,-0.000
 06369,-0.00004925,0.00004477,0.00000835,0.00000268,-0.00000633,-0.0000
 0376,-0.00000089,-0.00000393,-0.00000147,0.00000212,-0.00000352,0.0000
 0040,0.00000238,0.00037546,-0.00046716,-0.00000661,0.00004962,-0.00014
 478,-0.00009875,0.00109516,0.00084654,-0.00099350,-0.00014953,0.000113
 33,0.00014912,-0.00001794,0.00001017,-0.00001015,0.00002090,-0.0000122
 5,0.00000532,0.00000469,-0.00000262,0.00000648,-0.00003996,-0.00001318
 ,0.00001130,0.00001415,-0.00000028,-0.00000551,0.00003492,0.00002165,-
 0.00001687,-0.00006731,0.00012416,-0.00005729,0.00000295,-0.00003831,0
 .00006348,0.00000581,-0.00002908,-0.00000722,0.07164262,0.09877809,-0.
 03092250,-0.00123286,0.00107027,0.00015912,-0.07086837,-0.10031518,0.0
 3156405\\-0.00001357,0.00002291,-0.00001251,0.00002287,-0.00002442,0.0
 0001921,0.00001045,-0.00000840,0.00000087,-0.00001251,0.00001178,0.000
 00622,0.00003036,-0.00002714,-0.00001605,0.00000481,0.00000920,0.00000
 688,-0.00001434,0.00001244,0.00002453,-0.00000487,-0.00001681,-0.00000
 232,0.00000744,0.00002027,0.00000785,-0.00000996,-0.00001715,0.0000101
 0,0.00000884,-0.00001099,-0.00001464,-0.00000144,0.00000067,0.00001134
 ,0.00000745,-0.00000522,0.00000790,-0.00000203,-0.00001546,-0.00002323
 ,-0.00000539,0.00002199,-0.00001424,-0.00000307,0.00000977,-0.00000091
 ,-0.00001024,0.00002600,0.00001827,-0.00000928,-0.00001740,-0.00001808
 ,0.00000272,-0.00001482,-0.00000660,-0.00000515,0.00000646,0.00001650,
 0.00000382,0.00000659,0.00000751,0.00000908,0.00000913,0.00000372,-0.0
 0000515,-0.00000623,-0.00004923,0.00000715,0.00000806,0.00003174,-0.00
 000524,-0.00000368,-0.00001122,0.00000564,-0.00000910,0.00003036,-0.00
 001158,0.00003251,-0.00001629,-0.00000679,-0.00002096,-0.00001768\\\@


 CHRISTMAS IS ON TOP OF A STEEP HILL.
 THE CLOSER YOU GET, THE STEEPER THE HILL IS.
          -- LINUS, OF PEANUTS
 Job cpu time:       0 days  0 hours 35 minutes 56.6 seconds.
 File lengths (MBytes):  RWF=    297 Int=      0 D2E=      0 Chk=     15 Scr=      1
 Normal termination of Gaussian 09 at Mon Sep  7 14:12:56 2020.
