 Entering Gaussian System, Link 0=g09
 Input=freq_m062x_TS_2H2O_claisen_PM6_toluene_water_gd3.com
 Output=freq_m062x_TS_2H2O_claisen_PM6_toluene_water_gd3.log
 Initial command:
 /apps/applications/gaussian/G09.D01/2/default/g09/l1.exe "/local/743558.1.40core-192G.q/Gau-343882.inp" -scrdir="/local/743558.1.40core-192G.q/"
 Entering Link 1 = /apps/applications/gaussian/G09.D01/2/default/g09/l1.exe PID=    343883.
  
 Copyright (c) 1988,1990,1992,1993,1995,1998,2003,2009,2013,
            Gaussian, Inc.  All Rights Reserved.
  
 This is part of the Gaussian(R) 09 program.  It is based on
 the Gaussian(R) 03 system (copyright 2003, Gaussian, Inc.),
 the Gaussian(R) 98 system (copyright 1998, Gaussian, Inc.),
 the Gaussian(R) 94 system (copyright 1995, Gaussian, Inc.),
 the Gaussian 92(TM) system (copyright 1992, Gaussian, Inc.),
 the Gaussian 90(TM) system (copyright 1990, Gaussian, Inc.),
 the Gaussian 88(TM) system (copyright 1988, Gaussian, Inc.),
 the Gaussian 86(TM) system (copyright 1986, Carnegie Mellon
 University), and the Gaussian 82(TM) system (copyright 1983,
 Carnegie Mellon University). Gaussian is a federally registered
 trademark of Gaussian, Inc.
  
 This software contains proprietary and confidential information,
 including trade secrets, belonging to Gaussian, Inc.
  
 This software is provided under written license and may be
 used, copied, transmitted, or stored only in accord with that
 written license.
  
 The following legend is applicable only to US Government
 contracts under FAR:
  
                    RESTRICTED RIGHTS LEGEND
  
 Use, reproduction and disclosure by the US Government is
 subject to restrictions as set forth in subparagraphs (a)
 and (c) of the Commercial Computer Software - Restricted
 Rights clause in FAR 52.227-19.
  
 Gaussian, Inc.
 340 Quinnipiac St., Bldg. 40, Wallingford CT 06492
  
  
 ---------------------------------------------------------------
 Warning -- This program may not be used in any manner that
 competes with the business of Gaussian, Inc. or will provide
 assistance to any competitor of Gaussian, Inc.  The licensee
 of this program is prohibited from giving any competitor of
 Gaussian, Inc. access to this program.  By using this program,
 the user acknowledges that Gaussian, Inc. is engaged in the
 business of creating and licensing software in the field of
 computational chemistry and represents and warrants to the
 licensee that it is not a competitor of Gaussian, Inc. and that
 it will not use this program in any manner prohibited above.
 ---------------------------------------------------------------
  

 Cite this work as:
 Gaussian 09, Revision D.01,
 M. J. Frisch, G. W. Trucks, H. B. Schlegel, G. E. Scuseria, 
 M. A. Robb, J. R. Cheeseman, G. Scalmani, V. Barone, B. Mennucci, 
 G. A. Petersson, H. Nakatsuji, M. Caricato, X. Li, H. P. Hratchian, 
 A. F. Izmaylov, J. Bloino, G. Zheng, J. L. Sonnenberg, M. Hada, 
 M. Ehara, K. Toyota, R. Fukuda, J. Hasegawa, M. Ishida, T. Nakajima, 
 Y. Honda, O. Kitao, H. Nakai, T. Vreven, J. A. Montgomery, Jr., 
 J. E. Peralta, F. Ogliaro, M. Bearpark, J. J. Heyd, E. Brothers, 
 K. N. Kudin, V. N. Staroverov, T. Keith, R. Kobayashi, J. Normand, 
 K. Raghavachari, A. Rendell, J. C. Burant, S. S. Iyengar, J. Tomasi, 
 M. Cossi, N. Rega, J. M. Millam, M. Klene, J. E. Knox, J. B. Cross, 
 V. Bakken, C. Adamo, J. Jaramillo, R. Gomperts, R. E. Stratmann, 
 O. Yazyev, A. J. Austin, R. Cammi, C. Pomelli, J. W. Ochterski, 
 R. L. Martin, K. Morokuma, V. G. Zakrzewski, G. A. Voth, 
 P. Salvador, J. J. Dannenberg, S. Dapprich, A. D. Daniels, 
 O. Farkas, J. B. Foresman, J. V. Ortiz, J. Cioslowski, 
 and D. J. Fox, Gaussian, Inc., Wallingford CT, 2013.
 
 ******************************************
 Gaussian 09:  ES64L-G09RevD.01 24-Apr-2013
                16-Sep-2020 
 ******************************************
 %nprocshared=4
 Will use up to    4 processors via shared memory.
 %chk=freq_m062x_TS_2H2O_claisen_PM6_toluene_water_gd3.chk
 ----------------------------------------------------------------------
 # freq scrf=(cpcm,solvent=water) geom=connectivity def2svp empiricaldi
 spersion=gd3 m062x
 ----------------------------------------------------------------------
 1/10=4,30=1,38=1,57=2/1,3;
 2/12=2,17=6,18=5,40=1/2;
 3/5=43,7=101,11=2,16=1,25=1,30=1,70=2101,71=2,72=1,74=-55,124=31,140=1/1,2,3;
 4//1;
 5/5=2,38=5,53=1,98=1/2;
 8/6=4,10=90,11=11/1;
 11/6=1,8=1,9=11,15=111,16=1/1,2,10;
 10/6=1/2;
 6/7=2,8=2,9=2,10=2,18=1,28=1/1;
 7/8=1,10=1,25=1/1,2,3,16;
 1/10=4,30=1/3;
 99//99;
 -------------------
 Title Card Required
 -------------------
 Symbolic Z-matrix:
 Charge =  0 Multiplicity = 1
 C                     2.47189   2.79433  -0.55432 
 C                     2.95216   1.52793  -0.29604 
 C                     2.07472   0.48617   0.09248 
 C                     0.68211   0.76066   0.19832 
 C                     0.22231   2.07391  -0.05086 
 C                     1.09682   3.07403  -0.42288 
 H                     3.1619    3.58489  -0.85257 
 H                     4.01728   1.31584  -0.38318 
 H                    -0.83834   2.29458   0.06664 
 H                     0.7243    4.08165  -0.61167 
 C                    -0.25351  -0.29201   0.60031 
 C                     2.53724  -0.84191   0.40434 
 C                     0.27561  -1.58234   0.83165 
 H                    -0.38682  -2.33876   1.2495 
 C                     1.6783   -1.82685   0.7914 
 H                     2.06318  -2.81604   1.041 
 O                    -1.51678  -0.08598   0.63066 
 Cl                    4.24454  -1.19323   0.31307 
 C                    -2.43583  -0.83512  -1.20643 
 C                    -1.78745  -2.0805   -1.14169 
 H                    -2.3419   -2.90724  -0.68955 
 C                    -3.86631  -0.74452  -0.78674 
 H                    -4.04776   0.22325  -0.30209 
 H                    -4.50187  -0.79221  -1.68688 
 H                    -4.14729  -1.55801  -0.10724 
 C                    -1.93605   0.29969  -2.04245 
 H                    -0.84315   0.33103  -2.12636 
 H                    -2.35236   0.18427  -3.05708 
 H                    -2.29941   1.25235  -1.63493 
 C                    -0.43439  -2.23204  -1.32839 
 H                     0.03112  -3.21173  -1.21139 
 H                     0.17511  -1.46815  -1.81527 
 O                    -3.1851    2.15152   0.69441 
 H                    -2.49716   1.46525   0.62063 
 H                    -3.74319   1.74019   1.37318 
 O                    -3.74988  -0.104     2.32495 
 H                    -3.45201   0.03995   3.23136 
 H                    -2.93047  -0.31716   1.84144 
 

 GradGradGradGradGradGradGradGradGradGradGradGradGradGradGradGradGradGrad
 Berny optimization.
 Initialization pass.
 Trust Radius=3.00D-01 FncErr=1.00D-07 GrdErr=1.00D-07
 Number of steps in this run=      2 maximum allowed number of steps=      2.
 GradGradGradGradGradGradGradGradGradGradGradGradGradGradGradGradGradGrad

                          Input orientation:                          
 ---------------------------------------------------------------------
 Center     Atomic      Atomic             Coordinates (Angstroms)
 Number     Number       Type             X           Y           Z
 ---------------------------------------------------------------------
      1          6           0        2.471892    2.794326   -0.554322
      2          6           0        2.952158    1.527925   -0.296040
      3          6           0        2.074716    0.486170    0.092476
      4          6           0        0.682107    0.760656    0.198319
      5          6           0        0.222310    2.073911   -0.050862
      6          6           0        1.096822    3.074031   -0.422883
      7          1           0        3.161898    3.584888   -0.852569
      8          1           0        4.017284    1.315835   -0.383177
      9          1           0       -0.838336    2.294581    0.066640
     10          1           0        0.724303    4.081648   -0.611674
     11          6           0       -0.253510   -0.292011    0.600310
     12          6           0        2.537239   -0.841907    0.404339
     13          6           0        0.275609   -1.582337    0.831648
     14          1           0       -0.386821   -2.338756    1.249502
     15          6           0        1.678304   -1.826848    0.791397
     16          1           0        2.063178   -2.816043    1.040998
     17          8           0       -1.516778   -0.085977    0.630658
     18         17           0        4.244538   -1.193234    0.313070
     19          6           0       -2.435829   -0.835122   -1.206430
     20          6           0       -1.787448   -2.080498   -1.141691
     21          1           0       -2.341901   -2.907239   -0.689545
     22          6           0       -3.866305   -0.744516   -0.786741
     23          1           0       -4.047755    0.223252   -0.302088
     24          1           0       -4.501866   -0.792208   -1.686884
     25          1           0       -4.147293   -1.558006   -0.107244
     26          6           0       -1.936049    0.299693   -2.042448
     27          1           0       -0.843149    0.331029   -2.126365
     28          1           0       -2.352357    0.184266   -3.057085
     29          1           0       -2.299411    1.252351   -1.634927
     30          6           0       -0.434394   -2.232036   -1.328388
     31          1           0        0.031117   -3.211726   -1.211390
     32          1           0        0.175112   -1.468153   -1.815268
     33          8           0       -3.185100    2.151525    0.694413
     34          1           0       -2.497161    1.465250    0.620628
     35          1           0       -3.743193    1.740192    1.373177
     36          8           0       -3.749877   -0.103998    2.324952
     37          1           0       -3.452013    0.039946    3.231355
     38          1           0       -2.930473   -0.317155    1.841435
 ---------------------------------------------------------------------
                    Distance matrix (angstroms):
                    1          2          3          4          5
     1  C    0.000000
     2  C    1.378817   0.000000
     3  C    2.429749   1.416370   0.000000
     4  C    2.811692   2.446676   1.423343   0.000000
     5  C    2.415179   2.794688   2.443947   1.413557   0.000000
     6  C    1.409372   2.418430   2.814053   2.430964   1.379642
     7  H    1.090893   2.141217   3.417181   3.902565   3.401024
     8  H    2.145568   1.089527   2.165216   3.430709   3.884191
     9  H    3.404842   3.884217   3.428832   2.163796   1.089712
    10  H    2.171302   3.403596   3.904728   3.418605   2.144182
    11  C    4.276268   3.793668   2.506810   1.464610   2.499603
    12  C    3.761049   2.505752   1.440477   2.460115   3.750746
    13  C    5.089180   4.255505   2.839345   2.460887   3.761624
    14  H    6.146101   5.337481   3.921490   3.442956   4.640433
    15  C    4.878113   3.749630   2.448609   2.835371   4.247969
    16  H    5.847079   4.631200   3.435759   3.925588   5.337846
    17  O    5.060614   4.840954   3.676387   2.395579   2.855523
    18  Cl   4.449188   3.073429   2.752669   4.064698   5.194709
    19  C    6.138718   5.953420   4.876268   3.773772   4.106521
    20  C    6.500068   6.016619   4.798673   3.995808   4.742167
    21  H    7.463158   6.917556   5.624348   4.835947   5.638701
    22  C    7.262931   7.203903   6.130525   4.891210   5.020142
    23  H    7.012834   7.120463   6.140803   4.786523   4.660634
    24  H    7.923334   7.929687   6.931941   5.730528   5.762729
    25  H    7.934500   7.743437   6.552247   5.365880   5.682203
    26  C    5.278983   5.334141   4.547407   3.476818   3.431148
    27  H    4.419123   4.380297   3.668959   2.813386   2.912139
    28  H    6.029064   6.129165   5.441494   4.487522   4.386006
    29  H    5.129398   5.426558   4.764865   3.534403   3.089223
    30  C    5.857473   5.164473   3.962718   3.540284   4.539219
    31  H    6.516271   5.642219   4.421628   4.265078   5.414918
    32  H    5.003390   4.358500   3.326764   3.046172   3.957471
    33  O    5.828730   6.247864   5.549901   4.139555   3.488825
    34  H    5.276214   5.526236   4.705274   3.283678   2.866512
    35  H    6.591945   6.903555   6.087761   4.682207   4.226638
    36  O    7.443179   7.379027   6.265631   4.991260   5.115276
    37  H    7.550537   7.461233   6.371531   5.177806   5.330161
    38  H    6.678811   6.525218   5.362472   4.112450   4.386117
                    6          7          8          9         10
     6  C    0.000000
     7  H    2.170287   0.000000
     8  H    3.409095   2.469942   0.000000
     9  H    2.142898   4.302524   4.973663   0.000000
    10  H    1.090736   2.499334   4.306467   2.468919   0.000000
    11  C    3.768363   5.367142   4.668201   2.705048   4.642620
    12  C    4.253665   4.643978   2.732502   4.620184   5.344194
    13  C    4.891830   6.153655   4.886239   4.105679   5.862187
    14  H    5.856307   7.218148   5.951287   4.803211   6.776442
    15  C    5.082442   5.847270   4.089854   4.883127   6.147280
    16  H    6.145711   6.764961   4.787402   5.957066   7.218175
    17  O    4.233970   6.129047   5.798170   2.538790   4.892334
    18  Cl   5.353438   5.035998   2.613777   6.169375   6.408712
    19  C    5.326823   7.141166   6.851790   3.737343   5.874929
    20  C    5.950199   7.528361   6.767964   4.637046   6.675467
    21  H    6.904456   8.512702   7.639859   5.467308   7.632314
    22  C    6.272665   8.254920   8.158363   4.374125   6.663047
    23  H    5.882874   7.973877   8.139113   3.837543   6.144559
    24  H    6.920319   8.865006   8.872396   5.101428   7.226575
    25  H    7.004009   8.968230   8.659990   5.081521   7.469444
    26  C    4.417946   6.180403   6.263218   3.103676   4.840224
    27  H    3.766882   5.315125   5.256649   2.943608   4.338011
    28  H    5.214077   6.843327   7.000183   4.062431   5.534931
    29  H    4.040045   5.989884   6.439840   2.473118   4.265538
    30  C    5.596330   6.855387   5.770464   4.753897   6.459014
    31  H    6.424034   7.491629   6.088865   5.719154   7.350746
    32  H    4.839393   5.948185   4.956184   4.327450   5.705308
    33  O    4.520423   6.688204   7.330342   2.433488   4.551337
    34  H    4.073549   6.219978   6.593022   1.935560   4.329196
    35  H    5.332045   7.485795   7.968053   3.233045   5.420385
    36  O    6.414122   8.454416   8.347376   4.396615   6.794240
    37  H    6.576551   8.543352   8.395423   4.682959   6.967485
    38  H    5.731176   7.720141   7.475753   3.787889   6.222909
                   11         12         13         14         15
    11  C    0.000000
    12  C    2.851152   0.000000
    13  C    1.413657   2.417809   0.000000
    14  H    2.151369   3.391900   1.088846   0.000000
    15  C    2.474701   1.362972   1.424415   2.176385   0.000000
    16  H    3.454271   2.127741   2.182031   2.504750   1.090383
    17  O    1.280319   4.130097   2.343532   2.595146   3.642117
    18  Cl   4.596427   1.745460   4.021532   4.861956   2.686228
    19  C    2.884752   5.227430   3.473325   3.534254   4.679842
    20  C    2.930225   4.756809   2.898005   2.783210   3.976507
    21  H    3.586714   5.410008   3.304656   2.811657   4.418425
    22  C    3.896275   6.514103   4.525105   4.335285   5.865548
    23  H    3.933969   6.707887   4.820476   4.730090   6.179512
    24  H    4.850771   7.343343   5.458166   5.286565   6.738461
    25  H    4.155108   6.742216   4.521523   4.073264   5.900628
    26  C    3.188294   5.224971   4.085816   4.494269   5.061265
    27  H    2.858428   4.382609   3.696272   4.328102   4.418992
    28  H    4.243647   6.078045   5.014911   5.364295   5.924662
    29  H    3.401037   5.651345   4.555236   4.987382   5.584866
    30  C    2.741586   3.710176   2.364734   2.580537   3.020126
    31  H    3.447899   3.808841   2.624631   2.644379   2.939773
    32  H    2.720670   3.301285   2.651283   3.235202   3.030338
    33  O    3.817583   6.464514   5.092845   5.319879   6.284072
    34  H    2.849973   5.542106   4.125599   4.395393   5.319923
    35  H    4.111576   6.859279   5.242444   5.283781   6.515740
    36  O    3.903117   6.615217   4.540923   4.178622   5.897894
    37  H    4.154878   6.681379   4.720759   4.356761   5.979838
    38  H    2.950789   5.677718   3.591562   3.302638   4.962114
                   16         17         18         19         20
    16  H    0.000000
    17  O    4.520810   0.000000
    18  Cl   2.814555   5.875342   0.000000
    19  C    5.405187   2.186496   6.860352   0.000000
    20  C    4.486923   2.681902   6.268048   1.405543   0.000000
    21  H    4.733690   3.222310   6.879261   2.137677   1.093323
    22  C    6.541454   2.821874   8.197360   1.493523   2.496494
    23  H    6.955911   2.715047   8.434867   2.129858   3.334844
    24  H    7.391688   3.844543   8.981104   2.121600   3.053685
    25  H    6.439803   3.103382   8.410265   2.158676   2.629058
    26  C    5.933740   2.733135   6.780631   1.495497   2.549266
    27  H    5.327569   2.868596   5.844551   2.177801   2.770694
    28  H    6.730014   3.790867   7.534884   2.114484   3.019439
    29  H    6.537934   2.745271   7.252506   2.135360   3.407825
    30  C    3.491836   3.100804   5.066152   2.443764   1.374254
    31  H    3.059263   3.944544   4.914388   3.425506   2.142828
    32  H    3.679654   3.279551   4.600612   2.754710   2.163403
    33  O    7.234727   2.791734   8.156737   3.618656   4.820241
    34  H    6.269200   1.835090   7.253457   2.938301   4.022660
    35  H    7.388069   2.973744   8.575119   3.872443   4.974653
    36  O    6.541814   2.803157   8.315334   3.838219   4.446942
    37  H    6.585717   3.244166   8.323101   4.635980   5.137177
    38  H    5.641072   1.875622   7.388112   3.130885   3.648962
                   21         22         23         24         25
    21  H    0.000000
    22  C    2.647759   0.000000
    23  H    3.586089   1.097446   0.000000
    24  H    3.183314   1.102937   1.776242   0.000000
    25  H    2.327863   1.096557   1.794645   1.790930   0.000000
    26  C    3.504208   2.528450   2.737517   2.811066   3.476444
    27  H    3.846698   3.477192   3.689052   3.852404   4.308442
    28  H    3.893939   2.882557   3.235105   2.729714   3.867670
    29  H    4.265881   2.676201   2.427388   3.005616   3.694129
    30  C    2.121934   3.779433   4.487550   4.329660   3.966249
    31  H    2.448724   4.632208   5.409538   5.160242   4.627422
    32  H    3.110237   4.232561   4.794077   4.727315   4.648506
    33  O    5.312007   3.323388   2.335685   4.008742   3.915238
    34  H    4.567200   2.956063   2.190504   3.799943   3.520342
    35  H    5.274188   3.294568   2.280434   4.043836   3.637726
    36  O    4.350603   3.179065   2.664050   4.139317   2.861408
    37  H    5.029086   4.114865   3.587998   5.097425   3.766047
    38  H    3.668898   2.822362   2.476903   3.891527   2.611075
                   26         27         28         29         30
    26  C    0.000000
    27  H    1.096565   0.000000
    28  H    1.102780   1.779182   0.000000
    29  H    1.098027   1.791939   1.779366   0.000000
    30  C    3.028944   2.715355   3.536310   3.963989   0.000000
    31  H    4.109801   3.761999   4.540958   5.053586   1.090954
    32  H    2.762950   2.090620   3.265072   3.681974   1.091818
    33  O    3.532679   4.093376   4.317095   2.649299   5.556412
    34  H    2.960632   3.401203   3.897109   2.274194   4.660858
    35  H    4.123991   4.758444   4.897198   3.372119   5.833112
    36  O    4.746274   5.334092   5.567987   4.429918   5.372883
    37  H    5.493506   5.966244   6.385495   5.145786   5.921080
    38  H    4.056344   4.529956   4.957937   3.866094   4.465978
                   31         32         33         34         35
    31  H    0.000000
    32  H    1.850797   0.000000
    33  O    6.537629   5.539999   0.000000
    34  H    5.623396   4.656123   0.974514   0.000000
    35  H    6.741431   5.984377   0.970249   1.481391   0.000000
    36  O    6.038179   5.865823   2.839897   2.633734   2.075321
    37  H    6.514871   6.395217   3.311508   3.123961   2.535438
    38  H    5.144832   4.933653   2.734022   2.203428   2.261074
                   36         37         38
    36  O    0.000000
    37  H    0.964888   0.000000
    38  H    0.975012   1.526893   0.000000
 Stoichiometry    C15H19ClO3
 Framework group  C1[X(C15H19ClO3)]
 Deg. of freedom   108
 Full point group                 C1      NOp   1
 Largest Abelian subgroup         C1      NOp   1
 Largest concise Abelian subgroup C1      NOp   1
                         Standard orientation:                         
 ---------------------------------------------------------------------
 Center     Atomic      Atomic             Coordinates (Angstroms)
 Number     Number       Type             X           Y           Z
 ---------------------------------------------------------------------
      1          6           0        2.471892    2.794326   -0.554322
      2          6           0        2.952158    1.527925   -0.296040
      3          6           0        2.074716    0.486170    0.092476
      4          6           0        0.682107    0.760656    0.198319
      5          6           0        0.222310    2.073911   -0.050862
      6          6           0        1.096822    3.074031   -0.422883
      7          1           0        3.161898    3.584888   -0.852569
      8          1           0        4.017284    1.315835   -0.383177
      9          1           0       -0.838336    2.294581    0.066640
     10          1           0        0.724303    4.081648   -0.611674
     11          6           0       -0.253510   -0.292011    0.600310
     12          6           0        2.537239   -0.841907    0.404339
     13          6           0        0.275609   -1.582337    0.831648
     14          1           0       -0.386821   -2.338756    1.249502
     15          6           0        1.678304   -1.826848    0.791397
     16          1           0        2.063178   -2.816043    1.040998
     17          8           0       -1.516778   -0.085977    0.630658
     18         17           0        4.244538   -1.193234    0.313070
     19          6           0       -2.435829   -0.835122   -1.206430
     20          6           0       -1.787448   -2.080498   -1.141691
     21          1           0       -2.341901   -2.907239   -0.689545
     22          6           0       -3.866305   -0.744516   -0.786741
     23          1           0       -4.047755    0.223252   -0.302088
     24          1           0       -4.501866   -0.792208   -1.686884
     25          1           0       -4.147293   -1.558006   -0.107244
     26          6           0       -1.936049    0.299693   -2.042448
     27          1           0       -0.843149    0.331029   -2.126365
     28          1           0       -2.352357    0.184266   -3.057085
     29          1           0       -2.299411    1.252351   -1.634927
     30          6           0       -0.434394   -2.232036   -1.328388
     31          1           0        0.031117   -3.211726   -1.211390
     32          1           0        0.175112   -1.468153   -1.815268
     33          8           0       -3.185100    2.151525    0.694413
     34          1           0       -2.497161    1.465250    0.620628
     35          1           0       -3.743193    1.740192    1.373177
     36          8           0       -3.749877   -0.103998    2.324952
     37          1           0       -3.452013    0.039946    3.231355
     38          1           0       -2.930473   -0.317155    1.841435
 ---------------------------------------------------------------------
 Rotational constants (GHZ):      0.5055973      0.2312522      0.1940477
 Standard basis: def2SVP (5D, 7F)
 There are   384 symmetry adapted cartesian basis functions of A   symmetry.
 There are   365 symmetry adapted basis functions of A   symmetry.
   365 basis functions,   620 primitive gaussians,   384 cartesian basis functions
    75 alpha electrons       75 beta electrons
       nuclear repulsion energy      1619.3399394379 Hartrees.
 NAtoms=   38 NActive=   38 NUniq=   38 SFac= 1.00D+00 NAtFMM=   60 NAOKFM=F Big=F
 Integral buffers will be    131072 words long.
 Raffenetti 2 integral format.
 Two-electron integral symmetry is turned on.
 Nuclear repulsion after empirical dispersion term =     1619.3369521888 Hartrees.
 Force inversion solution in PCM.
 ------------------------------------------------------------------------------
 Polarizable Continuum Model (PCM)
 =================================
 Model                : C-PCM.
 Atomic radii         : UFF (Universal Force Field).
 Polarization charges : Total charges.
 Charge compensation  : None.
 Solution method      : Matrix inversion.
 Cavity type          : Scaled VdW (van der Waals Surface) (Alpha=1.100).
 Cavity algorithm     : GePol (No added spheres)
                        Default sphere list used, NSphG=   38.
                        Lebedev-Laikov grids with approx.  5.0 points / Ang**2.
                        Smoothing algorithm: Karplus/York (Gamma=1.0000).
                        Polarization charges: spherical gaussians, with
                                              point-specific exponents (IZeta= 3).
                        Self-potential: point-specific (ISelfS= 7).
                        Self-field    : sphere-specific E.n sum rule (ISelfD= 2).
 1st derivatives      : Analytical E(r).r(x)/FMM algorithm (CHGder, D1EAlg=3).
                        Cavity 1st derivative terms included.
 2nd derivatives      : Analytical E(r).r(xy)/FMM algorithm (CHGder, D2EAlg=3).
                        Cavity 2nd derivative terms included.
 Solvent              : Water, Eps=  78.355300 Eps(inf)=   1.777849
 ------------------------------------------------------------------------------
 One-electron integrals computed using PRISM.
   1 Symmetry operations used in ECPInt.
 ECPInt:  NShTT=   15051 NPrTT=   54599 LenC2=   14123 LenP2D=   36435.
 LDataN:  DoStor=T MaxTD1= 4 Len=   56
 NBasis=   365 RedAO= T EigKep=  2.28D-04  NBF=   365
 NBsUse=   365 1.00D-06 EigRej= -1.00D+00 NBFU=   365
 ExpMin= 1.22D-01 ExpMax= 1.04D+04 ExpMxC= 1.57D+03 IAcc=1 IRadAn=         1 AccDes= 0.00D+00
 Harris functional with IExCor= 1009 and IRadAn=       1 diagonalized for initial guess.
 HarFok:  IExCor= 1009 AccDes= 0.00D+00 IRadAn=         1 IDoV= 1 UseB2=F ITyADJ=14
 ICtDFT=  3500011 ScaDFX=  1.000000  1.000000  1.000000  1.000000
 FoFCou: FMM=F IPFlag=           0 FMFlag=      100000 FMFlg1=           0
         NFxFlg=           0 DoJE=T BraDBF=F KetDBF=T FulRan=T
         wScrn=  0.000000 ICntrl=     500 IOpCl=  0 I1Cent=   200000004 NGrid=           0
         NMat0=    1 NMatS0=      1 NMatT0=    0 NMatD0=    1 NMtDS0=    0 NMtDT0=    0
 Petite list used in FoFCou.
 Requested convergence on RMS density matrix=1.00D-08 within 128 cycles.
 Requested convergence on MAX density matrix=1.00D-06.
 Requested convergence on             energy=1.00D-06.
 No special actions if energy rises.
 Inv3:  Mode=1 IEnd=    20202075.
 Iteration    1 A*A^-1 deviation from unit magnitude is 8.99D-15 for    611.
 Iteration    1 A*A^-1 deviation from orthogonality  is 3.65D-15 for   2567    835.
 Iteration    1 A^-1*A deviation from unit magnitude is 8.99D-15 for    611.
 Iteration    1 A^-1*A deviation from orthogonality  is 2.54D-15 for   2587   2484.
 Error on total polarization charges =  0.01044
 SCF Done:  E(RM062X) =  -1267.76986000     A.U. after   15 cycles
            NFock= 15  Conv=0.40D-08     -V/T= 2.0071
 DoSCS=F DFT=T ScalE2(SS,OS)=  1.000000  1.000000
 Range of M.O.s used for correlation:     1   365
 NBasis=   365 NAE=    75 NBE=    75 NFC=     0 NFV=     0
 NROrb=    365 NOA=    75 NOB=    75 NVA=   290 NVB=   290

 **** Warning!!: The largest alpha MO coefficient is  0.12129248D+02

 PrsmSu:  requested number of processors reduced to:   2 ShMem   1 Linda.
   1 Symmetry operations used in ECPInt.
 ECPInt:  NShTT=   15051 NPrTT=   54599 LenC2=   14123 LenP2D=   36435.
 LDataN:  DoStor=T MaxTD1= 5 Len=  102
 Number of processors reduced to   1 by ecpmxn.
 Symmetrizing basis deriv contribution to polar:
 IMax=3 JMax=2 DiffMx= 0.00D+00
 G2DrvN: will do    20 centers at a time, making    2 passes.
 Calling FoFCou, ICntrl=  3107 FMM=F I1Cent=   0 AccDes= 0.00D+00.
 Calling FoFCou, ICntrl=  3107 FMM=F I1Cent=   0 AccDes= 0.00D+00.
 NEqPCM:  Using equilibrium solvation (IEInf=0, Eps=  78.3553, EpsInf=   1.7778)
 G2PCM: DoFxE=T DoFxN=T DoGrad=T DoDP/DQ/DG/TGxP=FFFF NFrqRd=   0 IEInf=0 SqF1=F DoCFld=F IF1Alg=4.
 End of G2Drv F.D. properties file   721 does not exist.
 End of G2Drv F.D. properties file   722 does not exist.
 End of G2Drv F.D. properties file   788 does not exist.
          IDoAtm=11111111111111111111111111111111111111
 NEqPCM:  Using equilibrium solvation (IEInf=0, Eps=  78.3553, EpsInf=   1.7778)
          Differentiating once with respect to electric field.
                with respect to dipole field.
          Differentiating once with respect to nuclear coordinates.
          There are   117 degrees of freedom in the 1st order CPHF.  IDoFFX=6 NUNeed=     3.
    117 vectors produced by pass  0 Test12= 2.17D-14 1.00D-09 XBig12= 2.32D+02 9.06D+00.
 AX will form    60 AO Fock derivatives at one time.
    117 vectors produced by pass  1 Test12= 2.17D-14 1.00D-09 XBig12= 2.19D+01 4.65D-01.
    114 vectors produced by pass  2 Test12= 2.17D-14 1.00D-09 XBig12= 3.43D-01 7.32D-02.
    114 vectors produced by pass  3 Test12= 2.17D-14 1.00D-09 XBig12= 2.57D-03 5.95D-03.
    114 vectors produced by pass  4 Test12= 2.17D-14 1.00D-09 XBig12= 1.31D-05 3.94D-04.
    114 vectors produced by pass  5 Test12= 2.17D-14 1.00D-09 XBig12= 4.56D-08 1.86D-05.
     65 vectors produced by pass  6 Test12= 2.17D-14 1.00D-09 XBig12= 1.42D-10 9.62D-07.
      7 vectors produced by pass  7 Test12= 2.17D-14 1.00D-09 XBig12= 4.23D-13 5.63D-08.
      3 vectors produced by pass  8 Test12= 2.17D-14 1.00D-09 XBig12= 1.43D-15 2.54D-09.
      1 vectors produced by pass  9 Test12= 2.17D-14 1.00D-09 XBig12= 2.76D-16 1.19D-09.
 InvSVY:  IOpt=1 It=  1 EMax= 5.33D-15
 Solved reduced A of dimension   766 with   117 vectors.
 Isotropic polarizability for W=    0.000000      287.54 Bohr**3.
 End of Minotr F.D. properties file   721 does not exist.
 End of Minotr F.D. properties file   722 does not exist.
 End of Minotr F.D. properties file   788 does not exist.

 **********************************************************************

            Population analysis using the SCF density.

 **********************************************************************

 Orbital symmetries:
       Occupied  (A) (A) (A) (A) (A) (A) (A) (A) (A) (A) (A) (A)
                 (A) (A) (A) (A) (A) (A) (A) (A) (A) (A) (A) (A)
                 (A) (A) (A) (A) (A) (A) (A) (A) (A) (A) (A) (A)
                 (A) (A) (A) (A) (A) (A) (A) (A) (A) (A) (A) (A)
                 (A) (A) (A) (A) (A) (A) (A) (A) (A) (A) (A) (A)
                 (A) (A) (A) (A) (A) (A) (A) (A) (A) (A) (A) (A)
                 (A) (A) (A)
       Virtual   (A) (A) (A) (A) (A) (A) (A) (A) (A) (A) (A) (A)
                 (A) (A) (A) (A) (A) (A) (A) (A) (A) (A) (A) (A)
                 (A) (A) (A) (A) (A) (A) (A) (A) (A) (A) (A) (A)
                 (A) (A) (A) (A) (A) (A) (A) (A) (A) (A) (A) (A)
                 (A) (A) (A) (A) (A) (A) (A) (A) (A) (A) (A) (A)
                 (A) (A) (A) (A) (A) (A) (A) (A) (A) (A) (A) (A)
                 (A) (A) (A) (A) (A) (A) (A) (A) (A) (A) (A) (A)
                 (A) (A) (A) (A) (A) (A) (A) (A) (A) (A) (A) (A)
                 (A) (A) (A) (A) (A) (A) (A) (A) (A) (A) (A) (A)
                 (A) (A) (A) (A) (A) (A) (A) (A) (A) (A) (A) (A)
                 (A) (A) (A) (A) (A) (A) (A) (A) (A) (A) (A) (A)
                 (A) (A) (A) (A) (A) (A) (A) (A) (A) (A) (A) (A)
                 (A) (A) (A) (A) (A) (A) (A) (A) (A) (A) (A) (A)
                 (A) (A) (A) (A) (A) (A) (A) (A) (A) (A) (A) (A)
                 (A) (A) (A) (A) (A) (A) (A) (A) (A) (A) (A) (A)
                 (A) (A) (A) (A) (A) (A) (A) (A) (A) (A) (A) (A)
                 (A) (A) (A) (A) (A) (A) (A) (A) (A) (A) (A) (A)
                 (A) (A) (A) (A) (A) (A) (A) (A) (A) (A) (A) (A)
                 (A) (A) (A) (A) (A) (A) (A) (A) (A) (A) (A) (A)
                 (A) (A) (A) (A) (A) (A) (A) (A) (A) (A) (A) (A)
                 (A) (A) (A) (A) (A) (A) (A) (A) (A) (A) (A) (A)
                 (A) (A) (A) (A) (A) (A) (A) (A) (A) (A) (A) (A)
                 (A) (A) (A) (A) (A) (A) (A) (A) (A) (A) (A) (A)
                 (A) (A) (A) (A) (A) (A) (A) (A) (A) (A) (A) (A)
                 (A) (A)
 The electronic state is 1-A.
 Alpha  occ. eigenvalues -- -102.64504 -19.63256 -19.61711 -19.60163 -10.62536
 Alpha  occ. eigenvalues --  -10.62359 -10.61827 -10.59863 -10.58477 -10.57499
 Alpha  occ. eigenvalues --  -10.57481 -10.57319 -10.56761 -10.56721 -10.56689
 Alpha  occ. eigenvalues --  -10.56510 -10.56168 -10.55940 -10.55340  -9.81497
 Alpha  occ. eigenvalues --   -7.54196  -7.53527  -7.53521  -1.13452  -1.09698
 Alpha  occ. eigenvalues --   -1.07925  -0.99852  -0.95393  -0.93544  -0.91124
 Alpha  occ. eigenvalues --   -0.85218  -0.84960  -0.83796  -0.78960  -0.78803
 Alpha  occ. eigenvalues --   -0.71532  -0.71041  -0.70739  -0.65859  -0.61216
 Alpha  occ. eigenvalues --   -0.60949  -0.59555  -0.58778  -0.57426  -0.56152
 Alpha  occ. eigenvalues --   -0.55805  -0.54081  -0.53523  -0.53338  -0.51570
 Alpha  occ. eigenvalues --   -0.50166  -0.50112  -0.48865  -0.48173  -0.47266
 Alpha  occ. eigenvalues --   -0.46705  -0.46060  -0.45785  -0.45360  -0.44678
 Alpha  occ. eigenvalues --   -0.44339  -0.43441  -0.42833  -0.42511  -0.42026
 Alpha  occ. eigenvalues --   -0.40858  -0.37970  -0.37948  -0.37286  -0.36699
 Alpha  occ. eigenvalues --   -0.35478  -0.34184  -0.32745  -0.30152  -0.25539
 Alpha virt. eigenvalues --   -0.05549  -0.01646   0.00787   0.05519   0.07777
 Alpha virt. eigenvalues --    0.08896   0.09251   0.11151   0.11640   0.11870
 Alpha virt. eigenvalues --    0.12753   0.13876   0.14301   0.15923   0.16219
 Alpha virt. eigenvalues --    0.17250   0.17774   0.18486   0.19329   0.20309
 Alpha virt. eigenvalues --    0.20747   0.22114   0.22368   0.22925   0.23835
 Alpha virt. eigenvalues --    0.25200   0.25482   0.27585   0.28089   0.28664
 Alpha virt. eigenvalues --    0.30008   0.31199   0.31918   0.32806   0.34537
 Alpha virt. eigenvalues --    0.34997   0.35829   0.37285   0.37518   0.37879
 Alpha virt. eigenvalues --    0.39557   0.41402   0.42411   0.43673   0.45101
 Alpha virt. eigenvalues --    0.45515   0.46689   0.48351   0.48927   0.49765
 Alpha virt. eigenvalues --    0.50374   0.50956   0.51655   0.52137   0.52956
 Alpha virt. eigenvalues --    0.53357   0.54313   0.54544   0.56370   0.56795
 Alpha virt. eigenvalues --    0.57549   0.59486   0.60460   0.61419   0.62038
 Alpha virt. eigenvalues --    0.63097   0.63794   0.64327   0.65212   0.65941
 Alpha virt. eigenvalues --    0.66334   0.68050   0.68256   0.68695   0.69594
 Alpha virt. eigenvalues --    0.69854   0.70510   0.70992   0.71723   0.71826
 Alpha virt. eigenvalues --    0.72642   0.72953   0.73405   0.74290   0.74668
 Alpha virt. eigenvalues --    0.75295   0.76028   0.76416   0.77036   0.77628
 Alpha virt. eigenvalues --    0.77819   0.78513   0.78892   0.79754   0.80033
 Alpha virt. eigenvalues --    0.80848   0.81561   0.82111   0.83051   0.83282
 Alpha virt. eigenvalues --    0.84407   0.84931   0.86255   0.86498   0.86966
 Alpha virt. eigenvalues --    0.87556   0.88930   0.90390   0.90678   0.91991
 Alpha virt. eigenvalues --    0.95274   0.98203   0.98837   0.99763   1.00663
 Alpha virt. eigenvalues --    1.01796   1.02701   1.05122   1.06232   1.07789
 Alpha virt. eigenvalues --    1.11430   1.12658   1.13477   1.15580   1.16138
 Alpha virt. eigenvalues --    1.17947   1.19106   1.20491   1.21559   1.22034
 Alpha virt. eigenvalues --    1.22723   1.24369   1.25017   1.26665   1.26907
 Alpha virt. eigenvalues --    1.28671   1.30069   1.30572   1.31504   1.32426
 Alpha virt. eigenvalues --    1.33928   1.34466   1.35301   1.35477   1.36325
 Alpha virt. eigenvalues --    1.38469   1.39489   1.40926   1.42232   1.43662
 Alpha virt. eigenvalues --    1.45807   1.48269   1.48749   1.49015   1.51270
 Alpha virt. eigenvalues --    1.52230   1.55865   1.56171   1.57382   1.58369
 Alpha virt. eigenvalues --    1.60250   1.60672   1.61843   1.64706   1.65553
 Alpha virt. eigenvalues --    1.67353   1.68734   1.69682   1.71248   1.71641
 Alpha virt. eigenvalues --    1.72785   1.72929   1.74092   1.75448   1.76334
 Alpha virt. eigenvalues --    1.78143   1.78723   1.79041   1.79702   1.80653
 Alpha virt. eigenvalues --    1.81031   1.82290   1.83620   1.83999   1.84710
 Alpha virt. eigenvalues --    1.85306   1.85335   1.86699   1.86992   1.87173
 Alpha virt. eigenvalues --    1.88898   1.89441   1.91240   1.92378   1.93581
 Alpha virt. eigenvalues --    1.94365   1.95961   1.96417   1.97444   1.97926
 Alpha virt. eigenvalues --    1.98829   2.00674   2.00997   2.02616   2.03591
 Alpha virt. eigenvalues --    2.04983   2.06254   2.07934   2.08935   2.09988
 Alpha virt. eigenvalues --    2.12706   2.13984   2.14803   2.15664   2.17439
 Alpha virt. eigenvalues --    2.19268   2.20201   2.21093   2.22417   2.24833
 Alpha virt. eigenvalues --    2.25151   2.27233   2.27814   2.29109   2.29300
 Alpha virt. eigenvalues --    2.30044   2.31572   2.32712   2.33510   2.34240
 Alpha virt. eigenvalues --    2.37191   2.38370   2.39419   2.40009   2.41004
 Alpha virt. eigenvalues --    2.42543   2.44188   2.45766   2.48173   2.49775
 Alpha virt. eigenvalues --    2.53027   2.53986   2.55846   2.57402   2.59075
 Alpha virt. eigenvalues --    2.59829   2.60414   2.63548   2.64414   2.65867
 Alpha virt. eigenvalues --    2.66669   2.67942   2.71721   2.75621   2.76152
 Alpha virt. eigenvalues --    2.78286   2.79447   2.80878   2.83023   2.85346
 Alpha virt. eigenvalues --    2.87994   2.88205   2.90572   2.92145   2.92906
 Alpha virt. eigenvalues --    2.93946   2.95823   2.97319   2.99561   3.02609
 Alpha virt. eigenvalues --    3.02771   3.04636   3.06359   3.06462   3.07437
 Alpha virt. eigenvalues --    3.11170   3.13901   3.14823   3.16266   3.24882
 Alpha virt. eigenvalues --    3.29738   3.32263   3.39109   3.42560   3.58043
 Alpha virt. eigenvalues --    3.61675   3.63136   3.73108   3.90272   3.94746
          Condensed to atoms (all electrons):
               1          2          3          4          5          6
     1  C    5.114818   0.309688   0.092717  -0.156501   0.108227   0.199731
     2  C    0.309688   5.189076   0.283005   0.038376  -0.146391   0.094335
     3  C    0.092717   0.283005   5.341462   0.215160   0.026390  -0.141575
     4  C   -0.156501   0.038376   0.215160   5.742557   0.232740   0.099121
     5  C    0.108227  -0.146391   0.026390   0.232740   5.253699   0.275367
     6  C    0.199731   0.094335  -0.141575   0.099121   0.275367   5.146194
     7  H    0.455449  -0.067103   0.014675  -0.001080   0.013659  -0.072798
     8  H   -0.063133   0.454641  -0.068115   0.015845  -0.002180   0.013637
     9  H    0.016600  -0.002780   0.017709  -0.076310   0.434635  -0.073140
    10  H   -0.077150   0.013917  -0.001529   0.016340  -0.067961   0.460012
    11  C   -0.003227   0.019336   0.015279   0.117148  -0.114188   0.020001
    12  C    0.015337  -0.122870   0.241229   0.004738   0.022800  -0.002149
    13  C    0.000144  -0.003008  -0.111380  -0.011511   0.022267  -0.000822
    14  H    0.000002   0.000027  -0.001559   0.017970  -0.000407  -0.000004
    15  C   -0.000602   0.014956   0.065926  -0.096730  -0.003917   0.000270
    16  H    0.000004  -0.000323   0.016447  -0.002336   0.000020   0.000002
    17  O   -0.000050  -0.000035   0.002762  -0.112877   0.012792   0.001611
    18  Cl   0.000063  -0.005684  -0.071167   0.003098  -0.000140   0.000024
    19  C   -0.000006   0.000004   0.000699  -0.005840  -0.000275   0.000100
    20  C    0.000000   0.000006   0.000413   0.000867  -0.000256   0.000014
    21  H    0.000000   0.000000   0.000000  -0.000104  -0.000009   0.000000
    22  C    0.000000   0.000000  -0.000001   0.000049  -0.000193  -0.000007
    23  H    0.000000   0.000000  -0.000001   0.000090   0.000245   0.000009
    24  H    0.000000   0.000000   0.000000  -0.000002   0.000004   0.000000
    25  H    0.000000   0.000000   0.000000  -0.000004   0.000000   0.000000
    26  C    0.000029  -0.000032  -0.000527  -0.006996   0.003237  -0.000491
    27  H    0.000127   0.000066  -0.000871   0.001655   0.002048  -0.000394
    28  H   -0.000003  -0.000001   0.000046  -0.000314   0.000200   0.000069
    29  H    0.000019  -0.000006  -0.000079   0.001164   0.000680   0.000203
    30  C    0.000000  -0.000073  -0.001853  -0.006816  -0.000113   0.000008
    31  H    0.000000   0.000000   0.000248   0.000011   0.000021  -0.000001
    32  H   -0.000058  -0.000037   0.002261   0.000571  -0.000883   0.000033
    33  O    0.000000   0.000000   0.000001   0.000562  -0.010938  -0.000068
    34  H   -0.000049   0.000005  -0.000198  -0.010105   0.006277   0.000584
    35  H    0.000000   0.000000   0.000002  -0.000024   0.000487  -0.000037
    36  O    0.000000   0.000000   0.000001  -0.000029  -0.000009   0.000000
    37  H    0.000000   0.000000  -0.000001  -0.000033   0.000017   0.000000
    38  H    0.000001   0.000001  -0.000050   0.002215  -0.000195  -0.000010
               7          8          9         10         11         12
     1  C    0.455449  -0.063133   0.016600  -0.077150  -0.003227   0.015337
     2  C   -0.067103   0.454641  -0.002780   0.013917   0.019336  -0.122870
     3  C    0.014675  -0.068115   0.017709  -0.001529   0.015279   0.241229
     4  C   -0.001080   0.015845  -0.076310   0.016340   0.117148   0.004738
     5  C    0.013659  -0.002180   0.434635  -0.067961  -0.114188   0.022800
     6  C   -0.072798   0.013637  -0.073140   0.460012   0.020001  -0.002149
     7  H    0.637743  -0.011491  -0.000241  -0.010615   0.000041  -0.000402
     8  H   -0.011491   0.640794   0.000012  -0.000204  -0.000087  -0.027844
     9  H   -0.000241   0.000012   0.721830  -0.015366  -0.029889  -0.000029
    10  H   -0.010615  -0.000204  -0.015366   0.644394  -0.000260   0.000039
    11  C    0.000041  -0.000087  -0.029889  -0.000260   5.198725  -0.163488
    12  C   -0.000402  -0.027844  -0.000029   0.000039  -0.163488   5.380084
    13  C   -0.000001  -0.000086   0.000038   0.000006   0.196298   0.129897
    14  H    0.000000   0.000001   0.000040   0.000000  -0.053984   0.014151
    15  C    0.000003   0.000568  -0.000063   0.000000   0.129291   0.329389
    16  H    0.000000  -0.000007  -0.000001   0.000000   0.013778  -0.074253
    17  O    0.000000   0.000001  -0.008162   0.000010   0.495042  -0.000146
    18  Cl  -0.000024   0.022362   0.000001   0.000000   0.000536   0.238068
    19  C    0.000000   0.000000  -0.000429   0.000001  -0.036423  -0.000212
    20  C    0.000000   0.000000  -0.000130   0.000000  -0.015600   0.000247
    21  H    0.000000   0.000000  -0.000003   0.000000  -0.000188  -0.000001
    22  C    0.000000   0.000000   0.000461   0.000000   0.001429   0.000001
    23  H    0.000000   0.000000  -0.001298   0.000000   0.000203   0.000000
    24  H    0.000000   0.000000  -0.000003   0.000000  -0.000056   0.000000
    25  H    0.000000   0.000000   0.000029   0.000000  -0.000382   0.000000
    26  C    0.000000   0.000001  -0.000436   0.000007   0.001065  -0.000032
    27  H   -0.000001  -0.000005  -0.000109  -0.000001   0.001973  -0.000232
    28  H    0.000000   0.000000   0.000021   0.000001  -0.000147   0.000003
    29  H    0.000000   0.000000   0.002238  -0.000017   0.000002   0.000010
    30  C    0.000000  -0.000001   0.000006   0.000000  -0.002954  -0.004665
    31  H    0.000000   0.000000   0.000002   0.000000  -0.001049  -0.001242
    32  H    0.000000   0.000009  -0.000042  -0.000001  -0.001629   0.002933
    33  O    0.000000   0.000000   0.032732  -0.000045  -0.000450   0.000000
    34  H    0.000000   0.000000  -0.014733   0.000126   0.002139   0.000006
    35  H    0.000000   0.000000  -0.001988   0.000000   0.000218   0.000000
    36  O    0.000000   0.000000  -0.000199   0.000000   0.000245   0.000000
    37  H    0.000000   0.000000  -0.000032   0.000000   0.000116   0.000000
    38  H    0.000000   0.000000  -0.000175   0.000000  -0.003173   0.000007
              13         14         15         16         17         18
     1  C    0.000144   0.000002  -0.000602   0.000004  -0.000050   0.000063
     2  C   -0.003008   0.000027   0.014956  -0.000323  -0.000035  -0.005684
     3  C   -0.111380  -0.001559   0.065926   0.016447   0.002762  -0.071167
     4  C   -0.011511   0.017970  -0.096730  -0.002336  -0.112877   0.003098
     5  C    0.022267  -0.000407  -0.003917   0.000020   0.012792  -0.000140
     6  C   -0.000822  -0.000004   0.000270   0.000002   0.001611   0.000024
     7  H   -0.000001   0.000000   0.000003   0.000000   0.000000  -0.000024
     8  H   -0.000086   0.000001   0.000568  -0.000007   0.000001   0.022362
     9  H    0.000038   0.000040  -0.000063  -0.000001  -0.008162   0.000001
    10  H    0.000006   0.000000   0.000000   0.000000   0.000010   0.000000
    11  C    0.196298  -0.053984   0.129291   0.013778   0.495042   0.000536
    12  C    0.129897   0.014151   0.329389  -0.074253  -0.000146   0.238068
    13  C    5.523358   0.429366   0.085120  -0.060666  -0.081367   0.003385
    14  H    0.429366   0.631578  -0.061483  -0.011437   0.000755  -0.000114
    15  C    0.085120  -0.061483   5.146945   0.451334   0.006472  -0.065270
    16  H   -0.060666  -0.011437   0.451334   0.630680  -0.000083   0.000806
    17  O   -0.081367   0.000755   0.006472  -0.000083   8.038441   0.000000
    18  Cl   0.003385  -0.000114  -0.065270   0.000806   0.000000  16.985032
    19  C   -0.031911  -0.004499   0.001981   0.000011   0.081571   0.000000
    20  C   -0.046887   0.001472   0.003979   0.000003  -0.007635  -0.000001
    21  H   -0.002023   0.001828   0.000261   0.000000   0.000056   0.000000
    22  C    0.000704  -0.000051  -0.000009   0.000000  -0.017405   0.000000
    23  H    0.000007   0.000004  -0.000002   0.000000  -0.001431   0.000000
    24  H   -0.000064   0.000007   0.000001   0.000000   0.001046   0.000000
    25  H    0.000078  -0.000026   0.000005   0.000000  -0.000500   0.000000
    26  C    0.001325   0.000170  -0.000009   0.000002  -0.010302   0.000000
    27  H   -0.000765  -0.000063   0.000223  -0.000003  -0.003983   0.000001
    28  H   -0.000176  -0.000004   0.000004   0.000000   0.001748   0.000000
    29  H   -0.000013   0.000022  -0.000013   0.000000  -0.004470   0.000000
    30  C    0.124213  -0.005959  -0.030147  -0.000092  -0.030035   0.000072
    31  H    0.000200  -0.003724   0.000723   0.000805   0.000214  -0.000022
    32  H   -0.015320   0.001890  -0.000375  -0.000173  -0.000053  -0.000098
    33  O   -0.000039   0.000002   0.000001   0.000000  -0.017207   0.000000
    34  H    0.002188  -0.000175  -0.000088   0.000001   0.050306   0.000000
    35  H    0.000003  -0.000004   0.000000   0.000000   0.000327   0.000000
    36  O   -0.000039  -0.000012   0.000000   0.000000  -0.014359   0.000000
    37  H    0.000040  -0.000004  -0.000002   0.000000   0.000195   0.000000
    38  H   -0.002149   0.001072   0.000075  -0.000005   0.039202   0.000000
              19         20         21         22         23         24
     1  C   -0.000006   0.000000   0.000000   0.000000   0.000000   0.000000
     2  C    0.000004   0.000006   0.000000   0.000000   0.000000   0.000000
     3  C    0.000699   0.000413   0.000000  -0.000001  -0.000001   0.000000
     4  C   -0.005840   0.000867  -0.000104   0.000049   0.000090  -0.000002
     5  C   -0.000275  -0.000256  -0.000009  -0.000193   0.000245   0.000004
     6  C    0.000100   0.000014   0.000000  -0.000007   0.000009   0.000000
     7  H    0.000000   0.000000   0.000000   0.000000   0.000000   0.000000
     8  H    0.000000   0.000000   0.000000   0.000000   0.000000   0.000000
     9  H   -0.000429  -0.000130  -0.000003   0.000461  -0.001298  -0.000003
    10  H    0.000001   0.000000   0.000000   0.000000   0.000000   0.000000
    11  C   -0.036423  -0.015600  -0.000188   0.001429   0.000203  -0.000056
    12  C   -0.000212   0.000247  -0.000001   0.000001   0.000000   0.000000
    13  C   -0.031911  -0.046887  -0.002023   0.000704   0.000007  -0.000064
    14  H   -0.004499   0.001472   0.001828  -0.000051   0.000004   0.000007
    15  C    0.001981   0.003979   0.000261  -0.000009  -0.000002   0.000001
    16  H    0.000011   0.000003   0.000000   0.000000   0.000000   0.000000
    17  O    0.081571  -0.007635   0.000056  -0.017405  -0.001431   0.001046
    18  Cl   0.000000  -0.000001   0.000000   0.000000   0.000000   0.000000
    19  C    5.121632   0.412943  -0.045160   0.396175  -0.009909  -0.010746
    20  C    0.412943   4.936649   0.421443  -0.070006   0.010468  -0.004277
    21  H   -0.045160   0.421443   0.617833  -0.012430   0.000343   0.000149
    22  C    0.396175  -0.070006  -0.012430   4.703339   0.306307   0.373409
    23  H   -0.009909   0.010468   0.000343   0.306307   0.650570  -0.007372
    24  H   -0.010746  -0.004277   0.000149   0.373409  -0.007372   0.582065
    25  H   -0.011750  -0.012802   0.005236   0.382011  -0.018163  -0.015436
    26  C    0.381582  -0.069395   0.008232  -0.050809  -0.016049  -0.003098
    27  H   -0.001587  -0.021223  -0.000162   0.007385  -0.000071   0.000029
    28  H   -0.013959  -0.002803  -0.000154  -0.004400  -0.000042   0.002450
    29  H   -0.018312   0.011718  -0.000249  -0.016472   0.014305  -0.000421
    30  C   -0.033746   0.522652  -0.040238   0.011740  -0.000707  -0.000570
    31  H    0.011465  -0.013145  -0.011654  -0.000288   0.000007   0.000010
    32  H   -0.022660  -0.006296   0.006702   0.000127   0.000017   0.000008
    33  O    0.003084   0.000161   0.000000  -0.024073   0.057280   0.000295
    34  H   -0.003505  -0.000400   0.000016   0.005456  -0.005622  -0.000272
    35  H   -0.000589  -0.000049  -0.000002   0.002395  -0.002637  -0.000019
    36  O   -0.000687  -0.000100  -0.000063  -0.000766   0.003002   0.000240
    37  H    0.000074   0.000004   0.000009   0.000083  -0.000493  -0.000021
    38  H   -0.001654  -0.000101   0.000046   0.002422  -0.001532  -0.000019
              25         26         27         28         29         30
     1  C    0.000000   0.000029   0.000127  -0.000003   0.000019   0.000000
     2  C    0.000000  -0.000032   0.000066  -0.000001  -0.000006  -0.000073
     3  C    0.000000  -0.000527  -0.000871   0.000046  -0.000079  -0.001853
     4  C   -0.000004  -0.006996   0.001655  -0.000314   0.001164  -0.006816
     5  C    0.000000   0.003237   0.002048   0.000200   0.000680  -0.000113
     6  C    0.000000  -0.000491  -0.000394   0.000069   0.000203   0.000008
     7  H    0.000000   0.000000  -0.000001   0.000000   0.000000   0.000000
     8  H    0.000000   0.000001  -0.000005   0.000000   0.000000  -0.000001
     9  H    0.000029  -0.000436  -0.000109   0.000021   0.002238   0.000006
    10  H    0.000000   0.000007  -0.000001   0.000001  -0.000017   0.000000
    11  C   -0.000382   0.001065   0.001973  -0.000147   0.000002  -0.002954
    12  C    0.000000  -0.000032  -0.000232   0.000003   0.000010  -0.004665
    13  C    0.000078   0.001325  -0.000765  -0.000176  -0.000013   0.124213
    14  H   -0.000026   0.000170  -0.000063  -0.000004   0.000022  -0.005959
    15  C    0.000005  -0.000009   0.000223   0.000004  -0.000013  -0.030147
    16  H    0.000000   0.000002  -0.000003   0.000000   0.000000  -0.000092
    17  O   -0.000500  -0.010302  -0.003983   0.001748  -0.004470  -0.030035
    18  Cl   0.000000   0.000000   0.000001   0.000000   0.000000   0.000072
    19  C   -0.011750   0.381582  -0.001587  -0.013959  -0.018312  -0.033746
    20  C   -0.012802  -0.069395  -0.021223  -0.002803   0.011718   0.522652
    21  H    0.005236   0.008232  -0.000162  -0.000154  -0.000249  -0.040238
    22  C    0.382011  -0.050809   0.007385  -0.004400  -0.016472   0.011740
    23  H   -0.018163  -0.016049  -0.000071  -0.000042   0.014305  -0.000707
    24  H   -0.015436  -0.003098   0.000029   0.002450  -0.000421  -0.000570
    25  H    0.597791   0.007118  -0.000351  -0.000073   0.000158   0.000674
    26  C    0.007118   4.621882   0.386735   0.380479   0.367695  -0.005928
    27  H   -0.000351   0.386735   0.590884  -0.015231  -0.022356   0.008973
    28  H   -0.000073   0.380479  -0.015231   0.581642  -0.014367  -0.001577
    29  H    0.000158   0.367695  -0.022356  -0.014367   0.619490  -0.000200
    30  C    0.000674  -0.005928   0.008973  -0.001577  -0.000200   4.722931
    31  H   -0.000016  -0.000005  -0.000016   0.000006  -0.000009   0.381330
    32  H   -0.000005   0.005196   0.001231   0.000115  -0.000132   0.387225
    33  O    0.000141  -0.008080   0.000056   0.000079   0.020873  -0.000006
    34  H   -0.000856   0.003694  -0.000453   0.000008  -0.007081   0.000221
    35  H   -0.000272   0.000610   0.000002  -0.000009  -0.001628   0.000002
    36  O    0.005546  -0.000010   0.000000   0.000001  -0.000066  -0.000001
    37  H   -0.000226   0.000007   0.000000   0.000000   0.000001   0.000004
    38  H    0.001810   0.000018   0.000018  -0.000033   0.000054  -0.000088
              31         32         33         34         35         36
     1  C    0.000000  -0.000058   0.000000  -0.000049   0.000000   0.000000
     2  C    0.000000  -0.000037   0.000000   0.000005   0.000000   0.000000
     3  C    0.000248   0.002261   0.000001  -0.000198   0.000002   0.000001
     4  C    0.000011   0.000571   0.000562  -0.010105  -0.000024  -0.000029
     5  C    0.000021  -0.000883  -0.010938   0.006277   0.000487  -0.000009
     6  C   -0.000001   0.000033  -0.000068   0.000584  -0.000037   0.000000
     7  H    0.000000   0.000000   0.000000   0.000000   0.000000   0.000000
     8  H    0.000000   0.000009   0.000000   0.000000   0.000000   0.000000
     9  H    0.000002  -0.000042   0.032732  -0.014733  -0.001988  -0.000199
    10  H    0.000000  -0.000001  -0.000045   0.000126   0.000000   0.000000
    11  C   -0.001049  -0.001629  -0.000450   0.002139   0.000218   0.000245
    12  C   -0.001242   0.002933   0.000000   0.000006   0.000000   0.000000
    13  C    0.000200  -0.015320  -0.000039   0.002188   0.000003  -0.000039
    14  H   -0.003724   0.001890   0.000002  -0.000175  -0.000004  -0.000012
    15  C    0.000723  -0.000375   0.000001  -0.000088   0.000000   0.000000
    16  H    0.000805  -0.000173   0.000000   0.000001   0.000000   0.000000
    17  O    0.000214  -0.000053  -0.017207   0.050306   0.000327  -0.014359
    18  Cl  -0.000022  -0.000098   0.000000   0.000000   0.000000   0.000000
    19  C    0.011465  -0.022660   0.003084  -0.003505  -0.000589  -0.000687
    20  C   -0.013145  -0.006296   0.000161  -0.000400  -0.000049  -0.000100
    21  H   -0.011654   0.006702   0.000000   0.000016  -0.000002  -0.000063
    22  C   -0.000288   0.000127  -0.024073   0.005456   0.002395  -0.000766
    23  H    0.000007   0.000017   0.057280  -0.005622  -0.002637   0.003002
    24  H    0.000010   0.000008   0.000295  -0.000272  -0.000019   0.000240
    25  H   -0.000016  -0.000005   0.000141  -0.000856  -0.000272   0.005546
    26  C   -0.000005   0.005196  -0.008080   0.003694   0.000610  -0.000010
    27  H   -0.000016   0.001231   0.000056  -0.000453   0.000002   0.000000
    28  H    0.000006   0.000115   0.000079   0.000008  -0.000009   0.000001
    29  H   -0.000009  -0.000132   0.020873  -0.007081  -0.001628  -0.000066
    30  C    0.381330   0.387225  -0.000006   0.000221   0.000002  -0.000001
    31  H    0.581463  -0.033662   0.000000   0.000000   0.000000   0.000000
    32  H   -0.033662   0.589142   0.000001  -0.000015   0.000000   0.000000
    33  O    0.000000   0.000001   7.696494   0.300566   0.326233  -0.013369
    34  H    0.000000  -0.000015   0.300566   0.510903  -0.016539   0.009953
    35  H    0.000000   0.000000   0.326233  -0.016539   0.478265   0.045300
    36  O    0.000000   0.000000  -0.013369   0.009953   0.045300   7.692826
    37  H    0.000000   0.000000   0.000449   0.000988  -0.001124   0.328103
    38  H   -0.000002  -0.000003   0.004036   0.000414  -0.006665   0.316677
              37         38
     1  C    0.000000   0.000001
     2  C    0.000000   0.000001
     3  C   -0.000001  -0.000050
     4  C   -0.000033   0.002215
     5  C    0.000017  -0.000195
     6  C    0.000000  -0.000010
     7  H    0.000000   0.000000
     8  H    0.000000   0.000000
     9  H   -0.000032  -0.000175
    10  H    0.000000   0.000000
    11  C    0.000116  -0.003173
    12  C    0.000000   0.000007
    13  C    0.000040  -0.002149
    14  H   -0.000004   0.001072
    15  C   -0.000002   0.000075
    16  H    0.000000  -0.000005
    17  O    0.000195   0.039202
    18  Cl   0.000000   0.000000
    19  C    0.000074  -0.001654
    20  C    0.000004  -0.000101
    21  H    0.000009   0.000046
    22  C    0.000083   0.002422
    23  H   -0.000493  -0.001532
    24  H   -0.000021  -0.000019
    25  H   -0.000226   0.001810
    26  C    0.000007   0.000018
    27  H    0.000000   0.000018
    28  H    0.000000  -0.000033
    29  H    0.000001   0.000054
    30  C    0.000004  -0.000088
    31  H    0.000000  -0.000002
    32  H    0.000000  -0.000003
    33  O    0.000449   0.004036
    34  H    0.000988   0.000414
    35  H   -0.001124  -0.006665
    36  O    0.328103   0.316677
    37  H    0.494042  -0.016643
    38  H   -0.016643   0.477779
 Mulliken charges:
               1
     1  C   -0.012178
     2  C   -0.069094
     3  C    0.062473
     4  C   -0.022666
     5  C   -0.067757
     6  C   -0.019826
     7  H    0.042187
     8  H    0.025282
     9  H   -0.000797
    10  H    0.038294
    11  C    0.214309
    12  C    0.018628
    13  C   -0.150410
    14  H    0.043153
    15  C    0.021182
    16  H    0.035485
    17  O   -0.422451
    18  Cl  -0.110930
    19  C   -0.157463
    20  C   -0.051931
    21  H    0.050284
    22  C    0.003415
    23  H    0.022471
    24  H    0.082662
    25  H    0.060264
    26  C    0.003113
    27  H    0.066469
    28  H    0.086422
    29  H    0.047259
    30  C    0.005716
    31  H    0.088328
    32  H    0.083981
    33  O   -0.368771
    34  H    0.166240
    35  H    0.177740
    36  O   -0.372184
    37  H    0.194449
    38  H    0.186654
 Sum of Mulliken charges =   0.00000
 Mulliken charges with hydrogens summed into heavy atoms:
               1
     1  C    0.030008
     2  C   -0.043811
     3  C    0.062473
     4  C   -0.022666
     5  C   -0.068554
     6  C    0.018468
    11  C    0.214309
    12  C    0.018628
    13  C   -0.107257
    15  C    0.056667
    17  O   -0.422451
    18  Cl  -0.110930
    19  C   -0.157463
    20  C   -0.001647
    22  C    0.168812
    26  C    0.203263
    30  C    0.178025
    33  O   -0.024791
    36  O    0.008918
 APT charges:
               1
     1  C   -0.020416
     2  C   -0.154011
     3  C   -0.001506
     4  C   -0.039943
     5  C   -0.109270
     6  C   -0.025196
     7  H    0.054097
     8  H    0.093418
     9  H    0.110060
    10  H    0.055895
    11  C    0.530338
    12  C    0.396379
    13  C   -0.429177
    14  H    0.074856
    15  C    0.086691
    16  H    0.084154
    17  O   -1.111028
    18  Cl  -0.492121
    19  C    0.879025
    20  C   -0.697748
    21  H    0.061648
    22  C   -0.248260
    23  H    0.100514
    24  H    0.008862
    25  H    0.027997
    26  C   -0.192541
    27  H    0.043331
    28  H    0.046728
    29  H    0.081087
    30  C    0.654192
    31  H    0.062928
    32  H    0.009955
    33  O   -0.909624
    34  H    0.516581
    35  H    0.418737
    36  O   -0.804133
    37  H    0.323520
    38  H    0.513982
 Sum of APT charges =   0.00000
 APT charges with hydrogens summed into heavy atoms:
               1
     1  C    0.033681
     2  C   -0.060593
     3  C   -0.001506
     4  C   -0.039943
     5  C    0.000790
     6  C    0.030698
    11  C    0.530338
    12  C    0.396379
    13  C   -0.354321
    15  C    0.170845
    17  O   -1.111028
    18  Cl  -0.492121
    19  C    0.879025
    20  C   -0.636100
    22  C   -0.110887
    26  C   -0.021395
    30  C    0.727075
    33  O    0.025694
    36  O    0.033369
 Electronic spatial extent (au):  <R**2>=           5884.6514
 Charge=              0.0000 electrons
 Dipole moment (field-independent basis, Debye):
    X=              0.7817    Y=             -4.0937    Z=             -1.9709  Tot=              4.6102
 Quadrupole moment (field-independent basis, Debye-Ang):
   XX=           -133.6825   YY=           -113.3559   ZZ=           -112.9451
   XY=             12.6120   XZ=              1.8399   YZ=             -2.1067
 Traceless Quadrupole moment (field-independent basis, Debye-Ang):
   XX=            -13.6880   YY=              6.6386   ZZ=              7.0494
   XY=             12.6120   XZ=              1.8399   YZ=             -2.1067
 Octapole moment (field-independent basis, Debye-Ang**2):
  XXX=              5.4126  YYY=            -26.5957  ZZZ=             41.2637  XYY=             24.3483
  XXY=             -9.1548  XXZ=            -23.8330  XZZ=            -40.2832  YZZ=             -0.0826
  YYZ=             -2.5958  XYZ=             -9.3078
 Hexadecapole moment (field-independent basis, Debye-Ang**3):
 XXXX=          -4930.3623 YYYY=          -1859.0692 ZZZZ=           -738.7105 XXXY=             93.7215
 XXXZ=             25.6809 YYYX=             61.1980 YYYZ=            -54.9413 ZZZX=           -128.9168
 ZZZY=             12.6350 XXYY=          -1152.0399 XXZZ=           -887.1306 YYZZ=           -495.0848
 XXYZ=             10.3744 YYXZ=            -32.1111 ZZXY=            -45.8402
 N-N= 1.619336952189D+03 E-N=-6.211023024496D+03  KE= 1.258784923500D+03
  Exact polarizability: 375.326  19.540 303.055  27.517 -15.837 184.238
 Approx polarizability: 335.087   4.804 285.194  15.518 -15.667 184.303
   1 Symmetry operations used in ECPInt.
 ECPInt:  NShTT=   15051 NPrTT=   54599 LenC2=   14123 LenP2D=   36435.
 LDataN:  DoStor=T MaxTD1= 6 Len=  172
 D2PCM: C-PCM CHGder 2nd derivatives, FixD1E=F FixD2E=F DoIter=F DoCFld=F I1PDM=0
 Calling FoFJK, ICntrl=    100127 FMM=F ISym2X=0 I1Cent= 0 IOpClX= 0 NMat=1 NMatS=1 NMatT=0.
 Full mass-weighted force constant matrix:
 Low frequencies --- -324.7802  -16.7049   -9.6438   -1.5031    0.0017    0.0017
 Low frequencies ---    0.0020   38.2817   47.4404
 ******    1 imaginary frequencies (negative Signs) ****** 
 Diagonal vibrational polarizability:
      228.4431575     149.3488673     198.8824617
 Harmonic frequencies (cm**-1), IR intensities (KM/Mole), Raman scattering
 activities (A**4/AMU), depolarization ratios for plane and unpolarized
 incident light, reduced masses (AMU), force constants (mDyne/A),
 and normal coordinates:
                      1                      2                      3
                      A                      A                      A
 Frequencies --   -324.7796                38.2341                47.3348
 Red. masses --      7.8304                 6.1608                 6.0455
 Frc consts  --      0.4866                 0.0053                 0.0080
 IR Inten    --     91.1234                 3.8043                 2.9284
  Atom  AN      X      Y      Z        X      Y      Z        X      Y      Z
     1   6     0.00  -0.01   0.00    -0.03   0.05   0.17     0.02   0.00   0.02
     2   6     0.00   0.01   0.00    -0.02   0.03   0.09     0.02   0.00   0.06
     3   6    -0.01  -0.01   0.02    -0.01   0.00   0.03     0.01  -0.01   0.00
     4   6    -0.03  -0.03   0.01    -0.02  -0.02   0.05     0.00  -0.02  -0.07
     5   6    -0.02   0.00  -0.02    -0.03  -0.01   0.12     0.00  -0.03  -0.11
     6   6    -0.02  -0.01   0.00    -0.04   0.02   0.18     0.01  -0.02  -0.07
     7   1    -0.01   0.00   0.00    -0.04   0.07   0.23     0.03   0.00   0.06
     8   1     0.00   0.01   0.01    -0.02   0.05   0.09     0.03   0.01   0.13
     9   1    -0.02   0.00  -0.03    -0.03  -0.02   0.13    -0.01  -0.04  -0.17
    10   1    -0.02  -0.01   0.01    -0.05   0.03   0.24     0.01  -0.03  -0.10
    11   6     0.02  -0.03  -0.03     0.00  -0.05   0.00    -0.01  -0.02  -0.10
    12   6     0.00   0.03   0.02     0.01  -0.01  -0.04     0.00  -0.01   0.02
    13   6     0.05   0.12   0.28     0.02  -0.05  -0.04    -0.02  -0.03  -0.14
    14   1     0.00   0.02   0.01     0.04  -0.07  -0.05    -0.03  -0.04  -0.17
    15   6    -0.01   0.04   0.11     0.02  -0.03  -0.07    -0.02  -0.03  -0.08
    16   1    -0.01   0.04   0.11     0.04  -0.04  -0.12    -0.03  -0.03  -0.07
    17   8    -0.12  -0.12  -0.29    -0.01  -0.08   0.01     0.00  -0.01  -0.08
    18  17    -0.01   0.00  -0.01     0.01   0.01  -0.11     0.02   0.03   0.20
    19   6     0.15   0.17   0.30     0.00  -0.08   0.02    -0.08  -0.01  -0.05
    20   6     0.04  -0.04  -0.05     0.03  -0.06  -0.02    -0.03   0.01  -0.11
    21   1    -0.03  -0.05  -0.14     0.05  -0.09  -0.03     0.02  -0.02  -0.11
    22   6     0.09   0.06   0.13     0.00  -0.13   0.04    -0.06  -0.07   0.06
    23   1    -0.11   0.10  -0.04    -0.03  -0.14   0.06    -0.04  -0.10   0.12
    24   1     0.26  -0.18   0.02    -0.01  -0.14   0.05    -0.13  -0.04   0.10
    25   1     0.10   0.10   0.18     0.04  -0.15   0.03     0.01  -0.11   0.04
    26   6     0.03   0.03   0.03    -0.04  -0.05   0.03    -0.17   0.03  -0.05
    27   1     0.02   0.07  -0.02    -0.04  -0.01   0.04    -0.18   0.08  -0.11
    28   1    -0.02  -0.22   0.08    -0.01  -0.07   0.02    -0.22   0.04  -0.03
    29   1    -0.01   0.08  -0.13    -0.08  -0.07   0.02    -0.19   0.01  -0.01
    30   6    -0.13  -0.15  -0.37     0.03  -0.03  -0.04    -0.03   0.07  -0.15
    31   1    -0.09  -0.12  -0.29     0.05  -0.02  -0.06     0.01   0.08  -0.20
    32   1    -0.06  -0.01  -0.06     0.01   0.00  -0.03    -0.07   0.10  -0.15
    33   8     0.00   0.00   0.00     0.05   0.02  -0.28    -0.02  -0.03   0.02
    34   1    -0.02  -0.02  -0.03    -0.01  -0.05  -0.18    -0.01  -0.01  -0.04
    35   1     0.01   0.01   0.02     0.04   0.20  -0.19     0.08  -0.01   0.11
    36   8     0.01   0.00   0.00     0.00   0.34   0.07     0.25   0.06   0.23
    37   1     0.00  -0.02   0.00     0.03   0.44   0.05     0.41   0.14   0.16
    38   1     0.02   0.04  -0.01    -0.03   0.18   0.10     0.17   0.05   0.10
                      4                      5                      6
                      A                      A                      A
 Frequencies --     67.8237                72.8053                79.3040
 Red. masses --      4.1149                 5.1114                 5.0103
 Frc consts  --      0.0112                 0.0160                 0.0186
 IR Inten    --      7.1121                 8.1243                 1.2053
  Atom  AN      X      Y      Z        X      Y      Z        X      Y      Z
     1   6     0.03   0.05   0.12     0.04   0.06   0.13    -0.13  -0.02  -0.08
     2   6     0.01   0.04   0.08     0.05   0.06   0.11    -0.09   0.00  -0.07
     3   6    -0.01   0.03   0.01     0.04   0.03   0.00    -0.05  -0.02  -0.02
     4   6    -0.01   0.04  -0.03     0.03   0.00  -0.07    -0.05  -0.06   0.01
     5   6     0.01   0.05   0.00     0.02  -0.01  -0.07    -0.09  -0.07   0.03
     6   6     0.03   0.06   0.07     0.03   0.02   0.02    -0.13  -0.05  -0.01
     7   1     0.05   0.06   0.18     0.05   0.09   0.22    -0.17  -0.01  -0.12
     8   1     0.01   0.03   0.11     0.06   0.08   0.17    -0.09   0.02  -0.11
     9   1     0.00   0.05  -0.03     0.01  -0.03  -0.14    -0.09  -0.08   0.08
    10   1     0.04   0.07   0.10     0.02   0.02   0.02    -0.17  -0.06   0.00
    11   6    -0.02   0.04  -0.05     0.03  -0.02  -0.08    -0.02  -0.09   0.01
    12   6    -0.03   0.02  -0.01     0.04   0.02  -0.04     0.00   0.00  -0.01
    13   6    -0.04   0.04   0.01     0.04  -0.02  -0.11     0.02  -0.09  -0.04
    14   1    -0.04   0.07   0.06     0.06  -0.02  -0.07     0.04  -0.11  -0.04
    15   6    -0.04   0.03   0.00     0.04  -0.01  -0.12     0.03  -0.04  -0.04
    16   1    -0.05   0.03   0.01     0.05  -0.01  -0.14     0.06  -0.03  -0.04
    17   8    -0.02   0.05  -0.08     0.04  -0.01  -0.02    -0.02  -0.12   0.03
    18  17    -0.04  -0.02  -0.06     0.06   0.06   0.05     0.02   0.09   0.06
    19   6     0.01  -0.03  -0.04    -0.10  -0.04   0.07     0.05   0.04  -0.06
    20   6    -0.06  -0.06   0.08    -0.15  -0.07   0.10    -0.04  -0.01  -0.03
    21   1    -0.11   0.01   0.15    -0.15  -0.01   0.20    -0.11   0.03  -0.04
    22   6     0.00   0.09  -0.11    -0.07   0.05   0.13     0.04   0.16  -0.13
    23   1     0.03   0.16  -0.23     0.00   0.09   0.08     0.12   0.16  -0.08
    24   1     0.03   0.00  -0.12    -0.11   0.03   0.16     0.08   0.29  -0.17
    25   1    -0.06   0.18  -0.02    -0.08   0.11   0.19    -0.09   0.15  -0.20
    26   6     0.12  -0.13  -0.11    -0.08  -0.11  -0.01     0.19   0.01  -0.02
    27   1     0.13  -0.19  -0.04    -0.08  -0.15  -0.05     0.19  -0.09   0.02
    28   1     0.18  -0.19  -0.13    -0.12  -0.14   0.01     0.21   0.07  -0.03
    29   1     0.15  -0.07  -0.21    -0.03  -0.07  -0.04     0.26   0.03  -0.01
    30   6    -0.06  -0.15   0.11    -0.17  -0.14   0.00    -0.04  -0.10   0.01
    31   1    -0.12  -0.16   0.20    -0.20  -0.15   0.03    -0.11  -0.13   0.02
    32   1    -0.03  -0.23   0.03    -0.18  -0.20  -0.11     0.01  -0.15  -0.01
    33   8    -0.09  -0.01   0.01     0.15   0.07   0.04     0.20   0.04   0.11
    34   1    -0.05   0.04  -0.09     0.11   0.02   0.07     0.09  -0.07   0.12
    35   1     0.01  -0.08   0.05     0.06   0.08  -0.03     0.11   0.13   0.09
    36   8     0.20  -0.06   0.11    -0.11  -0.04  -0.18     0.00   0.11   0.10
    37   1     0.34  -0.01   0.05    -0.24  -0.13  -0.12     0.06   0.12   0.08
    38   1     0.14   0.00  -0.02    -0.05  -0.03  -0.08    -0.05   0.00   0.07
                      7                      8                      9
                      A                      A                      A
 Frequencies --    115.7437               127.4626               134.8483
 Red. masses --      5.1799                 6.5899                 4.8283
 Frc consts  --      0.0409                 0.0631                 0.0517
 IR Inten    --      3.6185                12.7659                 4.4280
  Atom  AN      X      Y      Z        X      Y      Z        X      Y      Z
     1   6     0.00   0.03   0.09     0.05   0.00   0.00    -0.01   0.00   0.05
     2   6     0.00   0.04   0.16     0.04  -0.02  -0.06     0.04   0.05   0.21
     3   6    -0.02   0.03   0.07     0.03  -0.02  -0.07     0.05   0.01   0.13
     4   6    -0.03   0.01  -0.04     0.03  -0.01  -0.05     0.03  -0.05   0.02
     5   6    -0.04  -0.01  -0.16     0.05   0.01   0.01    -0.03  -0.11  -0.17
     6   6    -0.02  -0.01  -0.11     0.06   0.01   0.04    -0.06  -0.09  -0.20
     7   1     0.02   0.04   0.17     0.06   0.00   0.01    -0.03   0.03   0.10
     8   1     0.02   0.07   0.29     0.03  -0.04  -0.09     0.06   0.12   0.37
     9   1    -0.06  -0.03  -0.29     0.05   0.01   0.03    -0.05  -0.17  -0.31
    10   1    -0.03  -0.03  -0.21     0.08   0.03   0.10    -0.11  -0.14  -0.38
    11   6    -0.04   0.02  -0.03     0.01   0.00  -0.07     0.04  -0.04   0.05
    12   6    -0.04   0.02   0.05     0.03  -0.02  -0.08     0.07   0.00   0.07
    13   6    -0.04   0.03   0.03     0.01  -0.02  -0.12     0.06  -0.03   0.05
    14   1    -0.05   0.04   0.03     0.02  -0.02  -0.10     0.08  -0.06   0.03
    15   6    -0.04   0.03   0.05     0.02  -0.02  -0.11     0.07  -0.02   0.02
    16   1    -0.05   0.02   0.03     0.01  -0.03  -0.11     0.07  -0.04  -0.06
    17   8    -0.04   0.00  -0.07     0.01   0.00  -0.05     0.04  -0.02   0.09
    18  17    -0.06  -0.05  -0.08     0.04   0.01   0.05     0.06   0.00  -0.08
    19   6     0.05  -0.08  -0.05     0.07  -0.02   0.03    -0.03   0.08  -0.01
    20   6     0.12  -0.05  -0.05     0.03  -0.04   0.00    -0.06   0.07   0.01
    21   1     0.16  -0.08  -0.06     0.02  -0.03   0.02    -0.09   0.08   0.01
    22   6     0.07  -0.11   0.00     0.07   0.00   0.02    -0.04   0.12  -0.06
    23   1     0.14  -0.19   0.19     0.06   0.01  -0.02    -0.03   0.11  -0.06
    24   1     0.02   0.09   0.02     0.07  -0.05   0.02     0.01   0.16  -0.10
    25   1     0.06  -0.22  -0.13     0.08   0.02   0.05    -0.10   0.10  -0.10
    26   6    -0.02  -0.07  -0.08     0.09  -0.05  -0.01     0.02   0.08   0.02
    27   1    -0.03  -0.02  -0.13     0.10  -0.04   0.05     0.02   0.05   0.02
    28   1    -0.07  -0.09  -0.06     0.15  -0.10  -0.02     0.02   0.09   0.01
    29   1    -0.04  -0.08  -0.06     0.07  -0.03  -0.06     0.03   0.08   0.01
    30   6     0.14   0.04   0.02     0.03  -0.07  -0.02    -0.07   0.01  -0.02
    31   1     0.19   0.06   0.03     0.01  -0.09  -0.02    -0.10   0.00  -0.02
    32   1     0.12   0.07   0.05     0.03  -0.10  -0.06    -0.05   0.00  -0.01
    33   8     0.16   0.09   0.24    -0.37   0.00   0.22    -0.15  -0.09  -0.07
    34   1     0.10   0.04   0.17    -0.20   0.20   0.00    -0.06  -0.02   0.04
    35   1     0.11   0.06   0.18    -0.15  -0.28   0.25    -0.15  -0.10  -0.07
    36   8    -0.08   0.08   0.03    -0.21   0.23   0.06    -0.04   0.03   0.06
    37   1    -0.09  -0.01   0.05    -0.33  -0.06   0.15    -0.03   0.11   0.04
    38   1    -0.09   0.03   0.03    -0.19   0.14   0.14    -0.04   0.00   0.07
                     10                     11                     12
                      A                      A                      A
 Frequencies --    154.7651               161.3904               184.4509
 Red. masses --      2.8552                 3.1859                 2.2468
 Frc consts  --      0.0403                 0.0489                 0.0450
 IR Inten    --     16.8287                 6.4734                23.4053
  Atom  AN      X      Y      Z        X      Y      Z        X      Y      Z
     1   6     0.07   0.01  -0.02     0.03   0.01   0.01     0.02   0.02   0.01
     2   6     0.04   0.00  -0.05     0.01   0.01   0.01     0.00   0.02   0.03
     3   6     0.02   0.02  -0.02    -0.01   0.01  -0.02    -0.02   0.01  -0.02
     4   6     0.02   0.03   0.00    -0.01   0.03  -0.03    -0.02   0.02  -0.04
     5   6     0.06   0.05   0.03     0.01   0.03  -0.04     0.00   0.02  -0.06
     6   6     0.08   0.04   0.03     0.03   0.02  -0.02     0.01   0.02  -0.05
     7   1     0.08   0.00  -0.03     0.04   0.01   0.04     0.03   0.02   0.04
     8   1     0.03  -0.03  -0.07     0.01   0.00   0.03     0.01   0.01   0.07
     9   1     0.06   0.08   0.05     0.01   0.04  -0.05    -0.01   0.03  -0.09
    10   1     0.10   0.05   0.07     0.04   0.03  -0.03     0.02   0.01  -0.07
    11   6     0.01   0.03   0.00    -0.01   0.03  -0.02    -0.01   0.02  -0.03
    12   6     0.02   0.03   0.02    -0.02   0.00  -0.03    -0.03   0.00  -0.05
    13   6     0.02   0.06   0.08    -0.03   0.01  -0.07    -0.03   0.00  -0.08
    14   1     0.01   0.06   0.06    -0.03   0.03  -0.05    -0.03   0.01  -0.06
    15   6     0.01   0.05   0.07    -0.03   0.00  -0.06    -0.03  -0.01  -0.09
    16   1     0.01   0.06   0.12    -0.04  -0.01  -0.08    -0.04  -0.02  -0.12
    17   8     0.00   0.01   0.00    -0.01   0.01   0.00    -0.02   0.00   0.00
    18  17     0.02   0.01  -0.01    -0.03  -0.02   0.02    -0.03  -0.01   0.02
    19   6    -0.07  -0.04  -0.06     0.05   0.04   0.02     0.05   0.00   0.11
    20   6    -0.06  -0.04  -0.03     0.03   0.04   0.02     0.02  -0.02   0.03
    21   1    -0.07  -0.04  -0.04     0.03   0.05   0.05     0.01  -0.03  -0.01
    22   6    -0.09  -0.04  -0.11     0.05   0.04   0.05     0.02  -0.02   0.01
    23   1     0.00  -0.18   0.22    -0.05   0.21  -0.31     0.06  -0.18   0.33
    24   1    -0.03   0.40  -0.18     0.01  -0.42   0.11     0.10   0.37  -0.07
    25   1    -0.24  -0.25  -0.44     0.20   0.27   0.39    -0.13  -0.24  -0.31
    26   6    -0.04  -0.02  -0.01     0.04   0.01  -0.04     0.10   0.04   0.18
    27   1    -0.03   0.04   0.13     0.03  -0.07  -0.15     0.11   0.14   0.41
    28   1     0.09  -0.05  -0.06    -0.06   0.02   0.00     0.33  -0.02   0.09
    29   1    -0.14  -0.04  -0.04     0.14   0.03  -0.02    -0.07   0.01   0.09
    30   6    -0.08  -0.04  -0.08     0.03   0.03   0.03     0.02  -0.03   0.02
    31   1    -0.07  -0.03  -0.04     0.02   0.02   0.03     0.01  -0.04  -0.01
    32   1    -0.08  -0.03  -0.05     0.04   0.00   0.00     0.02  -0.04   0.01
    33   8     0.07  -0.15   0.01     0.11  -0.13  -0.10     0.00   0.02  -0.06
    34   1     0.09  -0.13  -0.02     0.07  -0.19  -0.01    -0.01   0.00   0.04
    35   1     0.13  -0.12   0.07     0.03  -0.02  -0.09    -0.06   0.10  -0.07
    36   8    -0.10   0.02   0.10    -0.17  -0.08   0.19     0.00  -0.07   0.02
    37   1    -0.11  -0.03   0.11    -0.14  -0.01   0.17     0.05   0.14  -0.02
    38   1    -0.11  -0.02   0.11    -0.18  -0.06   0.17    -0.01  -0.05   0.01
                     13                     14                     15
                      A                      A                      A
 Frequencies --    203.8390               205.2506               224.5817
 Red. masses --      4.2971                 2.4573                 4.7943
 Frc consts  --      0.1052                 0.0610                 0.1425
 IR Inten    --     41.6473                74.5429                 7.3128
  Atom  AN      X      Y      Z        X      Y      Z        X      Y      Z
     1   6     0.01  -0.02  -0.15     0.01  -0.01   0.06     0.15  -0.12   0.01
     2   6     0.02   0.03   0.06     0.01  -0.03  -0.04     0.04  -0.14   0.06
     3   6     0.03   0.07   0.19     0.01  -0.04  -0.07    -0.06  -0.06   0.04
     4   6     0.03   0.08   0.20     0.00  -0.04  -0.07    -0.04  -0.01   0.01
     5   6     0.04   0.07   0.13     0.00  -0.04  -0.03     0.07   0.03  -0.03
     6   6     0.02   0.01  -0.10     0.01  -0.01   0.06     0.17  -0.05  -0.04
     7   1    -0.01  -0.08  -0.36     0.02   0.02   0.13     0.22  -0.18   0.02
     8   1     0.02   0.01   0.03     0.01  -0.03  -0.05     0.03  -0.21   0.11
     9   1     0.04   0.09   0.16     0.00  -0.06  -0.05     0.09   0.12  -0.06
    10   1     0.01  -0.02  -0.24     0.02   0.00   0.13     0.24  -0.03  -0.08
    11   6     0.00   0.04   0.06     0.00  -0.02  -0.01    -0.05  -0.01   0.00
    12   6     0.01   0.04   0.08     0.02  -0.02  -0.02    -0.07  -0.05   0.03
    13   6    -0.01   0.01  -0.07     0.02   0.00   0.06    -0.05  -0.02   0.00
    14   1    -0.02  -0.04  -0.18     0.03   0.00   0.08    -0.07   0.00   0.00
    15   6    -0.02  -0.01  -0.09     0.03   0.01   0.06    -0.05  -0.06   0.02
    16   1    -0.04  -0.05  -0.25     0.03   0.03   0.14    -0.07  -0.07   0.02
    17   8     0.00   0.04   0.05     0.00   0.00   0.00    -0.05  -0.03  -0.01
    18  17     0.00  -0.02  -0.02     0.04   0.03  -0.01    -0.03   0.22  -0.06
    19   6    -0.02  -0.08  -0.06    -0.01  -0.01  -0.03    -0.01  -0.02   0.01
    20   6    -0.03  -0.08  -0.07     0.01   0.00  -0.01    -0.02  -0.03  -0.04
    21   1    -0.01  -0.08  -0.05     0.00   0.00  -0.02    -0.05  -0.04  -0.11
    22   6     0.01  -0.04   0.01    -0.01   0.00  -0.03    -0.04  -0.07  -0.06
[...]
 ,-0.00015377,0.00033426,0.00019909,-0.00058062,-0.00038238,-0.00036132
 ,-0.00014715,0.00022878,0.00039708,-0.00001812,0.00015060,-0.00014057,
 0.00056188,0.00019546,-0.00031203,0.00105962,-0.00022995,0.00095898,-0
 .00006094,-0.00000530,-0.00022043,-0.00005259,-0.00005265,-0.00008119,
 -0.24625895,0.20523911,0.04477933,0.27774892,0.00009174,0.00004690,0.0
 0002684,0.00003482,-0.00005583,-0.00001489,0.00016448,-0.00063152,0.00
 010668,-0.00092216,-0.00083434,0.00058775,-0.00105158,0.00111903,-0.00
 041641,0.00050253,-0.00066191,0.00007344,0.00007238,-0.00004393,-0.000
 00540,-0.00004861,-0.00003873,0.00000601,-0.00297631,-0.00071365,0.001
 46499,-0.00003617,-0.00002793,-0.00000291,0.01286870,0.00189167,-0.000
 86856,0.00029624,0.00013201,-0.00005496,-0.00268602,0.00197094,0.00103
 691,0.00000721,-0.00016777,-0.00004768,0.00027856,0.00029824,-0.000310
 74,-0.00023965,0.00005028,-0.00000478,-0.00967977,-0.00272690,0.001077
 70,-0.00052636,0.00004836,0.00006350,-0.00129782,-0.00196828,-0.004073
 92,-0.00045061,-0.00017483,0.00055023,0.00002530,0.00003682,-0.0000701
 1,0.00016483,-0.00068546,0.00071526,-0.00140606,0.00037874,-0.00064695
 ,0.00019388,0.00028236,0.00010335,-0.00008044,-0.00008184,-0.00012523,
 0.00041064,0.00026774,0.00033624,-0.00001479,-0.00006686,-0.00014379,-
 0.00007277,-0.00023054,0.00021352,-0.00013807,0.00032736,0.00014105,-0
 .00046892,0.00058123,-0.00081255,0.00001653,0.00001827,0.00027800,0.00
 002686,0.00002795,0.00003654,0.24106694,-0.25867452,-0.02343072,-0.220
 43524,0.25359645,-0.00007729,-0.00003938,0.00010686,-0.00009824,-0.000
 08872,0.00003085,-0.00006791,0.00023133,0.00004762,-0.00007313,0.00002
 683,-0.00041852,0.00058743,-0.00066554,-0.00030456,-0.00026307,0.00023
 752,-0.00012486,-0.00006064,-0.00000564,0.00001078,-0.00001557,-0.0000
 0475,-0.00001099,0.00173510,0.00162752,0.00107694,-0.00000425,-0.00003
 450,-0.00001477,-0.00022076,0.00040025,-0.00048463,0.00010921,-0.00022
 309,0.00005384,-0.00041076,-0.00031637,-0.00001930,-0.00000292,-0.0000
 0439,0.00003755,0.00019839,0.00008449,0.00008905,-0.00003489,0.0000172
 7,-0.00000793,0.00033289,0.00040364,-0.00394151,-0.00021668,0.00006068
 ,0.00000199,0.00042911,-0.00329711,-0.00052532,-0.00080257,0.00075708,
 -0.00017695,-0.00003204,0.00008211,-0.00003634,0.00024569,-0.00009293,
 -0.00018196,-0.00205260,-0.00055824,-0.00027980,0.00001363,0.00019215,
 0.00010552,0.00009656,0.00038938,0.00019897,0.00070606,-0.00097238,0.0
 0015271,-0.00008449,0.00028420,0.00003648,-0.00015885,0.00069068,0.000
 33693,-0.00028636,0.00108716,-0.00236433,0.00074097,0.00011733,0.00029
 714,-0.00001741,0.00001783,-0.00005018,0.00003196,-0.00007063,-0.00008
 552,0.02123094,0.00390904,-0.03078549,-0.05108894,0.01617355,0.0415349
 9,-0.00001388,-0.00001898,-0.00000326,-0.00001046,0.00001117,0.0000011
 4,-0.00000782,0.00005641,0.00000081,0.00005439,0.00013250,-0.00011607,
 0.00015799,-0.00026454,0.00020999,-0.00010936,0.00006331,-0.00000647,-
 0.00000955,0.00000774,0.00000090,0.00000486,0.00000295,0.00000018,-0.0
 0055203,0.00018475,-0.00011754,0.00001446,0.00000974,0.00000168,-0.001
 30243,-0.00005310,-0.00001405,-0.00003297,-0.00000662,0.00000107,0.000
 24997,-0.00019831,-0.00007051,0.00000275,0.00001175,-0.00000456,-0.000
 05093,-0.00000617,0.00004613,0.00002246,-0.00000643,0.00000008,0.00178
 049,-0.00052272,-0.00070536,0.00006653,-0.00000702,-0.00000937,0.00007
 631,0.00047338,0.00036556,0.00010431,-0.00003590,-0.00002365,0.0000016
 3,-0.00001331,0.00001092,-0.00032564,-0.00015513,-0.00005463,0.0006689
 9,-0.00001118,-0.00053447,-0.00001037,-0.00005808,-0.00003101,0.000007
 80,-0.00003179,0.00000939,-0.00005271,0.00007872,-0.00021848,0.0000263
 5,-0.00005595,-0.00001621,0.00001054,-0.00002705,-0.00004759,-0.000183
 23,-0.00001694,0.00061499,0.00001046,-0.00008906,0.00006728,-0.0000026
 7,-0.00000389,-0.00003002,-0.00000866,0.00000376,0.00000106,-0.1834970
 9,-0.08651248,0.18451769,-0.02582140,-0.01292991,0.03079774,0.21270522
 ,0.00000264,0.00002253,-0.00001342,0.00001020,-0.00002361,0.00000707,-
 0.00000014,-0.00000904,-0.00001132,-0.00019351,-0.00007118,-0.00000322
 ,-0.00002810,0.00021373,0.00004859,0.00011317,-0.00007619,0.00001299,0
 .00001222,-0.00000490,-0.00000224,-0.00000319,-0.00000320,0.00000134,-
 0.00010451,-0.00028175,-0.00008341,0.00000962,0.00000260,0.00000317,0.
 00073807,-0.00021468,0.00015814,0.00001042,-0.00002644,0.00001264,-0.0
 0010570,0.00008947,-0.00000548,0.00000813,-0.00001861,0.00001710,0.000
 09345,-0.00003667,-0.00002998,-0.00000980,0.00000491,-0.00000102,-0.00
 136415,-0.00119264,0.00118594,-0.00006507,0.00000718,0.00000803,0.0006
 8141,0.00010923,-0.00045061,-0.00037940,0.00003594,0.00012016,0.000021
 03,-0.00002802,0.00000938,-0.00000849,-0.00044856,0.00034308,0.0001177
 0,-0.00003307,-0.00132325,-0.00013021,0.00025095,0.00029921,-0.0001420
 6,-0.00019336,-0.00010337,-0.00016132,0.00016427,-0.00016394,0.0000025
 2,-0.00009501,-0.00000959,0.00002720,-0.00012396,-0.00004341,0.0001966
 6,-0.00013863,0.00028331,0.00010369,0.00008916,-0.00001934,-0.00001356
 ,0.00000141,0.00002220,-0.00001688,-0.00000382,-0.00001409,-0.12311916
 ,-0.11860609,0.16220960,0.02236794,0.01115088,-0.02178656,0.09990485,0
 .10948031,-0.00003552,-0.00005619,0.00001123,-0.00003763,-0.00001394,0
 .00000789,-0.00005993,0.00008760,-0.00003978,-0.00011785,-0.00004176,0
 .00007778,-0.00009368,0.00005633,0.00020004,-0.00015446,0.00009969,-0.
 00000823,-0.00003527,-0.00000351,0.00000787,-0.00000759,0.00000096,0.0
 0000240,0.00048795,-0.00022340,-0.00056051,-0.00001228,-0.00003523,0.0
 0001367,0.00053087,0.00015417,-0.00011802,0.00006325,-0.00008198,0.000
 02428,-0.00027085,-0.00000686,-0.00008044,-0.00000599,0.00001215,0.000
 02240,0.00008851,0.00002597,-0.00004274,-0.00002414,0.00001107,-0.0000
 0114,-0.00081147,0.00122558,-0.00034441,-0.00012507,0.00003553,0.00000
 927,0.00085419,-0.00026918,-0.00031891,-0.00062633,0.00018827,0.000062
 08,0.00001749,-0.00000354,0.00001560,-0.00002189,-0.00023838,0.0002472
 2,-0.00043620,-0.00151413,-0.00170932,-0.00005821,0.00028878,0.0002364
 6,-0.00003579,0.00037087,0.00019633,-0.00004464,0.00014016,-0.00004060
 ,-0.00001866,-0.00003661,-0.00001118,0.00001045,0.00000275,0.00000744,
 0.00004167,-0.00017715,-0.00020989,0.00023236,0.00011531,0.00001376,-0
 .00001876,0.00000684,0.00001664,-0.00000799,-0.00001812,-0.00002968,0.
 20853979,0.13454734,-0.24993493,0.00724964,0.00513718,-0.00454089,-0.2
 1527262,-0.13858407,0.26023931,0.00011350,-0.00013593,0.00001701,-0.00
 002415,0.00010967,-0.00000472,0.00009120,-0.00044346,-0.00000527,-0.00
 123646,-0.00048297,0.00014335,-0.00007232,0.00036262,-0.00007881,-0.00
 021210,-0.00011665,0.00007214,-0.00001396,-0.00001869,0.00000174,-0.00
 002655,-0.00001869,-0.00000124,-0.00001564,0.00005783,0.00002838,-0.00
 001292,-0.00003048,0.00001694,0.00657038,-0.00229579,0.00149534,0.0001
 3492,0.00020085,-0.00008386,-0.00032264,0.00132968,0.00059443,-0.00002
 187,-0.00007981,-0.00002507,0.00003431,-0.00007596,-0.00009357,-0.0000
 6130,0.00002331,-0.00000500,-0.01144372,0.00157641,0.00706454,-0.00026
 370,0.00004491,0.00002943,-0.00122462,-0.00003108,-0.00117062,0.000285
 54,-0.00038741,0.00032536,-0.00001213,0.00002205,-0.00004563,0.0001013
 6,-0.00027166,-0.00047264,-0.00026734,0.00000863,0.00059927,0.00016378
 ,0.00001880,-0.00020846,-0.00003938,0.00021133,0.00018081,0.00026795,0
 .00005070,0.00038669,0.00000090,-0.00000922,-0.00008974,-0.00003116,-0
 .00011496,0.00011436,-0.00007043,-0.00002155,-0.00001250,-0.00055551,0
 .00025440,-0.00057917,0.00002789,0.00000882,0.00016120,0.00002453,0.00
 001651,0.00003228,0.00212897,-0.00142593,0.00111725,0.00000017,0.00083
 901,-0.00131796,-0.00364129,-0.00125081,0.00146350,0.46261800,0.000016
 28,-0.00004656,0.00000688,-0.00000434,0.00002564,-0.00000486,0.0000141
 3,0.00001463,-0.00001070,0.00007659,-0.00010005,0.00008658,0.00017204,
 -0.00004303,-0.00001120,-0.00013439,0.00006339,0.00000823,-0.00001738,
 0.00000089,0.00000230,0.00000048,0.00000398,-0.00000046,0.00027013,0.0
 0005916,-0.00006269,-0.00000064,-0.00000825,0.00000151,0.00023769,0.00
 052766,-0.00011735,0.00001849,0.00003604,-0.00000308,-0.00018328,0.000
 08312,0.00009808,-0.00004730,0.00004862,-0.00000309,-0.00004229,0.0000
 2567,-0.00005507,-0.00000956,0.00000148,0.00000216,-0.00004998,0.00234
 366,-0.00044723,-0.00001679,0.00000793,-0.00000070,-0.00025184,0.00004
 305,0.00020594,0.00010283,-0.00006803,-0.00002211,-0.00001000,0.000026
 56,-0.00000336,-0.00017367,-0.00047218,-0.00022573,-0.00029368,-0.0006
 0277,-0.00029227,0.00011281,0.00014711,-0.00019594,0.00032189,0.000562
 21,0.00036411,0.00014899,-0.00014375,0.00003546,-0.00000293,0.00005759
 ,-0.00000245,-0.00001361,0.00005165,0.00003710,0.00002021,0.00002294,-
 0.00026780,-0.00013375,0.00001628,-0.00010483,0.00000607,0.00000483,0.
 00002146,0.00001206,-0.00000087,0.00000650,-0.00239334,-0.00790620,0.0
 0935767,0.00279717,-0.00170447,-0.00205561,-0.00309993,0.00298612,-0.0
 0308517,-0.06817571,0.04948786,-0.00000623,0.00008317,-0.00001832,0.00
 006591,0.00001549,-0.00002102,0.00006037,0.00017227,0.00005253,0.00108
 516,0.00006717,-0.00017515,-0.00000661,-0.00014775,0.00005239,0.000144
 56,0.00004974,-0.00004180,0.00002860,0.00002203,-0.00000579,0.00003325
 ,0.00001846,-0.00000218,-0.00016294,-0.00007646,-0.00001169,0.00001100
 ,0.00004200,-0.00001875,-0.00444647,0.00187283,-0.00140550,-0.00017823
 ,0.00009148,-0.00003869,0.00073589,-0.00072007,-0.00012671,0.00003390,
 0.00001537,-0.00006271,-0.00031003,0.00002856,0.00014589,0.00008453,-0
 .00003355,0.00000759,0.01175750,-0.00149559,-0.00350278,0.00040317,-0.
 00007891,-0.00003528,-0.00114751,0.00087324,0.00156643,0.00110583,-0.0
 0029182,-0.00030297,-0.00004116,0.00001997,0.00001893,-0.00049710,0.00
 024324,-0.00249814,0.00069872,-0.00102402,0.00165120,0.00041260,-0.000
 39387,-0.00100508,0.00031840,0.00120705,0.00048126,0.00011397,-0.00000
 667,-0.00027385,0.00006950,0.00005666,0.00000282,0.00000718,-0.0000004
 5,-0.00006526,0.00002798,-0.00008325,0.00021885,-0.00033590,-0.0003899
 6,0.00018788,0.00002334,-0.00001442,-0.00011521,0.00000780,0.00003247,
 0.00005097,0.00194848,0.00795612,-0.00312038,-0.00230013,-0.00085655,0
 .00096314,0.00187273,-0.00290468,-0.00378441,-0.03908570,0.12499857,0.
 62930330,0.00000421,-0.00000249,-0.00000032,-0.00000263,0.00000447,-0.
 00000050,-0.00000344,-0.00002077,-0.00000505,-0.00007726,0.00000811,0.
 00002027,0.00001295,-0.00000012,-0.00000306,-0.00000368,-0.00000004,0.
 00000161,0.00000038,-0.00000049,0.,-0.00000165,-0.00000139,-0.00000053
 ,-0.00000348,0.00002999,-0.00001656,0.00000171,0.00000049,0.00000032,-
 0.00002278,-0.00016290,0.00012607,0.00000052,0.00000240,0.00000187,-0.
 00003336,0.00004267,0.00002656,-0.00000036,0.00000306,-0.00000219,0.00
 000788,0.00000085,-0.00000921,-0.00000191,0.00000064,-0.00000014,-0.00
 140581,-0.00017323,0.00014710,-0.00000635,0.00000098,0.00000121,-0.000
 13006,-0.00001617,-0.00018371,0.00006364,-0.00001533,0.00000038,-0.000
 00783,0.00000359,-0.00000131,0.00019638,0.00006749,0.00003338,-0.00000
 688,-0.00018660,0.00027384,0.00004410,-0.00001567,-0.00004150,0.000036
 88,0.00016936,0.00009109,0.00001892,-0.00000057,-0.00001228,0.00000364
 ,0.00000479,-0.00000427,0.00000132,-0.00000218,0.00000161,-0.00000614,
 -0.00000166,-0.00000061,-0.00003265,-0.00001556,-0.00000996,0.00000077
 ,-0.00000209,-0.00000070,0.00000105,0.00000186,0.00000317,0.00000630,0
 .00006293,-0.00005725,0.00000153,0.00018445,-0.00000444,-0.00006041,-0
 .00046537,-0.00016165,-0.09107004,-0.02087592,-0.17300244,0.08236858,-
 0.00000164,0.00000072,-0.00000130,0.00000300,-0.00000265,0.00000161,0.
 00000053,0.00000842,-0.00000240,0.00002014,0.00000253,-0.00000634,0.00
 001513,-0.00001745,-0.00000296,0.00000154,0.00000705,-0.00000009,0.000
 00029,0.00000004,-0.00000010,0.00000026,0.00000040,0.,0.00000348,0.000
 02604,-0.00001490,0.00000226,0.00000109,0.00000018,-0.00008070,0.00008
 877,-0.00002777,-0.00000240,-0.00000417,0.00000174,-0.00000308,-0.0000
 1757,0.00000821,0.00000201,-0.00000300,-0.00000590,0.00000057,0.000001
 00,-0.00000047,0.00000057,-0.00000012,0.00000062,0.00023493,-0.0000110
 5,-0.00009210,0.00000243,-0.00000119,-0.00000020,0.00003081,0.00001856
 ,0.00002618,-0.00004056,-0.00000500,-0.00000851,-0.00000806,0.00000397
 ,-0.00000054,-0.00010642,-0.00037051,-0.00000699,-0.00005939,0.0000270
 5,-0.00015690,0.00002694,0.00011268,-0.00004294,0.00014058,0.00026359,
 0.00008292,0.00002093,0.00000396,0.00000669,0.00000133,0.00000557,-0.0
 0000108,-0.00000035,-0.00000318,0.00000034,0.00000256,0.00001081,-0.00
 001150,0.00000509,-0.00000270,0.00000273,-0.00000021,0.00000084,0.0000
 0002,0.00000021,-0.00000104,-0.00000107,-0.00051158,-0.00105603,-0.000
 42068,0.00022712,0.00018792,0.00011210,0.00055875,0.00048709,0.0019671
 0,-0.01080161,-0.01516809,-0.07206369,0.01475144,0.01713652,0.00001173
 ,-0.00002057,0.00000293,-0.00000382,0.00001015,0.00000104,0.00001021,-
 0.00004334,0.00000637,-0.00012581,-0.00007365,0.00001178,0.00001276,0.
 00003268,-0.00000984,-0.00003925,-0.00000412,0.00000980,-0.00000383,-0
 .00000188,0.00000054,-0.00000374,-0.00000092,0.00000050,0.00003178,0.0
 0001014,-0.00002138,-0.00000210,-0.00000530,0.00000218,0.00081102,-0.0
 0014013,-0.00006912,0.00002116,0.00001504,-0.00000999,-0.00005688,0.00
 015332,0.00008085,0.00001417,-0.00003128,-0.00001197,0.00000732,0.0000
 0383,-0.00001229,-0.00000899,0.00000282,0.00000016,-0.00067529,0.00021
 392,0.00078868,-0.00003445,0.00000691,0.00000348,-0.00010479,-0.000051
 12,-0.00013326,-0.00000517,-0.00001606,0.00001798,0.00000178,0.0000070
 2,-0.00000262,-0.00017238,0.00022625,0.00008462,0.00002427,-0.00027174
 ,-0.00011399,0.00007052,-0.00002516,-0.00001598,-0.00001152,0.00001460
 ,-0.00016659,0.00003426,-0.00002361,0.00006711,-0.00000374,-0.00000213
 ,-0.00000882,-0.00000787,-0.00000819,0.00001797,-0.00000631,0.00000118
 ,-0.00003647,-0.00003950,0.00004724,-0.00006210,0.00000364,0.00000333,
 0.00002321,0.00000229,-0.00000037,0.00000063,-0.00019224,-0.00052979,0
 .00107190,0.00022474,0.00002303,-0.00038459,-0.00026316,0.00157962,-0.
 00178850,-0.12175362,-0.07904611,-0.47039345,0.13512420,0.08107742,0.4
 9434364,-0.00019881,0.00022802,-0.00003242,0.00003483,-0.00017385,0.00
 001340,-0.00016150,0.00076037,-0.00000362,0.00213477,0.00094299,-0.000
 37637,0.00013945,-0.00060123,0.00010780,0.00035726,0.00021384,-0.00010
 378,0.00001927,0.00003092,-0.00000340,0.00004571,0.00002947,0.00000117
 ,0.00006509,-0.00014842,-0.00000003,0.00001577,0.00004737,-0.00002758,
 -0.01220339,0.00357249,-0.00086167,-0.00020544,-0.00033757,0.00012176,
 0.00067332,-0.00246393,-0.00126579,0.00002323,0.00025858,0.00009821,-0
 .00006091,0.00007113,0.00009426,0.00011236,-0.00003836,0.00000721,0.00
 619315,-0.00177444,-0.00188395,0.00043606,-0.00006791,-0.00003774,0.00
 281191,-0.00011104,0.00198872,-0.00072696,0.00072885,-0.00060186,0.000
 02871,-0.00004533,0.00007849,0.00018054,0.00022450,-0.00004694,-0.0003
 3738,0.00038286,-0.00099179,-0.00044787,0.00008948,0.00056352,-0.00038
 384,-0.00081868,-0.00042340,-0.00056395,-0.00013322,-0.00070373,-0.000
 01787,0.00001080,0.00018018,0.00006280,0.00024221,-0.00020342,0.000127
 43,0.00006387,-0.00004359,0.00105083,-0.00039194,0.00101819,-0.0000520
 0,-0.00000993,-0.00027575,-0.00004558,-0.00004012,-0.00007764,-0.00153
 580,-0.00123117,0.00128736,0.00218832,-0.00178380,0.00013605,-0.000272
 62,0.00314052,-0.00108520,-0.36192417,0.09160249,0.20047011,0.01010598
 ,-0.00443689,-0.01289139,0.35233130,-0.00007567,0.00007711,-0.00001315
 ,-0.00002192,-0.00005717,0.00001503,-0.00007021,0.00009050,0.00001622,
 0.00011352,0.00031163,-0.00012570,-0.00013918,-0.00005329,0.00002076,0
 .00016674,0.00000594,-0.00003858,0.00001176,0.00000459,-0.00000078,0.0
 0000295,-0.00000295,0.00000371,-0.00016097,-0.00014128,0.00012210,-0.0
 0000158,0.00000886,0.00000036,-0.00184022,-0.00033445,-0.00043884,-0.0
 0003578,-0.00012439,0.00002823,0.00047019,-0.00047869,-0.00036926,0.00
 008278,-0.00013236,0.00006765,0.00001425,0.00000578,0.00013484,0.00002
 377,-0.00000794,-0.00000062,0.00117639,-0.00318697,0.00095265,0.000083
 75,-0.00001439,-0.00001228,0.00022636,-0.00001413,-0.00008879,-0.00012
 459,0.00025264,-0.00005634,-0.00002392,-0.00000079,0.00008517,0.000020
 45,0.00068332,-0.00029689,0.00038329,0.00029251,0.00041116,-0.00004829
 ,-0.00031665,0.00002450,-0.00049937,-0.00051182,-0.00018761,-0.0001344
 9,0.00007280,-0.00009083,0.00000982,-0.00002679,0.00001131,0.00001446,
 0.00000982,-0.00004308,-0.00002188,-0.00006268,0.00020090,0.00039884,-
 0.00014015,0.00031661,-0.00001156,-0.00001074,-0.00008448,-0.00001468,
 -0.00000736,-0.00002243,-0.00007034,0.00289948,-0.00193213,-0.00216835
 ,-0.00292384,0.00331371,0.00262474,-0.00346638,-0.00008442,0.08105285,
 -0.03038377,-0.05728417,0.00661899,-0.00173087,-0.00313303,-0.08803292
 ,0.03941487,0.00004735,-0.00013076,0.00003344,-0.00009923,0.00001762,0
 .00000200,-0.00006569,-0.00043999,-0.00002178,-0.00192873,-0.00018579,
 0.00047077,-0.00012092,0.00033159,-0.00005991,-0.00018711,-0.00014640,
 0.00005788,-0.00002981,-0.00003345,0.00000839,-0.00005275,-0.00003374,
 0.00000544,0.00002887,0.00013554,-0.00001250,-0.00001719,-0.00005947,0
 .00002525,0.00749646,-0.00337932,0.00179715,0.00026092,-0.00004008,0.0
 0002847,-0.00109361,0.00138840,0.00041820,-0.00000552,-0.00010201,0.00
 003949,0.00037013,0.00000348,-0.00016732,-0.00013594,0.00004827,-0.000
 01212,-0.00655400,0.00240276,-0.00303323,-0.00056393,0.00010376,0.0000
 4529,0.00008214,-0.00115221,-0.00340216,-0.00079510,0.00009808,0.00055
 471,-0.00000084,-0.00001236,-0.00002156,0.00018524,-0.00034855,-0.0001
 2434,-0.00098252,0.00062126,-0.00106174,-0.00000528,0.00022247,0.00038
 335,-0.00050531,-0.00051947,-0.00024022,0.00009373,0.00010995,0.000408
 88,-0.00005301,-0.00004946,-0.00006361,-0.00002619,-0.00010354,0.00014
 043,-0.00005169,0.00006690,-0.00012840,0.00009096,0.00044526,-0.000461
 08,-0.00000910,0.00000773,0.00017969,0.00000021,-0.00001309,-0.0000241
 7,0.00083563,-0.00116357,-0.00124749,0.00014293,0.00373440,-0.00034292
 ,-0.00098029,-0.00076854,0.00215192,0.15118955,-0.04921474,-0.14767807
 ,0.03766503,-0.01041942,-0.02329441,-0.18422539,0.05857850,0.17464627\
 \-0.00000696,0.00000846,-0.00000038,-0.00000502,0.00000741,-0.00000593
 ,0.00000058,0.00000690,-0.00000673,0.00000036,0.00000222,-0.00000121,-
 0.00000388,0.00000309,0.00000425,-0.00000888,0.00000439,0.00000446,-0.
 00001032,0.00001128,0.00000036,-0.00000352,0.00001245,-0.00000895,-0.0
 0000457,-0.00000101,0.00000658,-0.00001067,0.00000459,0.00000806,0.000
 00103,-0.00000104,-0.00000264,0.00000567,0.00000543,-0.00001215,0.0000
 0632,-0.00000044,-0.00000790,0.00000913,-0.00000366,-0.00000769,0.0000
 0691,0.00000229,-0.00001157,0.00000996,0.00000303,-0.00001647,0.000004
 37,-0.00000481,0.00000246,0.00000304,0.00001001,-0.00001671,-0.0000007
 4,-0.00000081,0.00000214,0.00000391,0.00000040,-0.00000339,0.00000533,
 -0.00000230,-0.00000484,-0.00000027,-0.00000492,0.00000910,0.00000005,
 -0.00000851,0.00000960,-0.00000222,-0.00000477,0.00000790,0.00000346,-
 0.00000934,0.00000304,-0.00000502,0.00000327,0.00000395,-0.00000606,0.
 00000520,0.00000137,-0.00000859,0.00000465,0.00000465,-0.00000690,0.00
 000042,0.00000874,0.00000032,0.00000471,-0.00000751,0.00000513,0.00000
 445,-0.00001168,-0.00000088,0.00000708,-0.00000650,-0.00000131,-0.0000
 0665,0.00001235,-0.00000030,-0.00000670,0.00000903,-0.00000240,-0.0000
 1389,0.00001431,0.00000771,-0.00001394,0.00000883,0.00000758,-0.000018
 16,0.00000679,0.00000766,-0.00001081,0.00000427\\\@


 TO DETECT ERRORS, THE PROGRAMMER MUST HAVE A CONNIVING MIND,
 ONE THAT DELIGHTS IN UNCOVERING FLAWS WHERE BEAUTY AND
 PERFECTION WERE ONCE THOUGHT TO LIE.

             -- THE PSYCHOLOGY OF COMPUTER PROGRAMMING
                GERALD M. WEINBERG
 Job cpu time:       0 days  2 hours 50 minutes  1.4 seconds.
 File lengths (MBytes):  RWF=    632 Int=      0 D2E=      0 Chk=     17 Scr=      1
 Normal termination of Gaussian 09 at Wed Sep 16 19:14:32 2020.
