 Entering Gaussian System, Link 0=g09
 Input=m062x_sm_2H2O_claisen_PM6_toluene_water_gd3.com
 Output=m062x_sm_2H2O_claisen_PM6_toluene_water_gd3.log
 Initial command:
 /apps/applications/gaussian/G09.D01/2/default/g09/l1.exe "/local/730607.1.40core-192G.q/Gau-255296.inp" -scrdir="/local/730607.1.40core-192G.q/"
 Entering Link 1 = /apps/applications/gaussian/G09.D01/2/default/g09/l1.exe PID=    255297.
  
 Copyright (c) 1988,1990,1992,1993,1995,1998,2003,2009,2013,
            Gaussian, Inc.  All Rights Reserved.
  
 This is part of the Gaussian(R) 09 program.  It is based on
 the Gaussian(R) 03 system (copyright 2003, Gaussian, Inc.),
 the Gaussian(R) 98 system (copyright 1998, Gaussian, Inc.),
 the Gaussian(R) 94 system (copyright 1995, Gaussian, Inc.),
 the Gaussian 92(TM) system (copyright 1992, Gaussian, Inc.),
 the Gaussian 90(TM) system (copyright 1990, Gaussian, Inc.),
 the Gaussian 88(TM) system (copyright 1988, Gaussian, Inc.),
 the Gaussian 86(TM) system (copyright 1986, Carnegie Mellon
 University), and the Gaussian 82(TM) system (copyright 1983,
 Carnegie Mellon University). Gaussian is a federally registered
 trademark of Gaussian, Inc.
  
 This software contains proprietary and confidential information,
 including trade secrets, belonging to Gaussian, Inc.
  
 This software is provided under written license and may be
 used, copied, transmitted, or stored only in accord with that
 written license.
  
 The following legend is applicable only to US Government
 contracts under FAR:
  
                    RESTRICTED RIGHTS LEGEND
  
 Use, reproduction and disclosure by the US Government is
 subject to restrictions as set forth in subparagraphs (a)
 and (c) of the Commercial Computer Software - Restricted
 Rights clause in FAR 52.227-19.
  
 Gaussian, Inc.
 340 Quinnipiac St., Bldg. 40, Wallingford CT 06492
  
  
 ---------------------------------------------------------------
 Warning -- This program may not be used in any manner that
 competes with the business of Gaussian, Inc. or will provide
 assistance to any competitor of Gaussian, Inc.  The licensee
 of this program is prohibited from giving any competitor of
 Gaussian, Inc. access to this program.  By using this program,
 the user acknowledges that Gaussian, Inc. is engaged in the
 business of creating and licensing software in the field of
 computational chemistry and represents and warrants to the
 licensee that it is not a competitor of Gaussian, Inc. and that
 it will not use this program in any manner prohibited above.
 ---------------------------------------------------------------
  

 Cite this work as:
 Gaussian 09, Revision D.01,
 M. J. Frisch, G. W. Trucks, H. B. Schlegel, G. E. Scuseria, 
 M. A. Robb, J. R. Cheeseman, G. Scalmani, V. Barone, B. Mennucci, 
 G. A. Petersson, H. Nakatsuji, M. Caricato, X. Li, H. P. Hratchian, 
 A. F. Izmaylov, J. Bloino, G. Zheng, J. L. Sonnenberg, M. Hada, 
 M. Ehara, K. Toyota, R. Fukuda, J. Hasegawa, M. Ishida, T. Nakajima, 
 Y. Honda, O. Kitao, H. Nakai, T. Vreven, J. A. Montgomery, Jr., 
 J. E. Peralta, F. Ogliaro, M. Bearpark, J. J. Heyd, E. Brothers, 
 K. N. Kudin, V. N. Staroverov, T. Keith, R. Kobayashi, J. Normand, 
 K. Raghavachari, A. Rendell, J. C. Burant, S. S. Iyengar, J. Tomasi, 
 M. Cossi, N. Rega, J. M. Millam, M. Klene, J. E. Knox, J. B. Cross, 
 V. Bakken, C. Adamo, J. Jaramillo, R. Gomperts, R. E. Stratmann, 
 O. Yazyev, A. J. Austin, R. Cammi, C. Pomelli, J. W. Ochterski, 
 R. L. Martin, K. Morokuma, V. G. Zakrzewski, G. A. Voth, 
 P. Salvador, J. J. Dannenberg, S. Dapprich, A. D. Daniels, 
 O. Farkas, J. B. Foresman, J. V. Ortiz, J. Cioslowski, 
 and D. J. Fox, Gaussian, Inc., Wallingford CT, 2013.
 
 ******************************************
 Gaussian 09:  ES64L-G09RevD.01 24-Apr-2013
                 9-Sep-2020 
 ******************************************
 %nprocshared=4
 Will use up to    4 processors via shared memory.
 %chk=m062x_sm_2H2O_claisen_PM6_toluene_water_gd3.chk
 ----------------------------------------------------------------------
 # opt freq scrf=(cpcm,solvent=water) geom=connectivity def2svp m062x e
 mpiricaldispersion=gd3
 ----------------------------------------------------------------------
 1/14=-1,18=20,19=15,26=3,38=1,57=2/1,3;
 2/9=110,12=2,17=6,18=5,40=1/2;
 3/5=43,7=101,11=2,16=1,25=1,30=1,70=2101,71=1,72=1,74=-55,124=31/1,2,3;
 4//1;
 5/5=2,38=5,53=1/2;
 6/7=2,8=2,9=2,10=2,28=1/1;
 7//1,2,3,16;
 1/14=-1,18=20,19=15,26=3/3(2);
 2/9=110/2;
 99//99;
 2/9=110/2;
 3/5=43,7=101,11=2,16=1,25=1,30=1,70=2105,71=1,72=1,74=-55,124=31/1,2,3;
 4/5=5,16=3,69=1/1;
 5/5=2,38=5,53=1/2;
 7//1,2,3,16;
 1/14=-1,18=20,19=15,26=3/3(-5);
 2/9=110/2;
 6/7=2,8=2,9=2,10=2,19=2,28=1/1;
 99/9=1/99;
 -------------------
 Title Card Required
 -------------------
 Symbolic Z-matrix:
 Charge =  0 Multiplicity = 1
 C                    -2.73746   2.48109   0.62527 
 C                    -3.00873   1.22302   0.14195 
 C                    -1.95771   0.30765  -0.13118 
 C                    -0.60934   0.71999   0.08677 
 C                    -0.3621    2.02346   0.5979 
 C                    -1.40267   2.88423   0.85977 
 H                    -3.55658   3.17024   0.83435 
 H                    -4.03711   0.90718  -0.03058 
 H                     0.66549   2.33197   0.78472 
 H                    -1.1985    3.88054   1.25375 
 C                     0.46882  -0.20038  -0.15889 
 C                    -2.18604  -1.02218  -0.59862 
 C                     0.19513  -1.47941  -0.5919 
 H                     0.98967  -2.20476  -0.74087 
 C                    -1.14338  -1.88437  -0.81531 
 H                    -1.34424  -2.89918  -1.15836 
 O                     1.69424   0.30669   0.10953 
 Cl                   -3.81527  -1.56901  -0.88944 
 C                     2.94644  -0.34473  -0.20179 
 C                     3.15085  -1.59487   0.62294 
 H                     4.00246  -2.20484   0.30281 
 C                     3.06769  -0.59662  -1.7067 
 H                     4.08919  -0.93292  -1.93014 
 H                     2.3703   -1.35589  -2.07846 
 H                     2.88609   0.34868  -2.23698 
 C                     3.99358   0.68772   0.22275 
 H                     3.8506    0.94315   1.28109 
 H                     5.0017    0.27324   0.09119 
 H                     3.89687   1.59405  -0.39171 
 C                     2.44717  -1.94084   1.699 
 H                     2.70441  -2.84072   2.26156 
 H                     1.58415  -1.36305   2.04358 
 O                    -0.70928  -0.9257    2.7463 
 H                    -0.83535  -1.3991    1.91333 
 H                    -0.764     0.00057   2.48021 
 O                     2.04196   2.65554  -1.62599 
 H                     1.33681   2.62245  -2.2838 
 H                     1.82868   1.92687  -1.02554 
 
 Add virtual bond connecting atoms H38        and O17        Dist= 3.75D+00.
 Add virtual bond connecting atoms O33        and H32        Dist= 4.61D+00.
 Add virtual bond connecting atoms H34        and H32        Dist= 4.58D+00.
 Add virtual bond connecting atoms H35        and C4         Dist= 4.73D+00.

 GradGradGradGradGradGradGradGradGradGradGradGradGradGradGradGradGradGrad
 Berny optimization.
 Initialization pass.
                           ----------------------------
                           !    Initial Parameters    !
                           ! (Angstroms and Degrees)  !
 --------------------------                            --------------------------
 ! Name  Definition              Value          Derivative Info.                !
 --------------------------------------------------------------------------------
 ! R1    R(1,2)                  1.3747         estimate D2E/DX2                !
 ! R2    R(1,6)                  1.4139         estimate D2E/DX2                !
 ! R3    R(1,7)                  1.0907         estimate D2E/DX2                !
 ! R4    R(2,3)                  1.4203         estimate D2E/DX2                !
 ! R5    R(2,8)                  1.0895         estimate D2E/DX2                !
 ! R6    R(3,4)                  1.4268         estimate D2E/DX2                !
 ! R7    R(3,12)                 1.428          estimate D2E/DX2                !
 ! R8    R(4,5)                  1.4218         estimate D2E/DX2                !
 ! R9    R(4,11)                 1.4387         estimate D2E/DX2                !
 ! R10   R(4,35)                 2.504          estimate D2E/DX2                !
 ! R11   R(5,6)                  1.3756         estimate D2E/DX2                !
 ! R12   R(5,9)                  1.089          estimate D2E/DX2                !
 ! R13   R(6,10)                 1.0907         estimate D2E/DX2                !
 ! R14   R(11,13)                1.3778         estimate D2E/DX2                !
 ! R15   R(11,17)                1.3531         estimate D2E/DX2                !
 ! R16   R(12,15)                1.3702         estimate D2E/DX2                !
 ! R17   R(12,18)                1.743          estimate D2E/DX2                !
 ! R18   R(13,14)                1.0861         estimate D2E/DX2                !
 ! R19   R(13,15)                1.4162         estimate D2E/DX2                !
 ! R20   R(15,16)                1.0899         estimate D2E/DX2                !
 ! R21   R(17,19)                1.4454         estimate D2E/DX2                !
 ! R22   R(17,38)                1.9828         estimate D2E/DX2                !
 ! R23   R(19,20)                1.5116         estimate D2E/DX2                !
 ! R24   R(19,22)                1.5307         estimate D2E/DX2                !
 ! R25   R(19,26)                1.5306         estimate D2E/DX2                !
 ! R26   R(20,21)                1.0953         estimate D2E/DX2                !
 ! R27   R(20,30)                1.3315         estimate D2E/DX2                !
 ! R28   R(22,23)                1.0984         estimate D2E/DX2                !
 ! R29   R(22,24)                1.0959         estimate D2E/DX2                !
 ! R30   R(22,25)                1.099          estimate D2E/DX2                !
 ! R31   R(26,27)                1.0981         estimate D2E/DX2                !
 ! R32   R(26,28)                1.0979         estimate D2E/DX2                !
 ! R33   R(26,29)                1.0992         estimate D2E/DX2                !
 ! R34   R(30,31)                1.092          estimate D2E/DX2                !
 ! R35   R(30,32)                1.0943         estimate D2E/DX2                !
 ! R36   R(32,33)                2.4382         estimate D2E/DX2                !
 ! R37   R(32,34)                2.4233         estimate D2E/DX2                !
 ! R38   R(33,34)                0.9664         estimate D2E/DX2                !
 ! R39   R(33,35)                0.9653         estimate D2E/DX2                !
 ! R40   R(36,37)                0.9649         estimate D2E/DX2                !
 ! R41   R(36,38)                0.968          estimate D2E/DX2                !
 ! A1    A(2,1,6)              120.3654         estimate D2E/DX2                !
 ! A2    A(2,1,7)              119.8301         estimate D2E/DX2                !
 ! A3    A(6,1,7)              119.8037         estimate D2E/DX2                !
 ! A4    A(1,2,3)              120.7567         estimate D2E/DX2                !
 ! A5    A(1,2,8)              120.4778         estimate D2E/DX2                !
 ! A6    A(3,2,8)              118.7635         estimate D2E/DX2                !
 ! A7    A(2,3,4)              118.9285         estimate D2E/DX2                !
 ! A8    A(2,3,12)             123.0134         estimate D2E/DX2                !
 ! A9    A(4,3,12)             118.0518         estimate D2E/DX2                !
 ! A10   A(3,4,5)              118.9614         estimate D2E/DX2                !
 ! A11   A(3,4,11)             119.8186         estimate D2E/DX2                !
 ! A12   A(3,4,35)              90.2638         estimate D2E/DX2                !
 ! A13   A(5,4,11)             121.1693         estimate D2E/DX2                !
 ! A14   A(5,4,35)              86.0155         estimate D2E/DX2                !
 ! A15   A(11,4,35)             91.4727         estimate D2E/DX2                !
 ! A16   A(4,5,6)              120.7021         estimate D2E/DX2                !
 ! A17   A(4,5,9)              119.0432         estimate D2E/DX2                !
 ! A18   A(6,5,9)              120.2541         estimate D2E/DX2                !
 ! A19   A(1,6,5)              120.2732         estimate D2E/DX2                !
 ! A20   A(1,6,10)             119.8073         estimate D2E/DX2                !
 ! A21   A(5,6,10)             119.919          estimate D2E/DX2                !
 ! A22   A(4,11,13)            119.9118         estimate D2E/DX2                !
 ! A23   A(4,11,17)            113.8966         estimate D2E/DX2                !
 ! A24   A(13,11,17)           126.1664         estimate D2E/DX2                !
 ! A25   A(3,12,15)            121.07           estimate D2E/DX2                !
 ! A26   A(3,12,18)            119.7529         estimate D2E/DX2                !
 ! A27   A(15,12,18)           119.1756         estimate D2E/DX2                !
 ! A28   A(11,13,14)           121.1821         estimate D2E/DX2                !
 ! A29   A(11,13,15)           120.1844         estimate D2E/DX2                !
 ! A30   A(14,13,15)           118.6091         estimate D2E/DX2                !
 ! A31   A(12,15,13)           120.9539         estimate D2E/DX2                !
 ! A32   A(12,15,16)           119.6983         estimate D2E/DX2                !
 ! A33   A(13,15,16)           119.3465         estimate D2E/DX2                !
 ! A34   A(11,17,19)           124.9577         estimate D2E/DX2                !
 ! A35   A(11,17,38)           104.718          estimate D2E/DX2                !
 ! A36   A(19,17,38)           100.7322         estimate D2E/DX2                !
 ! A37   A(17,19,20)           111.8621         estimate D2E/DX2                !
 ! A38   A(17,19,22)           110.7657         estimate D2E/DX2                !
 ! A39   A(17,19,26)           103.2354         estimate D2E/DX2                !
 ! A40   A(20,19,22)           112.9308         estimate D2E/DX2                !
 ! A41   A(20,19,26)           108.3021         estimate D2E/DX2                !
 ! A42   A(22,19,26)           109.2392         estimate D2E/DX2                !
 ! A43   A(19,20,21)           113.9695         estimate D2E/DX2                !
 ! A44   A(19,20,30)           125.7599         estimate D2E/DX2                !
 ! A45   A(21,20,30)           120.1587         estimate D2E/DX2                !
 ! A46   A(19,22,23)           108.9086         estimate D2E/DX2                !
 ! A47   A(19,22,24)           113.3982         estimate D2E/DX2                !
 ! A48   A(19,22,25)           108.6483         estimate D2E/DX2                !
 ! A49   A(23,22,24)           108.0995         estimate D2E/DX2                !
 ! A50   A(23,22,25)           108.5954         estimate D2E/DX2                !
 ! A51   A(24,22,25)           109.0924         estimate D2E/DX2                !
 ! A52   A(19,26,27)           109.5824         estimate D2E/DX2                !
 ! A53   A(19,26,28)           109.8958         estimate D2E/DX2                !
 ! A54   A(19,26,29)           109.9335         estimate D2E/DX2                !
 ! A55   A(27,26,28)           108.8363         estimate D2E/DX2                !
 ! A56   A(27,26,29)           109.6029         estimate D2E/DX2                !
 ! A57   A(28,26,29)           108.9696         estimate D2E/DX2                !
 ! A58   A(20,30,31)           120.3971         estimate D2E/DX2                !
 ! A59   A(20,30,32)           122.2838         estimate D2E/DX2                !
 ! A60   A(31,30,32)           117.3031         estimate D2E/DX2                !
 ! A61   A(30,32,33)           158.021          estimate D2E/DX2                !
 ! A62   A(30,32,34)           139.7008         estimate D2E/DX2                !
 ! A63   A(32,33,35)            98.3946         estimate D2E/DX2                !
 ! A64   A(34,33,35)           103.0075         estimate D2E/DX2                !
 ! A65   A(4,35,33)            122.3903         estimate D2E/DX2                !
 ! A66   A(37,36,38)           103.6537         estimate D2E/DX2                !
 ! A67   L(17,38,36,1,-1)      189.8288         estimate D2E/DX2                !
 ! A68   L(17,38,36,1,-2)      181.098          estimate D2E/DX2                !
 ! D1    D(6,1,2,3)             -0.0491         estimate D2E/DX2                !
 ! D2    D(6,1,2,8)            179.424          estimate D2E/DX2                !
 ! D3    D(7,1,2,3)           -179.7049         estimate D2E/DX2                !
 ! D4    D(7,1,2,8)             -0.2318         estimate D2E/DX2                !
 ! D5    D(2,1,6,5)              0.4252         estimate D2E/DX2                !
 ! D6    D(2,1,6,10)          -179.3255         estimate D2E/DX2                !
 ! D7    D(7,1,6,5)           -179.9189         estimate D2E/DX2                !
 ! D8    D(7,1,6,10)             0.3304         estimate D2E/DX2                !
 ! D9    D(1,2,3,4)             -0.8462         estimate D2E/DX2                !
 ! D10   D(1,2,3,12)           178.2181         estimate D2E/DX2                !
 ! D11   D(8,2,3,4)            179.6719         estimate D2E/DX2                !
 ! D12   D(8,2,3,12)            -1.2639         estimate D2E/DX2                !
 ! D13   D(2,3,4,5)              1.3581         estimate D2E/DX2                !
 ! D14   D(2,3,4,11)           178.7981         estimate D2E/DX2                !
 ! D15   D(2,3,4,35)            86.9494         estimate D2E/DX2                !
 ! D16   D(12,3,4,5)          -177.7528         estimate D2E/DX2                !
 ! D17   D(12,3,4,11)           -0.3128         estimate D2E/DX2                !
 ! D18   D(12,3,4,35)          -92.1615         estimate D2E/DX2                !
 ! D19   D(2,3,12,15)         -178.2264         estimate D2E/DX2                !
 ! D20   D(2,3,12,18)            1.3171         estimate D2E/DX2                !
 ! D21   D(4,3,12,15)            0.8456         estimate D2E/DX2                !
 ! D22   D(4,3,12,18)         -179.6109         estimate D2E/DX2                !
 ! D23   D(3,4,5,6)             -1.0101         estimate D2E/DX2                !
 ! D24   D(3,4,5,9)            178.7133         estimate D2E/DX2                !
 ! D25   D(11,4,5,6)          -178.4143         estimate D2E/DX2                !
 ! D26   D(11,4,5,9)             1.3091         estimate D2E/DX2                !
 ! D27   D(35,4,5,6)           -89.1032         estimate D2E/DX2                !
 ! D28   D(35,4,5,9)            90.6201         estimate D2E/DX2                !
 ! D29   D(3,4,11,13)           -0.5801         estimate D2E/DX2                !
 ! D30   D(3,4,11,17)         -178.8647         estimate D2E/DX2                !
 ! D31   D(5,4,11,13)          176.8021         estimate D2E/DX2                !
 ! D32   D(5,4,11,17)           -1.4825         estimate D2E/DX2                !
 ! D33   D(35,4,11,13)          90.5683         estimate D2E/DX2                !
 ! D34   D(35,4,11,17)         -87.7163         estimate D2E/DX2                !
 ! D35   D(3,4,35,33)           77.406          estimate D2E/DX2                !
 ! D36   D(5,4,35,33)         -163.5765         estimate D2E/DX2                !
 ! D37   D(11,4,35,33)         -42.4317         estimate D2E/DX2                !
 ! D38   D(4,5,6,1)              0.1172         estimate D2E/DX2                !
 ! D39   D(4,5,6,10)           179.8676         estimate D2E/DX2                !
 ! D40   D(9,5,6,1)           -179.6028         estimate D2E/DX2                !
 ! D41   D(9,5,6,10)             0.1476         estimate D2E/DX2                !
 ! D42   D(4,11,13,14)        -177.2195         estimate D2E/DX2                !
 ! D43   D(4,11,13,15)           0.9595         estimate D2E/DX2                !
 ! D44   D(17,11,13,14)          0.8378         estimate D2E/DX2                !
 ! D45   D(17,11,13,15)        179.0167         estimate D2E/DX2                !
 ! D46   D(4,11,17,19)        -172.0926         estimate D2E/DX2                !
 ! D47   D(4,11,17,38)         -57.3487         estimate D2E/DX2                !
 ! D48   D(13,11,17,19)          9.7492         estimate D2E/DX2                !
 ! D49   D(13,11,17,38)        124.4931         estimate D2E/DX2                !
 ! D50   D(3,12,15,13)          -0.4896         estimate D2E/DX2                !
 ! D51   D(3,12,15,16)         179.1087         estimate D2E/DX2                !
 ! D52   D(18,12,15,13)        179.9642         estimate D2E/DX2                !
 ! D53   D(18,12,15,16)         -0.4374         estimate D2E/DX2                !
 ! D54   D(11,13,15,12)         -0.4359         estimate D2E/DX2                !
 ! D55   D(11,13,15,16)        179.9644         estimate D2E/DX2                !
 ! D56   D(14,13,15,12)        177.7895         estimate D2E/DX2                !
 ! D57   D(14,13,15,16)         -1.8102         estimate D2E/DX2                !
 ! D58   D(11,17,19,20)        -67.3776         estimate D2E/DX2                !
 ! D59   D(11,17,19,22)         59.5722         estimate D2E/DX2                !
 ! D60   D(11,17,19,26)        176.3932         estimate D2E/DX2                !
 ! D61   D(38,17,19,20)        176.006          estimate D2E/DX2                !
 ! D62   D(38,17,19,22)        -57.0442         estimate D2E/DX2                !
 ! D63   D(38,17,19,26)         59.7768         estimate D2E/DX2                !
 ! D64   D(11,17,36,37)        -12.9005         estimate D2E/DX2                !
 ! D65   D(19,17,36,37)        117.1507         estimate D2E/DX2                !
 ! D66   D(17,19,20,21)        170.4046         estimate D2E/DX2                !
 ! D67   D(17,19,20,30)        -13.461          estimate D2E/DX2                !
 ! D68   D(22,19,20,21)         44.634          estimate D2E/DX2                !
 ! D69   D(22,19,20,30)       -139.2316         estimate D2E/DX2                !
 ! D70   D(26,19,20,21)        -76.4823         estimate D2E/DX2                !
 ! D71   D(26,19,20,30)         99.6521         estimate D2E/DX2                !
 ! D72   D(17,19,22,23)        170.5469         estimate D2E/DX2                !
 ! D73   D(17,19,22,24)        -69.0533         estimate D2E/DX2                !
 ! D74   D(17,19,22,25)         52.4249         estimate D2E/DX2                !
 ! D75   D(20,19,22,23)        -63.0952         estimate D2E/DX2                !
 ! D76   D(20,19,22,24)         57.3047         estimate D2E/DX2                !
 ! D77   D(20,19,22,25)        178.7828         estimate D2E/DX2                !
 ! D78   D(26,19,22,23)         57.4879         estimate D2E/DX2                !
 ! D79   D(26,19,22,24)        177.8877         estimate D2E/DX2                !
 ! D80   D(26,19,22,25)        -60.6341         estimate D2E/DX2                !
 ! D81   D(17,19,26,27)         56.8173         estimate D2E/DX2                !
 ! D82   D(17,19,26,28)        176.3674         estimate D2E/DX2                !
 ! D83   D(17,19,26,29)        -63.7            estimate D2E/DX2                !
 ! D84   D(20,19,26,27)        -61.9146         estimate D2E/DX2                !
 ! D85   D(20,19,26,28)         57.6356         estimate D2E/DX2                !
 ! D86   D(20,19,26,29)        177.5681         estimate D2E/DX2                !
 ! D87   D(22,19,26,27)        174.7123         estimate D2E/DX2                !
 ! D88   D(22,19,26,28)        -65.7376         estimate D2E/DX2                !
 ! D89   D(22,19,26,29)         54.195          estimate D2E/DX2                !
 ! D90   D(19,20,30,31)       -176.7525         estimate D2E/DX2                !
 ! D91   D(19,20,30,32)          4.7385         estimate D2E/DX2                !
 ! D92   D(21,20,30,31)         -0.8381         estimate D2E/DX2                !
 ! D93   D(21,20,30,32)       -179.3471         estimate D2E/DX2                !
 ! D94   D(20,30,32,33)        126.4856         estimate D2E/DX2                !
 ! D95   D(20,30,32,34)         98.4926         estimate D2E/DX2                !
 ! D96   D(31,30,32,33)        -52.0671         estimate D2E/DX2                !
 ! D97   D(31,30,32,34)        -80.0601         estimate D2E/DX2                !
 ! D98   D(30,32,33,35)       -152.7647         estimate D2E/DX2                !
 ! D99   D(32,33,35,4)          64.4533         estimate D2E/DX2                !
 ! D100  D(34,33,35,4)         -14.7401         estimate D2E/DX2                !
 --------------------------------------------------------------------------------
 Trust Radius=3.00D-01 FncErr=1.00D-07 GrdErr=1.00D-06
 Number of steps in this run=    219 maximum allowed number of steps=    228.
 GradGradGradGradGradGradGradGradGradGradGradGradGradGradGradGradGradGrad

                          Input orientation:                          
 ---------------------------------------------------------------------
 Center     Atomic      Atomic             Coordinates (Angstroms)
 Number     Number       Type             X           Y           Z
 ---------------------------------------------------------------------
      1          6           0       -2.737462    2.481086    0.625269
      2          6           0       -3.008732    1.223024    0.141949
      3          6           0       -1.957706    0.307649   -0.131179
      4          6           0       -0.609335    0.719994    0.086768
      5          6           0       -0.362100    2.023456    0.597899
      6          6           0       -1.402667    2.884227    0.859769
      7          1           0       -3.556578    3.170240    0.834353
      8          1           0       -4.037114    0.907181   -0.030578
      9          1           0        0.665487    2.331970    0.784715
     10          1           0       -1.198502    3.880536    1.253751
     11          6           0        0.468820   -0.200376   -0.158892
     12          6           0       -2.186042   -1.022180   -0.598618
     13          6           0        0.195128   -1.479412   -0.591897
     14          1           0        0.989671   -2.204763   -0.740868
     15          6           0       -1.143383   -1.884365   -0.815306
     16          1           0       -1.344238   -2.899179   -1.158359
     17          8           0        1.694239    0.306685    0.109526
     18         17           0       -3.815267   -1.569012   -0.889444
     19          6           0        2.946438   -0.344728   -0.201788
     20          6           0        3.150854   -1.594865    0.622935
     21          1           0        4.002460   -2.204835    0.302812
     22          6           0        3.067692   -0.596619   -1.706700
     23          1           0        4.089188   -0.932924   -1.930142
     24          1           0        2.370296   -1.355892   -2.078464
     25          1           0        2.886087    0.348683   -2.236977
     26          6           0        3.993582    0.687715    0.222747
     27          1           0        3.850604    0.943151    1.281091
     28          1           0        5.001702    0.273237    0.091189
     29          1           0        3.896872    1.594045   -0.391707
     30          6           0        2.447173   -1.940840    1.698999
     31          1           0        2.704412   -2.840718    2.261563
     32          1           0        1.584151   -1.363046    2.043576
     33          8           0       -0.709284   -0.925704    2.746295
     34          1           0       -0.835354   -1.399102    1.913327
     35          1           0       -0.763999    0.000566    2.480207
     36          8           0        2.041964    2.655535   -1.625986
     37          1           0        1.336806    2.622450   -2.283800
     38          1           0        1.828683    1.926873   -1.025542
 ---------------------------------------------------------------------
                    Distance matrix (angstroms):
                    1          2          3          4          5
     1  C    0.000000
     2  C    1.374738   0.000000
     3  C    2.429827   1.420270   0.000000
     4  C    2.814312   2.452181   1.426756   0.000000
     5  C    2.419198   2.802364   2.453876   1.421757   0.000000
     6  C    1.413927   2.419567   2.815813   2.431216   1.375603
     7  H    1.090688   2.138039   3.418051   3.904975   3.402310
     8  H    2.143923   1.089537   2.166448   3.434891   3.891887
     9  H    3.409944   3.891374   3.437714   2.170430   1.089044
    10  H    2.172981   3.402265   3.906398   3.420233   2.139733
    11  C    4.252692   3.769608   2.479291   1.438697   2.491704
    12  C    3.751644   2.503238   1.427964   2.447637   3.746240
    13  C    5.076133   4.255163   2.835585   2.438264   3.741150
    14  H    6.141257   5.340067   3.920582   3.434531   4.636531
    15  C    4.865543   3.748564   2.436407   2.807424   4.228311
    16  H    5.836922   4.631835   3.422746   3.897286   5.318023
    17  O    4.963263   4.791520   3.659869   2.340469   2.722929
    18  Cl   4.456379   3.083786   2.747245   4.058391   5.200229
    19  C    6.401247   6.167662   4.947849   3.722958   4.146591
    20  C    7.161400   6.790607   5.503238   4.448041   5.043185
    21  H    8.215131   7.805953   6.482631   5.465341   6.083988
    22  C    6.972099   6.606931   5.343650   4.297735   4.892795
    23  H    8.049145   7.702087   6.429636   5.373656   5.911441
    24  H    6.936985   6.365138   5.029005   4.227970   5.103812
    25  H    6.660623   6.416592   5.281894   4.213744   4.625160
    26  C    6.977475   7.023210   5.973905   4.605038   4.571314
    27  H    6.796908   6.958913   6.011226   4.622474   4.402350
    28  H    8.065637   8.066705   6.963045   5.628796   5.664838
    29  H    6.770190   6.936124   5.999898   4.615063   4.393467
    30  C    6.898316   6.496256   5.273349   4.361372   4.981975
    31  H    7.785438   7.324396   6.113328   5.328163   5.985939
    32  H    5.955274   5.603438   4.479457   3.602712   4.164885
    33  O    4.496496   4.084986   3.370397   3.129121   3.665199
    34  H    4.509209   3.838867   2.890100   2.806772   3.697056
    35  H    3.672646   3.464200   2.887659   2.504006   2.792255
    36  O    5.285971   5.539604   4.872820   3.702598   3.335373
    37  H    5.008226   5.169754   4.565730   3.609210   3.398421
    38  H    4.886922   5.025836   4.214085   2.939000   2.728446
                    6          7          8          9         10
     6  C    0.000000
     7  H    2.172966   0.000000
     8  H    3.411999   2.469910   0.000000
     9  H    2.141934   4.304764   4.980882   0.000000
    10  H    1.090659   2.498187   4.306746   2.468300   0.000000
    11  C    3.748988   5.343353   4.641830   2.709585   4.629186
    12  C    4.242710   4.637689   2.733417   4.614667   5.333210
    13  C    4.868432   6.142373   4.891092   4.079575   5.837608
    14  H    5.846635   7.213900   5.954601   4.797337   6.767383
    15  C    5.060887   5.839000   4.096609   4.858967   6.125204
    16  H    6.125687   6.760414   4.797067   5.931227   7.197503
    17  O    4.098465   6.024649   5.764428   2.369808   4.738102
    18  Cl   5.358332   5.049644   2.630285   6.172327   6.413916
    19  C    5.519762   7.464436   7.096942   3.652484   6.095242
    20  C    6.391628   8.230466   7.638992   4.650081   7.021029
    21  H    7.444740   9.290480   8.627314   5.652452   8.061391
    22  C    6.219900   8.032878   7.453125   4.533693   6.856355
    23  H    7.246704   9.106927   8.545824   5.454513   7.827275
    24  H    6.391171   8.006136   7.097199   4.970362   7.159620
    25  H    5.866194   7.674776   7.287718   4.242065   6.429855
    26  C    5.860884   7.971318   8.037687   3.754411   6.181813
    27  H    5.616239   7.747635   7.996116   3.510011   5.841442
    28  H    6.958730   9.065819   9.061838   4.849961   7.266821
    29  H    5.596059   7.716316   7.971846   3.517151   5.822234
    30  C    6.229514   7.931947   7.290311   4.718816   6.883140
    31  H    7.183879   8.795939   8.046666   5.752825   7.837326
    32  H    5.325581   6.959885   6.407391   4.010214   5.988500
    33  O    4.307590   5.342224   4.705841   4.043542   5.056379
    34  H    4.447329   5.426613   4.398747   4.176983   5.333057
    35  H    3.368860   4.533670   4.223656   3.217696   4.092329
    36  O    4.254029   6.136926   6.523592   2.794792   4.504901
    37  H    4.177950   5.828221   6.074387   3.154494   4.530434
    38  H    3.861677   5.831484   6.036332   2.189557   4.263311
                   11         12         13         14         15
    11  C    0.000000
    12  C    2.813719   0.000000
    13  C    1.377800   2.424681   0.000000
    14  H    2.151174   3.391739   1.086105   0.000000
    15  C    2.421961   1.370202   1.416160   2.158267   0.000000
    16  H    3.401419   2.131917   2.169393   2.470555   1.089897
    17  O    1.353075   4.162203   2.435050   2.743530   3.702447
    18  Cl   4.556344   1.742980   4.022416   4.849091   2.691451
    19  C    2.482190   5.192183   3.001566   2.753048   4.412881
    20  C    3.122364   5.504781   3.197728   2.627289   4.537931
    21  H    4.088721   6.364653   3.977753   3.188442   5.275660
    22  C    3.050714   5.386155   3.205266   2.799487   4.492886
    23  H    4.096464   6.415562   4.153703   3.555130   5.433958
    24  H    2.938637   4.802242   2.637517   2.101397   3.771047
    25  H    3.234669   5.503633   3.645474   3.514943   4.821232
    26  C    3.654901   6.464220   4.448408   4.280007   5.837941
    27  H    3.849372   6.620946   4.768585   4.709843   6.109798
    28  H    4.564413   7.336048   5.161544   4.788444   6.575641
    29  H    3.876299   6.624899   4.815509   4.796319   6.138643
    30  C    3.224105   5.252586   3.245432   2.854281   4.383721
    31  H    4.222307   5.950148   4.036322   3.515589   5.018691
    32  H    2.728851   4.616463   2.981383   2.969010   3.985527
    33  O    3.217785   3.657672   3.502582   4.084452   3.713822
    34  H    2.726152   2.876855   2.710072   3.320325   2.788512
    35  H    2.919771   3.542228   3.542327   4.279504   3.815403
    36  O    3.575385   5.697114   4.645205   5.051064   5.604849
    37  H    3.638266   5.341687   4.581619   5.079678   5.349691
    38  H    2.669363   4.999719   3.802542   4.225565   4.837655
                   16         17         18         19         20
    16  H    0.000000
    17  O    4.595371   0.000000
    18  Cl   2.819157   5.905153   0.000000
    19  C    5.084304   1.445426   6.905968   0.000000
    20  C    5.008003   2.449736   7.128450   1.511554   0.000000
    21  H    5.586082   3.416574   7.933637   2.197681   1.095342
    22  C    5.006754   2.449696   6.999184   1.530657   2.535865
    23  H    5.829573   3.381221   7.998004   2.153848   2.799435
    24  H    4.126268   2.829932   6.302411   2.208236   2.822045
    25  H    5.441293   2.632174   7.099405   2.150920   3.467936
    26  C    6.577658   2.333448   8.204140   1.530581   2.465869
    27  H    6.906577   2.535264   8.353907   2.162193   2.713733
    28  H    7.203926   3.307683   9.060600   2.166062   2.682946
    29  H    6.945938   2.600024   8.350435   2.167541   3.428584
    30  C    4.843316   2.853893   6.786490   2.531764   1.331458
    31  H    5.300080   3.944345   7.352027   3.515201   2.106315
    32  H    4.602994   2.557473   6.148068   2.816817   2.127562
    33  O    4.420870   3.774686   4.824891   4.732127   4.456131
    34  H    3.456074   3.544326   4.094420   4.459525   4.194435
    35  H    4.688748   3.428815   4.809195   4.591260   4.617460
    36  O    6.522261   2.941090   7.259232   3.442091   4.934894
    37  H    6.240433   3.349408   6.786489   3.966086   5.433749
    38  H    5.777183   1.982792   6.640324   2.662352   4.107098
                   21         22         23         24         25
    21  H    0.000000
    22  C    2.738300   0.000000
    23  H    2.571257   1.098399   0.000000
    24  H    3.009176   1.095931   1.776370   0.000000
    25  H    3.770580   1.098986   1.784409   1.787944   0.000000
    26  C    2.893671   2.495907   2.696394   3.479506   2.718774
    27  H    3.299986   3.451194   3.726741   4.331688   3.696010
    28  H    2.680319   2.780189   2.524537   3.779650   3.146725
    29  H    3.863288   2.686216   2.964682   3.725280   2.444920
    30  C    2.106644   3.713591   4.108865   3.823258   4.574546
    31  H    2.434334   4.573299   4.809124   4.599149   5.517440
    32  H    3.096302   4.105225   4.717059   4.196342   4.790427
    33  O    5.459608   5.848334   6.700332   5.739963   6.275648
    34  H    5.162113   5.383525   6.264239   5.119810   5.841994
    35  H    5.685418   5.706897   6.623897   5.696075   5.974625
    36  O    5.584532   3.411032   4.142545   4.050196   2.531288
    37  H    6.090891   3.700191   4.510140   4.115516   2.751814
    38  H    4.853951   2.892599   3.755878   3.489776   2.253078
                   26         27         28         29         30
    26  C    0.000000
    27  H    1.098081   0.000000
    28  H    1.097910   1.785967   0.000000
    29  H    1.099245   1.795566   1.788399   0.000000
    30  C    3.388215   3.234450   3.743369   4.355237   0.000000
    31  H    4.274175   4.073419   4.436753   5.303671   1.091985
    32  H    3.650534   3.322159   4.262498   4.474781   1.094251
    33  O    5.575694   5.141208   6.411116   6.116606   3.477147
    34  H    5.525531   5.276748   6.339411   6.055252   3.333827
    35  H    5.310638   4.860134   6.247004   5.701823   3.832880
    36  O    3.331507   3.828124   4.169422   2.467973   5.687388
    37  H    4.133332   4.674149   4.958915   3.345380   6.157858
    38  H    2.789359   3.221247   3.748286   2.188590   4.771253
                   31         32         33         34         35
    31  H    0.000000
    32  H    1.867088   0.000000
    33  O    3.944054   2.438222   0.000000
    34  H    3.837899   2.423277   0.966351   0.000000
    35  H    4.488939   2.750253   0.965284   1.511792   0.000000
    36  O    6.764663   5.461160   6.285816   6.102932   5.637651
    37  H    7.237187   5.888254   6.486735   6.205404   5.829530
    38  H    5.856781   4.505868   5.367050   5.176500   4.766858
                   36         37         38
    36  O    0.000000
    37  H    0.964915   0.000000
    38  H    0.967972   1.519534   0.000000
 Stoichiometry    C15H19ClO3
 Framework group  C1[X(C15H19ClO3)]
 Deg. of freedom   108
 Full point group                 C1      NOp   1
 Largest Abelian subgroup         C1      NOp   1
 Largest concise Abelian subgroup C1      NOp   1
                         Standard orientation:                         
 ---------------------------------------------------------------------
 Center     Atomic      Atomic             Coordinates (Angstroms)
 Number     Number       Type             X           Y           Z
 ---------------------------------------------------------------------
      1          6           0       -2.737462    2.481086    0.625269
      2          6           0       -3.008732    1.223024    0.141949
      3          6           0       -1.957706    0.307649   -0.131179
      4          6           0       -0.609335    0.719994    0.086768
      5          6           0       -0.362100    2.023456    0.597899
      6          6           0       -1.402667    2.884227    0.859769
      7          1           0       -3.556578    3.170240    0.834353
      8          1           0       -4.037114    0.907181   -0.030578
      9          1           0        0.665487    2.331970    0.784715
     10          1           0       -1.198502    3.880536    1.253751
     11          6           0        0.468820   -0.200376   -0.158892
     12          6           0       -2.186042   -1.022180   -0.598618
     13          6           0        0.195128   -1.479412   -0.591897
     14          1           0        0.989671   -2.204763   -0.740868
     15          6           0       -1.143383   -1.884365   -0.815306
     16          1           0       -1.344238   -2.899179   -1.158359
     17          8           0        1.694239    0.306685    0.109526
     18         17           0       -3.815267   -1.569012   -0.889444
     19          6           0        2.946438   -0.344728   -0.201788
     20          6           0        3.150854   -1.594865    0.622935
     21          1           0        4.002460   -2.204835    0.302812
     22          6           0        3.067692   -0.596619   -1.706700
     23          1           0        4.089188   -0.932924   -1.930142
     24          1           0        2.370296   -1.355892   -2.078464
     25          1           0        2.886087    0.348683   -2.236977
     26          6           0        3.993582    0.687715    0.222747
     27          1           0        3.850604    0.943151    1.281091
     28          1           0        5.001702    0.273237    0.091189
     29          1           0        3.896872    1.594045   -0.391707
     30          6           0        2.447173   -1.940840    1.698999
     31          1           0        2.704412   -2.840718    2.261563
     32          1           0        1.584151   -1.363046    2.043576
     33          8           0       -0.709284   -0.925704    2.746295
     34          1           0       -0.835354   -1.399102    1.913327
     35          1           0       -0.763999    0.000566    2.480207
     36          8           0        2.041964    2.655535   -1.625986
     37          1           0        1.336806    2.622450   -2.283800
     38          1           0        1.828683    1.926873   -1.025542
 ---------------------------------------------------------------------
 Rotational constants (GHZ):      0.4786638      0.2433173      0.2071226
 Standard basis: def2SVP (5D, 7F)
 There are   384 symmetry adapted cartesian basis functions of A   symmetry.
 There are   365 symmetry adapted basis functions of A   symmetry.
   365 basis functions,   620 primitive gaussians,   384 cartesian basis functions
    75 alpha electrons       75 beta electrons
       nuclear repulsion energy      1630.4797061165 Hartrees.
 NAtoms=   38 NActive=   38 NUniq=   38 SFac= 1.00D+00 NAtFMM=   60 NAOKFM=F Big=F
 Integral buffers will be    131072 words long.
 Raffenetti 2 integral format.
 Two-electron integral symmetry is turned on.
 Nuclear repulsion after empirical dispersion term =     1630.4767546493 Hartrees.
 ------------------------------------------------------------------------------
 Polarizable Continuum Model (PCM)
 =================================
 Model                : C-PCM.
 Atomic radii         : UFF (Universal Force Field).
 Polarization charges : Total charges.
 Charge compensation  : None.
 Solution method      : On-the-fly selection.
 Cavity type          : Scaled VdW (van der Waals Surface) (Alpha=1.100).
 Cavity algorithm     : GePol (No added spheres)
                        Default sphere list used, NSphG=   38.
                        Lebedev-Laikov grids with approx.  5.0 points / Ang**2.
                        Smoothing algorithm: Karplus/York (Gamma=1.0000).
                        Polarization charges: spherical gaussians, with
                                              point-specific exponents (IZeta= 3).
                        Self-potential: point-specific (ISelfS= 7).
                        Self-field    : sphere-specific E.n sum rule (ISelfD= 2).
 1st derivatives      : Analytical E(r).r(x)/FMM algorithm (CHGder, D1EAlg=3).
                        Cavity 1st derivative terms included.
 Solvent              : Water, Eps=  78.355300 Eps(inf)=   1.777849
 ------------------------------------------------------------------------------
 One-electron integrals computed using PRISM.
   1 Symmetry operations used in ECPInt.
 ECPInt:  NShTT=   15051 NPrTT=   54599 LenC2=   14141 LenP2D=   36424.
 LDataN:  DoStor=T MaxTD1= 4 Len=   56
 NBasis=   365 RedAO= T EigKep=  1.91D-04  NBF=   365
 NBsUse=   365 1.00D-06 EigRej= -1.00D+00 NBFU=   365
 ExpMin= 1.22D-01 ExpMax= 1.04D+04 ExpMxC= 1.57D+03 IAcc=1 IRadAn=         1 AccDes= 0.00D+00
 Harris functional with IExCor= 1009 and IRadAn=       1 diagonalized for initial guess.
 HarFok:  IExCor= 1009 AccDes= 0.00D+00 IRadAn=         1 IDoV= 1 UseB2=F ITyADJ=14
 ICtDFT=  3500011 ScaDFX=  1.000000  1.000000  1.000000  1.000000
 FoFCou: FMM=F IPFlag=           0 FMFlag=      100000 FMFlg1=           0
         NFxFlg=           0 DoJE=T BraDBF=F KetDBF=T FulRan=T
         wScrn=  0.000000 ICntrl=     500 IOpCl=  0 I1Cent=   200000004 NGrid=           0
         NMat0=    1 NMatS0=      1 NMatT0=    0 NMatD0=    1 NMtDS0=    0 NMtDT0=    0
 Petite list used in FoFCou.
 Requested convergence on RMS density matrix=1.00D-08 within 128 cycles.
 Requested convergence on MAX density matrix=1.00D-06.
 Requested convergence on             energy=1.00D-06.
 No special actions if energy rises.
 Inv3:  Mode=1 IEnd=    21226800.
 Iteration    1 A*A^-1 deviation from unit magnitude is 4.88D-15 for   2654.
 Iteration    1 A*A^-1 deviation from orthogonality  is 1.76D-15 for   2349    874.
 Iteration    1 A^-1*A deviation from unit magnitude is 5.11D-15 for   2654.
 Iteration    1 A^-1*A deviation from orthogonality  is 1.26D-15 for   2636   2618.
 Error on total polarization charges =  0.01049
 SCF Done:  E(RM062X) =  -1267.80733831     A.U. after   14 cycles
            NFock= 14  Conv=0.41D-08     -V/T= 2.0071

 **********************************************************************

            Population analysis using the SCF density.

 **********************************************************************

 Orbital symmetries:
       Occupied  (A) (A) (A) (A) (A) (A) (A) (A) (A) (A) (A) (A)
                 (A) (A) (A) (A) (A) (A) (A) (A) (A) (A) (A) (A)
                 (A) (A) (A) (A) (A) (A) (A) (A) (A) (A) (A) (A)
                 (A) (A) (A) (A) (A) (A) (A) (A) (A) (A) (A) (A)
                 (A) (A) (A) (A) (A) (A) (A) (A) (A) (A) (A) (A)
                 (A) (A) (A) (A) (A) (A) (A) (A) (A) (A) (A) (A)
                 (A) (A) (A)
       Virtual   (A) (A) (A) (A) (A) (A) (A) (A) (A) (A) (A) (A)
                 (A) (A) (A) (A) (A) (A) (A) (A) (A) (A) (A) (A)
                 (A) (A) (A) (A) (A) (A) (A) (A) (A) (A) (A) (A)
                 (A) (A) (A) (A) (A) (A) (A) (A) (A) (A) (A) (A)
                 (A) (A) (A) (A) (A) (A) (A) (A) (A) (A) (A) (A)
                 (A) (A) (A) (A) (A) (A) (A) (A) (A) (A) (A) (A)
                 (A) (A) (A) (A) (A) (A) (A) (A) (A) (A) (A) (A)
                 (A) (A) (A) (A) (A) (A) (A) (A) (A) (A) (A) (A)
                 (A) (A) (A) (A) (A) (A) (A) (A) (A) (A) (A) (A)
                 (A) (A) (A) (A) (A) (A) (A) (A) (A) (A) (A) (A)
                 (A) (A) (A) (A) (A) (A) (A) (A) (A) (A) (A) (A)
                 (A) (A) (A) (A) (A) (A) (A) (A) (A) (A) (A) (A)
                 (A) (A) (A) (A) (A) (A) (A) (A) (A) (A) (A) (A)
                 (A) (A) (A) (A) (A) (A) (A) (A) (A) (A) (A) (A)
                 (A) (A) (A) (A) (A) (A) (A) (A) (A) (A) (A) (A)
                 (A) (A) (A) (A) (A) (A) (A) (A) (A) (A) (A) (A)
                 (A) (A) (A) (A) (A) (A) (A) (A) (A) (A) (A) (A)
                 (A) (A) (A) (A) (A) (A) (A) (A) (A) (A) (A) (A)
                 (A) (A) (A) (A) (A) (A) (A) (A) (A) (A) (A) (A)
                 (A) (A) (A) (A) (A) (A) (A) (A) (A) (A) (A) (A)
                 (A) (A) (A) (A) (A) (A) (A) (A) (A) (A) (A) (A)
                 (A) (A) (A) (A) (A) (A) (A) (A) (A) (A) (A) (A)
                 (A) (A) (A) (A) (A) (A) (A) (A) (A) (A) (A) (A)
                 (A) (A) (A) (A) (A) (A) (A) (A) (A) (A) (A) (A)
                 (A) (A)
 The electronic state is 1-A.
 Alpha  occ. eigenvalues -- -102.64760 -19.68402 -19.62577 -19.61981 -10.64133
 Alpha  occ. eigenvalues --  -10.63284 -10.62208 -10.59050 -10.58648 -10.58131
 Alpha  occ. eigenvalues --  -10.57348 -10.57242 -10.57209 -10.57127 -10.57071
 Alpha  occ. eigenvalues --  -10.56284 -10.55269 -10.55197 -10.55092  -9.81754
 Alpha  occ. eigenvalues --   -7.54457  -7.53780  -7.53776  -1.19764  -1.10424
 Alpha  occ. eigenvalues --   -1.09829  -1.00765  -0.96245  -0.93431  -0.91179
 Alpha  occ. eigenvalues --   -0.85933  -0.84865  -0.83928  -0.80912  -0.77895
 Alpha  occ. eigenvalues --   -0.73075  -0.71830  -0.70180  -0.68105  -0.64176
 Alpha  occ. eigenvalues --   -0.61367  -0.59684  -0.59339  -0.59268  -0.57499
 Alpha  occ. eigenvalues --   -0.56504  -0.55168  -0.54645  -0.52060  -0.51409
 Alpha  occ. eigenvalues --   -0.51037  -0.50535  -0.49708  -0.49101  -0.47701
 Alpha  occ. eigenvalues --   -0.46924  -0.46165  -0.46044  -0.45653  -0.45410
 Alpha  occ. eigenvalues --   -0.44603  -0.43786  -0.43204  -0.41935  -0.41556
 Alpha  occ. eigenvalues --   -0.41168  -0.39575  -0.38484  -0.38196  -0.38012
 Alpha  occ. eigenvalues --   -0.37361  -0.33646  -0.32673  -0.31653  -0.26823
 Alpha virt. eigenvalues --   -0.02881  -0.00542   0.03992   0.05004   0.08295
 Alpha virt. eigenvalues --    0.08740   0.10060   0.11273   0.11475   0.12027
 Alpha virt. eigenvalues --    0.12530   0.13934   0.15013   0.15815   0.16460
 Alpha virt. eigenvalues --    0.17032   0.18193   0.18986   0.19103   0.19522
 Alpha virt. eigenvalues --    0.20015   0.20948   0.21621   0.21996   0.22664
 Alpha virt. eigenvalues --    0.23057   0.23932   0.24963   0.26481   0.27388
 Alpha virt. eigenvalues --    0.29376   0.30524   0.30949   0.31550   0.33105
 Alpha virt. eigenvalues --    0.34055   0.35203   0.35624   0.37482   0.39324
 Alpha virt. eigenvalues --    0.39684   0.40695   0.42727   0.43238   0.44833
 Alpha virt. eigenvalues --    0.45463   0.46350   0.47758   0.48771   0.49123
 Alpha virt. eigenvalues --    0.49998   0.50529   0.51532   0.51954   0.52982
 Alpha virt. eigenvalues --    0.53907   0.54391   0.55929   0.57023   0.57967
 Alpha virt. eigenvalues --    0.58555   0.59528   0.59610   0.60904   0.61352
 Alpha virt. eigenvalues --    0.62281   0.63134   0.63260   0.64064   0.64079
 Alpha virt. eigenvalues --    0.65620   0.67207   0.67859   0.68363   0.68575
 Alpha virt. eigenvalues --    0.69645   0.70083   0.70849   0.70957   0.71753
 Alpha virt. eigenvalues --    0.71891   0.72450   0.72662   0.73253   0.73915
 Alpha virt. eigenvalues --    0.75098   0.75352   0.75506   0.76210   0.76315
 Alpha virt. eigenvalues --    0.77029   0.77657   0.78338   0.78791   0.78960
 Alpha virt. eigenvalues --    0.79343   0.80245   0.81569   0.82343   0.82607
 Alpha virt. eigenvalues --    0.83947   0.84798   0.85103   0.85362   0.86010
 Alpha virt. eigenvalues --    0.87413   0.88468   0.89693   0.90810   0.91712
 Alpha virt. eigenvalues --    0.94010   0.94852   0.98406   0.99431   1.01388
 Alpha virt. eigenvalues --    1.02205   1.04073   1.06621   1.08279   1.08664
 Alpha virt. eigenvalues --    1.09583   1.10781   1.12735   1.12902   1.15052
 Alpha virt. eigenvalues --    1.15662   1.16241   1.17529   1.18650   1.18809
 Alpha virt. eigenvalues --    1.21310   1.22272   1.23803   1.26256   1.27033
 Alpha virt. eigenvalues --    1.28630   1.29256   1.29997   1.30395   1.32287
 Alpha virt. eigenvalues --    1.33139   1.34018   1.34602   1.35407   1.35911
 Alpha virt. eigenvalues --    1.38655   1.39784   1.40863   1.41790   1.42989
 Alpha virt. eigenvalues --    1.44223   1.45328   1.47153   1.47575   1.52437
 Alpha virt. eigenvalues --    1.53170   1.53730   1.54910   1.56190   1.58103
 Alpha virt. eigenvalues --    1.59461   1.60143   1.61860   1.62584   1.63936
 Alpha virt. eigenvalues --    1.66259   1.68253   1.70540   1.71535   1.72133
 Alpha virt. eigenvalues --    1.73166   1.73908   1.75367   1.76132   1.77355
 Alpha virt. eigenvalues --    1.77559   1.77791   1.78776   1.79591   1.79971
 Alpha virt. eigenvalues --    1.80353   1.81243   1.82487   1.83400   1.84291
 Alpha virt. eigenvalues --    1.84804   1.85179   1.86679   1.87948   1.88983
 Alpha virt. eigenvalues --    1.89317   1.90021   1.90291   1.90773   1.92191
 Alpha virt. eigenvalues --    1.93096   1.93584   1.94757   1.96503   1.97484
 Alpha virt. eigenvalues --    1.97992   1.98915   2.01189   2.02227   2.02679
 Alpha virt. eigenvalues --    2.04638   2.05129   2.07640   2.09645   2.10369
 Alpha virt. eigenvalues --    2.12151   2.13072   2.14226   2.14782   2.16618
 Alpha virt. eigenvalues --    2.18755   2.19278   2.21124   2.21919   2.24132
 Alpha virt. eigenvalues --    2.25373   2.26529   2.26712   2.27186   2.29201
 Alpha virt. eigenvalues --    2.30404   2.30813   2.32084   2.33165   2.35187
 Alpha virt. eigenvalues --    2.36481   2.37987   2.38545   2.39953   2.41555
 Alpha virt. eigenvalues --    2.42006   2.43393   2.44903   2.46729   2.47346
 Alpha virt. eigenvalues --    2.50032   2.50220   2.52502   2.55901   2.59084
 Alpha virt. eigenvalues --    2.60333   2.60803   2.62108   2.63966   2.65890
 Alpha virt. eigenvalues --    2.66276   2.68143   2.70158   2.75913   2.76086
 Alpha virt. eigenvalues --    2.78253   2.79935   2.81613   2.83039   2.85555
 Alpha virt. eigenvalues --    2.88385   2.89468   2.92019   2.93386   2.93706
 Alpha virt. eigenvalues --    2.94925   2.95536   2.99195   3.01528   3.02369
 Alpha virt. eigenvalues --    3.02932   3.03516   3.04445   3.06526   3.07812
 Alpha virt. eigenvalues --    3.08256   3.10357   3.14003   3.20930   3.25466
 Alpha virt. eigenvalues --    3.26727   3.33169   3.36508   3.54041   3.57793
 Alpha virt. eigenvalues --    3.60405   3.61545   3.69095   3.89437   3.91153
          Condensed to atoms (all electrons):
               1          2          3          4          5          6
     1  C    5.115796   0.304053   0.105992  -0.162944   0.111490   0.190888
     2  C    0.304053   5.196928   0.250273   0.040106  -0.154223   0.104836
     3  C    0.105992   0.250273   5.539188   0.113949   0.026023  -0.153728
     4  C   -0.162944   0.040106   0.113949   5.818870   0.194993   0.105140
     5  C    0.111490  -0.154223   0.026023   0.194993   5.295729   0.258355
     6  C    0.190888   0.104836  -0.153728   0.105140   0.258355   5.149346
     7  H    0.455543  -0.065688   0.014658  -0.001030   0.013575  -0.072591
     8  H   -0.062732   0.454777  -0.067552   0.016672  -0.002041   0.013341
     9  H    0.014476  -0.002719   0.016909  -0.069435   0.466713  -0.070775
    10  H   -0.073304   0.013612  -0.001240   0.015379  -0.068951   0.458966
    11  C   -0.003338   0.024485   0.014304   0.184255  -0.145641   0.022464
    12  C    0.016535  -0.122137   0.220267   0.015283   0.026329  -0.002963
    13  C    0.000130  -0.002874  -0.142349   0.043788   0.024706  -0.000840
    14  H    0.000001   0.000020  -0.001960   0.014969  -0.000250  -0.000003
    15  C   -0.000584   0.014786   0.086487  -0.126841  -0.004228   0.000305
    16  H    0.000005  -0.000341   0.016657  -0.001819   0.000023   0.000001
    17  O   -0.000018  -0.000042   0.003514  -0.119071   0.007595   0.001435
    18  Cl   0.000058  -0.004134  -0.073659   0.003469  -0.000154   0.000031
    19  C   -0.000001   0.000009   0.000245   0.006035  -0.001198   0.000032
    20  C    0.000000   0.000001  -0.000097   0.000230  -0.000121   0.000003
    21  H    0.000000   0.000000  -0.000001   0.000044   0.000001   0.000000
    22  C    0.000000  -0.000002  -0.000092  -0.001558   0.000382  -0.000005
    23  H    0.000000   0.000000   0.000000   0.000051  -0.000005   0.000000
    24  H    0.000000   0.000000   0.000004   0.000131  -0.000037  -0.000001
    25  H   -0.000001   0.000003  -0.000003  -0.000515  -0.000281   0.000023
    26  C    0.000000   0.000000   0.000006   0.000503  -0.000285  -0.000028
    27  H    0.000000   0.000000  -0.000001  -0.000217   0.000024   0.000007
    28  H    0.000000   0.000000  -0.000001  -0.000011   0.000011   0.000000
    29  H    0.000000   0.000000   0.000015   0.000285  -0.000500   0.000012
    30  C    0.000000  -0.000002   0.000344  -0.000764  -0.000037   0.000000
    31  H    0.000000   0.000000   0.000003  -0.000020  -0.000002   0.000000
    32  H   -0.000001   0.000006  -0.001741  -0.000286   0.001138  -0.000009
    33  O    0.000147  -0.000646   0.005849  -0.004152  -0.000877  -0.000245
    34  H   -0.000032  -0.000576   0.005184   0.002023  -0.001488   0.000050
    35  H    0.000541  -0.001136   0.006146  -0.006019   0.004197   0.000523
    36  O    0.000020  -0.000010  -0.000051  -0.000602   0.001531  -0.001218
    37  H    0.000005  -0.000005  -0.000181   0.000064   0.002302  -0.000022
    38  H   -0.000019  -0.000041   0.000264  -0.005440   0.007377  -0.000202
               7          8          9         10         11         12
     1  C    0.455543  -0.062732   0.014476  -0.073304  -0.003338   0.016535
     2  C   -0.065688   0.454777  -0.002719   0.013612   0.024485  -0.122137
     3  C    0.014658  -0.067552   0.016909  -0.001240   0.014304   0.220267
     4  C   -0.001030   0.016672  -0.069435   0.015379   0.184255   0.015283
     5  C    0.013575  -0.002041   0.466713  -0.068951  -0.145641   0.026329
     6  C   -0.072591   0.013341  -0.070775   0.458966   0.022464  -0.002963
     7  H    0.631750  -0.011344  -0.000195  -0.010605   0.000044  -0.000418
     8  H   -0.011344   0.635574   0.000015  -0.000199  -0.000191  -0.028095
     9  H   -0.000195   0.000015   0.636174  -0.011727  -0.033794   0.000004
    10  H   -0.010605  -0.000199  -0.011727   0.632864  -0.000391   0.000041
    11  C    0.000044  -0.000191  -0.033794  -0.000391   5.311285  -0.193839
    12  C   -0.000418  -0.028095   0.000004   0.000041  -0.193839   5.444780
    13  C    0.000001  -0.000074   0.000710   0.000002   0.176865   0.125609
    14  H    0.000000   0.000002   0.000010   0.000000  -0.089314   0.016758
    15  C    0.000001   0.000499  -0.000114   0.000000   0.158996   0.291240
    16  H    0.000000  -0.000011   0.000000   0.000000   0.015953  -0.080002
    17  O    0.000000   0.000001   0.008590  -0.000012   0.365849  -0.000120
    18  Cl  -0.000023   0.021833   0.000001   0.000000   0.000753   0.238947
    19  C    0.000000   0.000000  -0.000782   0.000000  -0.059034  -0.000030
    20  C    0.000000   0.000000  -0.000260   0.000000  -0.002290  -0.000011
    21  H    0.000000   0.000000   0.000000   0.000000   0.000728   0.000001
    22  C    0.000000   0.000000   0.000354   0.000000  -0.004834  -0.000016
    23  H    0.000000   0.000000  -0.000008   0.000000   0.000405   0.000000
    24  H    0.000000   0.000000  -0.000010   0.000000   0.000555  -0.000030
    25  H    0.000000   0.000000  -0.000347   0.000000   0.003027  -0.000018
    26  C    0.000000   0.000000   0.000064   0.000000   0.006250   0.000002
    27  H    0.000000   0.000000   0.000594  -0.000001   0.000016   0.000000
    28  H    0.000000   0.000000   0.000004   0.000000  -0.000112   0.000000
    29  H    0.000000   0.000000   0.000425   0.000000  -0.001499  -0.000001
    30  C    0.000000   0.000000   0.000071   0.000000  -0.001242  -0.000117
    31  H    0.000000   0.000000   0.000001   0.000000  -0.000461  -0.000002
    32  H    0.000000   0.000000   0.000110  -0.000001   0.003398   0.000652
    33  O    0.000000  -0.000014  -0.000033  -0.000002   0.002458  -0.002198
    34  H    0.000000   0.000008  -0.000046   0.000001   0.002129  -0.001332
    35  H   -0.000008  -0.000025   0.000077   0.000017   0.002224  -0.001260
    36  O    0.000000   0.000000   0.006514  -0.000011   0.000409   0.000002
    37  H    0.000000   0.000000  -0.001095   0.000003   0.001039   0.000006
    38  H    0.000000   0.000000   0.001664   0.000024  -0.003249   0.000033
              13         14         15         16         17         18
     1  C    0.000130   0.000001  -0.000584   0.000005  -0.000018   0.000058
     2  C   -0.002874   0.000020   0.014786  -0.000341  -0.000042  -0.004134
     3  C   -0.142349  -0.001960   0.086487   0.016657   0.003514  -0.073659
     4  C    0.043788   0.014969  -0.126841  -0.001819  -0.119071   0.003469
     5  C    0.024706  -0.000250  -0.004228   0.000023   0.007595  -0.000154
     6  C   -0.000840  -0.000003   0.000305   0.000001   0.001435   0.000031
     7  H    0.000001   0.000000   0.000001   0.000000   0.000000  -0.000023
     8  H   -0.000074   0.000002   0.000499  -0.000011   0.000001   0.021833
     9  H    0.000710   0.000010  -0.000114   0.000000   0.008590   0.000001
    10  H    0.000002   0.000000   0.000000   0.000000  -0.000012   0.000000
    11  C    0.176865  -0.089314   0.158996   0.015953   0.365849   0.000753
    12  C    0.125609   0.016758   0.291240  -0.080002  -0.000120   0.238947
    13  C    5.418977   0.471809   0.163657  -0.057945  -0.082999   0.003590
    14  H    0.471809   0.622464  -0.064110  -0.013367  -0.006464  -0.000123
    15  C    0.163657  -0.064110   5.103371   0.454000   0.004758  -0.063542
    16  H   -0.057945  -0.013367   0.454000   0.626902  -0.000057   0.001089
    17  O   -0.082999  -0.006464   0.004758  -0.000057   8.124685   0.000000
    18  Cl   0.003590  -0.000123  -0.063542   0.001089   0.000000  16.974793
    19  C   -0.000300   0.003430   0.000498  -0.000024   0.198135   0.000000
    20  C   -0.003773   0.003823  -0.000517   0.000011  -0.056780   0.000000
    21  H   -0.000517   0.000342  -0.000025  -0.000002   0.003314   0.000000
    22  C   -0.002900  -0.005935   0.000093   0.000011  -0.045700   0.000000
    23  H   -0.000287   0.000152  -0.000001  -0.000001   0.004071   0.000000
    24  H    0.001327   0.003447   0.000486   0.000021  -0.002728   0.000000
    25  H   -0.000443  -0.000124  -0.000010   0.000002  -0.006169   0.000000
    26  C    0.000370   0.000487   0.000000   0.000000  -0.050417   0.000000
    27  H    0.000012  -0.000006  -0.000001   0.000000   0.000940   0.000000
    28  H    0.000038   0.000021  -0.000001   0.000000   0.004149   0.000000
    29  H   -0.000088  -0.000042   0.000003   0.000000  -0.003494   0.000000
    30  C   -0.006572   0.002569   0.000436   0.000019   0.001435   0.000000
    31  H    0.000055   0.000089   0.000046   0.000000   0.000258   0.000000
    32  H    0.000478  -0.000949  -0.002028  -0.000022   0.006039   0.000001
    33  O   -0.000612  -0.000027  -0.000681   0.000002  -0.000324  -0.000008
    34  H    0.003089   0.000014   0.004367   0.000121  -0.000408  -0.000088
    35  H   -0.002020  -0.000019   0.000922  -0.000003   0.000515  -0.000001
    36  O   -0.000092  -0.000003   0.000002   0.000000  -0.009730   0.000000
    37  H    0.000109   0.000002  -0.000013   0.000000  -0.000328   0.000000
    38  H   -0.000568  -0.000057  -0.000060   0.000001   0.035829   0.000000
              19         20         21         22         23         24
     1  C   -0.000001   0.000000   0.000000   0.000000   0.000000   0.000000
     2  C    0.000009   0.000001   0.000000  -0.000002   0.000000   0.000000
     3  C    0.000245  -0.000097  -0.000001  -0.000092   0.000000   0.000004
     4  C    0.006035   0.000230   0.000044  -0.001558   0.000051   0.000131
     5  C   -0.001198  -0.000121   0.000001   0.000382  -0.000005  -0.000037
     6  C    0.000032   0.000003   0.000000  -0.000005   0.000000  -0.000001
     7  H    0.000000   0.000000   0.000000   0.000000   0.000000   0.000000
     8  H    0.000000   0.000000   0.000000   0.000000   0.000000   0.000000
     9  H   -0.000782  -0.000260   0.000000   0.000354  -0.000008  -0.000010
    10  H    0.000000   0.000000   0.000000   0.000000   0.000000   0.000000
    11  C   -0.059034  -0.002290   0.000728  -0.004834   0.000405   0.000555
    12  C   -0.000030  -0.000011   0.000001  -0.000016   0.000000  -0.000030
    13  C   -0.000300  -0.003773  -0.000517  -0.002900  -0.000287   0.001327
    14  H    0.003430   0.003823   0.000342  -0.005935   0.000152   0.003447
    15  C    0.000498  -0.000517  -0.000025   0.000093  -0.000001   0.000486
    16  H   -0.000024   0.000011  -0.000002   0.000011  -0.000001   0.000021
    17  O    0.198135  -0.056780   0.003314  -0.045700   0.004071  -0.002728
    18  Cl   0.000000   0.000000   0.000000   0.000000   0.000000   0.000000
    19  C    5.085893   0.276990  -0.055163   0.392626  -0.016592  -0.020036
    20  C    0.276990   4.967611   0.414051  -0.081996  -0.004564  -0.006577
    21  H   -0.055163   0.414051   0.622732  -0.001850   0.002612  -0.000470
    22  C    0.392626  -0.081996  -0.001850   4.701273   0.385731   0.396746
    23  H   -0.016592  -0.004564   0.002612   0.385731   0.595469  -0.017580
    24  H   -0.020036  -0.006577  -0.000470   0.396746  -0.017580   0.596916
    25  H   -0.003717   0.008650   0.000118   0.343547  -0.012313  -0.017771
    26  C    0.405942  -0.069415  -0.001222  -0.067103  -0.003036   0.007069
    27  H   -0.016993  -0.004814  -0.000176   0.009319   0.000024  -0.000438
    28  H   -0.016281  -0.003947   0.001986  -0.003515   0.002463  -0.000036
    29  H   -0.015015   0.007805  -0.000100  -0.009632  -0.001065   0.000308
    30  C   -0.039050   0.641638  -0.032172   0.007143  -0.000126   0.000477
    31  H    0.009991  -0.015039  -0.014056  -0.000306   0.000000  -0.000035
    32  H   -0.030765  -0.000476   0.007817   0.001083  -0.000032  -0.000013
    33  O   -0.000203   0.000701  -0.000001   0.000001   0.000000   0.000000
    34  H    0.000076  -0.000158  -0.000003  -0.000007   0.000000   0.000005
    35  H    0.000046  -0.000161   0.000000   0.000004   0.000000   0.000000
    36  O    0.004206  -0.000009   0.000001  -0.013900   0.000121   0.000130
    37  H   -0.000227  -0.000006   0.000000   0.000426  -0.000017   0.000001
    38  H   -0.009003   0.001667  -0.000047   0.000225   0.000142  -0.000446
              25         26         27         28         29         30
     1  C   -0.000001   0.000000   0.000000   0.000000   0.000000   0.000000
     2  C    0.000003   0.000000   0.000000   0.000000   0.000000  -0.000002
     3  C   -0.000003   0.000006  -0.000001  -0.000001   0.000015   0.000344
     4  C   -0.000515   0.000503  -0.000217  -0.000011   0.000285  -0.000764
     5  C   -0.000281  -0.000285   0.000024   0.000011  -0.000500  -0.000037
     6  C    0.000023  -0.000028   0.000007   0.000000   0.000012   0.000000
     7  H    0.000000   0.000000   0.000000   0.000000   0.000000   0.000000
     8  H    0.000000   0.000000   0.000000   0.000000   0.000000   0.000000
     9  H   -0.000347   0.000064   0.000594   0.000004   0.000425   0.000071
    10  H    0.000000   0.000000  -0.000001   0.000000   0.000000   0.000000
    11  C    0.003027   0.006250   0.000016  -0.000112  -0.001499  -0.001242
    12  C   -0.000018   0.000002   0.000000   0.000000  -0.000001  -0.000117
    13  C   -0.000443   0.000370   0.000012   0.000038  -0.000088  -0.006572
    14  H   -0.000124   0.000487  -0.000006   0.000021  -0.000042   0.002569
    15  C   -0.000010   0.000000  -0.000001  -0.000001   0.000003   0.000436
    16  H    0.000002   0.000000   0.000000   0.000000   0.000000   0.000019
    17  O   -0.006169  -0.050417   0.000940   0.004149  -0.003494   0.001435
    18  Cl   0.000000   0.000000   0.000000   0.000000   0.000000   0.000000
    19  C   -0.003717   0.405942  -0.016993  -0.016281  -0.015015  -0.039050
    20  C    0.008650  -0.069415  -0.004814  -0.003947   0.007805   0.641638
    21  H    0.000118  -0.001222  -0.000176   0.001986  -0.000100  -0.032172
    22  C    0.343547  -0.067103   0.009319  -0.003515  -0.009632   0.007143
    23  H   -0.012313  -0.003036   0.000024   0.002463  -0.001065  -0.000126
    24  H   -0.017771   0.007069  -0.000438  -0.000036   0.000308   0.000477
    25  H    0.631684  -0.013326   0.000199  -0.000537   0.005838  -0.000337
    26  C   -0.013326   4.642110   0.377419   0.389176   0.375601  -0.013042
    27  H    0.000199   0.377419   0.613255  -0.016204  -0.019086   0.005227
    28  H   -0.000537   0.389176  -0.016204   0.602458  -0.016106  -0.000133
    29  H    0.005838   0.375601  -0.019086  -0.016106   0.610105   0.000105
    30  C   -0.000337  -0.013042   0.005227  -0.000133   0.000105   4.821558
    31  H    0.000009  -0.000066  -0.000174  -0.000012   0.000014   0.388468
    32  H   -0.000005  -0.000475   0.000769   0.000082  -0.000026   0.319383
    33  O    0.000000   0.000005  -0.000005   0.000000   0.000000  -0.018924
    34  H    0.000000   0.000002  -0.000003   0.000000   0.000000   0.003622
    35  H    0.000000  -0.000007   0.000011   0.000000   0.000000   0.001008
    36  O    0.033447  -0.009513   0.000015   0.000087   0.023799   0.000000
    37  H    0.001107   0.000689   0.000006  -0.000015  -0.001897  -0.000001
    38  H   -0.001757   0.002676  -0.000751   0.000108  -0.004444  -0.000041
              31         32         33         34         35         36
     1  C    0.000000  -0.000001   0.000147  -0.000032   0.000541   0.000020
     2  C    0.000000   0.000006  -0.000646  -0.000576  -0.001136  -0.000010
     3  C    0.000003  -0.001741   0.005849   0.005184   0.006146  -0.000051
     4  C   -0.000020  -0.000286  -0.004152   0.002023  -0.006019  -0.000602
     5  C   -0.000002   0.001138  -0.000877  -0.001488   0.004197   0.001531
     6  C    0.000000  -0.000009  -0.000245   0.000050   0.000523  -0.001218
     7  H    0.000000   0.000000   0.000000   0.000000  -0.000008   0.000000
     8  H    0.000000   0.000000  -0.000014   0.000008  -0.000025   0.000000
     9  H    0.000001   0.000110  -0.000033  -0.000046   0.000077   0.006514
    10  H    0.000000  -0.000001  -0.000002   0.000001   0.000017  -0.000011
    11  C   -0.000461   0.003398   0.002458   0.002129   0.002224   0.000409
    12  C   -0.000002   0.000652  -0.002198  -0.001332  -0.001260   0.000002
    13  C    0.000055   0.000478  -0.000612   0.003089  -0.002020  -0.000092
    14  H    0.000089  -0.000949  -0.000027   0.000014  -0.000019  -0.000003
    15  C    0.000046  -0.002028  -0.000681   0.004367   0.000922   0.000002
    16  H    0.000000  -0.000022   0.000002   0.000121  -0.000003   0.000000
    17  O    0.000258   0.006039  -0.000324  -0.000408   0.000515  -0.009730
    18  Cl   0.000000   0.000001  -0.000008  -0.000088  -0.000001   0.000000
    19  C    0.009991  -0.030765  -0.000203   0.000076   0.000046   0.004206
    20  C   -0.015039  -0.000476   0.000701  -0.000158  -0.000161  -0.000009
    21  H   -0.014056   0.007817  -0.000001  -0.000003   0.000000   0.000001
    22  C   -0.000306   0.001083   0.000001  -0.000007   0.000004  -0.013900
    23  H    0.000000  -0.000032   0.000000   0.000000   0.000000   0.000121
    24  H   -0.000035  -0.000013   0.000000   0.000005   0.000000   0.000130
    25  H    0.000009  -0.000005   0.000000   0.000000   0.000000   0.033447
    26  C   -0.000066  -0.000475   0.000005   0.000002  -0.000007  -0.009513
    27  H   -0.000174   0.000769  -0.000005  -0.000003   0.000011   0.000015
    28  H   -0.000012   0.000082   0.000000   0.000000   0.000000   0.000087
    29  H    0.000014  -0.000026   0.000000   0.000000   0.000000   0.023799
    30  C    0.388468   0.319383  -0.018924   0.003622   0.001008   0.000000
    31  H    0.606867  -0.040926  -0.000073   0.000028  -0.000001   0.000000
    32  H   -0.040926   0.652693   0.057511  -0.006209  -0.001895   0.000003
    33  O   -0.000073   0.057511   7.597679   0.345903   0.354128   0.000000
    34  H    0.000028  -0.006209   0.345903   0.491100  -0.039007   0.000000
    35  H   -0.000001  -0.001895   0.354128  -0.039007   0.481164   0.000000
    36  O    0.000000   0.000003   0.000000   0.000000   0.000000   7.662636
    37  H    0.000000   0.000000   0.000000   0.000000   0.000000   0.334798
    38  H    0.000001  -0.000110  -0.000002   0.000010  -0.000004   0.321891
              37         38
     1  C    0.000005  -0.000019
     2  C   -0.000005  -0.000041
     3  C   -0.000181   0.000264
     4  C    0.000064  -0.005440
     5  C    0.002302   0.007377
     6  C   -0.000022  -0.000202
     7  H    0.000000   0.000000
     8  H    0.000000   0.000000
     9  H   -0.001095   0.001664
    10  H    0.000003   0.000024
    11  C    0.001039  -0.003249
    12  C    0.000006   0.000033
    13  C    0.000109  -0.000568
    14  H    0.000002  -0.000057
    15  C   -0.000013  -0.000060
    16  H    0.000000   0.000001
    17  O   -0.000328   0.035829
    18  Cl   0.000000   0.000000
    19  C   -0.000227  -0.009003
    20  C   -0.000006   0.001667
    21  H    0.000000  -0.000047
    22  C    0.000426   0.000225
    23  H   -0.000017   0.000142
    24  H    0.000001  -0.000446
    25  H    0.001107  -0.001757
    26  C    0.000689   0.002676
    27  H    0.000006  -0.000751
    28  H   -0.000015   0.000108
    29  H   -0.001897  -0.004444
    30  C   -0.000001  -0.000041
    31  H    0.000000   0.000001
    32  H    0.000000  -0.000110
    33  O    0.000000  -0.000002
    34  H    0.000000   0.000010
    35  H    0.000000  -0.000004
    36  O    0.334798   0.321891
    37  H    0.492830  -0.022747
    38  H   -0.022747   0.490404
 Mulliken charges:
               1
     1  C   -0.012709
     2  C   -0.049320
     3  C    0.016374
     4  C   -0.075520
     5  C   -0.062178
     6  C   -0.003133
     7  H    0.046331
     8  H    0.029557
     9  H    0.037861
    10  H    0.045534
    11  C    0.241341
    12  C    0.036098
    13  C   -0.130069
    14  H    0.042342
    15  C   -0.022199
    16  H    0.038776
    17  O   -0.386251
    18  Cl  -0.102835
    19  C   -0.099743
    20  C   -0.072171
    21  H    0.052058
    22  C    0.000384
    23  H    0.064384
    24  H    0.058585
    25  H    0.030020
    26  C    0.019561
    27  H    0.051032
    28  H    0.056326
    29  H    0.048682
    30  C   -0.080944
    31  H    0.065343
    32  H    0.034804
    33  O   -0.335359
    34  H    0.191627
    35  H    0.200043
    36  O   -0.354472
    37  H    0.193167
    38  H    0.186674
 Sum of Mulliken charges =   0.00000
 Mulliken charges with hydrogens summed into heavy atoms:
               1
     1  C    0.033621
     2  C   -0.019764
     3  C    0.016374
     4  C   -0.075520
     5  C   -0.024317
     6  C    0.042401
    11  C    0.241341
    12  C    0.036098
    13  C   -0.087728
    15  C    0.016578
    17  O   -0.386251
    18  Cl  -0.102835
    19  C   -0.099743
    20  C   -0.020113
    22  C    0.153373
    26  C    0.175601
    30  C    0.019204
    33  O    0.056311
    36  O    0.025368
 Electronic spatial extent (au):  <R**2>=           5705.5093
 Charge=              0.0000 electrons
 Dipole moment (field-independent basis, Debye):
    X=              1.0429    Y=             -0.5917    Z=             -2.3802  Tot=              2.6651
 Quadrupole moment (field-independent basis, Debye-Ang):
   XX=           -115.9016   YY=           -115.9386   ZZ=           -129.9086
   XY=            -16.1025   XZ=             -0.6190   YZ=              9.1848
 Traceless Quadrupole moment (field-independent basis, Debye-Ang):
   XX=              4.6814   YY=              4.6443   ZZ=             -9.3257
   XY=            -16.1025   XZ=             -0.6190   YZ=              9.1848
 Octapole moment (field-independent basis, Debye-Ang**2):
  XXX=             24.4523  YYY=            -13.0543  ZZZ=            -42.6390  XYY=            -26.4781
  XXY=            -10.0701  XXZ=              5.8232  XZZ=              9.3847  YZZ=             17.3864
  YYZ=             12.7643  XYZ=              3.3685
 Hexadecapole moment (field-independent basis, Debye-Ang**3):
 XXXX=          -4316.3312 YYYY=          -1892.3943 ZZZZ=          -1090.3335 XXXY=           -126.8642
 XXXZ=            -40.9588 YYYX=            -77.0295 YYYZ=             47.9186 ZZZX=              9.0343
 ZZZY=             -3.6228 XXYY=          -1081.9072 XXZZ=           -970.6535 YYZZ=           -473.6704
 XXYZ=             47.9304 YYXZ=             20.0963 ZZXY=             -6.7214
 N-N= 1.630476754649D+03 E-N=-6.232103253736D+03  KE= 1.258855797498D+03
   1 Symmetry operations used in ECPInt.
 ECPInt:  NShTT=   15051 NPrTT=   54599 LenC2=   14141 LenP2D=   36424.
 LDataN:  DoStor=T MaxTD1= 5 Len=  102
 D1PCM: C-PCM CHGder 1st derivatives, ID1Alg=3 FixD1E=F DoIter=F DoCFld=F I1PDM=0.
 Calling FoFJK, ICntrl=      2127 FMM=F ISym2X=0 I1Cent= 0 IOpClX= 0 NMat=1 NMatS=1 NMatT=0.
 ***** Axes restored to original set *****
 -------------------------------------------------------------------
 Center     Atomic                   Forces (Hartrees/Bohr)
 Number     Number              X              Y              Z
 -------------------------------------------------------------------
      1        6           0.000013497    0.000024909   -0.000005807
      2        6           0.000006328    0.000009803   -0.000019103
      3        6          -0.000015971    0.000002156   -0.000013332
      4        6          -0.000006792    0.000011522    0.000007406
      5        6           0.000005960    0.000033494    0.000006584
      6        6           0.000002582    0.000023392    0.000012219
      7        1           0.000009867   -0.000007318   -0.000002665
      8        1           0.000006710    0.000001452   -0.000002572
      9        1          -0.000002765    0.000001780    0.000006534
     10        1           0.000020064   -0.000016294   -0.000005251
     11        6          -0.000003884   -0.000001859   -0.000001770
     12        6          -0.000003101    0.000004128   -0.000018414
     13        6          -0.000008994   -0.000022863   -0.000019906
     14        1          -0.000011685    0.000004373   -0.000008461
     15        6           0.000006958   -0.000012000   -0.000026253
     16        1           0.000017929    0.000018257    0.000000968
     17        8           0.000004693    0.000013215   -0.000000154
     18       17          -0.000002121    0.000002442   -0.000021650
     19        6           0.000019959   -0.000007489   -0.000004825
     20        6           0.000003535   -0.000012368    0.000003451
     21        1           0.000000590   -0.000015498    0.000006840
     22        6          -0.000001062   -0.000004845   -0.000008635
     23        1           0.000005903   -0.000006464   -0.000006479
     24        1          -0.000012119   -0.000002989   -0.000006034
     25        1          -0.000008469    0.000003954   -0.000004437
     26        6           0.000002578    0.000000457    0.000017653
     27        1          -0.000001468   -0.000003681    0.000021224
     28        1          -0.000004602   -0.000003831    0.000010557
     29        1           0.000005032    0.000003214    0.000010928
     30        6          -0.000011005   -0.000020855    0.000019563
     31        1          -0.000005775   -0.000006026   -0.000001711
     32        1          -0.000007900   -0.000005418    0.000007503
     33        8           0.000003384   -0.000005898    0.000023543
     34        1          -0.000005000   -0.000001864    0.000007998
     35        1          -0.000000783   -0.000004998    0.000002965
     36        8          -0.000001140   -0.000003935    0.000007195
     37        1          -0.000008613    0.000004322   -0.000006824
     38        1          -0.000012323    0.000003621    0.000011151
 -------------------------------------------------------------------
 Cartesian Forces:  Max     0.000033494 RMS     0.000010935

 GradGradGradGradGradGradGradGradGradGradGradGradGradGradGradGradGradGrad
 Berny optimization.
 FormGI is forming the generalized inverse of G from B-inverse, IUseBI=4.
 Internal  Forces:  Max     0.000088289 RMS     0.000017675
 Search for a local minimum.
 Step number   1 out of a maximum of  219
 All quantities printed in internal units (Hartrees-Bohrs-Radians)
 Mixed Optimization -- En-DIIS/RFO-DIIS
 Second derivative matrix not updated -- first step.
 ITU=  0
[...]
 62,0.00035969,-0.00055489,0.00005912,0.00007675,0.00000989,-0.00023706
 ,0.00003661,0.00006127,0.00000881,0.00002210,-0.00000028,-0.00000837,-
 0.00001761,0.00000033,0.00002880,-0.00000281,0.00000439,-0.00004610,-0
 .00006822,0.00006498,-0.00014535,-0.00000762,-0.00001144,0.00000091,0.
 00001539,-0.00000888,0.00000507,0.00004263,0.00005744,0.00001292,-0.00
 002936,0.00057602,0.00015798,0.00029058,-0.00022535,-0.00013010,-0.001
 68788,-0.00028940,-0.00053724,-0.01074689,-0.03367576,-0.06153774,0.01
 171632,0.00012761,0.00022522,0.00015130,0.00030366,-0.00045027,-0.0002
 2822,0.00058196,0.00019650,0.00009670,-0.00009598,0.00007740,-0.000820
 87,0.00006014,-0.00084315,-0.00033407,-0.00030728,0.00008002,0.0000848
 1,-0.00001578,0.00003654,0.00000912,-0.00005052,0.00002311,0.00002054,
 0.00000731,0.00001960,0.00002913,-0.00002545,0.00004537,0.00002049,-0.
 00101757,0.00019775,0.00031857,0.00009125,0.00059979,0.00034939,0.0006
 5862,0.00031646,0.00003127,-0.00000226,-0.00002329,-0.00008192,-0.0001
 9931,-0.00038767,0.00052804,-0.00002566,-0.00003901,-0.00011802,0.0003
 0744,-0.00015717,-0.00008659,-0.00024706,-0.00015011,-0.00007841,-0.00
 033861,0.00011375,0.00010288,0.00009516,-0.00007325,-0.00005523,0.0000
 3837,-0.00000043,-0.00002979,0.00006532,-0.00003419,-0.00001830,0.0000
 2020,0.00000426,-0.00001587,-0.00001187,0.00001755,0.00002862,-0.00000
 542,0.00000599,0.00000057,0.00003311,-0.00003105,-0.00002962,-0.000005
 57,-0.00000086,0.00000017,0.00002259,0.00000964,0.00000454,-0.00000162
 ,0.00000696,0.00000121,-0.00003141,0.00001395,0.00005848,0.00011118,-0
 .00006834,-0.00004120,-0.00053023,0.00008003,0.00028757,-0.02496463,-0
 .15362821,-0.17426099,0.03202535,0.17919734,0.00004634,-0.00025035,-0.
 00006461,-0.00022107,-0.00002327,0.00009904,0.00027180,0.00090738,-0.0
 0018032,-0.00026540,0.00076236,-0.00052024,0.00006396,0.00015373,0.000
 10312,0.00019748,-0.00021991,-0.00011188,0.00001361,-0.00004212,-0.000
 02889,0.00004608,0.00000045,-0.00000820,-0.00002721,-0.00004010,-0.000
 00706,0.00001476,-0.00004258,-0.00002635,0.00220458,0.00240703,-0.0008
 5562,-0.00199112,0.00025164,0.00008453,0.00135568,-0.00051605,-0.00099
 583,-0.00007606,-0.00003378,0.00012185,-0.00023396,-0.00115163,-0.0008
 5204,0.00005235,0.00002701,0.00012940,-0.00182274,-0.00060607,-0.00012
 051,0.00083413,0.00021611,0.00018003,0.00074498,-0.00031662,-0.0001030
 5,0.00005059,-0.00013489,-0.00000231,-0.00000003,0.00005167,-0.0000584
 6,-0.00012644,0.00009508,0.00002875,-0.00003978,-0.00000531,0.00003586
 ,0.00001360,-0.00003860,-0.00005009,0.00000704,-0.00001087,-0.00001838
 ,-0.00008166,0.00008492,0.00002566,0.00000707,-0.00000502,-0.00000129,
 -0.00004467,-0.00002133,-0.00000926,0.00001513,0.00000563,-0.00000144,
 -0.00003203,0.00010780,-0.00016473,0.00000520,-0.00001575,-0.00001938,
 -0.00053482,0.00011301,0.00046570,-0.06127604,-0.22962669,-0.40556326,
 0.05999911,0.21582661,0.40320584,-0.00022763,-0.00009948,0.00002230,-0
 .00042415,0.00021216,0.00005334,0.00026447,0.00003408,-0.00047260,0.00
 032188,-0.00008519,0.00070068,-0.00014797,-0.00003676,-0.00014606,0.00
 036675,0.00000210,-0.00007425,-0.00001015,-0.00001853,0.00000449,0.000
 00929,-0.00000814,0.00001143,-0.00007627,-0.00018503,0.00009371,-0.000
 01593,-0.00001289,0.00003264,0.00034845,0.00018438,0.00036689,-0.00001
 840,-0.00048865,-0.00020469,0.00011565,0.00021022,0.00007500,-0.000013
 32,-0.00000066,0.00002928,-0.00007989,0.00010746,-0.00001376,-0.000028
 04,0.00000327,-0.00001071,-0.00029350,-0.00007489,-0.00041874,-0.00008
 630,0.00002239,0.00000369,-0.00016960,-0.00000481,0.00003065,0.0000702
 8,-0.00008812,-0.00004487,0.00005179,0.00001927,-0.00003235,0.00005210
 ,0.00000039,-0.00000393,0.00000814,-0.00000231,-0.00001266,-0.00000600
 ,0.00000245,0.00000988,-0.00000137,0.00000213,-0.00000877,-0.00000190,
 0.00000163,-0.00002838,0.00000193,-0.00000023,-0.00000324,0.00000958,0
 .00000113,0.00000072,0.00000801,0.00001294,0.00000198,-0.00029190,-0.0
 0040643,0.00012988,0.00015217,-0.00008040,-0.00006999,-0.00036427,0.00
 099189,0.00009988,-0.00382800,0.03312711,-0.01488601,-0.00004286,-0.00
 665782,0.00081055,0.00434880,0.00012281,-0.00023495,-0.00024558,-0.000
 40845,0.00034470,0.00024156,-0.00004473,-0.00019722,0.00082457,-0.0000
 2418,-0.00006796,0.00276000,-0.00085171,0.00016357,0.00026069,0.000817
 16,-0.00026253,-0.00072554,-0.00006594,-0.00000093,-0.00002435,0.00001
 975,0.00000211,-0.00004851,-0.00006339,-0.00006499,0.00002867,-0.00000
 445,0.00002718,-0.00000322,-0.00000426,0.00020640,0.00044955,-0.000183
 81,-0.00002742,-0.00027032,0.00008098,-0.00048590,-0.00009966,-0.00002
 241,-0.00003114,-0.00000475,0.00000663,-0.00027723,-0.00014597,0.00002
 222,0.00000788,0.00002027,0.00029833,-0.00007869,-0.00008071,0.0000779
 5,-0.00000747,0.00001165,-0.00001035,0.00004798,-0.00011410,-0.0001082
 1,0.00017927,-0.00000428,-0.00004244,-0.00001726,0.00007969,0.00000184
 ,-0.00002611,0.00000139,-0.00000490,-0.00000223,-0.00000394,0.00000168
 ,-0.00000201,-0.00000850,-0.00000060,-0.00000049,0.00001713,0.00002165
 ,-0.00002004,0.00004026,0.00000365,0.00000517,-0.00000148,-0.00000221,
 0.00000204,-0.00000127,-0.00001532,-0.00001807,-0.00000289,-0.00003034
 ,-0.00017744,0.00000016,-0.00012649,0.00008435,0.00006287,0.00095717,0
 .00001263,-0.00031409,0.02394639,-0.48785613,0.10507365,0.00230979,-0.
 02535635,0.01201407,-0.02667190,0.51411271,0.00008593,-0.00000426,-0.0
 0001645,-0.00018079,0.00007614,-0.00006132,-0.00110637,-0.00046991,-0.
 00037282,0.00033798,0.00072720,-0.00224065,0.00040792,0.00121573,0.000
 21756,-0.00016345,-0.00000522,0.00013883,0.00006156,-0.00006155,0.0000
 1009,0.00007690,-0.00003550,0.00000552,-0.00003718,-0.00000335,-0.0000
 0952,0.00004240,-0.00010310,-0.00003379,0.00162469,-0.00059579,-0.0000
 7277,-0.00071263,-0.00042572,-0.00041698,-0.00032649,-0.00017231,-0.00
 017893,0.00001907,0.00005397,0.00000871,0.00017232,0.00012530,-0.00018
 199,0.00001430,0.00003157,0.00005390,-0.00130456,0.00000589,0.00013665
 ,0.00051879,0.00025802,0.00013949,0.00069377,-0.00026074,-0.00006995,-
 0.00007193,0.00001765,0.00002373,-0.00002590,0.00003299,0.00000109,-0.
 00013489,0.00006581,0.00001917,-0.00003431,0.00000088,0.00003835,0.000
 01859,-0.00002353,-0.00004036,0.00001018,-0.00001020,-0.00000959,-0.00
 006493,0.00006293,0.00004483,0.00000973,-0.00000102,-0.00000050,-0.000
 04227,-0.00001786,-0.00000911,0.00000878,-0.00000547,-0.00000291,0.000
 08103,0.00002756,-0.00012007,-0.00005481,0.00003838,0.00001056,0.00005
 105,-0.00020047,-0.00001035,-0.01568853,0.16117345,-0.08036351,0.00174
 551,-0.04177933,0.00534077,0.01394183,-0.11978974,0.07807994,-0.000110
 73,-0.00016030,-0.00023347,-0.00030610,0.00012506,0.00002612,0.0002207
 9,0.00009446,-0.00004751,0.00005801,0.00039175,0.00010168,0.00023815,0
 .00028272,0.00092082,0.00027560,-0.00060014,0.00012877,-0.00006438,0.0
 0000731,-0.00001722,0.00000510,-0.00000854,0.00002297,-0.00108931,-0.0
 0035292,-0.00022389,-0.00001269,0.00000564,0.00006058,-0.00056721,0.00
 094824,-0.00050264,0.00017352,0.00004818,0.00003358,0.00025183,0.00008
 650,-0.00003803,-0.00002918,-0.00007309,-0.00002436,-0.00005509,-0.000
 07032,0.00000602,0.00000983,-0.00000667,0.00000204,0.00245495,0.000319
 01,0.00004266,-0.00006370,-0.00005545,-0.00002360,-0.00096910,-0.00083
 469,0.00089264,0.00050378,-0.00024561,-0.00004924,-0.00000933,-0.00006
 193,0.00003965,0.00034418,0.00029298,0.00098686,-0.00009499,0.00028393
 ,-0.00018266,-0.00010748,0.00051903,-0.00015952,-0.00035804,-0.0001265
 1,-0.00122437,-0.00136246,-0.00112471,0.00019798,-0.00005899,0.0004000
 3,-0.00037764,-0.00008082,0.00067345,-0.00043330,0.00023125,0.00144618
 ,-0.00046504,-0.00001690,0.00020817,-0.00010562,0.00001948,0.00000610,
 -0.00005680,-0.00001831,0.00001096,0.00000279,0.00003159,-0.00005305,0
 .00007264,-0.00001328,0.00004107,-0.00003575,-0.00000550,0.00002785,-0
 .00008385,0.35647558,-0.00011716,-0.00006698,-0.00000304,-0.00004133,0
 .00014962,0.00004694,0.00012985,-0.00004615,-0.00000494,-0.00030036,-0
 .00014848,0.00007551,-0.00052207,-0.00010480,-0.00026893,0.00017484,0.
 00009724,0.00012446,-0.00001484,0.00001505,0.00000060,-0.00002411,0.00
 000963,-0.00000089,0.00017138,-0.00031789,0.00026477,-0.00001681,0.000
 03584,-0.00001533,0.00568056,0.00276839,0.00006461,0.00007417,0.000150
 39,0.00007797,-0.00080517,-0.00075457,-0.00037803,0.00003311,0.0001506
 6,0.00001542,0.00034015,0.00010073,0.00001986,-0.00007117,-0.00003917,
 -0.00000657,-0.00303211,-0.00597668,0.00470154,-0.00036398,-0.00010722
 ,-0.00005871,-0.00214055,0.00124727,-0.00106609,0.00009690,0.00030792,
 0.00008671,0.00005287,-0.00010525,0.00003052,0.00098891,0.00022083,-0.
 00205095,0.00022242,-0.00095493,0.00042421,0.00011998,-0.00079740,0.00
 039317,-0.00046211,-0.00171377,0.00162561,0.00029358,0.00057306,-0.000
 19111,0.00007234,-0.00018632,0.00024155,0.00013354,-0.00015683,0.00016
 269,-0.00003654,-0.00097447,0.00033824,0.00001822,-0.00026823,0.000178
 80,-0.00002734,-0.00007191,0.00006135,0.00004110,0.00001304,-0.0001091
 9,-0.00012019,-0.00001238,0.00015330,0.00008778,0.00005193,-0.00010358
 ,0.00003622,-0.00002705,-0.00009573,0.12396521,0.33340932,0.00004950,-
 0.00006572,0.00016484,0.00024915,-0.00003263,0.00001747,0.00001234,0.0
 0005800,-0.00000912,0.00058821,-0.00046789,0.00006493,-0.00069673,-0.0
 0021447,-0.00179126,0.00019570,0.00053075,0.00007129,0.00010366,-0.000
 00643,0.00001355,0.00001318,0.00001094,-0.00002415,0.00043984,0.000380
 12,0.00144552,0.00000856,-0.00001766,-0.00009511,-0.00338905,-0.001277
 26,-0.00083677,-0.00021535,-0.00008690,-0.00003981,0.00052792,0.000632
 79,0.00028618,0.00000985,-0.00001304,-0.00003575,-0.00014449,-0.000015
 93,0.00004787,0.00005373,0.00003689,0.00001173,0.00161206,0.00611898,-
 0.00208259,0.00036305,0.00014318,0.00007434,0.00216404,-0.00151149,-0.
 00082249,-0.00021481,0.00019860,0.00040490,-0.00006920,0.00014030,-0.0
 0009201,0.00021245,0.00016401,-0.00063155,0.00002785,-0.00026826,0.000
 28416,0.00006651,-0.00021731,0.00015916,-0.00072677,0.00004337,0.00023
 564,-0.00140872,-0.00051983,0.00051347,0.00003946,0.00024755,-0.000177
 10,-0.00016001,0.00053118,-0.00040498,0.00058634,0.00095004,-0.0009158
 3,-0.00000119,0.00006542,-0.00003990,-0.00003962,0.00000814,-0.0000420
 8,-0.00001204,-0.00000947,0.00009363,0.00007174,0.00005455,-0.00017225
 ,-0.00006229,-0.00007415,0.00011435,-0.00002602,-0.00001605,0.00015123
 ,0.20270687,-0.23689132,0.46766292,0.00000380,0.00004539,0.00001968,0.
 00003571,-0.00002799,0.00000201,-0.00004629,-0.00002799,-0.00004780,-0
 .00003467,-0.00002138,-0.00002264,0.00016277,-0.00001080,0.00013413,-0
 .00010714,0.00007454,-0.00011892,0.00000300,-0.00000262,0.00000187,-0.
 00000025,0.00000039,-0.00000280,0.00014939,0.00009988,-0.00028306,-0.0
 0000057,-0.00000263,0.00000802,0.00063401,0.00016591,0.00004267,-0.000
 03583,0.00001962,0.00001905,-0.00011666,-0.00008758,-0.00004869,0.0000
 0384,0.00001511,0.00000343,0.00005959,0.00001496,-0.00000105,-0.000005
 71,-0.00000110,-0.00000029,-0.00039695,-0.00096617,0.00051334,-0.00001
 005,0.00000319,-0.00000188,-0.00029082,0.00011233,-0.00022017,0.000060
 62,0.00005143,0.00004664,0.00000161,-0.00000948,0.00000323,0.00015115,
 0.00007248,-0.00009231,0.00003201,-0.00011738,0.00005139,0.00000697,-0
 .00006958,0.00004200,-0.00047638,0.00038684,0.00007635,-0.00030097,-0.
 00031998,0.00011029,-0.00001656,0.00009031,-0.00004406,0.00001248,0.00
 006747,-0.00004467,0.00033010,0.00024385,-0.00007893,-0.00000147,-0.00
 002057,0.00001629,-0.00000830,-0.00000993,-0.00000245,0.00000533,0.000
 00280,-0.00000406,-0.00000606,0.00000719,-0.00000702,0.00000418,-0.000
 00380,-0.00000054,0.00000250,-0.00000371,0.00000637,-0.29732298,-0.014
 53313,-0.27242771,0.29313129,0.00004328,0.00002810,0.00002274,0.000027
 59,-0.00004879,-0.00000879,-0.00009462,-0.00001403,-0.00003510,-0.0000
 4818,-0.00003127,0.00011726,0.00002392,0.00011880,-0.00022507,-0.00004
 247,-0.00000280,-0.00001688,0.00000640,-0.00000270,-0.00000005,0.00000
 444,-0.00000106,-0.00000270,-0.00003491,-0.00010865,0.00032118,0.00000
 137,-0.00000915,-0.00000514,-0.00007580,-0.00035583,0.00014996,-0.0000
 5242,0.00000175,0.00000965,-0.00005713,-0.00001949,-0.00003431,-0.0000
 0035,-0.00000933,0.00001341,0.00002375,-0.00000994,-0.00002043,0.00000
 400,0.00000420,-0.00000022,-0.00030913,-0.00062167,0.00018617,0.000050
 97,0.00001980,0.00000907,0.00000797,0.00031991,0.00010547,-0.00001044,
 -0.00006780,-0.00006977,0.00000146,0.00000395,0.00000369,-0.00013603,-
 0.00025302,0.00011088,-0.00003375,0.00015347,-0.00010474,0.00000392,0.
 00004678,-0.00004832,0.00041916,-0.00020607,0.00012264,0.00028387,0.00
 009011,0.00006255,-0.00000312,-0.00003804,0.00001841,-0.00000041,-0.00
 010204,0.00007668,0.00026419,-0.00040927,0.00017463,-0.00000443,0.0000
 2387,-0.00001957,0.00000617,0.00001039,-0.00000219,-0.00000210,0.00000
 057,0.00000620,0.00001433,0.00001006,-0.00003495,-0.00000923,-0.000013
 38,0.00001520,-0.00000428,0.00000417,0.00002106,-0.04484927,-0.0280898
 6,-0.01532618,0.01853543,0.02957239,-0.00004563,-0.00006725,-0.0000752
 4,-0.00013115,0.00006451,0.00001208,0.00011227,0.00004246,0.00002019,0
 .00001715,0.00016336,0.00002712,-0.00004195,0.00004320,-0.00001458,0.0
 0011528,-0.00019141,0.00014788,-0.00002867,0.00000543,-0.00000311,-0.0
 0000404,-0.00000040,0.00000507,-0.00013769,-0.00011631,-0.00018267,-0.
 00000427,0.00001100,0.00000665,0.00035418,0.00058824,-0.00009119,0.000
 10271,0.00001114,0.00000450,0.00003000,-0.00005912,-0.00004406,-0.0000
 0194,0.00000386,-0.00000967,-0.00001844,-0.00000606,0.00001378,-0.0000
 0769,-0.00000862,-0.00000062,0.00009756,-0.00014970,0.00016142,-0.0001
 0004,-0.00004489,-0.00002246,-0.00029567,0.00034364,-0.00014037,0.0000
 1803,0.00003633,-0.00000819,0.00000602,-0.00001725,0.00000798,0.000086
 22,-0.00011755,-0.00015456,0.00002625,-0.00004901,0.00000905,-0.000007
 45,-0.00003570,0.00001902,0.00001756,0.00026292,0.00033153,0.00011075,
 -0.00017562,0.00021853,0.00001509,-0.00005770,0.00004835,0.00004728,-0
 .00002794,0.00002417,-0.00041754,0.00020954,-0.00042635,0.00000418,-0.
 00003411,0.00002449,0.00000386,-0.00000736,0.00000792,0.00000112,-0.00
 000153,-0.00001818,-0.00002057,-0.00002694,0.00006695,0.00001564,0.000
 02947,-0.00003264,0.00000591,0.00000390,-0.00005364,-0.23889868,0.0142
 9845,-0.25318028,0.26396803,-0.01132551,0.27376987,0.00018480,0.000091
 72,0.00019234,0.00027761,-0.00013023,-0.00005187,-0.00029178,-0.000127
 52,-0.00001726,-0.00024545,-0.00043165,-0.00040761,-0.00113962,-0.0002
 2847,0.00036889,-0.00012053,0.00052775,-0.00013063,0.00008574,-0.00000
 388,0.00001616,0.00001153,0.00000119,-0.00001714,0.00021257,0.00058046
 ,0.00153031,0.00002839,-0.00003346,-0.00003789,-0.00004198,-0.00313222
 ,0.00167606,-0.00026011,0.00007742,-0.00002152,-0.00046906,-0.00009049
 ,-0.00015896,0.00003787,0.00007872,0.00006764,0.00020119,0.00004321,-0
 .00003056,-0.00000682,0.00001062,0.00000050,-0.00395984,-0.00018702,0.
 00007248,0.00015707,0.00008869,0.00004824,0.00101892,0.00288965,-0.001
 58675,-0.00074011,0.00033305,0.00005147,0.00001166,0.00007550,-0.00005
 446,-0.00012771,0.00031251,-0.00036959,0.00006503,-0.00027130,0.000152
 96,0.00007830,-0.00041773,0.00002006,-0.00051201,0.00049246,0.00111733
 ,0.00072067,0.00113002,-0.00094518,0.00004190,-0.00027974,0.00027387,0
 .00014254,-0.00071654,0.00047563,-0.00244420,-0.00096171,0.00017212,0.
 00002533,-0.00025354,0.00013164,-0.00001805,0.00000031,0.00006746,0.00
 001216,-0.00001793,0.00000104,-0.00002317,0.00006906,-0.00011265,0.000
 00714,-0.00005250,0.00005527,0.00000118,-0.00002602,0.00010418,-0.0585
 7708,-0.11010415,0.06949197,0.00438734,0.02604587,-0.02499369,0.061268
 58,-0.00001522,-0.00002797,-0.00013647,-0.00008553,-0.00006733,-0.0000
 2046,-0.00010536,-0.00001352,-0.00007503,0.00086286,0.00029711,-0.0003
 7605,0.00075010,0.00053631,0.00153473,-0.00007417,-0.00044734,-0.00021
 536,-0.00001594,-0.00002904,-0.00001815,0.00004324,-0.00001717,0.00000
 596,-0.00014101,0.00045694,-0.00137235,0.00003287,-0.00007654,0.000073
 34,-0.01125016,-0.00566857,0.00047253,-0.00010381,-0.00005889,-0.00007
 226,0.00145120,0.00136871,0.00045868,-0.00000316,-0.00014530,-0.000018
 65,-0.00045162,-0.00020092,-0.00002624,0.00012145,0.00006443,0.0000236
 0,0.00382802,0.00341826,-0.00205297,0.00063659,0.00017104,0.00009677,0
 .00609722,-0.00462976,0.00111410,-0.00060989,-0.00000787,0.00023672,-0
 .00010734,0.00029030,-0.00015706,-0.00072292,-0.00060128,0.00009491,-0
 .00019914,0.00042000,0.00012885,0.00006413,0.00015075,-0.00007520,0.00
 113810,0.00005678,-0.00124750,0.00032378,0.00039378,0.00031897,-0.0000
 1911,0.00001891,-0.00009161,-0.00032761,-0.00012171,-0.00010898,-0.000
 30862,0.00058617,-0.00004944,-0.00002572,0.00024413,-0.00018338,0.0000
 0232,0.00008499,-0.00006127,-0.00005719,-0.00003789,0.00018355,0.00015
 165,0.00002006,-0.00021717,-0.00011928,-0.00006242,0.00016483,-0.00004
 470,0.00003944,0.00012628,-0.08156062,-0.29838057,0.24671719,-0.003773
 30,0.00000586,-0.00359747,0.08461789,0.30197011,-0.00005074,0.00018211
 ,0.00000724,-0.00011956,-0.00003892,-0.00001954,-0.00006323,-0.0000931
 2,0.00007867,-0.00062360,0.00061845,-0.00016086,0.00142145,0.00055780,
 0.00009284,-0.00045964,-0.00040709,-0.00011047,-0.00010583,0.00000226,
 -0.00000989,-0.00002687,-0.00000325,0.00000794,0.00126850,-0.00107649,
 -0.00237448,-0.00003117,0.00005002,0.00004311,0.00567260,0.00181957,0.
 00114695,0.00020574,0.00001471,0.00002298,-0.00095421,-0.00087996,-0.0
 0035063,-0.00000648,0.00001038,0.00004423,0.00014947,0.00002040,-0.000
 10290,-0.00008686,-0.00004781,-0.00002070,-0.00146443,-0.00313577,-0.0
 0173501,-0.00045862,-0.00016632,-0.00008529,-0.00396921,0.00164751,0.0
 0184880,0.00071460,-0.00038797,-0.00048813,0.00008857,-0.00024658,0.00
 016445,-0.00009288,-0.00038561,0.00106715,-0.00003808,0.00040577,-0.00
 047595,-0.00008834,0.00028183,-0.00016085,0.00100107,-0.00053297,-0.00
 100561,0.00007874,-0.00002941,-0.00068077,-0.00015757,0.00009702,-0.00
 022159,0.00019994,-0.00010230,0.00009297,-0.00024498,-0.00021467,0.000
 82933,-0.00000730,-0.00000890,0.00001881,0.00003786,-0.00002268,0.0000
 2772,0.00001385,0.00002679,-0.00011668,-0.00007811,-0.00005605,0.00018
 303,0.00007210,0.00007311,-0.00013905,0.00003228,0.00001486,-0.0001552
 0,0.03693851,0.21785814,-0.21042415,0.00838426,0.02573308,-0.02046873,
 -0.04715184,-0.24157793,0.23363028\\0.00000121,-0.00000174,-0.00000115
 ,0.00000066,-0.00000010,0.00000346,-0.00000963,-0.00001169,0.00000482,
 0.00001025,0.00000449,0.00001512,0.00000283,0.00000752,-0.00000663,-0.
 00000960,0.00000684,0.00000217,-0.00000379,-0.00001111,0.00000276,-0.0
 0000173,-0.00001066,0.00000948,-0.00000652,0.00000312,-0.00000227,0.00
 000438,-0.00000725,-0.00000715,0.00000670,-0.00001308,0.00001330,0.000
 00533,-0.00000198,-0.00000170,0.00000186,-0.00000754,-0.00000813,-0.00
 000267,-0.00000158,0.00000738,-0.00000236,-0.00000364,0.00000729,0.000
 01141,-0.00000104,0.00001056,-0.00002209,0.00002235,-0.00003418,-0.000
 00093,-0.00000916,0.00001023,-0.00000082,-0.00000364,-0.00000342,0.000
 00844,0.00000737,0.00000146,0.00000493,-0.00000102,0.00000028,0.000016
 25,0.00000056,-0.00000032,-0.00000053,-0.00000063,-0.00001112,-0.00000
 439,0.00000217,-0.00000190,-0.00001305,-0.00000026,-0.00000439,-0.0000
 0220,-0.00000824,0.00000141,-0.00000163,0.00000773,-0.00000492,0.00000
 149,0.00001189,-0.00000928,0.00000225,0.00001130,-0.00001115,0.0000021
 6,0.00000966,-0.00000141,0.00000954,0.00000580,0.00000081,0.00001652,0
 .00000640,-0.00000456,-0.00000547,0.00000380,0.00002589,0.00000302,0.0
 0000351,0.00000481,-0.00000201,-0.00001495,0.00000362,-0.00000646,-0.0
 0000871,0.00000425,-0.00001677,-0.00000078,-0.00001310,0.00000342,0.00
 000427,-0.00000231\\\@


 THE FIRST AND LAST THING REQUIRED OF GENIUS IS THE LOVE OF TRUTH.

                          -- GOETHE
 Job cpu time:       0 days  2 hours 23 minutes  8.7 seconds.
 File lengths (MBytes):  RWF=    616 Int=      0 D2E=      0 Chk=     21 Scr=      1
 Normal termination of Gaussian 09 at Wed Sep  9 12:51:08 2020.
